Membrane in water
40344
    1TMC1    C1    1   3.221   1.980  12.078  0.5524 -0.8453 -0.5282
    1TMC1    C2    2   3.240   1.998  12.210 -0.6067 -0.2620  0.2948
    1TMC1    C3    3   3.272   1.896  12.289  0.4177 -0.3977 -0.4618
    1TMC1    C4    4   3.214   1.854  12.027  0.2005 -0.9070  0.6156
    1TMC1    C5    5   3.248   1.753  12.110  0.0121 -0.4958 -0.9173
    1TMC1    C6    6   3.289   1.773  12.240 -0.6348 -0.0224  0.2352
    1TMC1     C    7   3.151   2.080  11.998  0.2292 -0.5063 -0.7354
    1TMC1     O    8   3.093   2.168  12.062 -0.6182  0.0296 -0.6241
    1TMC1     H    9   3.210   2.091  12.256 -0.7025  0.0879 -0.4837
    1TMC1    H1   10   3.169   1.840  11.929  0.6974  3.0884 -0.1765
    1TMC1    H2   11   3.324   1.692  12.303  1.6781  1.5512  0.9823
    1TMC1    C7   12   3.283   1.636  12.029  0.2899 -0.2874 -0.3188
    1TMC1    C8   13   3.313   1.909  12.427  0.5163  0.5562 -0.3433
    1TMC1    O1   14   3.280   1.629  11.908 -0.1884  0.7570  0.2008
    1TMC1    O2   15   3.328   1.812  12.499 -0.2790  0.9635 -0.3921
    1TMC1    O3   16   3.337   1.537  12.109 -0.1314  0.2994 -0.0920
    1TMC1    H3   17   3.334   1.557  12.205 -0.5150  1.8821 -0.4301
    1TMC1    O5   18   3.360   2.030  12.445  0.0285 -0.0315  0.2157
    1TMC1    H5   19   3.380   2.089  12.369 -0.6586  0.4240  0.3916
    2MPD2     C   20   2.977   2.238  11.553  0.8565 -0.3843  0.1932
    2MPD2    C1   21   2.939   2.264  11.682  0.0910 -0.4990 -0.1762
    2MPD2    C2   22   3.012   2.218  11.786  0.0934 -0.4476  0.4099
    2MPD2    C3   23   3.121   2.141  11.763 -0.2815  0.2655  0.5040
    2MPD2    C4   24   3.161   2.111  11.633  0.0755 -0.7119 -1.1159
    2MPD2    C5   25   3.084   2.155  11.531 -0.1495  0.4090 -0.4682
    2MPD2     H   26   2.962   2.223  11.881 -2.0454 -2.0991 -0.6244
    2MPD2    H1   27   3.239   2.039  11.610  0.1045 -0.6501 -1.2125
    2MPD2    H2   28   2.923   2.285  11.471  0.2179 -0.7087  0.4291
    2MPD2    H3   29   3.096   2.129  11.426  2.5264 -0.8034  0.1354
    2MPD2     N   30   3.179   2.062  11.858 -0.0171 -0.1380  0.3176
    2MPD2    H5   31   3.251   1.994  11.838  0.6206  1.1821 -1.8914
    2MPD2    N1   32   2.821   2.339  11.728  0.0364 -0.0196  0.0888
    2MPD2    H7   33   2.813   2.363  11.826 -0.7920 -0.8532  0.2174
    3TMC1    C1   34   3.000   2.770  11.070  0.4108 -0.2091  0.5013
    3TMC1    C2   35   3.058   2.894  11.057  0.2366 -0.5885 -0.6071
    3TMC1    C3   36   3.187   2.921  11.101  0.0581 -0.6250  0.2342
    3TMC1    C4   37   3.056   2.673  11.144 -0.3508  0.0266 -0.0015
    3TMC1    C5   38   3.180   2.705  11.206  0.3919 -0.0935  0.0952
    3TMC1    C6   39   3.249   2.819  11.171 -0.4816  0.3078  0.3723
    3TMC1     C   40   2.863   2.749  11.028 -0.6555  0.5603 -0.2055
    3TMC1     O   41   2.824   2.636  11.027  0.4353  0.4577 -0.0018
    3TMC1     H   42   3.013   2.973  10.998  0.4591  0.5692  0.7469
    3TMC1    H1   43   3.003   2.582  11.165 -0.1332 -0.0862  0.0605
    3TMC1    H2   44   3.346   2.830  11.220 -1.2779 -0.0345  2.0435
    3TMC1    C7   45   3.258   2.605  11.273 -0.3878 -0.7166 -0.1450
    3TMC1    C8   46   3.271   3.005  11.024  0.1751  0.3208  0.3274
    3TMC1    O1   47   3.375   2.597  11.250  0.3089 -0.0261 -0.8577
    3TMC1    O2   48   3.244   3.045  10.909 -1.2451 -0.4814 -0.5196
    3TMC1    O3   49   3.182   2.531  11.354 -0.2897  0.3512 -0.4081
    3TMC1    H3   50   3.091   2.565  11.371 -0.1843 -0.8787  2.7082
    3TMC1    O5   51   3.365   3.059  11.105  0.6530 -0.0804 -0.1658
    3TMC1    H5   52   3.360   3.018  11.194 -0.3277  0.3097 -0.0382
    4MPD2     C   53   2.390   2.933  10.923  0.3470 -0.8016 -0.0790
    4MPD2    C1   54   2.491   3.030  10.905  0.7900  0.0830 -0.0509
    4MPD2    C2   55   2.619   2.999  10.943  0.1862 -1.0110  0.4837
    4MPD2    C3   56   2.663   2.876  10.977  0.1993 -0.3739 -0.4282
    4MPD2    C4   57   2.567   2.776  10.975 -0.1198 -0.3699  0.0394
    4MPD2    C5   58   2.433   2.808  10.952  0.4055 -0.1251  0.5789
    4MPD2     H   59   2.685   3.084  10.941  0.2052 -1.0568 -0.9612
    4MPD2    H1   60   2.583   2.672  11.001 -0.9168 -0.6189 -0.4411
    4MPD2    H2   61   2.285   2.952  10.908  0.6369  1.5513  0.8212
    4MPD2    H3   62   2.356   2.731  10.952  1.2368 -0.9571 -1.2742
    4MPD2     N   63   2.797   2.867  11.010 -0.2803  0.9568  0.0914
    4MPD2    H5   64   2.839   2.959  11.017  1.9089 -0.1349  1.2598
    4MPD2    N1   65   2.479   3.166  10.854  0.5053 -0.3133 -0.8288
    4MPD2    H7   66   2.560   3.226  10.840 -0.0389  1.1493  2.5798
    5TCq1    O1   67   3.604   4.386  12.334 -0.1430  0.0730  0.2601
    5TCq1    C1   68   3.545   4.365  12.216  0.4682 -0.4091 -0.0822
    5TCq1    O2   69   3.596   4.327  12.111 -0.0767 -0.0064  0.0557
    5TCq1    C2   70   3.403   4.412  12.210 -0.1100 -0.2387  0.2162
    5TCq1    C3   71   3.323   4.435  12.320  0.5993  0.5273  0.1342
    5TCq1    C4   72   3.194   4.485  12.308  0.6081  0.0929 -0.2299
    5TCq1    C5   73   3.145   4.513  12.179  0.2923 -0.2254 -0.2657
    5TCq1    C6   74   3.225   4.488  12.072  0.0603  0.3654 -0.7327
    5TCq1    C7   75   3.349   4.434  12.082  0.0874 -0.5475  0.3792
    5TCq1    C8   76   3.193   4.542  11.943 -0.0656  0.2312  0.2736
    5TCq1    O4   77   3.260   4.513  11.851  0.1859 -1.0113 -0.1728
    5TCq1    C9   78   3.120   4.524  12.428 -0.3261  0.3498 -1.2499
    5TCq1    O5   79   3.177   4.508  12.536  0.5221 -0.4788  0.4566
    5TCq1    O6   80   3.004   4.571  12.407 -0.4439 -0.1312  0.3338
    5TCq1    H1   81   3.547   4.422  12.405 -2.0689 -0.6390 -0.9405
    5TCq1    H2   82   3.361   4.416  12.420 -2.7986 -2.2032  0.9139
    5TCq1    H3   83   3.046   4.556  12.165 -0.3892 -1.5633  0.4107
    5TCq1    H4   84   3.415   4.423  11.997 -1.1646 -1.4733 -0.4773
    6MPD2     C   85   2.957   0.069  11.853 -0.0566  1.0083 -0.7214
    6MPD2    C1   86   3.040   4.696  11.823 -0.7791 -0.4162  0.6333
    6MPD2    C2   87   3.063   4.654  11.694 -0.3250  0.3231  0.6511
    6MPD2    C3   88   3.021   0.003  11.588 -0.5217  0.0377 -1.0262
    6MPD2    C4   89   2.940   0.114  11.616 -0.1281 -0.7043 -0.6806
    6MPD2    C5   90   2.898   0.137  11.745  0.0981  0.5842  0.2924
    6MPD2     H   91   3.117   4.564  11.668  0.2942  0.9998 -0.4360
    6MPD2    H1   92   2.897   0.178  11.540  1.7055  0.7213 -0.5010
    6MPD2    H2   93   2.925   0.101  11.951 -2.4329 -2.0061 -0.5196
    6MPD2    H3   94   2.815   0.207  11.751 -1.2824 -1.1305  0.9806
    6MPD2     N   95   3.045   4.709  11.450 -0.4415  0.2893  0.0587
    6MPD2    H5   96   3.104   4.628  11.432  1.3072  1.9936 -1.8044
    6MPD2    N1   97   3.089   4.634  11.941 -0.4166  0.1489 -0.3005
    6MPD2    H7   98   3.049   4.672  12.025  1.9998  1.8982  0.0675
    7TCq1    O1   99   4.672   3.586  12.686  0.6725  0.3980 -0.1281
    7TCq1    C1  100   4.602   3.701  12.692  0.7036  0.5196  0.4019
    7TCq1    O2  101   4.578   3.778  12.600 -0.0375  0.2110  0.3496
    7TCq1    C2  102   4.635   3.748  12.823  0.7697  0.4887 -1.5996
    7TCq1    C3  103   4.651   3.879  12.854  1.0005 -1.1064 -0.9131
    7TCq1    C4  104   4.670   3.918  12.980  0.1602 -0.4959  0.2463
    7TCq1    C5  105   4.659   3.828  13.086  0.4122  0.3184 -0.3057
    7TCq1    C6  106   4.622   3.706  13.052  0.7510  0.2903 -0.8523
    7TCq1    C7  107   4.604   3.663  12.924 -0.1288  0.5087  0.5430
    7TCq1    C8  108   4.656   3.601  13.147  0.6489 -0.5890 -0.1468
    7TCq1    O4  109   4.675   3.487  13.102  0.1132  0.3420 -0.0413
    7TCq1    C9  110   4.690   4.060  13.009  0.3379  0.7426 -0.2946
    7TCq1    O5  111   4.693   4.138  12.907 -0.1795 -0.4324 -0.6168
    7TCq1    O6  112   4.668   4.093  13.132  0.4176 -0.0023  0.6384
    7TCq1    H1  113   4.696   3.561  12.778 -0.6893  0.7246  0.3231
    7TCq1    H2  114   4.669   3.950  12.773  1.6567 -0.1606  0.0613
    7TCq1    H3  115   4.671   3.865  13.187 -0.8293 -0.3308  0.0793
    7TCq1    H4  116   4.571   3.561  12.904 -0.4647  0.7600 -0.1842
    8MPD2     C  117   0.114   3.434  13.588  0.0513  0.5998 -0.0823
    8MPD2    C1  118   0.142   3.396  13.459 -0.0744 -0.5727 -0.3795
    8MPD2    C2  119   0.083   3.466  13.356 -0.4695  0.9492 -0.2373
    8MPD2    C3  120   4.726   3.565  13.379  0.2541  0.0871  0.5322
    8MPD2    C4  121   4.692   3.595  13.510  0.2249 -0.3591 -0.1019
    8MPD2    C5  122   0.017   3.529  13.613  0.2014  0.2665  0.7147
    8MPD2     H  123   0.113   3.429  13.259  0.9878  0.3397  0.4441
    8MPD2    H1  124   4.607   3.655  13.538  1.5842  0.7011  1.7109
    8MPD2    H2  125   0.162   3.387  13.673  0.6749  2.1789  0.4437
    8MPD2    H3  126   4.722   3.559  13.712  0.7545  0.7657  0.7393
    8MPD2     N  127   4.667   3.640  13.279 -0.3871 -0.5033 -0.2012
    8MPD2    H5  128   4.622   3.723  13.315 -0.0483 -1.3007  2.0452
    8MPD2    N1  129   0.247   3.307  13.449 -0.2585 -0.0271  0.3748
    8MPD2    H7  130   0.283   3.271  13.536 -0.9381  0.9143  1.0424
    9TMC1    C1  131   3.318   4.196  11.022 -0.7848  0.0081 -0.0324
    9TMC1    C2  132   3.347   4.264  10.902  0.7472  0.5722 -0.3943
    9TMC1    C3  133   3.478   4.271  10.864  0.1828  0.6169  0.6185
    9TMC1    C4  134   3.418   4.145  11.099 -0.1383 -0.4433 -0.3774
    9TMC1    C5  135   3.547   4.170  11.054 -0.1869 -0.1149  0.3462
    9TMC1    C6  136   3.580   4.222  10.934  0.2126 -0.1460 -0.3823
    9TMC1     C  137   3.187   4.198  11.071 -0.1199  0.0545 -0.6253
    9TMC1     O  138   3.121   4.286  11.019 -0.3252  0.0303  0.2548
    9TMC1     H  139   3.271   4.300  10.834 -1.2660 -0.2985  1.3502
    9TMC1    H1  140   3.387   4.112  11.198 -1.6354  3.5854  0.4960
    9TMC1    H2  141   3.684   4.243  10.910 -0.2354 -0.4038 -2.6069
    9TMC1    C7  142   3.653   4.098  11.119  0.2879  0.6566 -0.3351
    9TMC1    C8  143   3.503   4.362  10.757 -0.0266 -0.1581  0.5278
    9TMC1    O1  144   3.774   4.120  11.104 -0.3311 -0.0093  0.3103
    9TMC1    O2  145   3.414   4.435  10.724  0.1260  0.0802  0.8859
    9TMC1    O3  146   3.604   3.971  11.121 -0.4713 -0.3772  0.2688
    9TMC1    H3  147   3.506   3.963  11.121 -0.5363  0.5019 -1.1339
    9TMC1    O5  148   3.607   4.316  10.685 -0.3325  0.0532  0.4284
    9TMC1    H5  149   3.669   4.244  10.711 -0.5714 -0.7205 -1.0855
   10MPD2     C  150   2.917   4.158  11.170 -0.2003  0.0099 -0.2962
   10MPD2    C1  151   3.022   4.078  11.199  0.3511 -0.3252  0.9757
   10MPD2    C2  152   2.996   3.949  11.239  0.4702  0.5806 -0.2319
   10MPD2    C3  153   2.869   3.913  11.285 -0.0747  0.3150 -0.4460
   10MPD2    C4  154   2.763   3.993  11.262  0.0445  0.0016 -0.8660
   10MPD2    C5  155   2.788   4.117  11.200  0.4379  0.4549 -0.4838
   10MPD2     H  156   3.078   3.880  11.249  0.0185 -0.4054 -3.4181
   10MPD2    H1  157   2.662   3.964  11.289  0.7140 -0.4926  1.1418
   10MPD2    H2  158   2.931   4.256  11.126 -5.7104  0.9198 -0.0678
   10MPD2    H3  159   2.705   4.183  11.179  0.3405  0.4441 -0.1276
   10MPD2     N  160   2.853   3.795  11.360  0.4460  0.0821 -0.2733
   10MPD2    H5  161   2.759   3.772  11.390  0.2081  1.2348 -0.1689
   10MPD2    N1  162   3.156   4.102  11.156  0.6237 -0.1026  0.0960
   10MPD2    H7  163   3.221   4.025  11.155  0.7783  0.0335 -0.1576
   11TCq1    O1  164   3.223   3.166  13.866 -0.2503 -0.0350 -0.0643
   11TCq1    C1  165   3.244   3.267  13.951  0.4375  0.7715  0.2307
   11TCq1    O2  166   3.235   3.387  13.934 -0.5022 -0.1428 -0.2539
   11TCq1    C2  167   3.260   3.211  14.085 -0.6551 -0.0704  0.5483
   11TCq1    C3  168   3.374   3.242  14.151 -0.0178  0.8107  0.4434
   11TCq1    C4  169   3.401   3.174  14.264 -0.4582 -0.2475  0.5520
   11TCq1    C5  170   3.304   3.101  14.319 -0.3096  0.5100 -0.4092
   11TCq1    C6  171   3.186   3.073  14.256  0.1571 -0.2211  0.4785
   11TCq1    C7  172   3.167   3.122  14.129  0.3367 -0.8870  0.2656
   11TCq1    C8  173   3.087   2.990  14.319  0.2886  0.1543 -1.0374
   11TCq1    O4  174   3.082   3.001  14.438  0.2651  0.6044 -0.2343
   11TCq1    C9  175   3.521   3.202  14.339 -0.0070 -0.4243 -0.4740
   11TCq1    O5  176   3.557   3.107  14.413  0.1733 -0.5473  0.5930
   11TCq1    O6  177   3.590   3.302  14.312 -0.5404 -0.3900 -0.0688
   11TCq1    H1  178   3.273   3.084  13.889 -2.0473 -1.1499 -0.1769
   11TCq1    H2  179   3.450   3.303  14.104  0.2868 -1.5712 -2.1667
   11TCq1    H3  180   3.327   3.059  14.416  0.5017  0.2895 -0.6983
   11TCq1    H4  181   3.074   3.099  14.078 -0.2583 -0.4988  1.1833
   12MPD2     C  182   2.929   2.753  14.394 -0.3917  0.3390 -0.1629
   12MPD2    C1  183   2.954   2.793  14.262  0.5813 -0.1852  0.4782
   12MPD2    C2  184   2.903   2.724  14.153 -1.0061 -0.2633  0.2381
   12MPD2    C3  185   2.817   2.621  14.181 -0.2142  0.0625 -0.5414
   12MPD2    C4  186   2.797   2.574  14.309  0.3690 -0.1104 -0.1024
   12MPD2    C5  187   2.852   2.639  14.415 -0.1414 -0.1761  0.2622
   12MPD2     H  188   2.911   2.765  14.053 -0.1827  0.3432  0.5529
   12MPD2    H1  189   2.734   2.487  14.327  0.0482  0.3636  1.1272
   12MPD2    H2  190   2.955   2.804  14.486  1.2104  1.8715 -1.4594
   12MPD2    H3  191   2.824   2.616  14.517  0.5205 -1.4875  0.1430
   12MPD2     N  192   2.748   2.542  14.080 -0.6170  0.7512  0.0496
   12MPD2    H5  193   2.709   2.453  14.110  0.0178  1.0478  1.7814
   12MPD2    N1  194   3.033   2.902  14.230 -0.4765 -0.3073 -0.2719
   12MPD2    H7  195   3.050   2.911  14.130 -0.7088  1.4688 -0.1482
   13TCq1    O1  196   3.679   3.535  11.306  0.8149 -0.7944 -0.2668
   13TCq1    C1  197   3.586   3.443  11.268  0.3218  0.0032  0.7026
   13TCq1    O2  198   3.613   3.329  11.238 -0.3498 -0.2199 -0.0150
   13TCq1    C2  199   3.453   3.499  11.282  0.0646  0.2699 -0.5706
   13TCq1    C3  200   3.434   3.633  11.251  0.0371  0.1514  0.2001
   13TCq1    C4  201   3.306   3.669  11.210 -0.3708 -0.1744  0.2349
   13TCq1    C5  202   3.205   3.579  11.221 -0.1514  0.1058 -0.3426
   13TCq1    C6  203   3.231   3.448  11.254  0.6360  0.2865  0.0393
   13TCq1    C7  204   3.358   3.401  11.279 -0.1007  0.4046 -0.8986
   13TCq1    C8  205   3.115   3.367  11.279  0.4810  0.2117 -0.5381
   13TCq1    O4  206   3.010   3.385  11.216 -0.1242  0.3763 -0.0088
   13TCq1    C9  207   3.305   3.800  11.143 -0.5846  0.3292 -0.5455
   13TCq1    O5  208   3.235   3.814  11.042 -0.0607 -0.1549  0.0280
   13TCq1    O6  209   3.354   3.891  11.210  0.7149  1.0398 -0.0546
   13TCq1    H1  210   3.637   3.608  11.355 -1.2296 -2.1786  0.0585
   13TCq1    H2  211   3.518   3.696  11.226 -1.3719  0.6982 -3.0986
   13TCq1    H3  212   3.101   3.602  11.201  0.3481  1.7645 -0.9954
   13TCq1    H4  213   3.381   3.296  11.298 -1.2701  0.3930  0.4894
   14MPD2     C  214   3.151   3.045  11.464 -0.2863  0.3378  0.2903
   14MPD2    C1  215   3.084   3.143  11.389  0.7285  0.6005 -0.4237
   14MPD2    C2  216   2.954   3.123  11.354  0.4337 -0.4315 -0.7213
   14MPD2    C3  217   2.883   3.002  11.393 -0.3127 -0.1306  0.6872
   14MPD2    C4  218   2.957   2.903  11.453 -0.3057 -0.0833 -0.5043
   14MPD2    C5  219   3.087   2.923  11.482  0.0630 -0.8668 -0.2040
   14MPD2     H  220   2.907   3.198  11.291  0.5920  0.8549  0.6989
   14MPD2    H1  221   2.907   2.811  11.482  1.2792 -0.7113  0.2609
   14MPD2    H2  222   3.245   3.062  11.515 -1.0895  0.9131  1.5860
   14MPD2    H3  223   3.135   2.854  11.549 -1.3880  1.0116  2.7871
   14MPD2     N  224   2.745   2.984  11.351  0.3174  0.4929 -0.5564
   14MPD2    H5  225   2.699   3.065  11.311  0.4074  0.7461 -0.1448
   14MPD2    N1  226   3.157   3.263  11.362 -0.5745  0.0533 -0.2939
   14MPD2    H7  227   3.253   3.267  11.396 -0.9763  1.2280  0.7094
   15TCq1    O1  228   4.663   2.174   2.642 -0.2207  0.4489 -0.4655
   15TCq1    C1  229   4.563   2.085   2.634  0.0888 -0.2371 -0.3189
   15TCq1    O2  230   4.443   2.093   2.619  0.3176 -0.1205  0.0788
   15TCq1    C2  231   4.633   1.965   2.589  0.3568  0.7585 -0.5514
   15TCq1    C3  232   0.019   1.931   2.653  0.5259 -0.1257 -0.0290
   15TCq1    C4  233   0.086   1.828   2.595  0.0758  0.1408  0.1831
   15TCq1    C5  234   0.042   1.768   2.481  1.0399  0.3052  0.0758
   15TCq1    C6  235   4.651   1.796   2.434 -0.0605 -0.4077 -0.1810
   15TCq1    C7  236   4.571   1.896   2.484 -0.9995  0.4526 -0.5370
   15TCq1    C8  237   4.604   1.723   2.317 -0.3084 -0.2896  0.0338
   15TCq1    O4  238   4.688   1.648   2.267 -0.5982  0.2685  0.4995
   15TCq1    C9  239   0.198   1.774   2.667  0.9139 -0.3707  0.9003
   15TCq1    O5  240   0.228   1.829   2.777  0.3217  0.6569 -1.0040
   15TCq1    O6  241   0.268   1.697   2.597  0.6753  0.3295 -0.2360
   15TCq1    H1  242   0.014   2.135   2.621 -0.6188 -0.1361 -1.0200
   15TCq1    H2  243   0.055   1.979   2.743  1.0780  1.6794 -1.2077
   15TCq1    H3  244   0.115   1.704   2.432  1.6264  0.8398  0.2453
   15TCq1    H4  245   4.489   1.945   2.432  1.1070  0.5626 -3.8161
   16MPD2     C  246   4.263   1.724   2.174 -0.7135  0.5784  0.2499
   16MPD2    C1  247   4.396   1.687   2.181 -0.5274  0.1448  0.4530
   16MPD2    C2  248   4.450   1.586   2.098 -0.4303  0.5323 -0.0814
   16MPD2    C3  249   4.375   1.523   2.002  0.0697  0.0108 -0.6305
   16MPD2    C4  250   4.245   1.564   1.990  0.0081  0.0593  0.0002
   16MPD2    C5  251   4.194   1.659   2.068  0.0925  0.5110  0.4054
   16MPD2     H  252   4.554   1.556   2.092 -0.7421 -0.4425 -0.6491
   16MPD2    H1  253   4.177   1.521   1.917 -2.3040  0.5070  1.9058
   16MPD2    H2  254   4.231   1.810   2.232 -3.6516 -0.4192  0.1134
   16MPD2    H3  255   4.090   1.689   2.065 -1.1478 -3.7751  0.2986
   16MPD2     N  256   4.441   1.432   1.918 -0.0541 -0.6761 -0.0099
   16MPD2    H5  257   4.542   1.424   1.928  0.1560  1.0598 -0.7155
   16MPD2    N1  258   4.472   1.746   2.287  0.1646  0.0333  0.2317
   16MPD2    H7  259   4.415   1.795   2.355 -0.8598 -0.5170 -0.2266
   17TMC1    C1  260   2.794   1.640  10.718  0.2440 -0.7538  0.0717
   17TMC1    C2  261   2.885   1.558  10.655  0.1954 -0.3818  0.1039
   17TMC1    C3  262   2.844   1.430  10.636 -0.3142  0.4169  0.4146
   17TMC1    C4  263   2.678   1.592  10.765 -0.3952 -0.1462  0.0880
   17TMC1    C5  264   2.649   1.458  10.744  0.1646 -0.9848 -0.6880
   17TMC1    C6  265   2.726   1.372  10.677  1.2629  0.4777 -0.5462
   17TMC1     C  266   2.840   1.768  10.771  0.9062  0.3043  0.4085
   17TMC1     O  267   2.759   1.830  10.840 -0.1529  0.3642 -0.2087
   17TMC1     H  268   2.984   1.583  10.619  0.5233 -0.8188  0.7118
   17TMC1    H1  269   2.620   1.649  10.836  0.2101  1.7367 -0.9454
   17TMC1    H2  270   2.711   1.267  10.653 -1.5783 -0.0977  3.8580
   17TMC1    C7  271   2.525   1.408  10.778  0.1753 -0.1658 -0.6926
   17TMC1    C8  272   2.942   1.330  10.608 -0.4776 -0.1710 -0.7630
   17TMC1    O1  273   2.424   1.476  10.787 -0.2985  0.7002  0.5621
   17TMC1    O2  274   2.931   1.228  10.542 -0.5493  0.0218  0.1357
   17TMC1    O3  275   2.551   1.286  10.844  0.0589 -0.4876  0.0510
   17TMC1    H3  276   2.647   1.266  10.855  0.6455  0.9929 -2.2141
   17TMC1    O5  277   3.033   1.344  10.708 -0.2396 -0.4669  0.1383
   17TMC1    H5  278   3.003   1.409  10.775  1.4668  0.8993 -0.4307
   18MPD2     C  279   3.004   1.986  10.887 -0.3634 -0.0848  0.2666
   18MPD2    C1  280   3.028   1.928  10.765 -0.4065 -0.1393  0.4565
   18MPD2    C2  281   3.135   1.967  10.692 -0.1079 -0.6705  0.0931
   18MPD2    C3  282   3.208   2.081  10.729 -0.7725  0.8102  0.4841
   18MPD2    C4  283   3.184   2.139  10.848 -0.2499 -0.0175  0.0132
   18MPD2    C5  284   3.081   2.095  10.924  0.4180  0.6663  0.3708
   18MPD2     H  285   3.159   1.907  10.605 -0.8850 -1.6288  0.5508
   18MPD2    H1  286   3.244   2.221  10.885  1.1415 -1.3881  0.8305
   18MPD2    H2  287   2.937   1.945  10.961 -2.7335  0.3511 -1.6609
   18MPD2    H3  288   3.078   2.141  11.022  2.9631  0.3010  0.6318
   18MPD2     N  289   3.312   2.130  10.644  0.6835  0.5367  0.0731
   18MPD2    H5  290   3.365   2.212  10.673  0.0574  0.5154  1.2558
   18MPD2    N1  291   2.961   1.811  10.719  0.2194 -0.2868 -0.2479
   18MPD2    H7  292   2.993   1.763  10.636  0.3930 -2.6681  1.1819
   19TMC2    C1  293   4.069   3.022  14.577  0.2480  0.0472  0.8416
   19TMC2    C2  294   3.998   3.137  14.605 -0.4701  0.3815 -0.3896
   19TMC2    C3  295   3.858   3.129  14.603  0.1652 -0.0836  0.9915
   19TMC2    C4  296   4.002   2.905  14.522  1.1550  0.7535 -0.2258
   19TMC2    C5  297   3.861   2.906  14.526  0.4988  0.0730 -0.0025
   19TMC2    C6  298   3.789   3.014  14.566  0.0615 -0.1547  0.0509
   19TMC2     C  299   4.216   3.032  14.576 -0.2891  0.1259  0.4071
   19TMC2     O  300   4.268   3.136  14.612  0.0295  0.2894 -0.1077
   19TMC2     H  301   4.054   3.219  14.649  1.3702 -1.0517 -0.0518
   19TMC2    H1  302   4.053   2.812  14.498 -0.1095  0.2812 -1.0896
   19TMC2    H2  303   3.683   3.005  14.587  0.1987 -0.0727  0.7776
   19TMC2    C7  304   3.788   2.791  14.477 -0.5480  0.3338 -0.6086
   19TMC2    C8  305   3.798   3.252  14.645  0.4149  0.1338  0.7125
   19TMC2    O1  306   3.848   2.687  14.495 -0.4090 -0.8193 -0.5955
   19TMC2    O2  307   3.860   3.335  14.713 -0.1930  0.0963 -0.2012
   19TMC2    O5  308   3.667   3.248  14.626  0.0141 -1.1205 -0.1681
   19TMC2    H5  309   3.647   3.195  14.547 -0.4852 -1.0746 -0.0691
   20MPD2     C  310   4.504   2.962  14.537  0.6497  0.3289  0.3400
   20MPD2    C1  311   4.404   2.886  14.493 -0.3810 -0.5599 -0.6790
   20MPD2    C2  312   4.434   2.769  14.420 -0.4936 -1.1127  1.2730
   20MPD2    C3  313   4.556   2.728  14.397 -0.1796 -0.8671  0.5207
   20MPD2    C4  314   4.659   2.805  14.450 -0.2332 -0.2822 -0.8648
   20MPD2    C5  315   4.634   2.922  14.517  0.8789  0.0137 -0.6137
   20MPD2     H  316   4.344   2.715  14.391 -0.0288 -0.7168 -0.8972
   20MPD2    H1  317   0.026   2.773  14.434 -0.2005 -0.4084 -0.4003
   20MPD2    H2  318   4.486   3.057  14.586  2.1055  1.4578 -1.3029
   20MPD2    H3  319   4.704   2.987  14.568 -1.8609  2.3947  0.1356
   20MPD2     N  320   4.600   2.607  14.331 -0.1456 -0.9953 -0.5534
   20MPD2    H5  321   4.697   2.579  14.342 -0.3243 -1.3354  0.1141
   20MPD2    N1  322   4.271   2.917  14.518  0.9015  0.5396  0.7051
   20MPD2    H7  323   4.206   2.845  14.491  0.2164  1.0093  1.0950
   21TMC2    C1  324   2.344   2.874  14.407  0.0053  0.1426  0.4612
   21TMC2    C2  325   2.348   2.974  14.311  0.0115  0.5207  0.2058
   21TMC2    C3  326   2.233   3.009  14.248  0.0736  0.1682  0.4788
   21TMC2    C4  327   2.225   2.824  14.452 -0.0056 -0.5537 -0.0230
   21TMC2    C5  328   2.110   2.872  14.384  0.8491  0.3081  0.1511
   21TMC2    C6  329   2.110   2.963  14.288 -0.6727  0.2959 -0.5873
   21TMC2     C  330   2.473   2.859  14.483  0.2491  0.0870 -0.0882
   21TMC2     O  331   2.562   2.935  14.450  0.6225 -0.4873 -0.4513
   21TMC2     H  332   2.446   3.004  14.276  1.2534  0.1705  3.4575
   21TMC2    H1  333   2.211   2.753  14.533  1.0469 -0.1642  0.5061
   21TMC2    H2  334   2.021   2.997  14.237 -2.4340 -1.2541  1.4475
   21TMC2    C7  335   1.989   2.845  14.459 -0.9271 -0.0282  0.7258
   21TMC2    C8  336   2.240   3.113  14.147  0.0696  0.1852 -0.4883
   21TMC2    O1  337   1.976   2.745  14.531 -0.1141 -0.5827  0.3760
   21TMC2    O2  338   2.153   3.198  14.139 -0.4492  0.7895 -0.3228
   21TMC2    O5  339   2.283   3.037  14.046  0.3119  0.1388 -0.6697
   21TMC2    H5  340   2.346   2.964  14.062  0.0642 -0.0526 -0.5774
   22MPD2     C  341   2.766   2.662  14.858 -0.2830 -0.7318 -0.3724
   22MPD2    C1  342   2.644   2.593  14.850  0.3197  0.1389  0.0170
   22MPD2    C2  343   2.550   2.633  14.762  0.5344  0.0415  0.2117
   22MPD2    C3  344   2.574   2.729  14.668  0.0482  0.1521 -0.1051
   22MPD2    C4  345   2.693   2.797  14.665 -0.0105 -0.2092  0.1175
   22MPD2    C5  346   2.788   2.762  14.765 -0.3906  0.3732  0.1563
   22MPD2     H  347   2.450   2.592  14.754  0.9086 -0.6619 -0.7794
   22MPD2    H1  348   2.718   2.890  14.614  0.3621  0.4729  1.5197
   22MPD2    H2  349   2.847   2.635  14.925 -0.6790 -2.2610 -0.5113
   22MPD2    H3  350   2.885   2.810  14.770  0.0443 -0.4052 -0.6149
   22MPD2     N  351   2.470   2.761  14.580  0.2242  0.9012 -0.3665
   22MPD2    H5  352   2.387   2.702  14.584 -0.2668  1.6802  0.6216
   22MPD2    N1  353   2.608   2.492  14.946  0.1757 -0.4526 -0.3466
   22MPD2    H7  354   2.509   2.469  14.950 -0.1751  1.0902 -0.1254
   23TMC2    C1  355   3.250   3.800  14.606 -0.0918 -0.4733  0.3365
   23TMC2    C2  356   3.378   3.794  14.566  0.7922 -0.2138  0.0852
   23TMC2    C3  357   3.410   3.843  14.439  0.0116 -0.6491 -0.1236
   23TMC2    C4  358   3.154   3.853  14.525 -0.4440  0.3759  0.0655
   23TMC2    C5  359   3.189   3.891  14.398  0.0642  0.1251 -0.5554
   23TMC2    C6  360   3.315   3.882  14.352 -0.4746  0.2683 -0.1872
   23TMC2     C  361   3.228   3.757  14.745 -0.7161 -0.1198  0.7267
   23TMC2     O  362   3.313   3.785  14.827 -0.3901  0.2842  0.7746
   23TMC2     H  363   3.440   3.736  14.634  1.8100  0.4061 -0.3228
   23TMC2    H1  364   3.065   3.891  14.574 -0.3738 -1.7237  1.8644
   23TMC2    H2  365   3.356   3.901  14.254  0.7699  3.0578  0.8647
   23TMC2    C7  366   3.102   3.987  14.329  0.4891  0.8177  0.2628
   23TMC2    C8  367   3.554   3.832  14.402  0.4326  0.1893 -0.7404
   23TMC2    O1  368   3.167   4.050  14.247  0.1505  0.6201  0.1205
   23TMC2    O2  369   3.595   3.823  14.287 -0.1628 -0.2505 -0.6883
   23TMC2    O5  370   3.618   3.845  14.515  0.2092  0.1247  0.4495
   23TMC2    H5  371   3.569   3.892  14.587 -0.5018  0.7293 -0.4295
   24MPD2     C  372   2.912   3.608  15.107 -0.3896 -0.1169 -0.3059
   24MPD2    C1  373   3.050   3.625  15.121  0.1218 -0.5717  0.6686
   24MPD2    C2  374   3.114   3.664  15.004  0.1734  0.3767 -0.1630
   24MPD2    C3  375   3.041   3.691  14.884  0.3919  0.3358 -1.0293
   24MPD2    C4  376   2.910   3.668  14.881 -0.5611 -0.2717 -0.6366
   24MPD2    C5  377   2.846   3.632  14.992  0.5055 -0.2619 -0.3747
   24MPD2     H  378   3.222   3.663  14.991  0.2851  1.2658  0.6655
   24MPD2    H1  379   2.853   3.685  14.790 -0.1517  2.3649 -0.4203
   24MPD2    H2  380   2.850   3.568  15.187 -1.1671  0.4448 -0.6250
   24MPD2    H3  381   2.741   3.606  14.997  0.4129 -0.1967 -1.9796
   24MPD2     N  382   3.102   3.721  14.761  0.3129 -0.0112 -0.1588
   24MPD2    H5  383   3.042   3.730  14.680  1.6550 -2.4592 -1.4282
   24MPD2    N1  384   3.124   3.603  15.243  0.4265 -0.3863  0.6503
   24MPD2    H7  385   3.219   3.638  15.250  0.4955 -0.8294  1.9798
   25TMC2    C1  386   1.631   1.395  11.155  0.0871  0.6328  0.3544
   25TMC2    C2  387   1.738   1.438  11.086  0.8616  0.0924  0.3258
   25TMC2    C3  388   1.819   1.529  11.132 -0.1296  0.3367 -0.3259
   25TMC2    C4  389   1.600   1.450  11.278  0.5176 -0.3009 -0.3250
   25TMC2    C5  390   1.685   1.550  11.325  0.1121  0.2435  0.0019
   25TMC2    C6  391   1.785   1.600  11.252  0.0675 -0.5357 -0.2197
   25TMC2     C  392   1.531   1.302  11.105  0.9460 -0.1759  0.2073
   25TMC2     O  393   1.418   1.324  11.139  0.7980  0.0542 -0.8111
   25TMC2     H  394   1.759   1.407  10.984  0.1469  1.2630 -0.1844
   25TMC2    H1  395   1.520   1.406  11.337 -1.6066  1.3238 -2.0031
   25TMC2    H2  396   1.860   1.672  11.282 -0.0313  0.1288 -1.5733
   25TMC2    C7  397   1.673   1.580  11.469 -0.3884  0.0921 -0.1104
   25TMC2    C8  398   1.888   1.619  11.033  0.7901 -0.5355  0.3915
   25TMC2    O1  399   1.642   1.487  11.535  0.4956 -0.1183  0.0934
   25TMC2    O2  400   1.848   1.638  10.920  0.2304 -0.4763 -0.1362
   25TMC2    O5  401   2.017   1.634  11.072 -0.1857  0.7379 -0.0336
   25TMC2    H5  402   2.038   1.602  11.163 -0.9209 -0.0643 -0.1436
   26MPD2     C  403   1.376   0.838  10.961  0.0367 -0.0336 -0.4236
   26MPD2    C1  404   1.502   0.865  10.908  0.1661 -0.5944 -0.6502
   26MPD2    C2  405   1.559   0.984  10.928  0.0219 -0.2148  0.2062
   26MPD2    C3  406   1.502   1.079  11.001  0.3700  0.5311 -0.3785
   26MPD2    C4  407   1.369   1.067  11.032 -0.2119  0.2192  0.0591
   26MPD2    C5  408   1.316   0.947  11.017  0.6315  0.0349  0.6843
   26MPD2     H  409   1.663   1.000  10.901 -0.2869 -0.0578 -0.9049
   26MPD2    H1  410   1.315   1.139  11.093  0.1918  0.5246  0.0591
   26MPD2    H2  411   1.330   0.740  10.960  1.3941 -0.7031  2.4314
   26MPD2    H3  412   1.221   0.936  11.066 -0.1679  2.5019 -0.3306
   26MPD2     N  413   1.578   1.193  11.029  0.5797 -0.8406  0.3669
   26MPD2    H5  414   1.676   1.189  11.002  0.7035 -2.4637  1.0168
   26MPD2    N1  415   1.575   0.759  10.842 -0.2282  0.3613 -0.1161
   26MPD2    H7  416   1.520   0.675  10.829 -0.6431  0.1844  2.6550
   27TMC2    C1  417   1.169   3.827  11.902  0.6015  0.3621 -0.4041
   27TMC2    C2  418   1.274   3.862  11.822 -0.3390  0.2560 -0.3435
   27TMC2    C3  419   1.398   3.839  11.858  0.4495 -0.2835  0.1195
   27TMC2    C4  420   1.200   3.783  12.027 -0.6667  0.3391  0.1381
   27TMC2    C5  421   1.333   3.772  12.061 -0.4277 -0.4754  0.2853
   27TMC2    C6  422   1.436   3.799  11.980 -0.0859 -0.4499 -0.6154
   27TMC2     C  423   1.052   3.771  11.837  0.2858  0.6444 -0.1233
   27TMC2     O  424   1.061   3.735  11.724 -0.1577  0.5987 -0.7370
   27TMC2     H  425   1.249   3.878  11.718  2.3770 -1.1630 -1.2220
   27TMC2    H1  426   1.126   3.778  12.106 -0.6295  1.4633  0.2514
   27TMC2    H2  427   1.537   3.768  12.005  1.1871  3.7490 -0.4731
   27TMC2    C7  428   1.351   3.728  12.192 -0.4811 -0.8074 -0.2069
   27TMC2    C8  429   1.495   3.857  11.756  0.1059 -0.0903 -0.1681
   27TMC2    O1  430   1.273   3.654  12.248 -0.8047  0.3073  0.4966
   27TMC2    O2  431   1.458   3.856  11.642 -0.6109 -0.5218 -0.0761
   27TMC2    O5  432   1.615   3.873  11.802 -0.5016  0.6444 -0.1836
   27TMC2    H5  433   1.623   3.886  11.898 -1.7826 -1.4998  0.2069
   28MPD2     C  434   0.685   3.444  11.960 -0.1831 -0.1756 -0.2016
   28MPD2    C1  435   0.658   3.553  12.043  0.1718 -0.3229 -0.4326
   28MPD2    C2  436   0.749   3.662  12.018 -0.1094 -0.5031  0.6648
   28MPD2    C3  437   0.850   3.666  11.922  1.0031 -0.2386 -0.0870
   28MPD2    C4  438   0.864   3.553  11.839  0.3746  0.3338  0.4261
   28MPD2    C5  439   0.778   3.448  11.855  0.2873 -0.6563  0.2568
   28MPD2     H  440   0.734   3.757  12.068 -0.4190 -0.7786  1.0853
   28MPD2    H1  441   0.932   3.531  11.758  0.3905 -0.2049  0.5826
   28MPD2    H2  442   0.618   3.359  11.962  0.6965 -0.8324  0.9357
   28MPD2    H3  443   0.786   3.364  11.788  2.2115  0.5148 -1.0027
   28MPD2     N  444   0.955   3.755  11.935  0.4433  0.0576 -0.0604
   28MPD2    H5  445   0.958   3.820  12.013 -0.5277 -1.6747  1.4354
   28MPD2    N1  446   0.550   3.546  12.132  0.1427 -0.6163  0.1730
   28MPD2    H7  447   0.506   3.455  12.125 -0.0433 -0.4189 -1.3456
   29TMC2    C1  448   0.751   1.043  14.065  0.2911 -0.5352  1.3691
   29TMC2    C2  449   0.700   1.056  14.188  0.1767 -0.1156 -0.0383
   29TMC2    C3  450   0.698   1.182  14.236  0.0159 -0.1318 -0.5514
   29TMC2    C4  451   0.794   1.145  13.988  0.0996 -0.5369  0.5158
   29TMC2    C5  452   0.781   1.269  14.041 -0.0791  0.1709  0.8318
   29TMC2    C6  453   0.731   1.291  14.165  0.3222  0.1171 -0.8020
   29TMC2     C  454   0.724   0.914  14.007  0.1668 -0.8571 -0.1319
   29TMC2     O  455   0.725   0.821  14.088  0.1601 -0.3211 -0.3620
   29TMC2     H  456   0.669   0.973  14.249 -0.7509  1.1205  1.1753
   29TMC2    H1  457   0.837   1.118  13.892  0.9483  0.7210  0.5360
   29TMC2    H2  458   0.725   1.388  14.214 -1.7523 -0.0451 -0.7414
   29TMC2    C7  459   0.842   1.382  13.966 -0.0355 -0.7790 -0.0001
   29TMC2    C8  460   0.648   1.206  14.378 -0.1355 -0.8894 -0.3417
   29TMC2    O1  461   0.847   1.362  13.846 -0.0993 -0.0830 -0.0079
   29TMC2    O2  462   0.693   1.293  14.456  0.3930 -0.3624 -0.7159
   29TMC2    O5  463   0.541   1.129  14.402 -0.0862 -0.4763  0.1109
   29TMC2    H5  464   0.524   1.062  14.333 -1.0113  0.1587 -0.2845
   30MPD2     C  465   0.523   0.568  13.694  0.2436  0.0316 -0.3119
   30MPD2    C1  466   0.606   0.552  13.804  0.3124 -0.0238 -0.2934
   30MPD2    C2  467   0.653   0.666  13.867  0.5159 -0.6132 -0.1088
   30MPD2    C3  468   0.626   0.791  13.821  0.2176 -0.3769  0.5101
   30MPD2    C4  469   0.538   0.798  13.717  0.0998  0.0358  0.1527
   30MPD2    C5  470   0.478   0.687  13.665 -0.1360  0.6591 -0.0727
   30MPD2     H  471   0.714   0.660  13.957  1.3084 -0.6990 -0.6508
   30MPD2    H1  472   0.500   0.895  13.688 -1.2128 -1.1427 -2.0425
   30MPD2    H2  473   0.484   0.485  13.637 -1.8244 -0.6681  2.1093
   30MPD2    H3  474   0.400   0.678  13.590  1.9102  1.1871 -2.2888
   30MPD2     N  475   0.667   0.911  13.885  0.0391  0.1580  0.2058
   30MPD2    H5  476   0.652   0.996  13.831  2.2289  0.9241  0.7885
   30MPD2    N1  477   0.655   0.426  13.857  0.0812  0.1979  0.4080
   30MPD2    H7  478   0.707   0.436  13.944  1.3440  1.5326 -0.4988
   31TMC2    C1  479   2.726   0.163  15.168 -0.3385 -0.8332  0.5064
   31TMC2    C2  480   2.583   0.174  15.170  0.1690 -1.0048  0.0724
   31TMC2    C3  481   2.507   0.071  15.223 -0.1792  0.3728  0.1826
   31TMC2    C4  482   2.785   0.049  15.213  0.3417 -0.1863  0.2505
   31TMC2    C5  483   2.706   4.691  15.271 -0.0182  0.4984 -0.1853
   31TMC2    C6  484   2.569   4.696  15.274 -0.5357 -0.6102 -0.2419
   31TMC2     C  485   2.798   0.284  15.146  0.0129 -0.0770 -0.3141
   31TMC2     O  486   2.734   0.377  15.112 -0.0589  0.0242 -0.1816
   31TMC2     H  487   2.530   0.264  15.140  0.3618 -0.9085  0.0221
   31TMC2    H1  488   2.892   0.039  15.206  0.4262  0.7678  0.0736
   31TMC2    H2  489   2.509   4.615  15.314 -2.2178  0.7755  0.0602
   31TMC2    C7  490   2.780   4.587  15.339 -0.2037  0.3108  0.2404
   31TMC2    C8  491   2.359   0.069  15.209 -0.1160  0.5545 -0.9431
   31TMC2    O1  492   2.904   4.601  15.344 -0.2163 -0.2399  0.2999
   31TMC2    O2  493   2.295   0.013  15.293 -0.5726 -0.0238  0.7191
   31TMC2    O5  494   2.311   0.138  15.102 -0.1585  0.4419 -0.1979
   31TMC2    H5  495   2.380   0.155  15.034 -2.0400  0.3143 -2.1226
   32MPD2     C  496   3.234   0.518  15.007 -0.2046 -0.1395  0.5735
   32MPD2    C1  497   3.106   0.539  14.969 -1.4675 -0.2868  0.2146
   32MPD2    C2  498   2.998   0.465  15.026 -0.1203  0.7079  0.1430
   32MPD2    C3  499   3.024   0.362  15.113  0.0602  0.2781 -0.2725
   32MPD2    C4  500   3.158   0.340  15.140 -0.8028 -0.2879 -0.2092
   32MPD2    C5  501   3.258   0.412  15.090  0.4071 -0.3749  0.2880
   32MPD2     H  502   2.893   0.479  15.000  0.1292  0.0268 -1.2432
   32MPD2    H1  503   3.183   0.261  15.209 -0.0611 -1.3547 -1.6847
   32MPD2    H2  504   3.313   0.572  14.956  0.9051 -1.7421  0.5967
   32MPD2    H3  505   3.360   0.394  15.122  0.6592  2.3986  0.9988
   32MPD2     N  506   2.932   0.277  15.178  0.4029  0.0880 -0.2132
   32MPD2    H5  507   2.979   0.195  15.214 -0.7893 -0.2038  0.6767
   32MPD2    N1  508   3.095   0.627  14.861 -0.5589 -0.3016 -0.4551
   32MPD2    H7  509   3.178   0.662  14.815 -0.3900 -0.5475 -0.3418
   33TMC2    C1  510   3.852   3.095  10.424 -0.2318  0.2452 -0.4593
   33TMC2    C2  511   3.961   3.058  10.501 -0.1132 -0.1445 -0.2594
   33TMC2    C3  512   4.077   3.101  10.455  0.2255  0.8241  0.0415
   33TMC2    C4  513   3.861   3.154  10.302 -0.4277 -0.0655  0.5784
   33TMC2    C5  514   3.983   3.209  10.275  0.7040 -0.7089 -0.0913
   33TMC2    C6  515   4.095   3.180  10.348  0.4854 -1.2209 -0.7947
   33TMC2     C  516   3.733   3.018  10.446 -0.0358 -0.1970 -0.3656
   33TMC2     O  517   3.690   2.949  10.354 -0.5074  0.0173  0.4552
   33TMC2     H  518   3.962   3.009  10.598 -1.0111  1.5286  0.6021
   33TMC2    H1  519   3.774   3.202  10.258  0.6332 -0.4544 -1.9428
   33TMC2    H2  520   4.192   3.220  10.322  1.1737 -1.0355  2.1575
   33TMC2    C7  521   4.007   3.276  10.152 -0.3480  0.2379  0.1409
   33TMC2    C8  522   4.195   3.061  10.522 -0.2579 -0.0350 -0.0931
   33TMC2    O1  523   4.105   3.348  10.154  0.2755 -0.0570 -0.0534
   33TMC2    O2  524   4.191   3.007  10.631  0.2112  0.6107  0.4012
   33TMC2    O5  525   4.289   3.021  10.427  0.2017  0.2096  0.2148
   33TMC2    H5  526   4.278   3.060  10.338  0.2693  2.1383  1.0381
   34MPD2     C  527   3.485   2.685  10.751  0.7597  0.0855 -0.9843
   34MPD2    C1  528   3.536   2.669  10.621  0.0168 -0.0643 -0.5543
   34MPD2    C2  529   3.616   2.773  10.566 -0.0964 -0.2849 -0.8925
   34MPD2    C3  530   3.627   2.895  10.636 -0.3587  0.2884  0.6535
   34MPD2    C4  531   3.572   2.910  10.762  0.6181 -0.7642 -0.1660
   34MPD2    C5  532   3.507   2.806  10.814 -0.0255 -0.0490  0.5310
   34MPD2     H  533   3.658   2.757  10.467 -0.2209  2.3168 -1.3756
   34MPD2    H1  534   3.577   3.007  10.811 -1.1850 -1.3060  1.0858
   34MPD2    H2  535   3.408   2.622  10.794  0.5044  0.2746 -1.1649
   34MPD2    H3  536   3.459   2.819  10.911 -0.3125 -0.6820  0.4776
   34MPD2     N  537   3.701   3.002  10.581  1.0331  0.7247  0.4912
   34MPD2    H5  538   3.723   3.078  10.644 -0.0459  2.7494 -1.6097
   34MPD2    N1  539   3.509   2.541  10.559 -0.3871  0.4176 -0.0338
   34MPD2    H7  540   3.458   2.474  10.614  1.7838 -0.5459  0.8256
   35TMC2    C1  541   4.498   3.653  11.101 -0.3970 -0.2637  0.0856
   35TMC2    C2  542   4.429   3.752  11.042 -0.1121 -0.1204  1.3155
   35TMC2    C3  543   4.309   3.788  11.103 -0.3564  0.4710 -0.0619
   35TMC2    C4  544   4.460   3.592  11.218 -0.4919  0.1981 -0.2779
   35TMC2    C5  545   4.332   3.625  11.262 -0.8092 -0.2646 -0.6179
   35TMC2    C6  546   4.252   3.719  11.202  0.1744 -0.2661 -0.6100
   35TMC2     C  547   4.625   3.637  11.040 -0.1384  0.0116 -0.4913
   35TMC2     O  548   4.639   3.659  10.920 -0.0666 -0.9901 -0.0582
   35TMC2     H  549   4.462   3.784  10.944  0.4019  1.3889  1.9802
   35TMC2    H1  550   4.519   3.511  11.261 -0.1316  0.7825  0.3230
   35TMC2    H2  551   4.150   3.739  11.233  0.3592  0.1623 -0.2774
   35TMC2    C7  552   4.271   3.521  11.344 -0.3785 -0.1678 -0.3809
   35TMC2    C8  553   4.252   3.909  11.065 -0.0762 -0.0154  0.2382
   35TMC2    O1  554   4.337   3.421  11.363 -0.1869  0.1259  0.2296
   35TMC2    O2  555   4.142   3.936  11.108 -0.0429 -0.1031 -0.4651
   35TMC2    O5  556   4.326   3.999  11.008 -0.0261 -0.3234 -0.4775
   35TMC2    H5  557   4.419   3.974  10.992  0.3612  1.0493 -0.3834
   36MPD2     C  558   0.388   3.690  11.132 -0.6281  0.3462  0.2953
   36MPD2    C1  559   0.341   3.602  11.220  0.4353  0.3197 -0.0245
   36MPD2    C2  560   0.203   3.574  11.221  0.3714 -1.1688  0.4280
   36MPD2    C3  561   0.119   3.629  11.124 -0.0417 -0.0636  0.2218
   36MPD2    C4  562   0.177   3.700  11.020  0.0194 -0.6252 -0.3000
   36MPD2    C5  563   0.306   3.731  11.032 -0.1069 -0.1502  0.1538
   36MPD2     H  564   0.150   3.512  11.292  0.3895 -3.0647 -1.1989
   36MPD2    H1  565   0.122   3.750  10.941  0.1700  2.3044  1.4243
   36MPD2    H2  566   0.489   3.730  11.133 -0.1893 -0.8099  1.9283
   36MPD2    H3  567   0.361   3.787  10.957  0.9727 -0.3230  0.8286
   36MPD2     N  568   4.714   3.602  11.135 -0.1192 -0.4374 -0.1054
   36MPD2    H5  569   4.676   3.583  11.227 -0.8768 -0.7716 -0.4919
   36MPD2    N1  570   0.430   3.553  11.319 -0.2964 -0.5124  0.2529
   36MPD2    H7  571   0.515   3.606  11.336 -1.9178  2.1683 -0.1873
   37TMC2    C1  572   2.256   4.149  11.870  0.5678 -0.2750 -0.0293
   37TMC2    C2  573   2.146   4.173  11.795 -0.6079 -0.1540  0.0747
   37TMC2    C3  574   2.165   4.238  11.682 -0.1225 -0.3192 -0.7338
   37TMC2    C4  575   2.385   4.185  11.833 -0.4788  0.1808  0.0071
   37TMC2    C5  576   2.397   4.256  11.714 -0.2430  0.6318 -0.1627
   37TMC2    C6  577   2.292   4.275  11.639  0.7030  0.1340 -0.1374
   37TMC2     C  578   2.231   4.098  12.005  0.2047  0.0943 -0.1234
   37TMC2     O  579   2.121   4.087  12.054 -0.5080  0.1788 -0.2070
   37TMC2     H  580   2.044   4.167  11.832 -0.8265 -0.2287 -0.5293
   37TMC2    H1  581   2.472   4.170  11.897  0.5597  0.1672 -1.4069
   37TMC2    H2  582   2.297   4.326  11.544 -0.9857  0.7719  0.1077
   37TMC2    C7  583   2.532   4.277  11.671 -0.0019 -0.0586  1.0857
   37TMC2    C8  584   2.044   4.293  11.606  0.2455  0.6525 -0.4191
   37TMC2    O1  585   2.618   4.237  11.748  0.3117 -0.0272 -0.0080
   37TMC2    O2  586   2.053   4.378  11.520 -0.4496 -0.1276  0.2361
   37TMC2    O5  587   1.956   4.181  11.592  0.0330 -0.5543 -0.1287
   37TMC2    H5  588   1.938   4.115  11.662 -0.3054 -0.1397  0.1761
   38MPD2     C  589   2.445   3.953  12.445 -0.6309 -0.2223 -0.1725
   38MPD2    C1  590   2.526   3.913  12.344 -0.0846  0.1098  0.0991
   38MPD2    C2  591   2.491   3.950  12.216 -0.1056  0.2037 -0.3322
   38MPD2    C3  592   2.369   4.016  12.189 -1.1177 -0.6334  0.2608
   38MPD2    C4  593   2.281   4.042  12.289 -0.6928 -0.1795  0.4249
   38MPD2    C5  594   2.321   4.016  12.421  0.0851 -0.6866 -0.0298
   38MPD2     H  595   2.551   3.936  12.128 -0.6677 -1.4108 -0.4613
   38MPD2    H1  596   2.189   4.095  12.269 -1.0466 -0.2885  1.7396
   38MPD2    H2  597   2.492   3.937  12.542  1.0428 -0.4453 -1.0285
   38MPD2    H3  598   2.258   4.048  12.503 -0.0170 -0.6956 -0.1045
   38MPD2     N  599   2.349   4.059  12.057 -0.0020  0.4366  0.0632
   38MPD2    H5  600   2.430   4.059  11.995  0.5966 -0.6732  0.8338
   38MPD2    N1  601   2.646   3.836  12.361 -0.1118  0.1743  0.3021
   38MPD2    H7  602   2.694   3.813  12.274  1.3256  1.0334  0.8643
   39TMC2    C1  603   4.599   0.841   2.237  1.1843  0.2027 -0.4306
   39TMC2    C2  604   4.507   0.807   2.334 -0.2152 -0.1415  0.4449
   39TMC2    C3  605   4.549   0.764   2.456 -0.1781  0.3364  0.4085
   39TMC2    C4  606   0.003   0.837   2.256  0.1667 -0.5456  0.2876
   39TMC2    C5  607   0.037   0.798   2.382 -0.1589  0.3185 -0.3508
   39TMC2    C6  608   4.684   0.753   2.482  0.2941 -0.4451 -1.1936
   39TMC2     C  609   4.539   0.870   2.103 -0.4217  0.2583  0.5673
   39TMC2     O  610   4.417   0.873   2.092  0.0931  0.1155  0.4237
   39TMC2     H  611   4.405   0.796   2.302  0.4035 -0.4117 -1.4442
   39TMC2    H1  612   0.077   0.835   2.177 -0.4485  0.9199 -0.3328
   39TMC2    H2  613   4.721   0.727   2.580  0.1765 -0.1304 -1.0652
   39TMC2    C7  614   0.160   0.863   2.436  0.2215  0.1888 -1.1944
   39TMC2    C8  615   4.451   0.695   2.542  0.2888 -0.2234 -0.5974
   39TMC2    O1  616   0.196   0.824   2.546 -0.7099 -0.0637 -0.3001
   39TMC2    O2  617   4.327   0.707   2.530  0.1877  0.2733  0.0521
   39TMC2    O5  618   4.509   0.576   2.555  0.2209  0.4710  0.2336
   39TMC2    H5  619   4.605   0.578   2.533 -0.1831 -1.4001 -1.6917
   40MPD2     C  620   4.712   0.780   1.786 -0.1484 -0.5315  0.6933
   40MPD2    C1  621   4.609   0.836   1.862  0.5256  0.4646 -0.3153
   40MPD2    C2  622   4.496   0.879   1.797  0.1911  0.1309 -0.8747
   40MPD2    C3  623   4.478   0.857   1.668  0.7191 -0.8248 -0.7514
   40MPD2    C4  624   4.575   0.792   1.590 -0.1970  0.0783 -0.5039
   40MPD2    C5  625   4.692   0.765   1.649  0.1847 -0.3468  0.7908
   40MPD2     H  626   4.429   0.926   1.868  0.7093  0.6454 -0.7275
   40MPD2    H1  627   4.566   0.783   1.483 -1.2218 -1.5034 -0.2878
   40MPD2    H2  628   0.076   0.757   1.819  0.4218  1.4155  0.3240
   40MPD2    H3  629   0.028   0.725   1.578 -0.3110  0.9486 -0.4584
   40MPD2     N  630   4.367   0.905   1.597  0.2999  0.1488 -0.0517
   40MPD2    H5  631   4.370   0.887   1.498  3.4634 -1.5339  0.3506
   40MPD2    N1  632   4.631   0.852   2.002  0.8631  0.4451 -0.4758
   40MPD2    H7  633   4.722   0.817   2.032  0.8032  1.1524  0.5538
   41TMC2    C1  634   4.406   4.082  12.674 -0.0470  0.2152  0.0839
   41TMC2    C2  635   4.435   4.189  12.754 -0.4572  0.2634  0.2090
   41TMC2    C3  636   4.534   4.271  12.719 -0.3073  0.2375  0.2782
   41TMC2    C4  637   4.474   4.055  12.558  0.8113  0.4836  0.1042
   41TMC2    C5  638   4.578   4.131  12.530  0.2801 -0.2762  0.1656
   41TMC2    C6  639   4.612   4.240  12.610  0.4536 -0.0848 -0.7080
   41TMC2     C  640   4.324   3.974  12.734 -0.3569 -0.2394  0.0844
   41TMC2     O  641   4.289   3.885  12.657 -0.2206  0.1114  0.0199
   41TMC2     H  642   4.369   4.218  12.835 -0.3448  1.2343 -0.0400
   41TMC2    H1  643   4.458   3.959  12.512  3.9887  0.3769 -0.7802
   41TMC2    H2  644   4.690   4.310  12.583 -0.7624  1.7266  0.4925
   41TMC2    C7  645   4.672   4.088  12.425  0.8826  0.3474  0.9571
   41TMC2    C8  646   4.544   4.401  12.778  0.2668  0.3004  0.2722
   41TMC2    O1  647   0.024   4.168  12.395 -0.5433  0.1807 -0.1141
   41TMC2    O2  648   4.558   4.504  12.705 -0.3731  0.3419  0.4721
   41TMC2    O5  649   4.603   4.379  12.896 -0.1610  0.1112 -0.1295
   41TMC2    H5  650   4.631   4.285  12.904 -0.7443 -0.1236 -0.9145
   42MPD2     C  651   4.237   3.765  12.919 -0.6948  0.3815  0.1285
   42MPD2    C1  652   4.286   3.879  12.967 -0.3704  0.2047  0.0798
   42MPD2    C2  653   4.300   3.911  13.102 -0.3322  0.6899  0.4773
   42MPD2    C3  654   4.266   3.816  13.192 -0.6547  0.0042 -0.2204
   42MPD2    C4  655   4.204   3.702  13.146 -0.2341  0.2746 -0.9473
   42MPD2    C5  656   4.175   3.683  13.011  0.2759 -0.3465 -0.2646
   42MPD2     H  657   4.334   4.008  13.134  1.3223  0.0907  0.5127
   42MPD2    H1  658   4.152   3.634  13.212 -2.7714  3.2768  0.1455
   42MPD2    H2  659   4.218   3.752  12.813  2.4646 -1.3970 -0.2390
   42MPD2    H3  660   4.114   3.599  12.980  1.1127 -0.9634 -0.2460
   42MPD2     N  661   4.271   3.847  13.333  0.7316  0.1611  0.1243
   42MPD2    H5  662   4.240   3.772  13.394 -0.6472  0.6157 -0.0151
   42MPD2    N1  663   4.320   3.978  12.872 -0.1118 -0.4505  0.5385
   42MPD2    H7  664   4.360   4.062  12.915 -0.4877  0.0803 -0.1598
   43TMC2    C1  665   0.631   2.379   1.310 -0.1722  0.3858  0.3815
   43TMC2    C2  666   0.494   2.395   1.320 -0.0038 -0.2678  0.8140
   43TMC2    C3  667   0.431   2.363   1.434 -0.0908 -0.0599 -0.8237
   43TMC2    C4  668   0.706   2.344   1.420  0.3131  0.5543  0.0929
   43TMC2    C5  669   0.636   2.310   1.531 -0.1170 -1.6303  0.4655
   43TMC2    C6  670   0.502   2.319   1.544  0.1357 -0.2142 -0.5295
   43TMC2     C  671   0.690   2.341   1.182  0.4495  0.2265  0.1637
   43TMC2     O  672   0.734   2.232   1.179 -0.4370  0.3268  0.2942
   43TMC2     H  673   0.431   2.433   1.240 -0.6408 -1.5329  0.7237
   43TMC2    H1  674   0.812   2.327   1.407  0.1139  0.5880 -1.6533
   43TMC2    H2  675   0.444   2.294   1.632  0.1414  1.6190 -0.0001
   43TMC2    C7  676   0.714   2.228   1.619  0.0860  1.1160  1.1227
   43TMC2    C8  677   0.293   2.381   1.446 -0.5579 -0.8018  0.5668
   43TMC2    O1  678   0.828   2.197   1.584  0.0915  0.5391 -1.3587
   43TMC2    O2  679   0.232   2.458   1.372 -0.3570 -0.2866 -0.6464
   43TMC2    O5  680   0.242   2.266   1.502 -0.4407 -0.8186 -0.2494
   43TMC2    H5  681   0.306   2.196   1.529 -0.7108 -0.1244  2.2143
   44MPD2     C  682   0.713   2.432   0.680 -0.2654  0.3288 -1.1409
   44MPD2    C1  683   0.731   2.312   0.741  0.0404 -0.6539  0.1861
   44MPD2    C2  684   0.728   2.321   0.879  0.5268 -0.3131  0.2054
   44MPD2    C3  685   0.682   2.438   0.947  0.3546 -0.3193  0.0680
   44MPD2    C4  686   0.663   2.551   0.873 -0.2685  0.0195 -0.0438
   44MPD2    C5  687   0.676   2.547   0.740 -0.5380 -0.0670 -0.7433
   44MPD2     H  688   0.750   2.230   0.933  0.5395 -0.0673  0.6166
   44MPD2    H1  689   0.613   2.639   0.915 -0.0383 -0.2635  0.8340
   44MPD2    H2  690   0.711   2.429   0.572 -0.3648  1.5438 -1.1765
   44MPD2    H3  691   0.657   2.631   0.673  1.2772  1.5048  0.7047
   44MPD2     N  692   0.671   2.441   1.086 -0.5804 -0.5377  0.5534
   44MPD2    H5  693   0.651   2.535   1.122  0.5432  0.5778 -1.7752
   44MPD2    N1  694   0.750   2.194   0.670  0.1027 -0.0503 -0.2625
   44MPD2    H7  695   0.748   2.105   0.719  2.9906  0.4955  0.8362
   45TMC2    C1  696   2.114   3.271  10.002 -0.3978 -0.2647 -0.2920
   45TMC2    C2  697   2.235   3.226  10.059  0.7812  0.1347 -0.2062
   45TMC2    C3  698   2.324   3.322  10.097  0.5102 -0.4222  0.3057
   45TMC2    C4  699   2.096   3.404   9.972 -0.5566 -1.2521  0.2452
   45TMC2    C5  700   2.199   3.491  10.006  0.1660 -0.5713 -0.1048
   45TMC2    C6  701   2.310   3.451  10.077 -0.0716  0.0141 -0.3624
   45TMC2     C  702   2.003   3.178   9.977  0.0472 -0.0667 -0.0780
   45TMC2     O  703   2.013   3.062  10.026  0.1305  0.2785  0.4121
   45TMC2     H  704   2.242   3.121  10.082  1.9216  0.1868 -0.3234
   45TMC2    H1  705   2.002   3.439   9.930  0.4272  0.5926 -0.4289
   45TMC2    H2  706   2.386   3.526  10.096 -1.6613  1.4468  0.3399
   45TMC2    C7  707   2.194   3.636   9.976  0.0262  0.8758 -0.3046
   45TMC2    C8  708   2.450   3.277  10.134  0.7169  0.4995 -0.6463
   45TMC2    O1  709   2.275   3.715  10.025 -0.9687 -0.2794  0.1984
   45TMC2    O2  710   2.510   3.342  10.220  0.3193  0.4312 -0.0444
   45TMC2    O5  711   2.502   3.216  10.027  0.0246  0.2904 -0.1416
   45TMC2    H5  712   2.445   3.210   9.947 -0.6112  2.1324  0.1900
   46MPD2     C  713   1.743   3.038   9.886 -0.1676  0.2077 -0.4404
   46MPD2    C1  714   1.783   3.169   9.852 -0.1674 -0.6857 -0.0957
   46MPD2    C2  715   1.685   3.250   9.790 -0.0484  0.5535  0.3191
   46MPD2    C3  716   1.555   3.201   9.770  0.4329  0.8277 -0.1449
   46MPD2    C4  717   1.524   3.068   9.789 -0.5023 -0.2019  0.5701
   46MPD2    C5  718   1.618   2.986   9.850  0.2584  0.8165  0.5492
   46MPD2     H  719   1.720   3.352   9.772 -0.5976  1.1184  2.4750
   46MPD2    H1  720   1.426   3.024   9.800 -0.6920 -0.3937 -1.9360
   46MPD2    H2  721   1.820   2.972   9.925  0.3736  0.4508 -1.0939
   46MPD2    H3  722   1.606   2.879   9.860  2.3278  0.7486  2.3511
   46MPD2     N  723   1.462   3.297   9.715  0.6939 -0.6390 -0.4302
   46MPD2    H5  724   1.478   3.397   9.722 -0.2417 -0.6451  1.7985
   46MPD2    N1  725   1.904   3.229   9.894 -0.3564  0.3438  0.8961
   46MPD2    H7  726   1.915   3.328   9.874  1.1701  0.4546  2.3026
   47TMC2    C1  727   0.074   4.561   8.201 -0.2410 -0.0120 -0.3287
   47TMC2    C2  728   0.041   4.504   8.083  0.3024 -0.0745 -0.4884
   47TMC2    C3  729   4.646   4.473   8.068 -0.3713  0.4655  0.2117
   47TMC2    C4  730   4.721   4.597   8.296 -0.2764  0.1986 -0.1164
   47TMC2    C5  731   4.591   4.578   8.275  0.3105 -0.0902 -0.2468
   47TMC2    C6  732   4.557   4.508   8.158  0.5169 -0.4716  0.1848
   47TMC2     C  733   0.206   4.565   8.244 -0.0666  0.1048 -0.7617
   47TMC2     O  734   0.292   4.546   8.159  0.4246 -0.3959  0.6876
   47TMC2     H  735   0.118   4.497   8.006 -0.0823  1.8458 -1.0422
   47TMC2    H1  736   0.012   4.651   8.386  3.5462 -0.7863 -0.6795
   47TMC2    H2  737   4.452   4.490   8.138  0.9845 -0.5241 -2.2298
   47TMC2    C7  738   4.498   4.612   8.376 -0.4184  0.0920  0.1508
   47TMC2    C8  739   4.603   4.447   7.932  0.6253  0.2564  0.5531
   47TMC2    O1  740   4.539   4.672   8.475 -0.5961 -0.1508 -0.3706
   47TMC2    O2  741   4.488   4.445   7.894 -0.6543 -0.2983  0.0116
   47TMC2    O5  742   4.708   4.377   7.875  0.5652 -0.4079  0.4910
   47TMC2    H5  743   0.040   4.358   7.942  0.3857  2.1756  1.3702
   48MPD2     C  744   0.442   4.574   8.396  0.5229  0.1527  0.2147
   48MPD2    C1  745   0.324   4.515   8.446  0.3011  0.2521  0.6884
   48MPD2    C2  746   0.315   4.453   8.571 -0.2615 -0.5103 -0.2782
   48MPD2    C3  747   0.424   4.434   8.649  0.0327  0.0042 -0.0620
   48MPD2    C4  748   0.538   4.486   8.601  0.0005 -0.7378  0.4982
   48MPD2    C5  749   0.550   4.558   8.479  0.6514 -0.4014  0.4683
   48MPD2     H  750   0.225   4.401   8.602  0.0753 -0.4910  0.7249
   48MPD2    H1  751   0.634   4.455   8.643  1.6021 -0.0838 -2.7296
   48MPD2    H2  752   0.444   4.634   8.306  1.3397  1.0790  0.8422
   48MPD2    H3  753   0.645   4.595   8.443  0.6435  0.3751  1.2463
   48MPD2     N  754   0.418   4.341   8.759  0.4238 -0.4310 -0.4549
   48MPD2    H5  755   0.323   4.317   8.784  0.0468  1.0051 -0.4770
   48MPD2    N1  756   0.206   4.524   8.370 -0.5488  0.0211 -0.0108
   48MPD2    H7  757   0.118   4.506   8.417 -0.6800  0.3178 -0.1475
   49TMC2    C1  758   2.894   2.189  10.066  1.1041 -0.0584 -0.3627
   49TMC2    C2  759   2.991   2.220   9.973 -0.2917  0.0098 -0.0417
   49TMC2    C3  760   3.045   2.120   9.893 -0.0593  0.8225 -0.4335
   49TMC2    C4  761   2.843   2.060  10.084  0.4426  0.0579 -0.3134
   49TMC2    C5  762   2.902   1.965   9.993  0.0643  0.2271 -0.2785
   49TMC2    C6  763   3.011   1.992   9.909 -0.1898 -0.3987  0.0485
   49TMC2     C  764   2.828   2.294  10.138  1.0257  0.0055 -0.1745
   49TMC2     O  765   2.897   2.396  10.136 -0.1121  0.7753 -0.2843
   49TMC2     H  766   3.026   2.322   9.964  1.0644 -0.2712  2.0371
   49TMC2    H1  767   2.781   2.028  10.167 -0.4357  1.0921 -0.5754
   49TMC2    H2  768   3.049   1.914   9.844 -1.4039  0.0016 -1.1317
   49TMC2    C7  769   2.858   1.828   9.991 -0.4765  0.6496  0.6440
   49TMC2    C8  770   3.168   2.151   9.819  0.8697  1.2256 -0.3194
   49TMC2    O1  771   2.927   1.753   9.926 -0.1627  0.3789 -0.5018
   49TMC2    O2  772   3.181   2.109   9.705  0.2830 -0.2654  0.1294
   49TMC2    O5  773   3.232   2.253   9.880 -0.0046 -0.3750  0.3600
   49TMC2    H5  774   3.214   2.263   9.976 -2.9647 -0.1056 -0.2370
   50MPD2     C  775   2.656   2.474  10.289 -0.3244 -0.5138  0.0243
   50MPD2    C1  776   2.623   2.342  10.265  0.2031  1.0221 -0.8272
   50MPD2    C2  777   2.513   2.288  10.330  0.2686 -0.7560 -0.3261
   50MPD2    C3  778   2.436   2.370  10.412 -0.0769 -0.3690  0.2552
   50MPD2    C4  779   2.482   2.496  10.455 -0.4312  0.2432 -0.5541
   50MPD2    C5  780   2.599   2.538  10.397  0.5442  0.0912  0.6403
   50MPD2     H  781   2.494   2.182  10.315 -1.6024  0.0107 -3.3242
   50MPD2    H1  782   2.443   2.561  10.532  2.6442  1.0303  0.3431
   50MPD2    H2  783   2.738   2.531  10.249 -0.9738  1.2243  1.1692
   50MPD2    H3  784   2.649   2.625  10.438  0.2669  0.5787 -0.0610
   50MPD2     N  785   2.310   2.325  10.466  0.0437  0.3245 -0.1042
   50MPD2    H5  786   2.260   2.395  10.518  0.6677 -0.8792  2.1285
   50MPD2    N1  787   2.708   2.266  10.187  0.7984 -0.6178  0.1875
   50MPD2    H7  788   2.681   2.168  10.174 -1.4573 -0.1926  1.6853
   51TMC2    C1  789   3.771   0.301   1.664 -0.7623 -0.1722  0.1175
   51TMC2    C2  790   3.745   0.269   1.795 -0.4091 -0.8616  0.4130
   51TMC2    C3  791   3.659   0.354   1.861  0.1414  0.1552  0.0993
   51TMC2    C4  792   3.699   0.390   1.597  0.0239 -0.0102  0.5821
   51TMC2    C5  793   3.607   0.466   1.662  0.4103 -0.2460  0.6589
   51TMC2    C6  794   3.584   0.451   1.799  0.8773  0.6676 -0.2056
   51TMC2     C  795   3.809   0.182   1.588 -0.5326  0.1850 -0.1781
   51TMC2     O  796   3.745   0.165   1.483 -0.1967  0.2812  0.4750
   51TMC2     H  797   3.809   0.200   1.848 -1.7247 -1.1925  1.5681
   51TMC2    H1  798   3.726   0.404   1.493 -0.9582  0.7728  0.4299
   51TMC2    H2  799   3.513   0.512   1.853 -0.6079 -0.2562 -1.1310
   51TMC2    C7  800   3.514   0.555   1.587  0.2980  0.8432 -1.1335
   51TMC2    C8  801   3.665   0.342   2.003 -0.1479  0.1284 -0.1483
   51TMC2    O1  802   3.427   0.610   1.653 -0.8573  0.5956 -0.0527
   51TMC2    O2  803   3.763   0.304   2.063 -0.1175  0.1749 -0.4398
   51TMC2    O5  804   3.530   0.340   2.038 -0.1673  0.5948  0.4575
   51TMC2    H5  805   3.470   0.349   1.960 -0.8624  1.7954  1.1354
   52MPD2     C  806   3.894   4.421   1.554  0.2672  0.0177 -0.5476
   52MPD2    C1  807   3.797   4.497   1.491  0.8300  0.3439 -0.0311
   52MPD2    C2  808   3.792   4.629   1.524  0.7571  1.0353 -0.3253
   52MPD2    C3  809   3.873   4.688   1.619 -0.5401 -0.1092  0.4392
   52MPD2    C4  810   3.964   4.610   1.688  0.3281 -0.3799 -1.2365
   52MPD2    C5  811   3.970   4.476   1.660  0.5305  0.1045 -0.2649
   52MPD2     H  812   3.708   4.680   1.478 -0.6135  0.1965  1.2804
   52MPD2    H1  813   4.037   4.658   1.752  1.0224 -1.7744 -0.9868
   52MPD2    H2  814   3.895   4.313   1.553  1.1230  0.0312 -1.0524
   52MPD2    H3  815   4.041   4.411   1.711 -1.0664  0.9207  3.0165
   52MPD2     N  816   3.867   0.083   1.663 -0.2038 -0.5102 -0.3189
   52MPD2    H5  817   3.918   0.102   1.749  0.6928 -1.3643 -0.6591
   52MPD2    N1  818   3.709   4.450   1.391 -0.1949 -0.5109  0.3818
   52MPD2    H7  819   3.644   4.514   1.348 -0.3788 -0.3852  0.8503
   53TMC2    C1  820   3.231   4.257  11.601 -0.0804 -0.4118 -0.7443
   53TMC2    C2  821   3.368   4.249  11.587  0.0089  0.2385  1.0311
   53TMC2    C3  822   3.431   4.181  11.688 -0.3451 -0.1787 -0.3368
   53TMC2    C4  823   3.165   4.216  11.712  0.1819  0.3042  0.6347
   53TMC2    C5  824   3.239   4.165  11.813  0.7731 -0.1187  0.6372
   53TMC2    C6  825   3.371   4.137  11.803  0.3809  0.7659 -0.4319
   53TMC2     C  826   3.146   4.297  11.488  0.7135  0.1684 -0.0282
   53TMC2     O  827   3.185   4.380  11.407 -0.2950  1.0483  0.8432
   53TMC2     H  828   3.422   4.274  11.496 -1.3086 -1.4502 -0.2289
   53TMC2    H1  829   3.067   4.250  11.741 -0.1395 -1.1242  1.2152
   53TMC2    H2  830   3.420   4.068  11.870  1.1220  1.3320 -0.3882
   53TMC2    C7  831   3.173   4.143  11.942  0.2812 -0.1429  0.0631
   53TMC2    C8  832   3.568   4.138  11.676 -0.5632 -0.4740  0.0560
   53TMC2    O1  833   3.050   4.152  11.948 -0.2918 -0.6504  0.1744
   53TMC2    O2  834   3.636   4.150  11.777 -0.0554 -0.3173  0.0991
   53TMC2    O5  835   3.603   4.130  11.548  0.2230  0.4455 -0.1310
   53TMC2    H5  836   3.532   4.079  11.504  1.4435 -1.7093  0.3813
   54MPD2     C  837   2.902   4.431  11.356  0.6544  0.9073 -0.6903
   54MPD2    C1  838   2.899   4.329  11.450 -0.2228  0.1923 -0.2759
   54MPD2    C2  839   2.783   4.295  11.513 -0.9680 -0.0771  0.7929
   54MPD2    C3  840   2.668   4.364  11.483 -1.3515  0.2045  0.7734
   54MPD2    C4  841   2.666   4.456  11.378 -0.2822 -0.1213  0.2195
   54MPD2    C5  842   2.787   4.496  11.326 -0.4887  0.0247  0.3298
   54MPD2     H  843   2.784   4.218  11.590  1.8072 -1.4659 -0.6088
   54MPD2    H1  844   2.571   4.503  11.356 -0.1331  0.8991  1.7784
   54MPD2    H2  845   2.992   4.468  11.308  0.9179 -1.4961 -2.0282
   54MPD2    H3  846   2.792   4.583  11.263 -2.0334 -0.0248  0.1365
   54MPD2     N  847   2.546   4.355  11.553  0.4377 -0.1677  0.4213
   54MPD2    H5  848   2.471   4.419  11.529 -0.2133 -0.2632  2.1820
   54MPD2    N1  849   3.017   4.263  11.497 -0.1181 -0.3022 -0.3872
   54MPD2    H7  850   2.998   4.188  11.564 -2.4684 -0.4154 -1.2017
   55TMC2    C1  851   3.508   2.319  17.622 -0.7918  0.1278  0.2168
   55TMC2    C2  852   3.607   2.349  17.531  0.4587  0.6278 -0.4241
   55TMC2    C3  853   3.674   2.238  17.487 -0.8090 -0.2395  0.2792
   55TMC2    C4  854   3.491   2.190  17.668  0.4158  0.0402  0.5829
   55TMC2    C5  855   3.558   2.087  17.614 -0.1547 -0.2117  0.3475
   55TMC2    C6  856   3.647   2.106  17.513  0.3947  0.3142 -0.4895
   55TMC2     C  857   3.404   2.417  17.655 -0.7267 -0.3086  0.4285
   55TMC2     O  858   3.326   2.389   0.008  0.0731 -0.2236 -0.4357
   55TMC2     H  859   3.643   2.448  17.504 -0.9920  1.4259  0.5329
   55TMC2    H1  860   3.430   2.172   0.014  0.5778  0.3068  0.7511
   55TMC2    H2  861   3.715   2.025  17.489  0.4000 -0.0952  0.9394
   55TMC2    C7  862   3.549   1.951  17.661 -0.0545 -0.3796 -0.4016
   55TMC2    C8  863   3.803   2.269  17.439  0.6716  0.2133 -0.3089
   55TMC2    O1  864   3.587   1.863  17.584  0.3999 -0.2180  0.4462
   55TMC2    O2  865   3.854   2.373  17.467  0.1019 -0.7661  0.1144
   55TMC2    O5  866   3.790   2.237  17.303  0.3056 -0.2025  0.7179
   55TMC2    H5  867   3.730   2.161  17.287 -0.0976  0.4411 -0.8056
   56MPD2     C  868   3.290   2.716  17.459 -0.2270  0.1305  0.4487
   56MPD2    C1  869   3.317   2.639  17.571 -0.8365  0.0319  0.2439
   56MPD2    C2  870   3.241   2.659  17.688  0.0585 -0.2833 -0.4774
   56MPD2    C3  871   3.143   2.750  17.696  0.3035  0.7417  0.2488
   56MPD2    C4  872   3.100   2.815  17.583  0.3440 -0.3028 -0.1765
   56MPD2    C5  873   3.178   2.800  17.466  0.2221  0.1396 -0.1278
   56MPD2     H  874   3.249   2.596   0.034 -0.2539 -0.4735 -0.5884
   56MPD2    H1  875   3.017   2.883  17.574 -0.6432 -1.2170  1.9201
   56MPD2    H2  876   3.356   2.717  17.373 -1.6036  2.8345 -0.5473
   56MPD2    H3  877   3.131   2.850  17.382 -0.2278  0.2704  0.2006
   56MPD2     N  878   3.071   2.751   0.079 -0.4688 -0.7655 -0.1683
   56MPD2    H5  879   3.105   2.689   0.151 -0.7313 -2.3394 -1.3883
   56MPD2    N1  880   3.400   2.525  17.564 -0.0709  0.4732  0.6021
   56MPD2    H7  881   3.455   2.516  17.480  0.0921 -1.3198  0.8845
   57TMC2    C1  882   2.870   3.216  13.341 -0.0362 -0.2808  0.1320
   57TMC2    C2  883   2.884   3.340  13.277 -0.4683 -0.2398  0.0739
   57TMC2    C3  884   2.981   3.356  13.182  0.4213  0.3805 -0.6267
   57TMC2    C4  885   2.957   3.112  13.309  0.3333  0.3901 -0.1315
   57TMC2    C5  886   3.054   3.134  13.208  0.5364 -0.1510 -0.0785
   57TMC2    C6  887   3.070   3.256  13.148  0.1503  0.3901 -0.2121
   57TMC2     C  888   2.761   3.214  13.440  0.2694  0.5348  0.5282
   57TMC2     O  889   2.689   3.312  13.439  0.2276 -0.0606  0.2916
   57TMC2     H  890   2.817   3.424  13.292 -2.6474 -1.7155 -1.4236
   57TMC2    H1  891   2.952   3.018  13.364 -1.0120  0.4563 -0.1224
   57TMC2    H2  892   3.138   3.268  13.065 -1.3386  1.6686 -1.2384
   57TMC2    C7  893   3.121   3.021  13.151 -0.3493  0.1676  0.1834
   57TMC2    C8  894   2.948   3.455  13.080  0.2467 -0.1329  0.0993
   57TMC2    O1  895   3.235   3.042  13.106  0.9554  0.8882  0.6824
   57TMC2    O2  896   2.988   3.571  13.099 -0.1664  0.0416 -0.2305
   57TMC2    O5  897   2.986   3.397  12.966 -0.0750 -0.2003 -0.0482
   57TMC2    H5  898   2.941   3.310  12.965 -0.5658  0.0446  0.7401
   58MPD2     C  899   2.421   2.976  13.732  0.2027 -0.4395 -0.1749
   58MPD2    C1  900   2.440   3.109  13.718  0.0738 -0.0215 -0.2554
   58MPD2    C2  901   2.548   3.150  13.644 -0.1167 -0.1100  0.7261
   58MPD2    C3  902   2.629   3.055  13.578 -0.7461 -0.3605 -0.3243
   58MPD2    C4  903   2.606   2.922  13.602  0.6526  0.5855  0.2754
   58MPD2    C5  904   2.498   2.882  13.670 -0.1230  0.2128  0.8503
   58MPD2     H  905   2.559   3.255  13.618  0.4563 -0.6182 -1.0749
   58MPD2    H1  906   2.671   2.844  13.565  0.1574  0.9958 -1.4326
   58MPD2    H2  907   2.349   2.933  13.801  1.5959 -0.4177  1.3122
   58MPD2    H3  908   2.479   2.776  13.682 -1.2645  0.1978 -1.1010
   58MPD2     N  909   2.736   3.086  13.494  0.2399 -0.5735 -0.1345
   58MPD2    H5  910   2.794   3.009  13.462 -0.4447 -1.4508  0.7447
   58MPD2    N1  911   2.348   3.189  13.784 -0.4008  0.3635 -0.2500
   58MPD2    H7  912   2.264   3.138  13.808 -1.4378  1.5655 -1.3149
   59TMC2    C1  913   0.378   3.104  12.658 -0.5588 -0.2807 -0.3593
   59TMC2    C2  914   0.334   3.015  12.748 -0.4065 -0.0994 -0.5729
   59TMC2    C3  915   0.304   2.892  12.700  0.1774 -0.1696 -0.0281
   59TMC2    C4  916   0.396   3.078  12.521  0.0287  0.1415 -0.3201
   59TMC2    C5  917   0.360   2.956  12.481  0.2941  0.5080 -0.1414
   59TMC2    C6  918   0.305   2.858  12.570 -0.4401  0.4170  0.2444
   59TMC2     C  919   0.427   3.231  12.708  0.4023 -0.3871  0.0953
   59TMC2     O  920   0.427   3.323  12.630  0.1322  0.2199  0.1649
   59TMC2     H  921   0.322   3.035  12.854 -1.5911  2.6720 -1.2219
   59TMC2    H1  922   0.442   3.156  12.462  1.6835 -1.4444 -1.0964
   59TMC2    H2  923   0.245   2.780  12.526  0.3329 -0.4481  0.7186
   59TMC2    C7  924   0.365   2.921  12.343 -0.2153  0.5507 -0.3708
   59TMC2    C8  925   0.225   2.820  12.796 -0.2282  1.2578  0.7856
   59TMC2    O1  926   0.337   2.803  12.318  0.0781  0.7320 -0.3671
   59TMC2    O2  927   0.160   2.876  12.880 -0.1352 -0.2456 -0.2091
   59TMC2    O5  928   0.207   2.692  12.744  0.1743  0.3471 -0.7998
   59TMC2    H5  929   0.280   2.666  12.685 -0.4463 -0.6842 -1.0959
   60MPD2     C  930   0.516   3.456  12.884 -0.1824  0.1431  0.3249
   60MPD2    C1  931   0.530   3.322  12.918 -0.1347 -0.0456  0.6432
   60MPD2    C2  932   0.607   3.289  13.030 -0.3937  0.3063 -0.2539
   60MPD2    C3  933   0.653   3.389  13.113  0.4199  0.2305 -1.4255
   60MPD2    C4  934   0.620   3.518  13.087  0.0105 -0.6789 -0.4838
   60MPD2    C5  935   0.553   3.554  12.974 -0.0242  0.8512 -0.8624
   60MPD2     H  936   0.635   3.186  13.049 -2.7419  0.1306  2.2449
   60MPD2    H1  937   0.645   3.590  13.164  0.8062  0.1153 -1.4852
   60MPD2    H2  938   0.465   3.484  12.792  0.3468  2.5258  0.7419
   60MPD2    H3  939   0.539   3.661  12.968 -3.9358  0.3052 -1.7736
   60MPD2     N  940   0.746   3.361  13.214  0.3826 -1.1637  0.3361
   60MPD2    H5  941   0.791   3.444  13.254  0.2338 -0.9584  0.0749
   60MPD2    N1  942   0.472   3.221  12.841 -0.4880 -0.0887  0.2959
   60MPD2    H7  943   0.497   3.128  12.873  0.4634  0.0968  0.1138
   61TMC2    C1  944   3.891   4.631  15.576 -0.2809  0.5126  0.0303
   61TMC2    C2  945   3.831   4.595  15.698  0.7719 -0.1015  0.7127
   61TMC2    C3  946   3.915   4.595  15.804  0.5040  0.1786 -0.3400
   61TMC2    C4  947   4.021   4.674  15.569 -0.7390 -0.0963  0.0954
   61TMC2    C5  948   4.087   4.686  15.687 -0.4043  0.1381 -0.3866
   61TMC2    C6  949   4.033   4.653  15.806  0.0986  0.0962 -0.0669
   61TMC2     C  950   3.826   4.602  15.450  0.6538  0.4116 -0.1679
   61TMC2     O  951   3.706   4.616  15.452  0.0286 -0.4937  0.2821
   61TMC2     H  952   3.729   4.559  15.707  0.6373  0.9309  3.4248
   61TMC2    H1  953   4.055   4.725  15.480  1.1776  2.4542  2.2923
   61TMC2    H2  954   4.089   4.668  15.898  3.5364 -0.4873 -2.0520
   61TMC2    C7  955   4.219   0.019  15.673 -0.6607  1.3016  0.6198
   61TMC2    C8  956   3.851   4.574  15.933 -0.3150  0.1434 -0.2961
   61TMC2    O1  957   4.259   0.049  15.561 -0.0391  0.4146  0.1555
   61TMC2    O2  958   3.733   4.567  15.955  0.6741 -0.2069 -0.0460
   61TMC2    O5  959   3.944   4.515  16.011  0.5210  0.5402 -0.6117
   61TMC2    H5  960   4.030   4.502  15.965  0.5008  0.0985 -0.5210
   62MPD2     C  961   3.735   4.582  15.164 -0.0849  0.1326 -1.1188
   62MPD2    C1  962   3.863   4.571  15.204  0.2611 -0.0958  0.7716
   62MPD2    C2  963   3.961   4.559  15.108  0.5087  0.0538  0.4738
   62MPD2    C3  964   3.934   4.555  14.974 -0.2239 -0.4467 -0.4686
   62MPD2    C4  965   3.799   4.563  14.942  0.6006  0.7444  0.2297
   62MPD2    C5  966   3.700   4.578  15.033  0.0468 -0.1604 -0.0509
   62MPD2     H  967   4.064   4.545  15.137  0.7435  1.1155  0.1661
   62MPD2    H1  968   3.772   4.559  14.837 -0.1407 -0.6063  0.4652
   62MPD2    H2  969   3.650   4.595  15.230 -0.3555  1.7051 -1.7958
   62MPD2    H3  970   3.602   4.612  15.001  0.9014  0.8521 -1.6026
   62MPD2     N  971   4.030   4.553  14.873 -0.2408  0.3467 -0.8833
   62MPD2    H5  972   3.980   4.532  14.788 -0.8665 -3.2880  0.3741
   62MPD2    N1  973   3.909   4.584  15.337  0.0177 -0.3607  0.0343
   62MPD2    H7  974   4.008   4.579  15.358  0.3864  0.4044 -1.5891
   63TMC2    C1  975   4.405   4.664  10.434  0.1625  0.2666  0.0896
   63TMC2    C2  976   4.483   4.626  10.542  0.4404 -0.4494 -1.4701
   63TMC2    C3  977   4.612   4.669  10.541  0.9044  0.5679  0.1443
   63TMC2    C4  978   4.453   4.730  10.326  0.5308  0.2716  0.2971
   63TMC2    C5  979   4.584   0.014  10.325 -0.3115  0.2243 -0.5672
   63TMC2    C6  980   4.668   4.729  10.433 -0.1988  0.1042  0.1043
   63TMC2     C  981   4.266   4.630  10.427  0.1492  0.3281  0.0358
   63TMC2     O  982   4.216   4.669  10.320  0.1858  0.0399  0.3359
   63TMC2     H  983   4.451   4.557  10.619  0.5975  0.5360 -0.5115
   63TMC2    H1  984   4.389   0.043  10.254 -2.4501 -0.7566  2.2301
   63TMC2    H2  985   0.039   0.004  10.420 -0.0206 -3.0804 -1.2783
   63TMC2    C7  986   4.633   0.071  10.197 -0.4045  0.8344  0.1581
   63TMC2    C8  987   4.704   4.600  10.637  0.1217  0.3067  0.2870
   63TMC2    O1  988   4.562   0.062  10.097 -0.0344 -1.1155  0.1861
   63TMC2    O2  989   4.663   4.521  10.722  0.1530 -0.5419 -0.2021
   63TMC2    O5  990   0.062   4.696  10.660 -0.0434 -0.8434  0.3029
   63TMC2    H5  991   0.078   0.023  10.586 -0.0349 -2.4525 -1.0711
   64MPD2     C  992   3.889   4.318  10.517  0.1381  0.6379  0.5219
   64MPD2    C1  993   3.979   4.303  10.617 -0.2355 -0.3680 -0.3636
   64MPD2    C2  994   4.080   4.385  10.624 -0.4944 -0.3611  0.0220
   64MPD2    C3  995   4.093   4.484  10.531  0.8501 -0.4101  0.1770
   64MPD2    C4  996   4.002   4.499  10.438  0.4510  0.0119 -0.9303
   64MPD2    C5  997   3.902   4.413  10.426 -0.4322  0.0941  0.3695
   64MPD2     H  998   4.157   4.386  10.700 -0.6131 -0.0107  0.1404
   64MPD2    H1  999   4.008   4.569  10.355  0.6589  0.1844 -0.7683
   64MPD2    H2 1000   3.820   4.235  10.507  1.7426 -0.9284  2.4313
   64MPD2    H3 1001   3.832   4.432  10.345 -1.0295 -0.8213  0.6773
   64MPD2     N 1002   4.217   4.552  10.529 -0.7652 -0.0362  0.3856
   64MPD2    H5 1003   4.276   4.532  10.609  1.0426  1.0383 -0.6730
   64MPD2    N1 1004   3.973   4.204  10.715 -0.6538  0.5301 -0.1808
   64MPD2    H7 1005   4.050   4.200  10.781 -1.5910 -1.2714  0.8097
   65TMC2    C1 1006   0.055   3.976  15.750  0.2138 -0.4770 -0.2109
   65TMC2    C2 1007   0.010   3.913  15.633  1.1258  0.8072 -0.7788
   65TMC2    C3 1008   4.702   3.989  15.525  0.5685 -0.0969  0.4113
   65TMC2    C4 1009   0.063   4.111  15.752  0.0588  0.4481 -0.0949
   65TMC2    C5 1010   0.013   4.181  15.649 -0.5667  0.0110  0.1991
   65TMC2    C6 1011   4.706   4.127  15.533 -1.0430 -0.0417 -1.1126
   65TMC2     C 1012   0.168   3.913  15.826 -0.3164 -0.6632 -0.1499
   65TMC2     O 1013   0.239   3.989  15.887  0.3560  0.6391 -0.5676
   65TMC2     H 1014   0.017   3.806  15.619 -1.0373  0.4743  0.7049
   65TMC2    H1 1015   0.119   4.162  15.829  0.8409 -0.5968  0.0208
   65TMC2    H2 1016   4.685   4.185  15.444 -2.1313  1.1806 -0.0555
   65TMC2    C7 1017   0.049   4.322  15.649  0.7343  0.5518  0.0082
   65TMC2    C8 1018   4.679   3.921  15.394  1.0367 -0.4227  0.4903
   65TMC2    O1 1019   0.086   4.369  15.545  0.5372 -0.3019  0.5525
   65TMC2    O2 1020   0.011   3.822  15.364  0.2058  0.0898  0.1317
   65TMC2    O5 1021   4.562   3.963  15.340  0.6406 -0.1084  0.0535
   65TMC2    H5 1022   4.515   4.034  15.389  2.2454  0.0133  1.4450
   66MPD2     C 1023   0.390   3.725  15.924 -0.7299 -0.0065 -0.0298
   66MPD2    C1 1024   0.260   3.688  15.880  0.1795 -0.1046  0.9403
   66MPD2    C2 1025   0.230   3.555  15.876 -0.2489  0.7331 -0.0214
   66MPD2    C3 1026   0.315   3.460  15.932 -0.6493  0.3916  0.2905
   66MPD2    C4 1027   0.444   3.496  15.971 -0.5623  0.6257  0.1620
   66MPD2    C5 1028   0.478   3.631  15.964  0.0026 -0.5614  0.5810
   66MPD2     H 1029   0.137   3.525  15.828  0.2978  0.1691 -0.7318
   66MPD2    H1 1030   0.521   3.424  15.995  0.3559  0.8583 -2.1086
   66MPD2    H2 1031   0.423   3.828  15.917  0.3099 -0.4754 -1.8633
   66MPD2    H3 1032   0.580   3.660  15.987 -0.3530 -2.1231  4.0644
   66MPD2     N 1033   0.290   3.317  15.930  0.1994  0.0664  0.1477
   66MPD2    H5 1034   0.361   3.246  15.949 -0.3534 -0.7074 -0.6833
   66MPD2    N1 1035   0.161   3.782  15.831 -0.0224  0.7042  0.6675
   66MPD2    H7 1036   0.076   3.738  15.797  1.4119 -1.2199 -0.3768
   67TMC2    C1 1037   0.335   3.604  14.830 -0.2249  0.4673  0.9909
   67TMC2    C2 1038   0.336   3.723  14.894 -0.8481  0.5010  0.2175
   67TMC2    C3 1039   0.455   3.763  14.947  1.1804  0.5918 -0.6263
   67TMC2    C4 1040   0.452   3.525  14.815  0.1301 -0.3459  0.0302
   67TMC2    C5 1041   0.563   3.565  14.881 -0.0459 -0.7605 -0.2697
   67TMC2    C6 1042   0.567   3.685  14.955  0.0498 -0.4728  0.4585
   67TMC2     C 1043   0.207   3.557  14.784 -0.0120  0.7820  0.0133
   67TMC2     O 1044   0.106   3.608  14.836  0.9778  0.1506 -1.0719
   67TMC2     H 1045   0.251   3.790  14.900  0.5378  2.1778  1.1880
   67TMC2    H1 1046   0.455   3.437  14.752 -1.2878 -1.7955  2.0168
   67TMC2    H2 1047   0.665   3.726  14.976  0.1448  0.0456 -0.9912
   67TMC2    C7 1048   0.675   3.476  14.894  0.0483  0.1214  0.0559
   67TMC2    C8 1049   0.477   3.905  14.950  0.2199  0.1787 -0.7030
   67TMC2    O1 1050   0.686   3.383  14.816  0.2618  0.0633  0.0649
   67TMC2    O2 1051   0.405   3.978  14.890 -0.7290 -0.2135  0.0320
   67TMC2    O5 1052   0.495   3.906  15.084 -0.0070  0.1733 -0.9749
   67TMC2    H5 1053   0.548   3.830  15.117 -1.7197 -1.2902 -1.5596
   68MPD2     C 1054   4.722   3.401  14.671  0.0038  1.3421 -0.8394
   68MPD2    C1 1055   0.110   3.389  14.623 -0.2745 -0.1465  0.1170
   68MPD2    C2 1056   0.127   3.328  14.498  0.2565  0.1251  0.3775
   68MPD2    C3 1057   0.019   3.279  14.424  0.0847  0.1147 -0.0151
   68MPD2    C4 1058   4.634   3.280  14.479 -0.1803 -0.8728 -0.5963
   68MPD2    C5 1059   4.619   3.342  14.603  0.2109  0.2018 -0.2328
   68MPD2     H 1060   0.223   3.327  14.447  0.4615  0.4037  0.7609
   68MPD2    H1 1061   4.543   3.250  14.427 -0.5804 -0.7886  0.0502
   68MPD2    H2 1062   4.703   3.427  14.774  0.9909  2.0309 -0.8266
   68MPD2    H3 1063   4.519   3.355  14.642  1.6242  0.7471  3.2142
   68MPD2     N 1064   0.027   3.220  14.296  0.3213  0.2381 -0.4251
   68MPD2    H5 1065   4.674   3.197  14.251 -1.5823 -0.1594  3.5402
   68MPD2    N1 1066   0.216   3.453  14.693  0.5247  0.1324  0.2169
   68MPD2    H7 1067   0.306   3.432  14.651  1.3115  3.0427  0.4352
   69TMC2    C1 1068   2.912   0.024  12.605 -0.7328  0.4285 -0.2919
   69TMC2    C2 1069   2.855   0.075  12.495 -0.4256  0.2514 -0.8325
   69TMC2    C3 1070   2.930   0.157  12.413  0.1521 -0.7375  0.1307
   69TMC2    C4 1071   3.043   0.043  12.639 -0.5834 -0.7914  0.7001
   69TMC2    C5 1072   3.112   0.126  12.556 -0.6205  0.1033 -0.7232
   69TMC2    C6 1073   3.062   0.167  12.439 -0.1725 -0.0321 -0.2589
   69TMC2     C 1074   2.834   4.670  12.673  0.3218  0.2940  0.6114
   69TMC2     O 1075   2.716   4.700  12.693  0.0078  0.1054 -0.7418
   69TMC2     H 1076   2.761   0.037  12.457  0.6925 -0.9049 -2.4355
   69TMC2    H1 1077   3.095   4.732  12.721 -0.0939 -0.2466  0.7081
   69TMC2    H2 1078   3.117   0.235  12.375 -0.9548 -1.1336 -2.1361
   69TMC2    C7 1079   3.257   0.111  12.580  0.2916  0.7957  0.4158
   69TMC2    C8 1080   2.910   0.122  12.274 -0.4630  0.1124 -0.1146
   69TMC2    O1 1081   3.279   0.085  12.698  0.1761  0.6758 -0.0378
   69TMC2    O2 1082   2.927   0.205  12.186  0.3229 -0.3544 -0.6347
   69TMC2    O5 1083   2.874   4.731  12.261 -0.1328 -0.2544 -0.4950
   69TMC2    H5 1084   2.912   4.681  12.336 -1.5231 -0.8808 -0.2177
   70MPD2     C 1085   2.958   4.336  12.767  0.4222 -0.8394  1.0562
   70MPD2    C1 1086   2.879   4.449  12.772 -0.4659  0.4929 -0.3096
   70MPD2    C2 1087   2.777   4.452  12.865  0.2224  0.1445 -0.6431
   70MPD2    C3 1088   2.759   4.350  12.956  0.0985 -0.1724 -0.5399
   70MPD2    C4 1089   2.835   4.238  12.938  0.0102 -0.1854  0.4855
   70MPD2    C5 1090   2.935   4.232  12.852 -0.0220  0.0895  0.0123
   70MPD2     H 1091   2.718   4.541  12.882 -2.9834 -2.2510  0.6006
   70MPD2    H1 1092   2.817   4.166  13.018  0.1348 -1.2167 -0.4140
   70MPD2    H2 1093   3.040   4.324  12.698 -1.5196 -3.1702 -0.8756
   70MPD2    H3 1094   2.996   4.142  12.850 -1.4025 -0.8562  0.8327
   70MPD2     N 1095   2.668   4.354  13.064  0.1330  0.1390 -0.2613
   70MPD2    H5 1096   2.668   4.275  13.127  0.0999 -0.5328 -1.1050
   70MPD2    N1 1097   2.915   4.561  12.694  0.4705 -0.1416 -0.1904
   70MPD2    H7 1098   3.010   4.556  12.659  0.2205  3.9142 -1.5096
   71TMC2    C1 1099   0.384   0.440   1.221  0.4986  0.0391  0.3147
   71TMC2    C2 1100   0.473   0.535   1.249  0.2468  0.1797 -0.9422
   71TMC2    C3 1101   0.557   0.520   1.361 -0.4974  0.7902 -0.4455
   71TMC2    C4 1102   0.394   0.317   1.284 -0.8599 -0.6197 -0.9745
   71TMC2    C5 1103   0.486   0.300   1.380 -0.3811  0.0137  0.6337
   71TMC2    C6 1104   0.569   0.401   1.426  0.4269  0.0403 -0.2241
   71TMC2     C 1105   0.288   0.468   1.112  0.0469 -0.2623  0.4155
   71TMC2     O 1106   0.241   0.577   1.112 -0.0549 -0.1893 -0.2511
   71TMC2     H 1107   0.454   0.626   1.193  0.3384  0.6854 -0.1606
   71TMC2    H1 1108   0.333   0.235   1.251 -3.4549  0.5049  1.0766
   71TMC2    H2 1109   0.627   0.390   1.516 -1.1061 -0.2698  0.7378
   71TMC2    C7 1110   0.462   0.193   1.475  0.1654  0.3965 -0.1613
   71TMC2    C8 1111   0.672   0.608   1.374 -0.0658 -0.2046 -0.1739
   71TMC2    O1 1112   0.559   0.145   1.532  0.5807  0.4147 -0.2335
   71TMC2    O2 1113   0.785   0.563   1.397 -0.3122  0.8205  0.7882
   71TMC2    O5 1114   0.650   0.716   1.294  0.1137 -0.4575 -0.0485
   71TMC2    H5 1115   0.556   0.738   1.310  0.1393 -0.4267  0.0601
   72MPD2     C 1116   0.004   0.315   0.705 -0.2459 -0.2632 -1.0352
   72MPD2    C1 1117   4.731   0.434   0.781 -0.3853  0.0215 -0.3096
   72MPD2    C2 1118   0.085   0.451   0.885  0.4202 -0.0032 -0.4398
   72MPD2    C3 1119   0.181   0.349   0.920  0.7043  0.2951  0.2570
   72MPD2    C4 1120   0.194   0.238   0.843 -0.2383  0.2361 -0.5673
   72MPD2    C5 1121   0.108   0.223   0.739 -0.3280 -0.4627 -0.2475
   72MPD2     H 1122   0.091   0.548   0.933  4.0844 -0.9944  1.0584
   72MPD2    H1 1123   0.271   0.165   0.862  0.4783  1.1111 -0.1372
   72MPD2    H2 1124   4.674   0.294   0.621 -0.9613 -2.4762  0.1015
   72MPD2    H3 1125   0.120   0.138   0.672  0.6740  1.5135 -2.5348
   72MPD2     N 1126   0.273   0.360   1.029 -0.3820 -0.1158 -0.1316
   72MPD2    H5 1127   0.342   0.289   1.048  0.8787  1.6563  1.9291
   72MPD2    N1 1128   4.640   0.534   0.756 -0.1353 -0.7572  0.1060
   72MPD2    H7 1129   4.649   0.610   0.823  0.5134 -1.3356  0.6751
   73TMC2    C1 1130   4.205   3.041  13.879 -0.2268  0.4270 -0.2447
   73TMC2    C2 1131   4.185   3.175  13.877 -0.1445  0.2613  0.0375
   73TMC2    C3 1132   4.241   3.246  13.980 -0.7902 -0.5899  0.1017
   73TMC2    C4 1133   4.273   2.985  13.988  0.2332  0.3249 -0.1016
   73TMC2    C5 1134   4.323   3.057  14.087  0.5655 -0.2279 -0.1332
   73TMC2    C6 1135   4.306   3.193  14.089 -0.2972  0.4360  0.2439
   73TMC2     C 1136   4.272   2.998  13.760  0.1752 -0.1069 -0.2700
   73TMC2     O 1137   4.381   2.949  13.781  0.7039 -0.3975 -0.1831
   73TMC2     H 1138   4.120   3.217  13.802 -1.4432  0.9609  1.5620
   73TMC2    H1 1139   4.281   2.877  13.990  2.7767  0.5392  0.5768
   73TMC2    H2 1140   4.350   3.255  14.166  0.4082 -2.5717  2.2644
   73TMC2    C7 1141   4.461   3.020  14.121  1.0148  0.7621  0.0262
   73TMC2    C8 1142   4.179   3.378  13.985 -0.1938  0.5452  0.0877
   73TMC2    O1 1143   4.527   3.091  14.199 -0.1834  0.1464 -0.4933
   73TMC2    O2 1144   4.153   3.437  13.880 -0.1570  0.7483  0.4903
   73TMC2    O5 1145   4.126   3.394  14.107 -0.2352  0.2541  0.8243
   73TMC2    H5 1146   4.157   3.318  14.160  1.3121 -0.5473 -1.1826
   74MPD2     C 1147   4.358   2.902  13.250 -0.3559  0.2793  0.1720
   74MPD2    C1 1148   4.445   2.919  13.359  0.5527  0.9748  0.1967
   74MPD2    C2 1149   4.404   2.956  13.483 -0.2419 -0.9603 -0.1602
   74MPD2    C3 1150   4.267   2.986  13.508  0.2472 -0.4001 -0.4993
   74MPD2    C4 1151   4.182   2.984  13.394  0.3764 -0.9762 -1.1954
   74MPD2    C5 1152   4.228   2.940  13.274 -0.0236  0.1251 -0.0056
   74MPD2     H 1153   4.467   2.952  13.572 -0.6522 -0.2319  0.1684
   74MPD2    H1 1154   4.077   3.011  13.395  0.0100 -2.4915  1.4172
   74MPD2    H2 1155   4.390   2.870  13.151 -0.3957 -1.1561  0.6258
   74MPD2    H3 1156   4.155   2.954  13.195  0.5676  0.1888 -0.5359
   74MPD2     N 1157   4.212   3.019  13.637 -0.8210 -0.3574 -0.1535
   74MPD2    H5 1158   4.115   3.049  13.632 -1.0928 -1.0623  0.7210
   74MPD2    N1 1159   4.583   2.893  13.337 -0.1268  0.1860  0.3521
   74MPD2    H7 1160   4.611   2.851  13.248 -0.6564  0.1802  0.1885
   75TMC2    C1 1161   0.112   3.197  14.082  0.7921 -0.2859  0.1997
   75TMC2    C2 1162   0.203   3.137  14.006  0.0599 -0.7347 -0.1929
   75TMC2    C3 1163   0.174   3.119  13.872  0.2342 -0.3608  0.5494
   75TMC2    C4 1164   4.735   3.249  14.029  0.1619  0.3166 -0.1795
   75TMC2    C5 1165   4.705   3.226  13.893  0.3356  0.0160  0.0412
   75TMC2    C6 1166   0.060   3.161  13.812  0.3939 -0.5712 -0.6255
   75TMC2     C 1167   0.143   3.213  14.224  0.1989 -0.7689 -0.5106
   75TMC2     O 1168   0.260   3.216  14.258 -0.5238  0.3422  0.2674
   75TMC2     H 1169   0.296   3.106  14.052  0.4221 -0.7884 -0.9542
   75TMC2    H1 1170   4.671   3.315  14.086 -0.7755  2.0632 -3.2192
   75TMC2    H2 1171   0.039   3.130  13.710  0.8368  0.5637 -1.0748
   75TMC2    C7 1172   4.594   3.299  13.836  0.9700  0.9577 -1.3208
   75TMC2    C8 1173   0.289   3.098  13.784 -0.3805  0.8081  0.2406
   75TMC2    O1 1174   4.560   3.397  13.897  0.4079 -0.2175  0.4915
   75TMC2    O2 1175   0.290   3.022  13.689 -0.2197 -0.4038 -0.2351
   75TMC2    O5 1176   0.347   3.221  13.785 -0.0025  0.4268 -0.2339
   75TMC2    H5 1177   0.333   3.274  13.867 -2.4383 -2.3294  1.1256
   76TMC2    C1 1178   3.655   3.548  11.846  0.6278 -0.9216 -0.0037
   76TMC2    C2 1179   3.546   3.526  11.761  0.4444  0.3251 -0.4432
   76TMC2    C3 1180   3.485   3.402  11.758 -0.4701 -0.1364 -0.2119
   76TMC2    C4 1181   3.698   3.438  11.929 -0.5453 -0.4572 -0.3470
   76TMC2    C5 1182   3.633   3.314  11.914  0.3196  0.3189  0.9334
   76TMC2    C6 1183   3.528   3.300  11.830  0.2995  0.4233 -0.3437
   76TMC2     C 1184   3.710   3.684  11.855  0.0077  0.3338 -0.3744
   76TMC2     O 1185   3.673   3.761  11.767  0.0492  0.1756 -0.2551
   76TMC2     H 1186   3.497   3.606  11.706  0.3538  0.3680 -0.3026
   76TMC2    H1 1187   3.768   3.446  12.011 -0.6008 -0.1205 -0.3339
   76TMC2    H2 1188   3.461   3.215  11.828  0.3885  0.3355  0.6442
   76TMC2    C7 1189   3.695   3.194  11.967 -0.6911 -0.1589 -0.2589
   76TMC2    C8 1190   3.387   3.381  11.651  0.1634  0.1442  0.2130
   76TMC2    O1 1191   3.621   3.096  11.973 -0.3673 -0.1614 -0.7016
   76TMC2    O2 1192   3.314   3.469  11.606 -0.0215 -0.8842  0.0741
   76TMC2    O5 1193   3.409   3.267  11.584 -0.5319 -0.1925 -1.1828
   76TMC2    H5 1194   3.491   3.217  11.605  0.2514  2.0406  1.1062
   77MPD2     C 1195   4.042   4.026  12.071  0.1023  0.9322  0.3051
   77MPD2    C1 1196   3.930   4.050  11.997  0.8334  0.0525 -0.3100
   77MPD2    C2 1197   3.857   3.939  11.951  0.2221  0.2160 -0.6797
   77MPD2    C3 1198   3.889   3.807  11.989  0.2105  0.3969  0.7230
   77MPD2    C4 1199   4.008   3.792  12.062  0.1757 -0.4745 -0.2313
   77MPD2    C5 1200   4.082   3.898  12.101 -0.6591  0.0227  0.0323
   77MPD2     H 1201   3.768   3.954  11.891 -2.0434  0.1520  2.6653
   77MPD2    H1 1202   4.044   3.694  12.089 -1.3418 -1.4468 -1.7231
   77MPD2    H2 1203   4.098   4.114  12.102  0.0388  0.4148  1.9243
   77MPD2    H3 1204   4.163   3.883  12.172  0.8941  1.5489 -1.4107
   77MPD2     N 1205   3.817   3.693  11.951  0.2869  0.0018  0.8707
   77MPD2    H5 1206   3.842   3.607  11.998 -1.2411 -1.2059 -0.5422
   77MPD2    N1 1207   3.882   4.177  11.961  0.2036  0.2782  0.3194
   77MPD2    H7 1208   3.803   4.187  11.899 -1.5644 -1.2657  2.3483
   78TMC2    C1 1209   4.671   3.758   1.660  0.1011 -0.3843  0.5166
   78TMC2    C2 1210   4.541   3.766   1.673  0.4897  0.3184 -0.1328
   78TMC2    C3 1211   4.468   3.879   1.646  0.0405 -0.2553  0.8811
   78TMC2    C4 1212   0.001   3.878   1.618  0.3118  0.0843 -0.0170
   78TMC2    C5 1213   4.664   3.989   1.587  0.0910  0.2051 -0.3047
   78TMC2    C6 1214   4.526   3.994   1.618  0.2779  0.6339  0.1294
   78TMC2     C 1215   0.002   3.627   1.670 -0.1082 -0.2552  0.7621
   78TMC2     O 1216   4.663   3.535   1.696  0.0739 -0.3388 -0.2464
   78TMC2     H 1217   4.491   3.682   1.722  0.1497  0.8675  0.4599
   78TMC2    H1 1218   0.107   3.881   1.598  0.6012 -1.6943  1.3041
   78TMC2    H2 1219   4.458   4.078   1.610 -0.9289 -0.3825 -0.4849
   78TMC2    C7 1220   4.735   4.103   1.542  0.0078 -0.3677  0.2059
   78TMC2    C8 1221   4.345   3.895   1.713  0.2297  0.2687 -0.5931
   78TMC2    O1 1222   0.120   4.087   1.532 -0.3209 -0.0739 -0.5744
   78TMC2    O2 1223   4.333   4.001   1.775 -0.6205 -0.1315  0.1305
   78TMC2    O5 1224   4.253   3.828   1.643  0.6641  0.8307  0.9805
   78TMC2    H5 1225   4.290   3.745   1.605 -0.5863  0.6918  0.0595
   79MPD1     C 1226   0.409   3.345   1.789 -0.5060 -0.4598 -0.5195
   79MPD1    C1 1227   0.278   3.311   1.761  0.0114 -0.5936 -0.2698
   79MPD1    C2 1228   0.188   3.405   1.721  0.2337 -0.2351  0.5272
   79MPD1    C3 1229   0.228   3.535   1.716  0.6606  0.1133 -0.4074
   79MPD1    C4 1230   0.359   3.565   1.745  0.0820  0.1467  0.2407
   79MPD1    C5 1231   0.445   3.471   1.784 -0.5888  0.4599  0.0345
   79MPD1     H 1232   0.087   3.373   1.697  0.1172  1.1414 -0.8182
   79MPD1    H1 1233   0.396   3.667   1.749  1.1006 -0.1358 -1.8970
   79MPD1    H2 1234   0.477   3.266   1.822 -1.5890 -0.8308  0.8090
   79MPD1    H3 1235   0.544   3.504   1.814 -0.1372 -1.0979  0.2693
   79MPD1     N 1236   0.139   3.644   1.686 -0.2200  0.1396 -0.7031
   79MPD1    H5 1237   0.175   3.738   1.675  0.3503 -0.0176 -0.2243
   79MPD1    N1 1238   0.242   3.178   1.789  0.2809 -0.4108  0.2153
   79MPD1    H6 1239   0.147   3.150   1.763  1.1575 -1.6142 -1.6965
   79MPD1    H7 1240   0.307   3.107   1.755  0.9046 -0.6017  1.7936
   80TMC2    C1 1241   2.021   3.379  11.966  0.0102 -0.1550  0.2515
   80TMC2    C2 1242   1.922   3.467  12.006  0.0622 -0.2379  0.0619
   80TMC2    C3 1243   1.831   3.424  12.096  0.2757 -0.2078  0.2671
   80TMC2    C4 1244   2.030   3.246  12.003  0.0101 -0.1986 -0.5222
   80TMC2    C5 1245   1.931   3.214  12.096  0.1188 -0.5109  0.0600
   80TMC2    C6 1246   1.834   3.301  12.151 -0.6781 -0.1297 -0.4849
   80TMC2     C 1247   2.145   3.439  11.918 -0.4162  0.2402  1.1600
   80TMC2     O 1248   2.138   3.521  11.829 -0.3984  0.1717 -0.2464
   80TMC2     H 1249   1.930   3.571  11.979 -1.0464 -0.2481 -0.3168
   80TMC2    H1 1250   2.098   3.167  11.974  0.3887  0.4453 -1.3708
   80TMC2    H2 1251   1.761   3.275  12.227  2.1464  0.4856  2.4535
   80TMC2    C7 1252   1.951   3.087  12.163  0.2284  0.0683 -0.1630
   80TMC2    C8 1253   1.720   3.508  12.135  0.2935 -0.0522  0.1389
   80TMC2    O1 1254   1.984   2.990  12.093 -0.0372  0.2352 -0.3388
   80TMC2    O2 1255   1.657   3.492  12.239 -0.8258 -0.3939 -0.1972
   80TMC2    O5 1256   1.682   3.586  12.030  0.4556 -0.0879 -0.1219
   80TMC2    H5 1257   1.723   3.548  11.949 -1.4775 -2.2485 -0.0807
   81MPD2     C 1258   2.427   3.506  11.840 -0.0896 -0.3033  0.2721
   81MPD2    C1 1259   2.389   3.445  11.958 -0.4038 -0.0430  0.2690
   81MPD2    C2 1260   2.484   3.430  12.058  0.8963  0.3678 -0.0518
   81MPD2    C3 1261   2.614   3.475  12.036  0.2325  0.4938 -1.1278
   81MPD2    C4 1262   2.643   3.533  11.919  0.1089  0.1498  0.5572
   81MPD2    C5 1263   2.554   3.549  11.820  0.2725  0.1656  0.1265
   81MPD2     H 1264   2.470   3.388  12.157 -3.0348 -0.0110 -0.7658
   81MPD2    H1 1265   2.738   3.582  11.898  0.8590 -1.7741 -0.5680
   81MPD2    H2 1266   2.362   3.508  11.753 -1.2001 -0.8402  1.0990
   81MPD2    H3 1267   2.586   3.594  11.727  0.5343  0.2598  0.2605
   81MPD2     N 1268   2.715   3.481  12.137 -0.0860 -0.3417  0.1536
   81MPD2    H5 1269   2.800   3.527  12.107 -0.7237  0.6324 -0.2019
   81MPD2    N1 1270   2.258   3.395  11.977  0.1242  0.8280 -0.1559
   81MPD2    H7 1271   2.234   3.345  12.062 -0.5972  0.6373 -0.4676
   82TMC2    C1 1272   1.323   2.834  10.980 -0.2845 -0.2593  0.4442
   82TMC2    C2 1273   1.425   2.857  11.077  0.4270  0.1570  0.4027
   82TMC2    C3 1274   1.448   2.763  11.171  0.3796 -0.3964 -0.5401
   82TMC2    C4 1275   1.241   2.724  10.985 -0.6334 -0.0316  0.3482
   82TMC2    C5 1276   1.265   2.630  11.088  0.6110  0.0678  0.1569
   82TMC2    C6 1277   1.363   2.651  11.182 -0.4882 -0.5749  0.3600
   82TMC2     C 1278   1.251   2.954  10.954 -0.5242  0.0109 -0.5339
   82TMC2     O 1279   1.313   3.057  10.930 -0.2787  0.2804 -0.0516
   82TMC2     H 1280   1.461   2.959  11.077 -0.5933  0.5114  0.4934
   82TMC2    H1 1281   1.160   2.716  10.913 -0.7696  1.7088  0.2990
   82TMC2    H2 1282   1.385   2.586  11.266  2.0973  0.1783  0.2910
   82TMC2    C7 1283   1.166   2.521  11.104 -0.5854  0.6695  0.2031
   82TMC2    C8 1284   1.508   2.805  11.292  0.3238  0.2262 -0.6263
   82TMC2    O1 1285   1.184   2.441  11.197  0.2149 -0.0737 -0.1960
   82TMC2    O2 1286   1.438   2.799  11.390  0.6612  0.2165  0.0925
   82TMC2    O5 1287   1.582   2.913  11.256 -0.0798  0.1865 -0.2577
   82TMC2    H5 1288   1.621   2.890  11.169 -1.4808  1.1811 -1.1476
   83MPD2     C 1289   0.791   3.165  10.852  0.4784  0.2155 -0.7226
   83MPD2    C1 1290   0.771   3.052  10.924 -0.4968 -0.2923  0.5596
   83MPD2    C2 1291   0.879   2.983  10.982  0.1176 -0.6741 -0.4217
   83MPD2    C3 1292   1.004   3.022  10.953 -0.4466 -0.8506  0.1052
   83MPD2    C4 1293   1.028   3.122  10.860 -0.0182  0.1602  0.1117
   83MPD2    C5 1294   0.922   3.200  10.816 -0.1520 -0.8428 -0.7724
   83MPD2     H 1295   0.859   2.902  11.051  1.0936  0.0988  0.7565
   83MPD2    H1 1296   1.124   3.157  10.823  0.2856  0.2332  0.9706
   83MPD2    H2 1297   0.711   3.217  10.802  0.3735 -0.8527 -1.6410
   83MPD2    H3 1298   0.943   3.278  10.744 -1.3974  0.1364 -0.0711
   83MPD2     N 1299   1.117   2.939  10.993 -0.0113 -0.2051  0.3187
   83MPD2    H5 1300   1.098   2.862  11.057 -0.9134  3.3182  4.2668
   83MPD2    N1 1301   0.633   3.007  10.945  0.0391 -0.1464 -0.0822
   83MPD2    H7 1302   0.565   3.070  10.905 -1.2132 -1.1612  0.4618
   84TMC2    C1 1303   1.987   2.215  10.684  0.2652 -0.2719  0.5784
   84TMC2    C2 1304   1.891   2.121  10.638 -0.1855 -0.3477  0.2698
   84TMC2    C3 1305   1.920   2.061  10.513 -0.3863  0.4362  0.7847
   84TMC2    C4 1306   2.087   2.261  10.602 -0.4123 -0.4130  0.0647
   84TMC2    C5 1307   2.105   2.206  10.476 -0.9213 -0.1086  0.5481
   84TMC2    C6 1308   2.025   2.100  10.433  0.0725  0.1490 -0.3118
   84TMC2     C 1309   1.955   2.288  10.803  0.1560 -0.0106  0.9495
   84TMC2     O 1310   1.884   2.237  10.887 -0.3146 -0.5040  0.5594
   84TMC2     H 1311   1.800   2.100  10.693 -0.9262  1.3430 -0.3007
   84TMC2    H1 1312   2.168   2.317  10.647 -0.3314 -1.4449  1.1881
   84TMC2    H2 1313   2.046   2.030  10.353 -3.1606 -2.0941  0.7940
   84TMC2    C7 1314   2.238   2.219  10.419  0.4125 -0.2755  0.1811
   84TMC2    C8 1315   1.848   1.943  10.475 -0.1872  0.2990  0.0547
   84TMC2    O1 1316   2.275   2.138  10.330  0.0441 -0.0955 -0.0736
   84TMC2    O2 1317   1.816   1.919  10.358  0.4408 -0.0247 -0.1011
   84TMC2    O5 1318   1.817   1.876  10.591 -0.0747 -0.4527 -0.7737
   84TMC2    H5 1319   1.889   1.887  10.657 -1.6795 -0.0039  0.9133
   85TMC2    C1 1320   2.515   0.153  15.989  0.7995 -0.0313  0.3507
   85TMC2    C2 1321   2.388   0.205  15.974 -0.3594  0.6163  0.3775
   85TMC2    C3 1322   2.369   0.325  15.916  0.1316 -0.4723 -0.3110
   85TMC2    C4 1323   2.626   0.226  15.972  0.0201 -0.7463 -0.1394
   85TMC2    C5 1324   2.608   0.358  15.930 -0.2973  0.5857 -0.2779
   85TMC2    C6 1325   2.481   0.408  15.904  0.7164  0.6606  0.3843
   85TMC2     C 1326   2.537   0.029  16.065 -0.2631  0.0298  0.3807
   85TMC2     O 1327   2.631   0.035  16.143  0.0682 -0.2583 -0.0327
   85TMC2     H 1328   2.303   0.140  15.990 -0.2090  0.0334 -1.2012
   85TMC2    H1 1329   2.721   0.200  16.016 -0.1402 -0.5629  0.3183
   85TMC2    H2 1330   2.467   0.512  15.879  0.2135 -0.0360 -2.2280
   85TMC2    C7 1331   2.729   0.435  15.929 -0.0691  0.3661  0.0607
   85TMC2    C8 1332   2.246   0.397  15.904 -0.5864 -0.2424  0.4348
   85TMC2    O1 1333   2.821   0.400  15.999  0.0877  0.3528  0.5561
   85TMC2    O2 1334   2.232   0.493  15.826  0.1306  0.0978 -0.4582
   85TMC2    O5 1335   2.183   0.376  16.020 -0.4963 -0.0667 -0.5872
   85TMC2    H5 1336   2.198   0.288  16.060  2.7713  0.8690  0.2142
   86MPD2     C 1337   2.307   4.364  16.305 -0.3083  0.2449 -0.8354
   86MPD2    C1 1338   2.229   4.403  16.199 -0.0940 -0.3791  0.2358
   86MPD2    C2 1339   2.273   4.504  16.115 -0.5061 -0.3065  0.5699
   86MPD2    C3 1340   2.395   4.565  16.142  0.3163  1.0361  0.5801
   86MPD2    C4 1341   2.481   4.511  16.236 -0.8915 -0.3628 -0.4505
   86MPD2    C5 1342   2.437   4.409  16.315  0.1955  0.1599 -0.1585
   86MPD2     H 1343   2.216   4.534  16.028 -0.3224 -0.1854  0.4912
   86MPD2    H1 1344   2.580   4.542  16.267 -0.1683 -3.2943  0.2159
   86MPD2    H2 1345   2.282   4.282  16.372  2.0159  1.2446  1.2542
   86MPD2    H3 1346   2.504   4.380  16.395 -0.4978 -2.4435 -0.5333
   86MPD2     N 1347   2.425   4.681  16.061  0.4263  0.1286 -0.0715
   86MPD2    H5 1348   2.363   4.699  15.982  1.2009 -0.5001 -0.8288
   86MPD2    N1 1349   2.104   4.355  16.169  0.2422 -0.3739  0.0515
   86MPD2    H7 1350   2.066   4.371  16.076  0.6451 -1.0829 -0.2345
   87TMC2    C1 1351   0.366   3.061   1.203 -0.3678  0.2886  0.5802
   87TMC2    C2 1352   0.399   2.988   1.307  0.2465 -0.1763 -0.1532
   87TMC2    C3 1353   0.413   3.042   1.429  0.5979 -0.3739 -0.1342
   87TMC2    C4 1354   0.379   3.195   1.213  0.7817  0.7781 -0.1369
   87TMC2    C5 1355   0.403   3.251   1.338  0.0428 -0.5139 -0.3670
   87TMC2    C6 1356   0.417   3.174   1.452 -0.6575  0.5013 -0.9501
   87TMC2     C 1357   0.371   3.012   1.065 -0.0562 -0.8340 -0.5034
   87TMC2     O 1358   0.414   3.088   0.979  0.3212  0.3320  0.1750
   87TMC2     H 1359   0.418   2.882   1.296  0.4209 -0.0565 -1.0568
   87TMC2    H1 1360   0.370   3.268   1.133 -2.8898  1.2531  0.6877
   87TMC2    H2 1361   0.403   3.211   1.553  1.0809 -0.7677 -0.2367
   87TMC2    C7 1362   0.391   3.392   1.347  0.6095 -0.1969  0.1861
   87TMC2    C8 1363   0.380   2.958   1.545 -0.4880  0.8501 -0.3092
   87TMC2    O1 1364   0.306   3.441   1.270 -0.0817  0.0341  0.0543
   87TMC2    O2 1365   0.431   2.973   1.656  0.1133 -0.0099  0.0805
   87TMC2    O5 1366   0.309   2.849   1.511 -0.6964  0.2193 -0.4329
   87TMC2    H5 1367   0.277   2.840   1.419 -0.5106  1.4994 -0.6278
   88MPD2     C 1368   0.627   3.624   1.501 -0.5515  0.1787  0.7245
   88MPD2    C1 1369   0.514   3.590   1.434 -0.0599  0.7870 -1.1288
   88MPD2    C2 1370   0.427   3.688   1.388  0.6090  0.5178  0.0513
   88MPD2    C3 1371   0.453   3.819   1.399  0.1671  0.2490 -0.5807
   88MPD2    C4 1372   0.566   3.857   1.464  0.4899  0.0824  0.1728
   88MPD2    C5 1373   0.655   3.764   1.504  0.8123  0.1135  1.4665
   88MPD2     H 1374   0.337   3.656   1.336  0.7386 -2.4569  1.7014
   88MPD2    H1 1375   0.579   3.963   1.482 -0.6277  0.0940  0.8890
   88MPD2    H2 1376   0.694   3.552   1.548 -0.3906 -0.5641 -0.6448
   88MPD2    H3 1377   0.742   3.794   1.562 -0.1329  1.7726  2.0034
   88MPD2     N 1378   0.366   3.921   1.348 -0.0924  0.2978  0.8033
   88MPD2    H5 1379   0.391   4.012   1.386  0.3434  0.3783  0.3343
   88MPD2    N1 1380   0.490   3.450   1.423 -0.2153  0.0816  0.1202
   88MPD2    H7 1381   0.555   3.383   1.465 -1.0365 -0.0840  1.1454
   89TMC2    C1 1382   0.545   1.533   2.112 -0.5616  0.2281 -0.3308
   89TMC2    C2 1383   0.430   1.571   2.048 -0.2531  0.5806 -0.0601
   89TMC2    C3 1384   0.448   1.673   1.960 -0.2579 -0.5137  0.0267
   89TMC2    C4 1385   0.669   1.572   2.074  0.2209  0.0279 -0.4048
   89TMC2    C5 1386   0.680   1.653   1.961 -0.2867  0.0378 -0.7831
   89TMC2    C6 1387   0.569   1.709   1.906 -0.2513  0.2777  0.1801
   89TMC2     C 1388   0.542   1.457   2.235 -0.7272  0.4709  0.2480
   89TMC2     O 1389   0.641   1.457   2.308  0.4679 -0.0157 -0.1418
   89TMC2     H 1390   0.334   1.535   2.083 -1.1236  1.3054 -1.7073
   89TMC2    H1 1391   0.756   1.510   2.093 -0.7229 -1.0574  0.3489
   89TMC2    H2 1392   0.571   1.783   1.826 -1.3125 -0.0929 -0.1875
   89TMC2    C7 1393   0.792   1.644   1.869  0.3129 -0.0978 -0.0413
   89TMC2    C8 1394   0.342   1.693   1.858 -0.3195 -0.2584 -0.6368
   89TMC2    O1 1395   0.865   1.546   1.888 -0.2942  0.2877  0.2127
   89TMC2    O2 1396   0.330   1.793   1.788  0.1121 -0.1513 -0.2189
   89TMC2    O5 1397   0.293   1.573   1.817  0.1003  0.4390 -0.7218
   89TMC2    H5 1398   0.325   1.506   1.881 -1.1422  1.3394  0.8331
   90MPD2     C 1399   0.377   1.055   2.507  0.2639 -0.9434  0.2509
   90MPD2    C1 1400   0.295   1.066   2.396  0.3097  0.0805 -0.3109
   90MPD2    C2 1401   0.320   1.169   2.310  0.1511 -0.8624  0.9736
   90MPD2    C3 1402   0.418   1.257   2.337 -0.6255 -0.7798 -0.1949
   90MPD2    C4 1403   0.499   1.245   2.453 -0.4919 -0.2175  0.2356
   90MPD2    C5 1404   0.475   1.141   2.540 -0.2594  0.2766  0.2647
   90MPD2     H 1405   0.262   1.176   2.219  1.1022 -0.5426  0.3923
   90MPD2    H1 1406   0.576   1.315   2.482 -1.0595  0.2700  0.5857
   90MPD2    H2 1407   0.373   0.978   2.584 -1.6482 -0.9012  0.1869
   90MPD2    H3 1408   0.523   1.121   2.635  0.8698 -0.0904 -0.3915
   90MPD2     N 1409   0.438   1.365   2.240 -0.3483  0.1994 -0.0011
   90MPD2    H5 1410   0.374   1.355   2.161  0.3116  1.8479 -0.7394
   90MPD2    N1 1411   0.188   0.979   2.364 -0.6747 -0.7484 -0.1633
   90MPD2    H7 1412   0.140   1.006   2.279  2.3164 -0.3008 -1.7289
   91TMC2    C1 1413   2.450   0.496  16.275  0.3817  0.6826  0.8132
   91TMC2    C2 1414   2.529   0.434  16.370 -0.3472  0.2137  0.7197
   91TMC2    C3 1415   2.468   0.358  16.465  0.1424 -0.1795  0.4207
   91TMC2    C4 1416   2.315   0.487  16.286 -0.0599 -0.4606 -0.6461
   91TMC2    C5 1417   2.259   0.403  16.383  0.1774 -0.4665  0.0344
   91TMC2    C6 1418   2.333   0.328  16.467  0.4702 -0.5931 -0.3482
   91TMC2     C 1419   2.500   0.602  16.187  0.1968 -0.4616 -0.0715
   91TMC2     O 1420   2.423   0.626  16.095 -0.4400  0.4084  0.0746
   91TMC2     H 1421   2.637   0.447  16.371 -0.4395  0.9064  1.6242
   91TMC2    H1 1422   2.250   0.549  16.225  0.4414  0.6244 -0.0896
   91TMC2    H2 1423   2.288   0.274  16.549  4.2126 -0.8022  1.5590
   91TMC2    C7 1424   2.116   0.404  16.411  0.3059 -0.1872 -0.2333
   91TMC2    C8 1425   2.528   0.341  16.591 -0.0275  0.0093 -0.3707
   91TMC2    O1 1426   2.079   0.384  16.527  0.3798 -0.7491  1.1125
   91TMC2    O2 1427   2.501   0.254  16.673 -0.9143 -0.1827  0.1389
   91TMC2    O5 1428   2.635   0.432  16.610  0.2748  0.1345  0.5440
   91TMC2    H5 1429   2.655   0.496  16.539 -2.3847  0.9776  0.5554
   92MPD2     C 1430   2.636   0.815  16.028  0.6472  0.0841 -0.1719
   92MPD2    C1 1431   2.699   0.740  16.124 -0.3188  0.1117  0.5376
   92MPD2    C2 1432   2.822   0.781  16.163 -0.5323  0.1892  0.2068
   92MPD2    C3 1433   2.890   0.886  16.105  0.5230  0.1688 -0.1446
   92MPD2    C4 1434   2.828   0.962  16.013  0.4942  0.5363 -0.5271
   92MPD2    C5 1435   2.700   0.929  15.977  0.4346  0.3735 -0.1263
   92MPD2     H 1436   2.882   0.728  16.236 -1.1392 -2.0780 -0.9308
   92MPD2    H1 1437   2.864   1.056  15.973  2.9748 -1.2336 -2.4037
   92MPD2    H2 1438   2.536   0.794  15.991  0.6430 -0.2160  0.0109
   92MPD2    H3 1439   2.640   0.988  15.909 -1.1679 -2.1822 -0.9191
   92MPD2     N 1440   3.020   0.924  16.143 -0.4373  0.0173 -0.5164
   92MPD2    H5 1441   3.064   0.851  16.198  0.3687  0.7674 -0.1599
   92MPD2    N1 1442   2.629   0.645  16.205 -0.7372 -0.3837 -0.0612
   92MPD2    H7 1443   2.668   0.619  16.296 -0.6430 -2.8893 -0.8052
   93TMC2    C1 1444   0.086   1.468  13.951 -0.7972 -0.0063  0.4822
   93TMC2    C2 1445   0.046   1.595  13.977 -0.2012 -0.4449  0.0852
   93TMC2    C3 1446   0.135   1.694  13.950 -0.5535 -0.0149 -0.4278
   93TMC2    C4 1447   0.201   1.445  13.877 -0.8859 -0.0059  0.1600
   93TMC2    C5 1448   0.289   1.550  13.852  1.0080 -0.0572 -0.4974
   93TMC2    C6 1449   0.250   1.677  13.883 -0.6818 -0.4579 -0.3476
   93TMC2     C 1450   4.728   1.356  13.961 -0.4548  0.1469 -0.1135
   93TMC2     O 1451   0.018   1.267  13.882  0.7163  0.1308 -0.5242
   93TMC2     H 1452   4.693   1.625  14.030 -0.1152  1.1876 -0.6955
   93TMC2    H1 1453   0.223   1.344  13.842 -1.0401 -0.4572  1.3658
   93TMC2    H2 1454   0.300   1.769  13.853 -1.3458 -1.2474 -3.8815
   93TMC2    C7 1455   0.419   1.524  13.798 -0.3939 -0.3326 -0.7166
   93TMC2    C8 1456   0.073   1.820  13.960  0.0883  0.3150 -0.1025
   93TMC2    O1 1457   0.469   1.411  13.807 -0.0921  0.1396  0.6777
   93TMC2    O2 1458   4.689   1.844  13.949  0.7155  0.2131 -0.0689
   93TMC2    O5 1459   0.163   1.914  14.008 -0.3219 -0.3083 -0.0753
   93TMC2    H5 1460   0.250   1.878  14.036 -0.2692 -0.1475 -0.0256
   94MPD2     C 1461   4.517   1.168  14.003  0.1871 -0.4271  0.3278
   94MPD2    C1 1462   4.506   1.298  14.051  0.1867 -0.0826 -0.0477
   94MPD2    C2 1463   4.391   1.328  14.125  0.5133 -0.5769  0.1496
   94MPD2    C3 1464   4.278   1.250  14.132 -0.7640 -0.3865  0.1658
   94MPD2    C4 1465   4.287   1.128  14.066  0.0854 -0.3585  0.2956
   94MPD2    C5 1466   4.402   1.099  14.000 -0.0940 -0.0115  0.1369
   94MPD2     H 1467   4.391   1.424  14.174 -0.3689  1.4188 -3.7548
   94MPD2    H1 1468   4.211   1.052  14.078 -0.9185  0.6323  0.1723
   94MPD2    H2 1469   4.604   1.133  13.949 -0.0720 -0.1245 -0.2892
   94MPD2    H3 1470   4.411   0.996  13.967 -0.6616  0.5843 -1.8630
   94MPD2     N 1471   4.164   1.274  14.206 -0.4580  0.3242  0.4242
   94MPD2    H5 1472   4.101   1.194  14.209  1.3906 -1.2241 -1.6217
   94MPD2    N1 1473   4.612   1.383  14.036 -0.3035  0.3594 -0.3667
   94MPD2    H7 1474   4.602   1.476  14.075  0.0434 -0.4445  1.6518
   95TMC2    C1 1475   4.142   2.519  16.326 -0.3023 -0.1736 -0.2783
   95TMC2    C2 1476   4.148   2.409  16.259 -0.4934  0.1179  0.1066
   95TMC2    C3 1477   4.033   2.355  16.209 -0.4195  0.1215  0.5603
   95TMC2    C4 1478   4.018   2.567  16.352 -0.5680  0.9760 -0.2221
   95TMC2    C5 1479   3.901   2.504  16.315 -0.3625 -0.1844 -0.6205
   95TMC2    C6 1480   3.901   2.400  16.231  0.2429 -0.4946 -0.0414
   95TMC2     C 1481   4.242   2.621  16.308 -0.8660 -0.4100 -0.8005
   95TMC2     O 1482   4.305   2.608  16.202  0.7008 -0.2884  0.0592
   95TMC2     H 1483   4.244   2.366  16.232 -1.8198 -2.5156 -0.3993
   95TMC2    H1 1484   4.010   2.661  16.405 -4.4737  0.7405 -0.4190
   95TMC2    H2 1485   3.809   2.357  16.193 -0.3064 -1.4625  2.3668
   95TMC2    C7 1486   3.779   2.565  16.368  0.3501 -0.0857  0.1386
   95TMC2    C8 1487   4.053   2.256  16.107 -0.0060  0.0654 -0.8854
   95TMC2    O1 1488   3.675   2.539  16.309  0.3633 -0.1599 -0.5088
   95TMC2    O2 1489   4.153   2.185  16.117 -0.0897 -0.2550  0.2168
   95TMC2    O5 1490   3.980   2.292  16.003  0.4090 -0.0084  0.3426
   95TMC2    H5 1491   3.949   2.385  16.015 -2.5643 -1.2329  2.2287
   96MPD2     C 1492   4.468   3.080  16.377 -0.2090 -0.6054 -0.1526
   96MPD2    C1 1493   4.487   2.981  16.282  0.1880 -0.0325 -1.1509
   96MPD2    C2 1494   4.411   2.869  16.291 -0.7865 -0.5485 -0.0454
   96MPD2    C3 1495   4.321   2.842  16.392  0.4777  0.3838 -0.7586
   96MPD2    C4 1496   4.308   2.934  16.494  0.3857 -0.1346  0.2790
   96MPD2    C5 1497   4.382   3.048  16.479  0.5187  0.3728 -1.2622
   96MPD2     H 1498   4.441   2.784  16.230  0.2707 -0.8322  0.8690
   96MPD2    H1 1499   4.243   2.926  16.581  0.4063  2.8060  0.5581
   96MPD2    H2 1500   4.523   3.173  16.377 -1.2567  0.0042  0.1687
   96MPD2    H3 1501   4.383   3.113  16.566  1.0542  1.2803 -1.9465
   96MPD2     N 1502   4.247   2.722  16.404 -0.2102 -0.2323  0.0610
   96MPD2    H5 1503   4.189   2.702  16.485 -0.7895 -2.6530 -0.9554
   96MPD2    N1 1504   4.588   3.000  16.182  0.1747 -0.2708  0.0998
   96MPD2    H7 1505   4.643   3.084  16.199  1.7417 -1.2861  0.0532
   97TMC2    C1 1506   1.722   0.946  17.724 -0.4392 -0.0841 -0.5939
   97TMC2    C2 1507   1.638   0.955  17.621 -0.0870  0.1856 -0.2638
   97TMC2    C3 1508   1.606   1.085  17.582 -0.0815 -0.0475 -0.3488
   97TMC2    C4 1509   1.781   1.052   0.038 -0.0863 -0.1553 -0.5802
   97TMC2    C5 1510   1.748   1.175  17.734 -0.1359  0.5330 -0.5218
   97TMC2    C6 1511   1.662   1.201  17.629  0.2315 -0.9202 -0.0847
   97TMC2     C 1512   1.742   0.817   0.043  0.8587  0.4089  0.6892
   97TMC2     O 1513   1.652   0.736   0.049 -0.2030 -0.2984  0.2077
   97TMC2     H 1514   1.589   0.865  17.584 -1.0944  0.2175  1.0080
   97TMC2    H1 1515   1.855   1.044   0.117 -0.1021 -2.8781 -0.8311
   97TMC2    H2 1516   1.636   1.299  17.593  0.5980 -0.9413 -0.4107
   97TMC2    C7 1517   1.802   1.291   0.064  0.0684 -0.2617 -0.5430
   97TMC2    C8 1518   1.518   1.102  17.470 -0.6377  0.3734 -0.2888
   97TMC2    O1 1519   1.915   1.271   0.107  0.0210 -0.3229 -0.1177
   97TMC2    O2 1520   1.499   1.013  17.392  0.0583  0.7123  0.4468
   97TMC2    O5 1521   1.427   1.186  17.521 -0.2193  0.4285  0.4428
   97TMC2    H5 1522   1.450   1.228  17.606  1.2291  1.8981 -0.6778
   98MPD2     C 1523   1.957   0.517   0.384  0.7851  0.7149 -0.1284
   98MPD2    C1 1524   1.828   0.558   0.369 -0.6349  0.0117  0.2063
   98MPD2    C2 1525   1.791   0.649   0.272  0.6768 -0.0789 -0.3965
   98MPD2    C3 1526   1.891   0.709   0.199 -0.0993 -0.2910  0.3003
   98MPD2    C4 1527   2.022   0.679   0.220  0.4425 -0.3180  0.1355
   98MPD2    C5 1528   2.056   0.580   0.308  0.7486 -0.1145 -0.3076
   98MPD2     H 1529   1.687   0.676   0.258  0.5238  0.6252  2.0442
   98MPD2    H1 1530   2.103   0.718   0.159  2.8756 -1.1540  2.8366
   98MPD2    H2 1531   1.982   0.430   0.444 -1.2289 -1.0308 -1.8415
   98MPD2    H3 1532   2.157   0.542   0.316  0.9375  0.0487 -1.8490
   98MPD2     N 1533   1.869   0.801   0.090 -0.3685 -0.1234  0.0493
   98MPD2    H5 1534   1.940   0.868   0.062 -0.9477 -0.0028 -1.1062
   98MPD2    N1 1535   1.722   0.506   0.449 -0.3274 -0.1245 -0.3940
   98MPD2    H7 1536   1.756   0.446   0.524 -2.0489 -1.1908 -0.4517
   99TMC2    C1 1537   0.561   2.016   2.412 -0.0642  0.4911  0.1041
   99TMC2    C2 1538   0.599   1.969   2.536  0.2522 -0.9278  0.0366
   99TMC2    C3 1539   0.505   1.981   2.633  0.2193 -0.3005 -0.2701
   99TMC2    C4 1540   0.444   2.081   2.385  0.1197 -0.2306  0.2571
   99TMC2    C5 1541   0.364   2.101   2.489 -0.1948  0.0645  0.4653
   99TMC2    C6 1542   0.390   2.048   2.612  0.5173  0.1022 -0.1476
   99TMC2     C 1543   0.660   1.998   2.308 -0.7959 -0.8607  0.1659
   99TMC2     O 1544   0.771   1.952   2.345  0.9329 -0.6481 -0.0681
   99TMC2     H 1545   0.696   1.929   2.562 -0.3990 -1.8647  1.0199
   99TMC2    H1 1546   0.439   2.151   2.302 -0.2980  0.2250  0.6666
   99TMC2    H2 1547   0.315   2.057   2.690  0.1160  0.1864 -0.5427
   99TMC2    C7 1548   0.243   2.176   2.471 -0.2320  0.1901  0.8613
   99TMC2    C8 1549   0.546   1.951   2.764 -0.3558  0.3190  0.0602
   99TMC2    O1 1550   0.189   2.224   2.571 -0.2168 -0.4243  0.0195
   99TMC2    O2 1551   0.660   1.963   2.794  0.2349 -0.0280  0.0467
   99TMC2    O5 1552   0.442   1.948   2.849 -0.6113 -0.0382 -0.3434
   99TMC2    H5 1553   0.368   1.897   2.809 -0.9965 -0.8634  1.3975
  100MPD2     C 1554   0.826   2.019   2.067  0.5868  0.0131  0.3733
  100MPD2    C1 1555   0.692   2.055   2.075  0.0501 -0.5441 -0.3691
  100MPD2    C2 1556   0.638   2.112   1.965  0.4628  1.0074 -0.3213
  100MPD2    C3 1557   0.722   2.139   1.853  0.1801 -0.2607  0.0333
  100MPD2    C4 1558   0.856   2.112   1.860  0.8003 -0.5342 -0.3595
  100MPD2    C5 1559   0.907   2.056   1.965  0.1288 -0.2643  0.1329
  100MPD2     H 1560   0.534   2.141   1.957 -0.3237 -0.7814  3.2214
  100MPD2    H1 1561   0.918   2.108   1.771  1.4639 -2.2319  0.1886
  100MPD2    H2 1562   0.874   1.978   2.156 -3.4167  0.0676  2.5338
  100MPD2    H3 1563   1.012   2.029   1.971  0.1681 -0.1026  0.1679
  100MPD2     N 1564   0.651   2.187   1.736  0.2170 -0.3376  0.3652
  100MPD2    H5 1565   0.560   2.224   1.760  1.0455  1.1043  1.3160
  100MPD2    N1 1566   0.610   2.030   2.187 -0.5277  0.5747  0.4786
  100MPD2    H7 1567   0.508   2.039   2.184 -0.4960  0.8340  0.2076
  101TMC2    C1 1568   1.716   3.841  13.187  0.0286 -0.0862 -1.0276
  101TMC2    C2 1569   1.676   3.955  13.253 -0.1531 -0.0777 -0.0958
  101TMC2    C3 1570   1.756   4.065  13.247  0.1080  0.3483 -0.0898
  101TMC2    C4 1571   1.831   3.836  13.107 -0.6036  0.4541  0.9295
  101TMC2    C5 1572   1.919   3.934  13.126  0.3950 -0.3537 -0.0852
  101TMC2    C6 1573   1.883   4.050  13.195 -0.5882 -0.4352 -0.5900
  101TMC2     C 1574   1.616   3.734  13.175  0.4329  1.4137  0.2903
  101TMC2     O 1575   1.505   3.753  13.221  0.0371  0.3989  0.4526
  101TMC2     H 1576   1.581   3.950  13.305  0.1810  3.8662  0.8238
  101TMC2    H1 1577   1.861   3.749  13.050 -3.5241  0.3028 -0.3847
  101TMC2    H2 1578   1.959   4.127  13.205  0.0576 -1.3029  1.2458
  101TMC2    C7 1579   2.031   3.948  13.043 -0.1872 -0.8692 -0.6644
  101TMC2    C8 1580   1.734   4.168  13.349 -0.3267  0.2778  0.2313
  101TMC2    O1 1581   2.079   4.058  13.035 -0.2989  0.2355 -0.4098
  101TMC2    O2 1582   1.669   4.143  13.453  0.3715  0.1368 -0.5219
  101TMC2    O5 1583   1.824   4.267  13.340 -0.3626 -0.4607 -0.7404
  101TMC2    H5 1584   1.852   4.285  13.248 -0.4743 -0.5025 -0.7825
  102MPD2     C 1585   1.684   3.390  13.063  0.6627 -0.3640 -0.0634
  102MPD2    C1 1586   1.616   3.490  13.126 -0.2099 -0.8296  0.5763
  102MPD2    C2 1587   1.501   3.456  13.199 -0.5393  0.3097  0.0935
  102MPD2    C3 1588   1.447   3.330  13.199 -0.6556 -0.4637  0.5945
  102MPD2    C4 1589   1.510   3.225  13.132 -0.1952  0.1025  0.1055
  102MPD2    C5 1590   1.634   3.259  13.070 -0.5578  0.1121  0.1661
  102MPD2     H 1591   1.450   3.526  13.264 -0.0660  1.4563 -0.7852
  102MPD2    H1 1592   1.474   3.123  13.126 -0.3167  0.1850 -0.5494
  102MPD2    H2 1593   1.779   3.410  13.015 -0.0245 -0.4017 -1.4346
  102MPD2    H3 1594   1.694   3.178  13.031 -0.0191  1.6295 -2.1369
  102MPD2     N 1595   1.334   3.305  13.286 -0.3567 -0.5003 -0.2189
  102MPD2    H5 1596   1.306   3.383  13.344 -0.6993 -1.0426  0.3337
  102MPD2    N1 1597   1.677   3.618  13.130  0.3772  0.2060 -0.0686
  102MPD2    H7 1598   1.771   3.623  13.093  0.4948 -1.0831  0.0419
  103TMC2    C1 1599   4.495   3.121  12.148 -0.6662 -0.0855  0.2822
  103TMC2    C2 1600   4.594   3.060  12.079 -0.2832 -0.1604 -0.2712
  103TMC2    C3 1601   4.699   3.132  12.051  0.2545  0.0061  0.0609
  103TMC2    C4 1602   4.509   3.242  12.201 -0.8283 -0.4250  0.3514
  103TMC2    C5 1603   4.624   3.310  12.172 -0.4548 -0.7179 -0.3330
  103TMC2    C6 1604   4.725   3.255  12.096  0.2680  0.2121  0.1144
  103TMC2     C 1605   4.371   3.053  12.168 -0.1441  0.1346 -0.3638
  103TMC2     O 1606   4.378   2.931  12.177 -0.6085  0.1676 -0.2783
  103TMC2     H 1607   4.584   2.970  12.019  1.3076 -0.6542  0.1955
  103TMC2    H1 1608   4.428   3.290  12.255 -0.4138 -0.0778  0.6686
  103TMC2    H2 1609   0.085   3.298  12.070 -0.1874 -0.0806 -2.0545
  103TMC2    C7 1610   4.619   3.452  12.212  0.1058 -0.4519  0.0172
  103TMC2    C8 1611   0.038   3.108  11.928 -0.0947 -0.4418  0.1071
  103TMC2    O1 1612   4.515   3.477  12.270 -0.5265 -0.4723 -0.0181
  103TMC2    O2 1613   0.033   3.198  11.845 -0.4572 -0.5062 -0.4900
  103TMC2    O5 1614   0.042   2.980  11.898 -0.5344 -0.1798  0.2508
  103TMC2    H5 1615   0.024   2.923  11.975  1.2285 -1.1985 -0.0820
  104MPD2     C 1616   4.096   2.948  12.174 -0.0596 -0.5114  0.3770
  104MPD2    C1 1617   4.135   3.066  12.123 -0.1432  0.7804  0.1330
  104MPD2    C2 1618   4.046   3.148  12.061 -0.0502  0.0529 -0.6958
  104MPD2    C3 1619   3.912   3.111  12.040  0.1709 -0.3762 -0.0039
  104MPD2    C4 1620   3.872   2.985  12.077 -0.2296  0.2045  0.5751
  104MPD2    C5 1621   3.965   2.907  12.147 -0.3383 -0.0714 -0.5057
  104MPD2     H 1622   4.076   3.250  12.038 -0.1924  0.1829 -0.3113
  104MPD2    H1 1623   3.770   2.947  12.070 -0.2743  0.4299  0.0215
  104MPD2    H2 1624   4.155   2.895  12.248  0.3772  0.5400  0.7855
  104MPD2    H3 1625   3.928   2.814  12.189 -0.4443  0.3428  0.3250
  104MPD2     N 1626   3.826   3.209  11.996 -0.1135 -0.0674 -0.1644
  104MPD2    H5 1627   3.882   3.285  11.959  3.3725 -2.7027 -0.3685
  104MPD2    N1 1628   4.263   3.122  12.138 -0.1124 -0.0864 -0.2393
  104MPD2    H7 1629   4.281   3.221  12.125  1.2109 -0.2046  0.7074
  105TMC2    C1 1630   0.517   2.767   0.122  0.0884  0.1025 -0.2965
  105TMC2    C2 1631   0.451   2.883   0.089 -0.2783 -0.6411  0.0675
  105TMC2    C3 1632   0.404   2.951   0.197 -0.2073 -0.1230 -0.1819
  105TMC2    C4 1633   0.514   2.714   0.248  0.0883 -0.3960 -0.2035
  105TMC2    C5 1634   0.462   2.793   0.349 -0.5844 -0.2668 -0.1772
  105TMC2    C6 1635   0.414   2.918   0.330 -0.0524  0.1280 -0.8983
  105TMC2     C 1636   0.518   2.655   0.022  0.1625 -0.4683 -0.8724
  105TMC2     O 1637   0.491   2.539   0.046 -0.0111 -0.1573  0.6591
  105TMC2     H 1638   0.447   2.934  17.736  3.2181 -0.3281  0.1235
  105TMC2    H1 1639   0.563   2.622   0.275  1.7444  0.7110  0.5831
  105TMC2    H2 1640   0.384   2.987   0.408 -0.0654 -0.5769 -0.2796
  105TMC2    C7 1641   0.458   2.729   0.476 -0.2218 -0.0217 -0.3638
  105TMC2    C8 1642   0.364   3.087   0.180 -0.0392  0.1125  0.2732
  105TMC2    O1 1643   0.465   2.605   0.471  0.7361 -0.4048  0.2802
  105TMC2    O2 1644   0.281   3.142   0.252  0.5601  0.1990 -0.0130
  105TMC2    O5 1645   0.471   3.144   0.118  0.0768  0.0403 -0.2756
  105TMC2    H5 1646   0.560   3.108   0.139  1.2296  2.2946 -1.3192
  106MPD2     C 1647   0.621   2.463  17.306  0.1090  0.3670 -0.0334
  106MPD2    C1 1648   0.679   2.588  17.311 -0.2082  1.0566  0.6930
  106MPD2    C2 1649   0.653   2.670  17.419  0.5689  0.5690 -0.0378
  106MPD2    C3 1650   0.575   2.622  17.523  0.0799 -0.6030  0.5724
  106MPD2    C4 1651   0.528   2.495  17.518 -0.4200  0.7816  1.0999
  106MPD2    C5 1652   0.552   2.411  17.411  0.2830  0.6128  0.1307
  106MPD2     H 1653   0.686   2.773  17.424  0.8006  0.5406 -1.1507
  106MPD2    H1 1654   0.491   2.430  17.596 -3.6422 -0.2098 -1.2493
  106MPD2    H2 1655   0.651   2.402  17.221 -1.6782 -2.3922  1.3150
  106MPD2    H3 1656   0.544   2.303  17.412 -3.1562  0.8699  0.5361
  106MPD2     N 1657   0.561   2.700  17.640  0.2167 -0.8121 -0.4958
  106MPD2    H5 1658   0.586   2.798  17.644  0.2865 -0.7799 -1.7646
  106MPD2    N1 1659   0.761   2.644  17.213 -0.4712  0.1718  0.0719
  106MPD2    H7 1660   0.770   2.745  17.201 -0.9425  0.2229  0.1419
  107TMC2    C1 1661   1.580   2.587  11.624  0.3782  0.0548  0.5396
  107TMC2    C2 1662   1.589   2.450  11.643  0.4688  0.4542 -0.1248
  107TMC2    C3 1663   1.675   2.385  11.562  0.2322  0.7109  0.4426
  107TMC2    C4 1664   1.667   2.651  11.545 -0.3853  0.3011 -0.4258
  107TMC2    C5 1665   1.753   2.577  11.465 -0.1211 -0.6004 -0.7001
  107TMC2    C6 1666   1.752   2.445  11.469  0.1753 -0.5471  0.8765
  107TMC2     C 1667   1.501   2.657  11.722  0.3636  0.1528 -0.2343
  107TMC2     O 1668   1.445   2.586  11.807  0.2981 -0.3885 -0.4269
  107TMC2     H 1669   1.520   2.396  11.707  2.1665 -0.1038  1.2651
  107TMC2    H1 1670   1.682   2.757  11.529  0.1104  0.1723 -0.7994
  107TMC2    H2 1671   1.813   2.381  11.408  0.2968 -0.7542  1.2186
  107TMC2    C7 1672   1.813   2.643  11.344 -0.4924  0.0624 -0.0729
  107TMC2    C8 1673   1.660   2.242  11.561  0.3681  0.6291 -0.3285
  107TMC2    O1 1674   1.815   2.766  11.354 -0.2087 -0.1320 -0.3349
  107TMC2    O2 1675   1.686   2.175  11.461  0.1826  0.4419  0.1487
  107TMC2    O5 1676   1.654   2.195  11.686 -0.1746 -0.0255 -0.0240
  107TMC2    H5 1677   1.648   2.276  11.742 -2.8054 -0.2688  0.0463
  108MPD2     C 1678   1.368   3.000  11.664  0.1165  0.0042  0.3859
  108MPD2    C1 1679   1.392   2.878  11.732 -0.7858 -0.0150 -0.0099
  108MPD2    C2 1680   1.324   2.851  11.846  0.1738  0.2854  0.1927
  108MPD2    C3 1681   1.244   2.947  11.901  0.9299  0.2201  0.6179
  108MPD2    C4 1682   1.212   3.061  11.828  0.2680  0.1821  0.5647
  108MPD2    C5 1683   1.277   3.085  11.711 -0.3162 -0.1847 -0.5849
  108MPD2     H 1684   1.341   2.757  11.897  1.5117  1.4204  1.8157
  108MPD2    H1 1685   1.131   3.125  11.862  1.0942 -0.1272  3.1094
  108MPD2    H2 1686   1.430   3.035  11.583  1.2704 -0.4962  1.0422
  108MPD2    H3 1687   1.266   3.179  11.660  2.2902  0.3351 -0.1897
  108MPD2     N 1688   1.190   2.929  12.031  0.1027  0.0712  0.0677
  108MPD2    H5 1689   1.125   2.999  12.065  0.5898  0.3464  0.4486
  108MPD2    N1 1690   1.481   2.784  11.674 -0.2433  0.4407  0.5054
  108MPD2    H7 1691   1.515   2.808  11.581  1.3296  1.1021  1.2562
  109TMC2    C1 1692   0.759   4.394   0.283 -0.4885 -0.1065  0.6350
  109TMC2    C2 1693   0.755   4.287   0.202  0.2485  0.3395 -0.2684
  109TMC2    C3 1694   0.871   4.244   0.145  0.3787 -0.2796  0.1055
  109TMC2    C4 1695   0.872   4.466   0.309 -0.0406  0.4763 -0.0508
  109TMC2    C5 1696   0.984   4.424   0.254  0.1989  0.8990 -0.1674
  109TMC2    C6 1697   0.986   4.309   0.180 -0.3922  0.5815 -0.2773
  109TMC2     C 1698   0.640   4.440   0.352  0.5890 -0.4514  0.2662
  109TMC2     O 1699   0.536   4.445   0.283 -0.0933  0.3790 -0.2334
  109TMC2     H 1700   0.668   4.225   0.217 -0.8957  2.2342  1.0654
  109TMC2    H1 1701   0.868   4.551   0.377  0.3102 -1.6436  2.6488
  109TMC2    H2 1702   1.078   4.286   0.128  0.6323 -0.2946  1.8923
  109TMC2    C7 1703   1.105   4.480   0.314 -0.1789  0.6402  0.4257
  109TMC2    C8 1704   0.897   4.101   0.125 -0.6884  0.1268 -0.3364
  109TMC2    O1 1705   1.079   4.548   0.410 -0.0069 -0.7140  0.1076
  109TMC2    O2 1706   0.989   4.045   0.188 -0.2062 -0.2040  0.1111
  109TMC2    O5 1707   0.787   4.046   0.068  0.2030  0.3718 -0.1713
  109TMC2    H5 1708   0.731   4.108   0.017 -2.2273 -1.6157  0.0643
  110MPD2     C 1709   0.383   4.571   0.781  0.2878  0.2715 -0.1629
  110MPD2    C1 1710   0.502   4.531   0.816  0.0524  0.7438  0.2664
  110MPD2    C2 1711   0.598   4.509   0.713  0.2032 -0.3044  0.0601
  110MPD2    C3 1712   0.563   4.509   0.577 -0.1849 -0.4645 -0.3664
  110MPD2    C4 1713   0.439   4.544   0.546 -0.5630  0.0750 -0.1465
  110MPD2    C5 1714   0.346   4.573   0.652 -0.7134  0.4009 -0.4579
  110MPD2     H 1715   0.697   4.467   0.730  0.5957  0.5633 -0.0868
  110MPD2    H1 1716   0.408   4.539   0.443 -3.1373 -0.2754  0.6524
  110MPD2    H2 1717   0.303   4.577   0.854 -1.0131  2.3506 -1.7593
  110MPD2    H3 1718   0.247   4.600   0.616  0.6173  2.6665 -2.5131
  110MPD2     N 1719   0.661   4.476   0.482  0.3738  0.7395  0.1300
  110MPD2    H5 1720   0.752   4.477   0.527  1.6250  1.3225 -2.4524
  110MPD2    N1 1721   0.531   4.526   0.950  0.7009  0.3981  0.4008
  110MPD2    H7 1722   0.452   4.552   1.008 -0.8509 -0.7868 -1.1923
  111TMC2    C1 1723   1.772   4.307  11.886  0.3733 -0.0279 -0.1392
  111TMC2    C2 1724   1.741   4.185  11.943  0.2522 -0.3144  0.7023
  111TMC2    C3 1725   1.789   4.163  12.066  0.2996 -0.2847 -0.2490
  111TMC2    C4 1726   1.856   4.399  11.946  0.2676  0.4388  0.0793
  111TMC2    C5 1727   1.904   4.370  12.071  0.2470 -0.7691  0.4222
  111TMC2    C6 1728   1.866   4.255  12.138 -0.3387  0.2375  0.1331
  111TMC2     C 1729   1.709   4.341  11.756 -0.3303  0.1321 -0.1127
  111TMC2     O 1730   1.764   4.435  11.697 -0.2899  0.0578 -0.2767
  111TMC2     H 1731   1.678   4.113  11.893  0.0125  0.1772  0.3002
  111TMC2    H1 1732   1.889   4.481  11.883 -0.2294 -1.3125 -2.4762
  111TMC2    H2 1733   1.912   4.231  12.233 -0.6838 -1.2003 -0.0606
  111TMC2    C7 1734   2.032   4.429  12.123 -0.1356 -0.3573 -0.1174
  111TMC2    C8 1735   1.757   4.031  12.116  0.7115 -0.2547  0.4108
  111TMC2    O1 1736   2.035   4.454  12.248 -0.0382  0.1508  0.6414
  111TMC2    O2 1737   1.660   3.966  12.079 -0.7890  0.0805  0.4019
  111TMC2    O5 1738   1.880   3.977  12.122  0.0274 -0.2788 -0.3681
  111TMC2    H5 1739   1.958   4.031  12.097 -0.3014 -0.6269 -2.1526
  112MPD2     C 1740   1.416   4.259  11.348 -0.2001  0.3519  0.3124
  112MPD2    C1 1741   1.534   4.326  11.359  0.5210  0.2076 -0.7108
  112MPD2    C2 1742   1.602   4.327  11.479 -0.1946 -0.4834 -0.3543
  112MPD2    C3 1743   1.546   4.262  11.589 -0.1029 -0.2760 -0.3448
  112MPD2    C4 1744   1.431   4.190  11.573 -0.1301  0.2046  0.4323
  112MPD2    C5 1745   1.371   4.188  11.453 -0.1507  0.6555  0.4916
  112MPD2     H 1746   1.702   4.369  11.483 -0.0724 -0.9230  1.0915
  112MPD2    H1 1747   1.383   4.127  11.647  1.4742 -1.7405 -0.1725
  112MPD2    H2 1748   1.363   4.262  11.254 -2.7716  1.5015  1.8202
  112MPD2    H3 1749   1.298   4.110  11.435 -1.8391  2.3408  0.0079
  112MPD2     N 1750   1.610   4.260  11.718  0.0884  0.4528  0.4916
  112MPD2    H5 1751   1.563   4.200  11.785  0.4624 -0.5165 -0.1125
  112MPD2    N1 1752   1.579   4.396  11.249  0.0353 -0.3185 -0.3771
  112MPD2    H7 1753   1.674   4.429  11.258 -0.0222  0.3653 -2.2080
  113TMC2    C1 1754   4.435   2.664   0.726 -0.1468 -0.5428 -0.1186
  113TMC2    C2 1755   4.489   2.784   0.683  0.2510  0.5650 -0.3595
  113TMC2    C3 1756   4.436   2.847   0.575 -0.2657  0.3574  0.5234
  113TMC2    C4 1757   4.342   2.597   0.647  0.9135  1.0699  0.0268
  113TMC2    C5 1758   4.302   2.656   0.529 -0.4910 -0.2567  0.5256
  113TMC2    C6 1759   4.350   2.778   0.487  0.1784  0.1981 -0.1180
  113TMC2     C 1760   4.470   2.619   0.857  0.2770  0.5601  0.3329
  113TMC2     O 1761   4.531   2.697   0.929 -0.0772  0.3175  0.6388
  113TMC2     H 1762   4.559   2.836   0.747  0.7837  0.6186 -0.9842
  113TMC2    H1 1763   4.307   2.501   0.684  2.4565  0.5710  0.2033
  113TMC2    H2 1764   4.311   2.824   0.398  0.9075  0.7941 -0.1272
  113TMC2    C7 1765   4.176   2.618   0.465  0.0194  0.4083  0.3338
  113TMC2    C8 1766   4.445   2.989   0.562  0.2727 -0.2692 -0.8043
  113TMC2    O1 1767   4.121   2.694   0.387  0.3597  0.4359 -0.4722
  113TMC2    O2 1768   4.442   3.042   0.673 -0.3467  0.0719 -0.3684
  113TMC2    O5 1769   4.396   3.045   0.452 -0.0808  0.3014 -0.3514
  113TMC2    H5 1770   4.409   2.991   0.371 -0.0159 -0.2120  0.0021
  114MPD2     C 1771   4.474   2.270   1.238 -0.3457 -0.5975 -0.2861
  114MPD2    C1 1772   4.537   2.389   1.227  0.0119  0.0954 -0.0526
  114MPD2    C2 1773   4.516   2.468   1.117 -0.1570  0.1753 -0.6102
  114MPD2    C3 1774   4.440   2.426   1.012  0.4085 -0.9548 -0.1287
  114MPD2    C4 1775   4.379   2.303   1.022  0.4701 -0.0861  0.3235
  114MPD2    C5 1776   4.386   2.231   1.141 -0.9943  0.0109 -0.0817
  114MPD2     H 1777   4.559   2.567   1.115 -0.6885  0.4479  1.1619
  114MPD2    H1 1778   4.322   2.271   0.936  1.4439 -1.7496  0.2867
  114MPD2    H2 1779   4.494   2.197   1.316  1.2398 -0.2833 -0.4013
  114MPD2    H3 1780   4.336   2.135   1.134 -0.7438 -0.0303 -1.2480
  114MPD2     N 1781   4.416   2.500   0.893  0.2516  0.2796 -0.2821
  114MPD2    H5 1782   4.346   2.466   0.829  0.3322 -0.9098  0.2647
  114MPD2    N1 1783   4.618   2.447   1.331  0.6649 -0.6000 -0.6329
  114MPD2    H7 1784   4.647   2.542   1.310 -0.5696  0.1335  0.9252
  115TMC2    C1 1785   0.915   0.506   0.008 -0.0064 -0.0936 -0.0446
  115TMC2    C2 1786   1.034   0.455  17.707  0.1679  0.1136 -0.4371
  115TMC2    C3 1787   1.094   0.523  17.605  0.3369  0.0931  0.8078
  115TMC2    C4 1788   0.840   0.604  17.685  0.6922 -1.0357 -0.5584
  115TMC2    C5 1789   0.912   0.667  17.583 -0.2875 -0.1066 -0.0289
  115TMC2    C6 1790   1.042   0.633  17.553 -0.0110 -0.2913  0.1233
  115TMC2     C 1791   0.840   0.401   0.083  0.0157 -0.7796  0.3385
  115TMC2     O 1792   0.875   0.284   0.080  0.1702 -0.2736 -0.2807
  115TMC2     H 1793   1.081   0.371   0.013 -0.4310  0.3574  0.5855
  115TMC2    H1 1794   0.749   0.652  17.718  2.5439  1.2497  1.2483
  115TMC2    H2 1795   1.095   0.669  17.466 -0.0413  0.1100  0.2695
  115TMC2    C7 1796   0.857   0.792  17.525  0.0285 -0.8097  0.2378
  115TMC2    C8 1797   1.231   0.495  17.565 -0.1648 -0.4349 -0.0396
  115TMC2    O1 1798   0.739   0.812  17.546  0.2439  0.4297  0.0527
  115TMC2    O2 1799   1.312   0.575  17.513  0.0097  0.3982 -0.0415
  115TMC2    O5 1800   1.239   0.356  17.566 -0.0773 -0.4437 -0.2543
  115TMC2    H5 1801   1.159   0.304  17.589  0.5347 -0.3031  2.1968
  116MPD2     C 1802   0.344   0.255   0.104 -0.6479 -0.8883 -0.3845
  116MPD2    C1 1803   0.454   0.189   0.069 -0.1684 -0.0238  0.1766
  116MPD2    C2 1804   0.582   0.244   0.084  0.4999 -0.1357  0.6012
  116MPD2    C3 1805   0.598   0.378   0.133  0.6136 -0.6213 -0.5239
  116MPD2    C4 1806   0.480   0.450   0.163 -0.0908 -0.3298 -0.7554
  116MPD2    C5 1807   0.361   0.387   0.153  0.2775 -0.5913 -0.7747
  116MPD2     H 1808   0.667   0.182   0.057  0.7701  1.4674 -2.2399
  116MPD2    H1 1809   0.485   0.553   0.197 -0.9244 -0.2686 -0.8194
  116MPD2    H2 1810   0.245   0.212   0.096  0.0119 -2.2590 -1.0589
  116MPD2    H3 1811   0.269   0.439   0.177  0.3904  0.7265 -3.2767
  116MPD2     N 1812   0.721   0.452   0.124 -0.2141 -0.2027  0.1549
  116MPD2    H5 1813   0.711   0.553   0.131 -1.8169 -0.2180 -1.8439
  116MPD2    N1 1814   0.432   0.054   0.022  0.4666 -0.1783  0.5549
  116MPD2    H7 1815   0.344   0.033  17.718  0.5620  2.3532 -0.7517
  117TMC2    C1 1816   3.445   1.973  14.350  0.3438  0.6371  0.1986
  117TMC2    C2 1817   3.493   1.913  14.462  0.4884 -0.0271 -0.5031
  117TMC2    C3 1818   3.595   1.973  14.520  0.7872 -0.3169 -0.2484
  117TMC2    C4 1819   3.478   2.102  14.309 -0.1180 -0.1189  0.3719
  117TMC2    C5 1820   3.573   2.162  14.388 -0.4461 -0.5598  0.4063
  117TMC2    C6 1821   3.634   2.099  14.490 -0.2293 -0.4578  0.2622
  117TMC2     C 1822   3.327   1.902  14.294 -0.5333  0.7231 -0.0745
  117TMC2     O 1823   3.312   1.784  14.324  0.0191 -0.0358 -0.4096
  117TMC2     H 1824   3.476   1.813  14.500  0.3266  0.9393  1.9984
  117TMC2    H1 1825   3.453   2.143  14.211 -2.5529  0.7691  1.3804
  117TMC2    H2 1826   3.723   2.143  14.534 -0.7025  0.9026 -0.1341
  117TMC2    C7 1827   3.613   2.302  14.375 -0.1344  0.4360 -0.4410
  117TMC2    C8 1828   3.621   1.932  14.651 -0.2313  0.6608  0.3147
  117TMC2    O1 1829   3.709   2.347  14.433 -0.5385  0.0821  0.0378
  117TMC2    O2 1830   3.686   1.835  14.686  0.2975  0.2482 -0.2683
  117TMC2    O5 1831   3.619   2.044  14.724 -0.3037 -0.6040  0.3915
  117TMC2    H5 1832   3.559   2.114  14.693  0.8401  1.1273  2.0568
  118MPD2     C 1833   3.390   2.578  14.251  0.6424 -0.1541  0.4084
  118MPD2    C1 1834   3.505   2.519  14.308 -0.2034 -0.2249  0.4590
  118MPD2    C2 1835   3.599   2.603  14.349 -0.7930  0.6887  0.0862
  118MPD2    C3 1836   3.579   2.739  14.352 -0.3201 -0.2984 -0.6634
  118MPD2    C4 1837   3.473   2.797  14.287  0.5136  0.0868  0.7211
  118MPD2    C5 1838   3.381   2.713  14.236 -0.5948  0.3345 -0.3100
  118MPD2     H 1839   3.691   2.565  14.394 -1.2843  0.1715  0.6542
  118MPD2    H1 1840   3.458   2.904  14.281  2.7981  0.2821 -1.4749
  118MPD2    H2 1841   3.310   2.514  14.214  1.2058 -2.0051  2.3752
  118MPD2    H3 1842   3.290   2.751  14.192 -0.2165  0.4477 -1.0022
  118MPD2     N 1843   3.669   2.826  14.413  0.5476  0.0105 -0.2225
  118MPD2    H5 1844   3.641   2.924  14.409 -0.4781 -0.3125 -1.0659
  118MPD2    N1 1845   3.512   2.375  14.314  0.1810  0.3158  0.4989
  118MPD2    H7 1846   3.427   2.334  14.279 -0.6101  1.2332  1.3246
  119TMC2    C1 1847   2.324   3.197  13.369 -0.2011 -0.1665  0.1063
  119TMC2    C2 1848   2.437   3.182  13.300 -0.9892  0.0481 -0.4007
  119TMC2    C3 1849   2.472   3.055  13.285  0.6286 -0.0475  0.4499
  119TMC2    C4 1850   2.243   3.091  13.417 -0.1935  0.0095 -0.0712
  119TMC2    C5 1851   2.277   2.967  13.384 -0.3723 -0.1924  0.5357
  119TMC2    C6 1852   2.399   2.947  13.320  0.1184 -0.4284 -0.2387
  119TMC2     C 1853   2.295   3.324  13.424 -0.6952 -0.9648  0.5949
  119TMC2     O 1854   2.186   3.350  13.465  0.0727 -0.9482 -0.1293
  119TMC2     H 1855   2.507   3.262  13.276 -1.7995  1.3705  1.6340
  119TMC2    H1 1856   2.149   3.117  13.465 -1.0772  2.0975 -2.9219
  119TMC2    H2 1857   2.404   2.855  13.263  0.0045 -0.8376  0.4123
  119TMC2    C7 1858   2.174   2.874  13.347 -0.0398  0.5427 -0.0319
  119TMC2    C8 1859   2.581   3.029  13.200 -0.3219 -0.7833  0.2809
  119TMC2    O1 1860   2.185   2.805  13.248  0.5599 -0.7077 -0.3311
  119TMC2    O2 1861   2.626   3.116  13.128  0.3820  0.0307 -0.1773
  119TMC2    O5 1862   2.649   2.920  13.243  0.6452 -0.3430  0.2524
  119TMC2    H5 1863   2.589   2.857  13.288 -1.3442  1.3776  0.0341
  120MPD2     C 1864   2.455   3.770  13.614 -0.3164 -0.9159  0.9162
  120MPD2    C1 1865   2.330   3.715  13.614 -0.1800 -0.1508 -0.7349
  120MPD2    C2 1866   2.321   3.592  13.555  0.8653 -0.0847 -0.5595
  120MPD2    C3 1867   2.427   3.524  13.502  1.0769  0.0968 -0.0055
  120MPD2    C4 1868   2.553   3.583  13.505 -0.7564 -1.0324  0.0173
  120MPD2    C5 1869   2.570   3.710  13.557  0.5454 -0.0588 -0.1282
  120MPD2     H 1870   2.222   3.549  13.544  0.3744  0.7504  0.6238
  120MPD2    H1 1871   2.643   3.540  13.463  0.5291  0.4097  1.2768
  120MPD2    H2 1872   2.477   3.864  13.664  0.2113  0.1208 -1.2459
  120MPD2    H3 1873   2.669   3.753  13.556 -0.1716  1.6299  1.2741
  120MPD2     N 1874   2.418   3.394  13.446 -0.2033  0.7095  0.6279
  120MPD2    H5 1875   2.506   3.351  13.421 -0.3824 -0.9834  2.9156
  120MPD2    N1 1876   2.227   3.766  13.695 -0.1355  0.4598  0.5296
  120MPD2    H7 1877   2.235   3.866  13.713  0.0999  0.4176  0.6627
  121TMC2    C1 1878   3.697   0.568  14.011  0.1179  0.2055 -0.5969
  121TMC2    C2 1879   3.603   0.528  14.104  0.2424  0.1958 -0.2337
  121TMC2    C3 1880   3.469   0.548  14.078  0.5065  0.1252 -0.6040
  121TMC2    C4 1881   3.657   0.636  13.900 -0.3876  0.6297 -0.2861
  121TMC2    C5 1882   3.517   0.651  13.872 -0.4315 -0.2226  0.1684
  121TMC2    C6 1883   3.426   0.602  13.961  0.5371 -0.7849 -0.1453
  121TMC2     C 1884   3.817   0.483  14.000 -0.6604  0.8830  0.4586
  121TMC2     O 1885   3.802   0.366  14.040 -0.1560 -0.0360  0.6090
  121TMC2     H 1886   3.644   0.495  14.199 -1.6713  2.3582  1.3684
  121TMC2    H1 1887   3.729   0.659  13.822 -0.2435 -1.0981 -0.6805
  121TMC2    H2 1888   3.323   0.637  13.964  1.0587  0.7989 -0.8043
  121TMC2    C7 1889   3.476   0.750  13.772  0.2780 -0.3123 -0.7144
  121TMC2    C8 1890   3.364   0.550  14.182  0.5813  0.8511  0.1970
  121TMC2    O1 1891   3.558   0.838  13.736  0.4598  0.3967 -0.0188
  121TMC2    O2 1892   3.263   0.624  14.190  0.2822  0.3577 -0.2915
  121TMC2    O5 1893   3.414   0.493  14.296 -0.3855  0.5255 -0.0986
  121TMC2    H5 1894   3.495   0.441  14.283  0.9633  2.0427  2.2641
  122MPD2     C 1895   4.070   0.352  13.898 -0.5344  0.3179 -0.7654
  122MPD2    C1 1896   4.020   0.473  13.847 -0.0932  0.4039 -0.7258
  122MPD2    C2 1897   4.079   0.528  13.737  0.6947 -0.2185  0.5254
  122MPD2    C3 1898   4.181   0.468  13.671  0.6282 -0.4484 -0.3590
  122MPD2    C4 1899   4.240   0.357  13.729 -0.1724  0.5243  1.0488
  122MPD2    C5 1900   4.179   0.300  13.839 -0.2573  0.5119 -0.4096
  122MPD2     H 1901   4.041   0.626  13.711  0.1621 -0.1615  1.5578
  122MPD2    H1 1902   4.317   0.303  13.675  0.7778  1.9738  0.9496
  122MPD2    H2 1903   4.031   0.316  13.993  0.9892 -0.4591 -0.4357
  122MPD2    H3 1904   4.229   0.209  13.869 -1.3656  0.5595  1.5725
  122MPD2     N 1905   4.233   0.517  13.550  0.5199 -0.3450 -0.6150
  122MPD2    H5 1906   4.316   0.471  13.515  1.2280  0.4146  0.1033
  122MPD2    N1 1907   3.906   0.535  13.905  0.1081 -0.6656 -0.6959
  122MPD2    H7 1908   3.882   0.628  13.872 -1.0902 -0.7739 -0.1520
  123TMC2    C1 1909   2.848   3.294  10.208  0.3134  0.2177 -0.2876
  123TMC2    C2 1910   2.833   3.428  10.234  0.5838  0.7719  0.3227
  123TMC2    C3 1911   2.809   3.514  10.128 -0.2318  0.3440  0.4843
  123TMC2    C4 1912   2.861   3.251  10.075 -0.1740  0.0149 -0.0435
  123TMC2    C5 1913   2.828   3.342   9.975 -0.1361  0.4617 -0.0330
  123TMC2    C6 1914   2.797   3.474   9.999 -0.1210  0.4871  1.1229
  123TMC2     C 1915   2.829   3.193  10.313  0.2258  0.2721  0.0968
  123TMC2     O 1916   2.856   3.225  10.426 -0.3248 -0.5182  0.3386
  123TMC2     H 1917   2.810   3.463  10.334 -0.9540 -0.5394  0.4272
  123TMC2    H1 1918   2.868   3.145  10.053 -2.6893 -0.2395  0.3354
  123TMC2    H2 1919   2.767   3.547   9.924 -0.5777  0.4018  1.2170
  123TMC2    C7 1920   2.786   3.278   9.855  0.2609 -0.3251  0.1525
  123TMC2    C8 1921   2.768   3.651  10.156 -0.6209 -0.3414 -0.2860
  123TMC2    O1 1922   2.741   3.166   9.859  0.2917 -0.1563  0.2076
  123TMC2    O2 1923   2.676   3.694  10.093 -0.0383  0.2905 -0.3346
  123TMC2    O5 1924   2.794   3.684  10.288 -0.9719  0.5838 -0.4781
  123TMC2    H5 1925   2.865   3.627  10.322 -0.5626  0.4304 -1.5722
  124MPD2     C 1926   2.456   2.900  10.496 -0.7270  0.3169 -0.2251
  124MPD2    C1 1927   2.448   2.904  10.361  0.3058  0.4286  0.0484
  124MPD2    C2 1928   2.553   2.960  10.291  0.4695 -0.6955  0.7264
  124MPD2    C3 1929   2.655   3.019  10.351 -0.2053  0.1940 -0.8423
  124MPD2    C4 1930   2.659   3.021  10.490  1.3339 -0.0865  0.2640
  124MPD2    C5 1931   2.556   2.964  10.561 -0.2169 -0.1340 -0.2320
  124MPD2     H 1932   2.551   2.962  10.183 -1.3771  2.1605  0.8404
  124MPD2    H1 1933   2.742   3.059  10.549  1.6289  0.1093 -0.2688
  124MPD2    H2 1934   2.377   2.855  10.555 -1.0466  1.9673  0.5744
  124MPD2    H3 1935   2.565   2.962  10.669 -1.5777  2.2213 -0.0638
  124MPD2     N 1936   2.734   3.098  10.268 -0.5162 -0.0135 -0.5884
  124MPD2    H5 1937   2.721   3.101  10.167  0.8910 -1.2913 -0.8131
  124MPD2    N1 1938   2.341   2.846  10.299  0.0307 -0.0403 -0.0890
  124MPD2    H7 1939   2.273   2.812  10.366 -1.3620 -0.2678 -1.6247
  125TMC2    C1 1940   4.023   0.102   9.193 -0.0402 -0.8024  0.7023
  125TMC2    C2 1941   4.156   0.112   9.227  0.4108 -0.5354 -0.1630
  125TMC2    C3 1942   4.246   0.089   9.131 -0.2790  0.2257  0.0806
  125TMC2    C4 1943   3.982   0.070   9.065  0.0268 -0.3025 -0.0804
  125TMC2    C5 1944   4.078   0.042   8.977  0.2882  0.1138 -0.3377
  125TMC2    C6 1945   4.210   0.059   9.003  0.4523  0.7622  0.0833
  125TMC2     C 1946   3.926   0.120   9.298 -0.3018 -0.9252  0.0942
  125TMC2     O 1947   3.956   0.193   9.391 -0.3592  0.0418 -0.0146
  125TMC2     H 1948   4.183   0.125   9.331  1.7586 -3.4841 -0.1301
  125TMC2    H1 1949   3.877   0.059   9.041 -0.3768  4.9102 -0.5330
  125TMC2    H2 1950   4.296   0.038   8.939  0.8862  4.7344 -0.6030
  125TMC2    C7 1951   4.033   4.718   8.855  0.3250 -0.2921  0.2268
  125TMC2    C8 1952   4.387   0.093   9.167 -0.0553 -0.3544  0.5952
  125TMC2    O1 1953   3.921   4.674   8.855  0.5455  0.2478 -0.2118
  125TMC2    O2 1954   4.470   0.111   9.082  0.6063  0.9448 -0.0806
  125TMC2    O5 1955   4.407   0.036   9.288 -0.4339 -0.1918  0.1545
  125TMC2    H5 1956   4.331   0.020   9.348 -1.5346 -1.6326 -1.6085
  126MPD1     C 1957   3.567   4.619   9.560 -0.5823 -0.1053  0.1820
  126MPD1    C1 1958   3.601   4.537   9.451 -0.2084 -0.2960  0.0206
  126MPD1    C2 1959   3.689   4.594   9.357 -0.3323 -0.4200  0.2166
  126MPD1    C3 1960   3.746   4.718   9.382  0.0828 -0.8377 -0.5313
  126MPD1    C4 1961   3.722   0.050   9.496  0.7240 -0.3576 -0.4164
  126MPD1    C5 1962   3.632   4.735   9.586 -0.8500  0.8089  0.1042
  126MPD1     H 1963   3.718   4.532   9.273  1.4664  2.2072 -1.0606
  126MPD1    H1 1964   3.768   0.148   9.511 -1.9379  0.9787 -0.9493
  126MPD1    H2 1965   3.488   4.594   9.630 -2.4870  1.7165 -1.3123
  126MPD1    H3 1966   3.600   0.066   9.665 -1.1706  1.0170 -0.1993
  126MPD1     N 1967   3.828   0.025   9.283  0.6410 -0.3064 -0.1142
  126MPD1    H5 1968   3.842   4.698   9.204 -1.0173 -3.6688  2.2836
  126MPD1    N1 1969   3.537   4.413   9.415  0.3267 -0.2087 -0.2903
  126MPD1    H6 1970   3.480   4.427   9.333  1.8297  3.3740 -0.7232
  126MPD1    H7 1971   3.474   4.378   9.487  1.4654 -0.5696  0.5500
  127TMC2    C1 1972   4.373   3.870   9.533 -0.1992  0.6082 -0.2727
  127TMC2    C2 1973   4.385   3.949   9.643  0.8952 -0.1955  0.3908
  127TMC2    C3 1974   4.306   3.917   9.748  0.4016  0.0203  0.9043
  127TMC2    C4 1975   4.276   3.775   9.516 -0.2168 -0.3514  0.6820
  127TMC2    C5 1976   4.196   3.751   9.623  0.3456  0.2077  0.4423
  127TMC2    C6 1977   4.209   3.820   9.744  0.9939 -0.0039 -0.3883
  127TMC2     C 1978   4.490   3.888   9.431 -0.8374 -0.5647  0.4898
  127TMC2     O 1979   4.558   3.988   9.439  0.2987 -0.4618 -0.0671
  127TMC2     H 1980   4.476   4.007   9.654  0.1980  1.1374 -0.8209
  127TMC2    H1 1981   4.242   3.737   9.421  2.3105  0.7583 -0.6525
  127TMC2    H2 1982   4.145   3.800   9.830  0.3748  2.0573 -0.3647
  127TMC2    C7 1983   4.114   3.629   9.615  0.9917 -0.6338  0.3930
  127TMC2    C8 1984   4.346   3.975   9.875  0.4496 -0.2981  0.8650
  127TMC2    O1 1985   4.090   3.588   9.502  0.5494 -0.0104 -0.3634
  127TMC2    O2 1986   4.307   3.924   9.978 -0.1272 -0.1373  0.4507
  127TMC2    O5 1987   4.413   4.084   9.873  0.4721 -0.2339  0.4990
  127TMC2    H5 1988   4.424   4.132   9.788 -0.6069 -0.3864  0.2738
  128MPD2     C 1989   4.570   3.695   9.123  0.3390 -0.4815 -0.2005
  128MPD2    C1 1990   4.583   3.783   9.229 -0.4951 -0.0336 -0.2247
  128MPD2    C2 1991   4.694   3.857   9.220  0.2265 -0.7447 -0.0902
  128MPD2    C3 1992   0.053   3.854   9.125  0.4247  0.0763 -0.7241
  128MPD2    C4 1993   0.042   3.768   9.021 -0.1483 -0.3203 -0.3592
  128MPD2    C5 1994   4.664   3.688   9.024  0.2066  0.5017 -0.2987
  128MPD2     H 1995   4.723   3.928   9.296  0.8167 -0.8415 -0.2243
  128MPD2    H1 1996   0.111   3.756   8.939  1.6015 -0.2603  1.1010
  128MPD2    H2 1997   4.488   3.624   9.124  0.7572 -0.9634  0.7180
  128MPD2    H3 1998   4.657   3.609   8.950  2.0981  0.5617 -0.5636
  128MPD2     N 1999   0.159   3.951   9.141 -0.1427 -0.3941  0.3998
  128MPD2    H5 2000   0.156   4.015   9.219  4.2351  0.2328  0.0458
  128MPD2    N1 2001   4.492   3.786   9.334  0.0192  1.0035  0.0951
  128MPD2    H7 2002   4.426   3.709   9.336  0.2568  0.7553 -1.2731
  129TMC2    C1 2003   2.554   3.810   1.365  0.8151  0.2789  0.1108
  129TMC2    C2 2004   2.516   3.934   1.316 -0.6632  0.3034 -0.4202
  129TMC2    C3 2005   2.401   3.997   1.365  0.8710 -1.1158 -0.2470
  129TMC2    C4 2006   2.469   3.745   1.440  0.4156 -0.7089 -0.7811
  129TMC2    C5 2007   2.364   3.809   1.497  0.3182  0.3636  0.3390
  129TMC2    C6 2008   2.326   3.935   1.462 -0.1431 -0.5736  0.2761
  129TMC2     C 2009   2.685   3.756   1.339  0.0967 -0.1583 -0.3617
  129TMC2     O 2010   2.699   3.641   1.377 -0.1414  0.5645  0.8335
  129TMC2     H 2011   2.578   3.992   1.248 -1.2765  0.1332 -1.1213
  129TMC2    H1 2012   2.473   3.639   1.459 -1.8009 -0.8342 -0.9779
  129TMC2    H2 2013   2.225   3.961   1.494 -0.0167  0.9608 -0.5725
  129TMC2    C7 2014   2.298   3.732   1.607  0.5030  0.2820 -0.4481
  129TMC2    C8 2015   2.355   4.112   1.293  0.2896  0.1015 -0.5949
  129TMC2    O1 2016   2.175   3.758   1.623 -0.0891  0.2598 -0.0039
  129TMC2    O2 2017   2.371   4.127   1.174 -0.1120  0.2608  0.1219
  129TMC2    O5 2018   2.346   4.219   1.374  0.0375 -0.5818  0.2841
  129TMC2    H5 2019   2.352   4.197   1.469  1.1907 -1.1549  0.0727
  130MPD2     C 2020   2.953   3.696   1.245 -0.1268 -0.0914  0.4711
  130MPD2    C1 2021   2.911   3.823   1.272  0.3033 -0.7209  0.0631
  130MPD2    C2 2022   2.995   3.931   1.263  0.0842  0.1195  0.1101
  130MPD2    C3 2023   3.130   3.910   1.224  0.2669 -0.5202 -0.5225
  130MPD2    C4 2024   3.170   3.776   1.199  0.3814  0.0645  0.1358
  130MPD2    C5 2025   3.082   3.673   1.213  0.2043  0.1767  0.1320
  130MPD2     H 2026   2.961   4.033   1.274 -1.2443 -0.2841 -0.2039
  130MPD2    H1 2027   3.273   3.748   1.178  0.5565 -1.3190  2.8311
  130MPD2    H2 2028   2.890   3.608   1.242 -0.6964  0.3735 -1.1127
  130MPD2    H3 2029   3.114   3.571   1.196 -1.4951 -0.1022 -1.4110
  130MPD2     N 2030   3.223   4.018   1.227 -0.1677  0.1977 -0.0798
  130MPD2    H5 2031   3.182   4.110   1.233 -2.0745 -0.7646  1.7228
  130MPD2    N1 2032   2.776   3.856   1.309  0.0676  0.7931 -1.0400
  130MPD2    H7 2033   2.745   3.952   1.318  1.5161  1.0250  1.3979
  131TMC2    C1 2034   2.262   3.350   9.450 -0.0697  0.0491 -0.0420
  131TMC2    C2 2035   2.281   3.344   9.311 -0.3694 -0.1767  0.1720
  131TMC2    C3 2036   2.380   3.425   9.263 -0.0773 -0.4393 -0.1706
  131TMC2    C4 2037   2.339   3.422   9.533 -0.7458 -0.1367 -0.1740
  131TMC2    C5 2038   2.446   3.480   9.477  0.6603 -0.8130 -0.1741
  131TMC2    C6 2039   2.461   3.501   9.344 -0.7293  0.6225 -0.0600
  131TMC2     C 2040   2.176   3.259   9.520 -0.2774 -0.2120 -0.1366
  131TMC2     O 2041   2.151   3.277   9.636 -0.6207  0.5208 -0.0254
  131TMC2     H 2042   2.221   3.289   9.239 -0.0366 -0.4151  0.0788
  131TMC2    H1 2043   2.340   3.413   9.641  1.8630  1.6987 -0.0236
  131TMC2    H2 2044   2.539   3.567   9.308  0.4145 -0.8675 -0.2990
  131TMC2    C7 2045   2.515   3.569   9.567 -0.3383 -0.4060  0.0402
  131TMC2    C8 2046   2.416   3.435   9.119 -0.1300  0.5304 -0.3242
  131TMC2    O1 2047   2.459   3.597   9.674  0.2698  0.1192 -0.0790
  131TMC2    O2 2048   2.532   3.454   9.079 -1.0141 -0.4225  0.9499
  131TMC2    O5 2049   2.312   3.387   9.045  0.2901  0.8730  0.2051
  131TMC2    H5 2050   2.229   3.420   9.084 -0.4985 -0.7911 -0.0873
  132MPD2     C 2051   2.008   2.959   9.393 -0.4586  0.2016  0.5772
  132MPD2    C1 2052   2.069   3.040   9.485  0.1517  0.2080  0.1848
  132MPD2    C2 2053   2.075   2.992   9.615 -0.5171 -0.2448  0.1162
  132MPD2    C3 2054   2.025   2.865   9.652 -0.2627  0.2974 -0.6328
  132MPD2    C4 2055   1.976   2.781   9.552 -0.1720 -0.4621  0.0606
  132MPD2    C5 2056   1.963   2.834   9.427  0.2295  0.1133 -0.1920
  132MPD2     H 2057   2.118   3.055   9.692  2.1591 -1.1988 -0.6355
  132MPD2    H1 2058   1.912   2.699   9.581 -0.2746 -0.8165 -1.1739
  132MPD2    H2 2059   1.983   2.986   9.291 -0.0553  1.1021  0.7189
  132MPD2    H3 2060   1.917   2.775   9.349  0.1569 -2.8285  2.0829
  132MPD2     N 2061   2.040   2.828   9.785 -0.2810  0.2318 -0.4211
  132MPD2    H5 2062   2.106   2.887   9.835 -1.6067  1.0957  0.3015
  132MPD2    N1 2063   2.130   3.158   9.440  0.2684 -0.2226 -0.5411
  132MPD2    H7 2064   2.127   3.176   9.340  1.4577  2.0941 -0.1481
  133TMC2    C1 2065   1.940   3.988   9.339 -0.6421 -0.6322 -0.5271
  133TMC2    C2 2066   2.031   3.884   9.340  0.3527 -0.2639 -0.2913
  133TMC2    C3 2067   2.160   3.905   9.383  0.3129 -0.5989 -0.2067
  133TMC2    C4 2068   1.976   4.114   9.384  0.2911  0.1310  0.0893
  133TMC2    C5 2069   2.110   4.128   9.431  0.2479  0.2352  0.3946
  133TMC2    C6 2070   2.208   4.030   9.424  0.0528  1.3677 -0.1840
  133TMC2     C 2071   1.806   3.944   9.323  0.2300 -0.5594 -0.4927
  133TMC2     O 2072   1.787   3.823   9.324 -0.3561  0.3722  0.5073
  133TMC2     H 2073   2.007   3.791   9.288  1.4218 -0.5782 -0.2292
  133TMC2    H1 2074   1.908   4.196   9.403 -2.5551 -2.0407 -0.8221
  133TMC2    H2 2075   2.313   4.049   9.444  0.3856  0.0795 -0.7299
  133TMC2    C7 2076   2.162   4.262   9.471 -0.0879 -0.3865 -0.1523
  133TMC2    C8 2077   2.255   3.810   9.321 -0.6592  0.1885  0.4768
  133TMC2    O1 2078   2.278   4.264   9.515  0.4846 -0.1818  0.5678
  133TMC2    O2 2079   2.226   3.723   9.244  0.0304  0.4017 -0.4490
  133TMC2    O5 2080   2.371   3.807   9.398 -0.2974  0.1110 -0.0516
  133TMC2    H5 2081   2.376   3.857   9.482 -1.0679  0.5819 -0.2817
  134MPD2     C 2082   1.518   4.167   9.346 -0.4236 -0.3372  0.0095
  134MPD2    C1 2083   1.585   4.047   9.353 -0.6317 -0.6263  0.0318
  134MPD2    C2 2084   1.512   3.934   9.387 -0.2086 -0.4993  0.1008
  134MPD2    C3 2085   1.384   3.945   9.442  0.1129 -0.3221 -0.1926
  134MPD2    C4 2086   1.324   4.066   9.448 -0.4730 -0.3723 -0.6992
  134MPD2    C5 2087   1.384   4.175   9.396 -0.2870  0.3784 -0.6258
  134MPD2     H 2088   1.574   3.847   9.405  0.0838 -0.6943 -1.8179
  134MPD2    H1 2089   1.226   4.088   9.487  0.5448  0.8844  1.1836
  134MPD2    H2 2090   1.572   4.253   9.307  0.4377 -1.4451 -1.2738
  134MPD2    H3 2091   1.331   4.269   9.401  2.9471  2.3061 -2.3145
  134MPD2     N 2092   1.309   3.835   9.491  0.6862  0.6743 -0.0551
  134MPD2    H5 2093   1.220   3.848   9.539 -0.1536 -0.5206 -1.2800
  134MPD2    N1 2094   1.719   4.049   9.329  0.2413  0.5610  0.5254
  134MPD2    H7 2095   1.754   4.140   9.302  1.0752  0.1450  0.2050
  135TMC2    C1 2096   3.981   1.044   9.232  0.1154  0.0141  0.2214
  135TMC2    C2 2097   4.019   0.959   9.132 -0.5808 -0.2374  0.0103
  135TMC2    C3 2098   4.023   0.830   9.151 -0.2171 -1.0074  0.2518
  135TMC2    C4 2099   3.936   0.995   9.353 -0.8216 -0.6470 -0.3007
  135TMC2    C5 2100   3.924   0.855   9.367 -0.1727 -0.2791 -0.5125
  135TMC2    C6 2101   3.967   0.768   9.265 -0.0440  0.2692 -1.0377
  135TMC2     C 2102   4.024   1.180   9.221  0.2598  0.0591  0.8614
  135TMC2     O 2103   3.967   1.261   9.292  0.1762  0.2135  0.0349
  135TMC2     H 2104   4.048   1.002   9.037  3.0354  0.5352  1.4443
  135TMC2    H1 2105   3.902   1.061   9.432 -0.3179  2.4967 -2.7303
  135TMC2    H2 2106   3.965   0.660   9.267 -0.8064  0.2868 -0.6194
  135TMC2    C7 2107   3.866   0.797   9.482 -0.1238  0.3678  0.1592
  135TMC2    C8 2108   4.026   0.745   9.036 -0.1260 -0.0479 -0.5276
  135TMC2    O1 2109   3.784   0.862   9.546  0.0293 -0.5320  0.1716
  135TMC2    O2 2110   4.086   0.777   8.935  0.1864  0.0782  0.3341
  135TMC2    O5 2111   3.902   0.689   9.029 -0.0384 -0.2861  0.1687
  135TMC2    H5 2112   3.861   0.693   9.118  1.3693  0.1035  0.8048
  136MPD2     C 2113   4.172   1.445   9.121 -0.0625  0.3330 -0.6470
  136MPD2    C1 2114   4.208   1.314   9.097 -0.8779 -0.3879  0.2508
  136MPD2    C2 2115   4.330   1.301   9.040 -0.4175  0.2690 -0.4486
  136MPD2    C3 2116   4.404   1.402   8.998 -0.0729 -0.2728 -0.5411
  136MPD2    C4 2117   4.374   1.529   9.032  0.1282  0.4792  0.2634
  136MPD2    C5 2118   4.251   1.552   9.097 -0.3173 -0.7373  0.1157
  136MPD2     H 2119   4.377   1.204   9.040 -3.8460 -1.4041  3.1851
  136MPD2    H1 2120   4.427   1.621   9.013  0.0663  0.2915 -0.8167
  136MPD2    H2 2121   4.082   1.472   9.176  0.2114 -0.8187  0.3676
  136MPD2    H3 2122   4.223   1.652   9.129  0.2640  0.1191 -2.0344
  136MPD2     N 2123   4.518   1.365   8.930  0.0613  0.2797  0.0833
  136MPD2    H5 2124   4.529   1.265   8.916 -1.1024 -0.0838  1.8138
  136MPD2    N1 2125   4.138   1.194   9.146  0.2805  0.6033 -0.6666
  136MPD2    H7 2126   4.187   1.107   9.126 -3.5150 -1.4926 -0.9930
  137TMC2    C1 2127   4.151   3.762   8.572 -0.2846  0.8557  0.0854
  137TMC2    C2 2128   4.226   3.655   8.511 -0.3420 -0.3018  0.1370
  137TMC2    C3 2129   4.161   3.534   8.503  0.3950  0.1635  0.3014
  137TMC2    C4 2130   4.018   3.749   8.612 -0.6690 -1.3358 -0.0712
  137TMC2    C5 2131   3.967   3.617   8.604  0.0924  0.7725  0.0413
  137TMC2    C6 2132   4.041   3.513   8.562 -0.5611 -0.3733  0.5191
  137TMC2     C 2133   4.206   3.892   8.559  0.1275 -0.1012  0.2680
  137TMC2     O 2134   4.176   3.975   8.645 -0.0768  0.7268 -0.4151
  137TMC2     H 2135   4.331   3.665   8.486 -1.1875  3.6032 -1.9015
  137TMC2    H1 2136   3.952   3.825   8.651 -1.6755 -1.5584 -1.3592
  137TMC2    H2 2137   3.982   3.423   8.547 -0.5531  0.0184 -1.8414
  137TMC2    C7 2138   3.822   3.588   8.633  0.5886  0.4809 -0.0045
  137TMC2    C8 2139   4.249   3.422   8.461  0.0381  0.3249  0.0839
  137TMC2    O1 2140   3.774   3.480   8.602 -0.4412  0.4037  0.0804
  137TMC2    O2 2141   4.372   3.418   8.473  0.0481  0.3692 -0.3206
  137TMC2    O5 2142   4.179   3.321   8.415  0.4881  0.2852  0.4831
  137TMC2    H5 2143   4.090   3.346   8.380  0.8401 -0.3777 -0.8794
  138MPD2     C 2144   4.460   4.003   8.321 -0.3368  0.6695 -0.3633
  138MPD2    C1 2145   4.384   4.007   8.434  0.3080  0.0201  0.0347
  138MPD2    C2 2146   4.408   4.106   8.531 -0.8617  0.2894  0.0780
  138MPD2    C3 2147   4.511   4.197   8.512  0.1687  0.0203 -1.0550
  138MPD2    C4 2148   4.596   4.182   8.398  0.0592  0.4795 -0.5267
  138MPD2    C5 2149   4.569   4.088   8.305  0.0360 -0.6720  0.0207
  138MPD2     H 2150   4.359   4.108   8.628 -0.8788  0.9743  0.0571
  138MPD2    H1 2151   4.677   4.251   8.377 -0.3345  1.3063  0.6795
  138MPD2    H2 2152   4.441   3.927   8.246  1.2445  1.4176 -1.5100
  138MPD2    H3 2153   4.637   4.073   8.222  0.9361 -0.0976  0.6578
  138MPD2     N 2154   4.529   4.301   8.600 -0.6663  0.2696 -0.1084
  138MPD2    H5 2155   4.461   4.305   8.675 -1.6579  2.6050 -1.1345
  138MPD2    N1 2156   4.293   3.901   8.454 -0.1882 -0.0473 -0.5875
  138MPD2    H7 2157   4.292   3.828   8.384 -0.9753 -0.9296  0.3420
  139TMC2    C1 2158   3.436   3.166  13.442  0.9618 -0.2867 -0.4588
  139TMC2    C2 2159   3.482   3.222  13.327  0.7107  0.3790 -0.0308
  139TMC2    C3 2160   3.423   3.341  13.290  0.7616  0.4681 -0.2695
  139TMC2    C4 2161   3.323   3.224  13.504  0.2148  0.5182 -0.0466
  139TMC2    C5 2162   3.259   3.328  13.447 -0.7027 -0.8136 -0.2299
  139TMC2    C6 2163   3.314   3.398  13.341  0.4374 -0.0406 -0.4439
  139TMC2     C 2164   3.503   3.054  13.512  0.0104  0.2223 -0.5420
  139TMC2     O 2165   3.460   3.024  13.621 -0.3250  0.2095  0.0364
  139TMC2     H 2166   3.567   3.185  13.270  0.0414 -0.3256 -0.5586
  139TMC2    H1 2167   3.290   3.193  13.603 -0.6579 -0.0119 -0.5051
  139TMC2    H2 2168   3.277   3.493  13.304  1.1278  0.6511  0.6484
  139TMC2    C7 2169   3.139   3.374  13.511 -0.2342  0.1088 -0.0504
  139TMC2    C8 2170   3.459   3.395  13.157  0.0381  0.2459 -1.4608
  139TMC2    O1 2171   3.110   3.488  13.484  0.3374  0.0553  0.8760
  139TMC2    O2 2172   3.376   3.468  13.103 -0.3800 -0.5916  0.3631
  139TMC2    O5 2173   3.588   3.428  13.161  0.8132 -0.7103  0.0522
  139TMC2    H5 2174   3.647   3.383  13.225  0.3646 -2.1890 -0.5863
  140MPD2     C 2175   3.840   2.904  13.459 -0.1109  0.0091  0.0248
  140MPD2    C1 2176   3.716   2.918  13.514  0.4298 -0.6952 -0.0123
  140MPD2    C2 2177   3.694   2.846  13.633  0.1479  0.3579  0.3434
  140MPD2    C3 2178   3.781   2.766  13.697 -0.0410  0.3303 -0.4125
  140MPD2    C4 2179   3.899   2.746  13.631 -0.3386  1.0666  0.8269
  140MPD2    C5 2180   3.935   2.822  13.520  0.3639  0.2200 -0.9012
  140MPD2     H 2181   3.601   2.855  13.687 -0.8604 -3.6894 -0.6661
  140MPD2    H1 2182   3.978   2.677  13.661  0.0199  0.9165 -0.4822
  140MPD2    H2 2183   3.867   2.964  13.373 -1.9486 -2.3747 -2.2021
  140MPD2    H3 2184   4.036   2.803  13.483  0.2355  2.5338 -2.4228
  140MPD2     N 2185   3.732   2.681  13.799 -0.2796 -0.2088  0.0453
  140MPD2    H5 2186   3.636   2.696  13.827 -0.9298  1.8014 -3.2866
  140MPD2    N1 2187   3.623   3.014  13.458 -0.3434  0.0930 -0.0909
  140MPD2    H7 2188   3.648   3.061  13.371 -0.9136  1.8288  0.6898
  141TMC2    C1 2189   4.259   3.971  13.526 -0.4299 -0.0129 -0.1922
  141TMC2    C2 2190   4.327   3.880  13.599 -0.2872  0.1997 -0.5674
  141TMC2    C3 2191   4.325   3.893  13.737  0.9443  0.3081  0.2940
  141TMC2    C4 2192   4.197   4.075  13.582 -0.1787  0.1959  0.2502
  141TMC2    C5 2193   4.207   4.089  13.713 -0.2018  0.2873  0.0488
  141TMC2    C6 2194   4.261   3.998  13.799 -0.1257 -0.3853  0.2949
  141TMC2     C 2195   4.269   3.976  13.382 -1.1169 -0.6003  0.9612
  141TMC2     O 2196   4.228   4.070  13.318 -0.1017 -0.0528 -0.1029
  141TMC2     H 2197   4.392   3.800  13.565  2.3283  2.8039 -1.6193
  141TMC2    H1 2198   4.153   4.155  13.523  0.5702 -0.9384 -1.8633
  141TMC2    H2 2199   4.261   4.020  13.905  1.7910  0.4187  0.1454
  141TMC2    C7 2200   4.140   4.214  13.768  0.8462  0.0734 -0.1071
  141TMC2    C8 2201   4.402   3.798  13.817  0.2060  0.1552  0.1454
  141TMC2    O1 2202   4.049   4.263  13.707  0.0557  0.1191  0.1725
  141TMC2    O2 2203   4.494   3.738  13.762 -0.1553  0.0300  0.0359
  141TMC2    O5 2204   4.317   3.751  13.909  0.4560 -0.2650  0.1878
  141TMC2    H5 2205   4.251   3.818  13.935 -2.6721 -2.0378 -3.2602
  142TMC2    C1 2206   2.339   2.704   9.456  0.0326 -0.0159  0.4342
  142TMC2    C2 2207   2.394   2.652   9.346 -0.4622 -0.1515  0.2503
  142TMC2    C3 2208   2.470   2.732   9.268  0.1209  0.2573  0.2891
  142TMC2    C4 2209   2.365   2.832   9.497  0.2901  0.6183  0.0193
  142TMC2    C5 2210   2.431   2.918   9.413 -0.0856 -1.0980  0.1884
  142TMC2    C6 2211   2.487   2.866   9.300 -0.5645  0.0262  0.1048
  142TMC2     C 2212   2.308   2.605   9.566  0.0294  0.3658  0.0758
  142TMC2     O 2213   2.262   2.494   9.542  0.1175  0.1370 -0.1765
  142TMC2     H 2214   2.374   2.551   9.313 -1.4936  0.2452 -0.3380
  142TMC2    H1 2215   2.310   2.874   9.580 -0.8799  2.6596 -1.7876
  142TMC2    H2 2216   2.545   2.921   9.227  0.1786 -0.1013  0.6062
  142TMC2    C7 2217   2.488   3.038   9.477  0.4953  0.2789 -0.2369
  142TMC2    C8 2218   2.531   2.672   9.153 -0.8201  0.6175 -0.5230
  142TMC2    O1 2219   2.420   3.089   9.566  0.3279 -0.4403  0.0813
  142TMC2    O2 2220   2.592   2.564   9.141 -0.6726  0.4987  0.1521
  142TMC2    O5 2221   2.503   2.755   9.049 -0.4764 -0.9039 -0.1520
  142TMC2    H5 2222   2.447   2.829   9.080  0.2296 -0.2179 -0.5217
  143MPD2     C 2223   2.367   2.443  10.032  0.0621  0.3298  0.1218
  143MPD2    C1 2224   2.270   2.411   9.947 -0.4058 -0.4308 -0.5706
  143MPD2    C2 2225   2.263   2.483   9.829 -0.0239  0.3021  0.8862
  143MPD2    C3 2226   2.356   2.588   9.809 -0.5531 -0.0465 -0.7050
  143MPD2    C4 2227   2.447   2.622   9.903  0.0951 -0.1481 -0.2599
  143MPD2    C5 2228   2.460   2.544  10.016  0.2408 -0.6275  0.2589
  143MPD2     H 2229   2.185   2.456   9.759 -0.1533  1.0827  0.7278
  143MPD2    H1 2230   2.527   2.692   9.880  0.2642 -0.0363  0.6889
  143MPD2    H2 2231   2.365   2.387  10.124 -1.0725  0.1478 -0.0124
  143MPD2    H3 2232   2.545   2.559  10.082  0.0237  2.3767 -0.1480
  143MPD2     N 2233   2.355   2.657   9.686  0.3635  0.2531 -0.4075
  143MPD2    H5 2234   2.430   2.725   9.682 -1.5901  2.6135  2.9113
  143MPD2    N1 2235   2.193   2.297   9.983 -0.0200  0.0889  0.6564
  143MPD2    H7 2236   2.229   2.238  10.057  2.7078 -1.0664 -1.6135
  144TMC2    C1 2237   4.537   1.287   0.865 -0.0436 -0.6298  0.1213
  144TMC2    C2 2238   4.600   1.210   0.776 -0.3770  0.1065 -0.5469
  144TMC2    C3 2239   4.727   1.167   0.812  0.2248  0.5629 -0.3354
  144TMC2    C4 2240   4.581   1.299   0.995  0.2967 -0.7222  0.6406
  144TMC2    C5 2241   4.706   1.252   1.027  1.0267  0.0189 -0.0152
  144TMC2    C6 2242   0.050   1.193   0.929  0.2844 -0.2191 -0.3440
  144TMC2     C 2243   4.412   1.338   0.826  0.0202 -0.5354  0.5042
  144TMC2     O 2244   4.370   1.294   0.722  0.4275 -0.4685  0.6117
  144TMC2     H 2245   4.572   1.208   0.671  1.2732  5.5173 -1.1236
  144TMC2    H1 2246   4.513   1.333   1.072 -0.3003 -2.5061  0.9060
  144TMC2    H2 2247   0.150   1.163   0.959  0.8653  0.9655 -1.1050
  144TMC2    C7 2248   0.034   1.288   1.152  0.4188  0.1658 -0.0521
  144TMC2    C8 2249   0.053   1.086   0.708 -0.2054  0.0190 -0.5473
  144TMC2    O1 2250   0.135   1.225   1.180  0.7824 -0.0170 -0.1511
  144TMC2    O2 2251   4.714   1.026   0.633 -0.7713 -0.2107 -0.0309
  144TMC2    O5 2252   0.185   1.067   0.732 -0.0098 -0.2655  0.2283
  144TMC2    H5 2253   0.220   1.145   0.782 -0.5172  0.7562 -1.0208
  145MPD2     C 2254   4.027   1.683   0.884  0.4870  0.1525 -0.4897
  145MPD2    C1 2255   4.036   1.570   0.800  0.3216  0.2296 -0.2778
  145MPD2    C2 2256   4.154   1.494   0.798 -1.2649  0.8404  0.2351
  145MPD2    C3 2257   4.263   1.535   0.881  0.2548 -0.2558 -0.5600
  145MPD2    C4 2258   4.257   1.658   0.954 -0.1649 -0.4149  0.7503
  145MPD2    C5 2259   4.134   1.719   0.963 -0.8906  0.0798 -0.2735
  145MPD2     H 2260   4.165   1.406   0.736 -2.1185 -0.0749  1.3886
  145MPD2    H1 2261   4.342   1.689   1.014 -0.3900 -1.4724  1.6131
  145MPD2    H2 2262   3.942   1.749   0.885  0.6707  0.3825 -0.0563
  145MPD2    H3 2263   4.123   1.814   1.013  1.6623 -0.4906  1.4066
  145MPD2     N 2264   4.384   1.452   0.892 -0.1999 -0.0871  0.1189
  145MPD2    H5 2265   4.461   1.477   0.953  0.3092 -2.2570  0.3626
  145MPD2    N1 2266   3.939   1.532   0.712  0.2201  0.4223  0.4354
  145MPD2    H7 2267   3.974   1.487   0.628  3.7547  0.7351  1.7348
  146TMC2    C1 2268   1.131   4.609  11.781  0.1379 -0.5051  0.0938
  146TMC2    C2 2269   1.023   4.543  11.731  1.1764 -0.1863  0.2532
  146TMC2    C3 2270   1.037   4.413  11.707  0.8086  0.1519 -0.2168
  146TMC2    C4 2271   1.248   4.546  11.821  0.1709  0.5096  0.0512
  146TMC2    C5 2272   1.255   4.412  11.799  0.3843  0.4623  0.0090
  146TMC2    C6 2273   1.153   4.342  11.734 -1.1882  0.5826 -0.3724
  146TMC2     C 2274   1.111   0.013  11.814  0.5447 -0.6124  0.1590
  146TMC2     O 2275   1.051   0.081  11.730  0.3229  0.4467  0.1800
  146TMC2     H 2276   0.934   4.598  11.702  0.0840 -2.3565 -0.5175
  146TMC2    H1 2277   1.332   4.604  11.858  0.9099 -0.1304 -0.6330
  146TMC2    H2 2278   1.156   4.234  11.722  2.7341  0.2474  3.5908
  146TMC2    C7 2279   1.331   4.323  11.899 -0.0506  0.2775 -0.8387
  146TMC2    C8 2280   0.954   4.359  11.610 -0.1666 -0.1624 -0.3099
  146TMC2    O1 2281   1.313   4.201  11.883 -0.0349  0.6768  0.1672
  146TMC2    O2 2282   0.998   4.287  11.520  0.5306  0.0754 -0.1440
  146TMC2    O5 2283   0.822   4.370  11.652  0.1767  0.2571  0.4795
  146TMC2    H5 2284   0.821   4.401  11.746  0.6708 -0.9868  0.8927
  147MPD2     C 2285   1.565   4.242  12.343 -0.5691  0.1315 -0.3873
  147MPD2    C1 2286   1.609   4.365  12.295  0.5778  0.4955  0.5873
  147MPD2    C2 2287   1.559   4.405  12.175 -0.3237  0.3320  0.0051
  147MPD2    C3 2288   1.471   4.333  12.103 -0.5848  0.7960 -0.3291
  147MPD2    C4 2289   1.423   4.214  12.155 -0.2367 -0.4961 -0.2868
  147MPD2    C5 2290   1.473   4.173  12.275  0.1301  0.0442 -0.1797
  147MPD2     H 2291   1.578   4.499  12.124 -1.8359  1.1209  0.9003
  147MPD2    H1 2292   1.354   4.149  12.104  1.5238 -3.5175  1.1648
  147MPD2    H2 2293   1.595   4.203  12.440 -0.2162  0.4409 -0.3726
  147MPD2    H3 2294   1.471   4.067  12.300  4.0375 -0.5482 -2.3508
  147MPD2     N 2295   1.416   4.386  11.984 -0.2345 -0.1272  0.0490
  147MPD2    H5 2296   1.441   4.481  11.958  0.4237 -0.2018  0.3973
  147MPD2    N1 2297   1.699   4.428  12.375 -0.1479 -0.6160  1.1492
  147MPD2    H7 2298   1.726   4.378  12.459 -0.8721 -0.5629  1.4123
  148TMC2    C1 2299   1.914   3.969  10.435 -0.0055  0.2249  0.3309
  148TMC2    C2 2300   2.038   4.019  10.495 -0.3173  0.1091  0.1465
  148TMC2    C3 2301   2.151   3.939  10.471  0.8862 -0.4781  0.1000
  148TMC2    C4 2302   1.908   3.849  10.373  0.0841 -0.1749  0.6031
  148TMC2    C5 2303   2.022   3.772  10.374 -0.6809 -0.7396  0.2069
  148TMC2    C6 2304   2.144   3.814  10.415  0.5333  0.1951 -0.3607
  148TMC2     C 2305   1.797   4.050  10.448  0.7116 -0.2919  0.8428
  148TMC2     O 2306   1.818   4.164  10.488  0.0174 -0.3037 -1.0242
  148TMC2     H 2307   2.041   4.107  10.557 -0.6736 -0.9645  1.6938
  148TMC2    H1 2308   1.822   3.805  10.324 -0.5638  1.4438  0.2926
  148TMC2    H2 2309   2.239   3.764  10.399  0.5037 -0.5984  1.9317
  148TMC2    C7 2310   2.015   3.630  10.326  0.2222  0.0926  0.0533
  148TMC2    C8 2311   2.271   3.981  10.540  0.4175  0.6272  0.2047
  148TMC2    O1 2312   1.915   3.590  10.273 -0.6041  1.0336 -0.1349
  148TMC2    O2 2313   2.289   3.955  10.659  0.4952 -0.1241  0.2857
  148TMC2    O5 2314   2.369   3.958  10.447  0.1122 -0.0255 -0.6519
  148TMC2    H5 2315   2.331   3.969  10.358 -1.1660 -1.5454 -0.2873
  149MPD2     C 2316   1.552   4.198  10.362  0.3946 -0.8278  0.5451
  149MPD2    C1 2317   1.554   4.061  10.376  0.3618 -0.1284 -1.1943
  149MPD2    C2 2318   1.435   3.985  10.360  0.5409  0.0713  0.1913
  149MPD2    C3 2319   1.321   4.052  10.317  0.1844  0.2891  0.1602
  149MPD2    C4 2320   1.325   4.189  10.305 -0.2348  0.8280  0.1185
  149MPD2    C5 2321   1.436   4.263  10.324 -0.2784  0.0021  0.0272
  149MPD2     H 2322   1.439   3.878  10.376 -0.3118 -0.1963 -1.3395
  149MPD2    H1 2323   1.236   4.240  10.270 -0.4260 -0.0548 -0.6691
  149MPD2    H2 2324   1.639   4.263  10.366 -1.3670  1.4904  1.2220
  149MPD2    H3 2325   1.430   4.371  10.310 -1.4131 -0.0923 -0.2188
  149MPD2     N 2326   1.200   3.998  10.290 -0.0343 -0.3974  0.1482
  149MPD2    H5 2327   1.123   4.060  10.270 -0.2242 -0.4454  0.7268
  149MPD2    N1 2328   1.676   3.993  10.411  0.9522 -0.6465 -0.4845
  149MPD2    H7 2329   1.664   3.893  10.425 -1.2006 -0.0957  1.6168
  150TMC2    C1 2330   3.522   3.295  12.325  0.3289 -0.1069  1.0065
  150TMC2    C2 2331   3.478   3.416  12.352 -0.0271 -0.5132 -0.1868
  150TMC2    C3 2332   3.566   3.501  12.406 -0.3940  0.4250 -0.0098
  150TMC2    C4 2333   3.647   3.251  12.365  0.7689 -0.2760 -0.8166
  150TMC2    C5 2334   3.732   3.331  12.442  0.1752  0.0286 -0.7450
  150TMC2    C6 2335   3.687   3.456  12.455  0.0031  0.4043 -0.7724
  150TMC2     C 2336   3.441   3.204  12.248 -0.3060  0.1930 -0.2561
  150TMC2     O 2337   3.419   3.097  12.308  0.1366  0.1062  0.2113
  150TMC2     H 2338   3.377   3.450  12.331 -0.5422 -1.2097  1.1546
  150TMC2    H1 2339   3.670   3.146  12.354  2.8789  0.2206 -1.1431
  150TMC2    H2 2340   3.749   3.526  12.510 -0.0774  0.2169 -0.4476
  150TMC2    C7 2341   3.868   3.306  12.477  0.0549 -0.0281  0.2124
  150TMC2    C8 2342   3.507   3.609  12.483  0.1438  0.0022  0.3037
  150TMC2    O1 2343   3.945   3.402  12.502 -0.4711  0.1069  0.0757
  150TMC2    O2 2344   3.387   3.613  12.518 -0.3132 -0.2272  0.5848
  150TMC2    O5 2345   3.598   3.701  12.498 -0.2402 -0.2365  0.0805
  150TMC2    H5 2346   3.679   3.693  12.444  0.3917  0.5687  0.9045
  151MPD2     C 2347   3.146   3.078  11.855 -0.1554  0.2136 -0.0577
  151MPD2    C1 2348   3.145   3.215  11.874 -0.1144  0.3774 -0.2951
  151MPD2    C2 2349   3.221   3.276  11.972  0.2459  0.2374 -0.5607
  151MPD2    C3 2350   3.280   3.203  12.065 -0.3237  0.5826  0.8499
  151MPD2    C4 2351   3.264   3.067  12.062 -1.3645  0.2719  0.6445
  151MPD2    C5 2352   3.203   3.005  11.958  0.2653  0.0450 -0.1255
  151MPD2     H 2353   3.232   3.384  11.975 -0.5265  0.2314  2.5334
  151MPD2    H1 2354   3.312   2.996  12.128 -1.2021 -0.1552  0.0666
  151MPD2    H2 2355   3.095   3.022  11.779  1.3080 -0.3837 -0.6019
  151MPD2    H3 2356   3.203   2.897  11.958  0.0373  0.0435 -2.5576
  151MPD2     N 2357   3.362   3.269  12.154  0.2704 -0.7989  0.4946
  151MPD2    H5 2358   3.390   3.363  12.130  0.1758 -0.7782  0.4653
  151MPD2    N1 2359   3.060   3.286  11.784  0.3326 -0.1040 -0.2459
  151MPD2    H7 2360   2.995   3.232  11.727 -0.0287 -2.5010  2.4607
  152TMC2    C1 2361   3.062   2.861  12.762 -0.6571 -0.2590  0.6420
  152TMC2    C2 2362   3.119   2.742  12.722  0.1402  0.1137  0.3103
  152TMC2    C3 2363   3.245   2.754  12.681 -0.0081  0.3248  0.4729
  152TMC2    C4 2364   3.127   2.980  12.775 -0.3206  0.3377  0.4930
  152TMC2    C5 2365   3.260   2.981  12.745 -0.1469 -0.6420 -0.1981
  152TMC2    C6 2366   3.323   2.869  12.696 -0.0612 -0.9703  1.0143
  152TMC2     C 2367   2.923   2.858  12.792 -0.1508 -0.0848  0.2856
  152TMC2     O 2368   2.860   2.964  12.788  0.6203  0.3030 -0.1007
  152TMC2     H 2369   3.067   2.650  12.699  0.7264 -0.0893 -0.1849
  152TMC2    H1 2370   3.073   3.066  12.812 -0.0583  0.4985  0.5044
  152TMC2    H2 2371   3.426   2.869  12.662 -0.2196 -0.0650  0.5250
  152TMC2    C7 2372   3.325   3.114  12.774  1.4352  0.0497 -0.8834
  152TMC2    C8 2373   3.309   2.626  12.662  0.1041  0.0295 -0.0254
  152TMC2    O1 2374   3.255   3.213  12.780  0.8509 -0.3788  0.2478
  152TMC2    O2 2375   3.286   2.528  12.733  0.1540 -0.6122  0.2889
  152TMC2    O5 2376   3.397   2.640  12.562 -1.2454  0.1706  0.1903
  152TMC2    H5 2377   3.387   2.727  12.517  0.9442  0.3816  0.0881
  153MPD2     C 2378   2.723   2.569  12.908 -0.3932 -0.2376  0.5140
  153MPD2    C1 2379   2.748   2.702  12.876 -0.5840  0.5463 -0.9611
  153MPD2    C2 2380   2.647   2.794  12.889 -0.5771 -1.0106 -0.6390
  153MPD2    C3 2381   2.522   2.752  12.935  0.1022  0.8737 -0.1864
  153MPD2    C4 2382   2.509   2.620  12.977  0.8958  0.0359  0.5739
  153MPD2    C5 2383   2.605   2.527  12.956 -0.2890 -0.0841 -0.1150
  153MPD2     H 2384   2.658   2.899  12.866  0.8501 -0.6999  1.4930
  153MPD2    H1 2385   2.423   2.573  13.023  1.8008 -1.9257  0.2745
  153MPD2    H2 2386   2.800   2.499  12.876 -1.9053 -1.9469  0.6730
  153MPD2    H3 2387   2.590   2.427  12.994  0.4321  0.8606  2.6404
  153MPD2     N 2388   2.420   2.847  12.946 -0.1430 -0.0836  0.1872
  153MPD2    H5 2389   2.449   2.939  12.914 -0.1318  0.2839  1.2334
  153MPD2    N1 2390   2.878   2.731  12.830  0.1871 -0.1242 -0.4043
  153MPD2    H7 2391   2.957   2.667  12.829 -1.4260 -2.1032 -0.8239
  154TMC2    C1 2392   0.185   2.293   0.417 -0.4123 -0.0152 -0.5813
  154TMC2    C2 2393   0.235   2.239   0.529  0.5213 -0.2439  0.4677
  154TMC2    C3 2394   0.248   2.105   0.526  0.4210 -0.1688 -0.9328
  154TMC2    C4 2395   0.140   2.226   0.309  0.2861  0.1181 -0.3640
  154TMC2    C5 2396   0.156   2.087   0.319 -0.2978 -0.0122 -0.3682
  154TMC2    C6 2397   0.207   2.026   0.427 -0.4046 -0.3701  0.6832
  154TMC2     C 2398   0.163   2.437   0.430 -0.7264  0.5964  0.2645
  154TMC2     O 2399   0.168   2.481   0.540 -0.0289  0.2087  0.1163
  154TMC2     H 2400   0.273   2.301   0.609 -2.1645  2.2703 -0.2462
  154TMC2    H1 2401   0.106   2.271   0.216  0.8782  1.8009  0.2432
  154TMC2    H2 2402   0.219   1.919   0.439  0.3495 -0.1098  2.2939
  154TMC2    C7 2403   0.147   2.013   0.204 -0.0278  0.0895  1.4720
  154TMC2    C8 2404   0.318   2.033   0.636 -0.3617  0.5958 -0.7530
  154TMC2    O1 2405   0.102   1.898   0.224  0.1592 -0.0682 -0.2373
  154TMC2    O2 2406   0.373   1.926   0.617  0.1810  0.1621  0.1194
  154TMC2    O5 2407   0.319   2.103   0.755 -0.6680  0.3283  0.0864
  154TMC2    H5 2408   0.239   2.158   0.766 -1.2128 -0.0296 -2.1162
  155MPD2     C 2409   0.149   2.681   0.157  0.6408  0.5227  0.4184
  155MPD2    C1 2410   0.136   2.636   0.289 -0.2937  0.1897 -0.0495
  155MPD2    C2 2411   0.104   2.728   0.385 -0.2459  0.9857 -0.4936
  155MPD2    C3 2412   0.070   2.862   0.352 -0.0340 -0.0149 -1.1651
  155MPD2    C4 2413   0.069   2.896   0.222 -0.7898 -0.0414 -0.5810
  155MPD2    C5 2414   0.113   2.808   0.126 -1.1717  0.5030  0.2766
  155MPD2     H 2415   0.085   2.692   0.486 -0.8674 -0.1210 -1.0029
  155MPD2    H1 2416   0.050   2.997   0.187  0.6165  1.0567  1.8583
  155MPD2    H2 2417   0.189   2.620   0.077 -1.3650  0.2655 -0.3981
  155MPD2    H3 2418   0.121   2.857   0.029  0.7832 -0.0329  0.1584
  155MPD2     N 2419   0.031   2.950   0.457 -0.3499 -0.0748  0.3836
  155MPD2    H5 2420   0.039   2.924   0.555 -1.4415  0.6759  0.6633
  155MPD2    N1 2421   0.154   2.496   0.308 -0.3387 -0.0891 -0.1007
  155MPD2    H7 2422   0.195   2.445   0.230  0.5651  0.8012 -0.2142
  156TMC2    C1 2423   3.660   0.378  12.032 -0.1496 -1.2068  0.1202
  156TMC2    C2 2424   3.758   0.286  12.059 -0.1896 -0.3056  0.1117
  156TMC2    C3 2425   3.858   0.268  11.970  0.1077  0.2713 -0.6668
  156TMC2    C4 2426   3.657   0.446  11.911 -0.1170  0.3725 -0.1104
  156TMC2    C5 2427   3.764   0.423  11.823 -0.4178 -0.0869 -0.5567
  156TMC2    C6 2428   3.866   0.343  11.858  0.1227  0.1442 -0.5136
  156TMC2     C 2429   3.570   0.429  12.128  0.2185  0.1391  0.1243
  156TMC2     O 2430   3.472   0.491  12.089  0.0860 -0.9167  0.2763
  156TMC2     H 2431   3.762   0.232  12.153  1.3150  0.8970  0.7413
  156TMC2    H1 2432   3.585   0.526  11.901  0.7618  1.2676  0.7256
  156TMC2    H2 2433   3.959   0.342  11.802  0.6912  1.1785  0.4362
  156TMC2    C7 2434   3.758   0.497  11.695 -0.3872 -0.9663  0.5324
  156TMC2    C8 2435   3.970   0.199  12.025 -0.9004  0.3943  0.3173
  156TMC2    O1 2436   3.666   0.574  11.676  0.2437  0.2048 -0.7901
  156TMC2    O2 2437   3.996   0.212  12.142 -0.8748  0.2731  0.0017
  156TMC2    O5 2438   4.030   0.126  11.933  0.3406 -0.0553  0.1345
  156TMC2    H5 2439   3.994   0.137  11.842 -1.4168 -0.1791  0.8210
  157MPD2     C 2440   3.583   0.436  12.488  0.8840  0.2679  0.3017
  157MPD2    C1 2441   3.520   0.440  12.366 -0.1095 -0.5250  0.1304
  157MPD2    C2 2442   3.383   0.461  12.352  0.0506  0.0860 -0.5674
  157MPD2    C3 2443   3.302   0.485  12.462  0.1089 -0.6170 -0.3943
  157MPD2    C4 2444   3.357   0.460  12.581  0.0066 -0.4611  1.1662
  157MPD2    C5 2445   3.500   0.453  12.595  0.6130  0.4598 -1.2721
  157MPD2     H 2446   3.337   0.434  12.258 -0.5402 -2.0954  0.3343
  157MPD2    H1 2447   3.307   0.489  12.673  0.4943  0.4513  1.1460
  157MPD2    H2 2448   3.689   0.417  12.504  1.4093  0.7739 -2.5072
  157MPD2    H3 2449   3.542   0.471  12.693 -1.7833  0.0729 -0.1637
  157MPD2     N 2450   3.166   0.505  12.441 -0.0953 -0.4452  0.6024
  157MPD2    H5 2451   3.135   0.528  12.347 -0.1216  0.5934  0.8692
  157MPD2    N1 2452   3.605   0.414  12.260 -0.2208  0.4629  0.4045
  157MPD2    H7 2453   3.700   0.389  12.286 -0.6108 -1.4383  0.0155
  158TMC2    C1 2454   3.496   4.385  13.792  0.3150 -0.7107  0.2125
  158TMC2    C2 2455   3.577   4.487  13.761 -0.5144  0.2538  0.4474
  158TMC2    C3 2456   3.525   4.610  13.750  0.4700 -0.1317  1.3526
  158TMC2    C4 2457   3.359   4.403  13.801  0.1418 -0.2642 -0.4106
  158TMC2    C5 2458   3.315   4.535  13.804 -0.1889 -0.4392 -0.6514
  158TMC2    C6 2459   3.399   4.640  13.778 -0.0479 -0.2330  0.2652
  158TMC2     C 2460   3.557   4.252  13.778 -0.0938  0.3568 -0.5148
  158TMC2     O 2461   3.644   4.249  13.692 -0.0259  0.3502 -0.4439
  158TMC2     H 2462   3.682   4.468  13.745 -0.3404  3.1333 -1.7561
  158TMC2    H1 2463   3.295   4.317  13.818 -0.0463 -0.3741 -1.6629
  158TMC2    H2 2464   3.363   0.007  13.776  3.8750  1.1144 -1.0931
  158TMC2    C7 2465   3.178   4.560  13.771 -0.1192 -0.1096 -0.5758
  158TMC2    C8 2466   3.613   4.720  13.743 -0.1933  0.1572  0.1138
  158TMC2    O1 2467   3.148   4.655  13.702  0.2140  0.4392 -0.1564
  158TMC2    O2 2468   3.688   0.024  13.828 -0.2551 -0.3654  0.9035
  158TMC2    O5 2469   3.567   0.054  13.631 -0.2172 -0.2177 -0.2105
  158TMC2    H5 2470   3.493   0.011  13.583  1.2197 -3.4733  0.5164
  159MPD2     C 2471   3.597   3.747  13.896 -0.9367 -0.1790 -0.3483
  159MPD2    C1 2472   3.480   3.799  13.950 -0.6366 -0.3880  0.0150
  159MPD2    C2 2473   3.452   3.932  13.926  0.1093 -0.3686  0.1593
  159MPD2    C3 2474   3.529   4.009  13.837 -0.4623  0.4791 -0.0970
  159MPD2    C4 2475   3.641   3.955  13.776  0.2078  0.4398 -0.8056
  159MPD2    C5 2476   3.672   3.825  13.812 -0.2983  0.5941 -0.4012
  159MPD2     H 2477   3.359   3.975  13.958  0.7878 -0.5279  2.3222
  159MPD2    H1 2478   3.696   4.014  13.703  1.4118  1.3667  0.8699
  159MPD2    H2 2479   3.623   3.642  13.907  1.6987  0.4661 -0.4535
  159MPD2    H3 2480   3.754   3.773  13.764 -1.4664 -0.8075 -0.8619
  159MPD2     N 2481   3.488   4.148  13.836  0.2238  0.6379  0.2412
  159MPD2    H5 2482   3.411   4.176  13.895 -0.7527 -3.6708  0.9879
  159MPD2    N1 2483   3.393   3.714  14.023  0.2982 -0.1982  0.0808
  159MPD2    H7 2484   3.435   3.630  14.062  1.8787  0.4046 -0.3388
  160TMC2    C1 2485   3.264   1.690   1.579  0.2225 -0.0573  0.7439
  160TMC2    C2 2486   3.356   1.595   1.535  0.6892 -0.5605 -0.5195
  160TMC2    C3 2487   3.455   1.641   1.460  0.2788 -1.2303 -0.2776
  160TMC2    C4 2488   3.285   1.823   1.574 -0.3958 -0.1713  0.4475
  160TMC2    C5 2489   3.398   1.862   1.508 -0.7643 -0.6211  0.8176
  160TMC2    C6 2490   3.483   1.776   1.442  0.2727 -0.0838  0.1820
  160TMC2     C 2491   3.127   1.657   1.542 -0.0568  0.4563  0.5584
  160TMC2     O 2492   3.099   1.538   1.550 -0.6197  0.1872  0.2303
  160TMC2     H 2493   3.333   1.489   1.532 -2.0901  0.0600 -0.7150
  160TMC2    H1 2494   3.228   1.895   1.632  1.1285  0.7911  0.7458
  160TMC2    H2 2495   3.567   1.805   1.380 -0.3995  0.8140 -0.3051
  160TMC2    C7 2496   3.364   1.972   1.429  0.7877  0.3022 -0.6810
  160TMC2    C8 2497   3.508   1.559   1.352 -0.4451 -0.0833 -0.9260
  160TMC2    O1 2498   3.243   1.982   1.412 -0.2184  0.2201  0.2869
  160TMC2    O2 2499   3.538   1.595   1.241  0.3754  0.5075  0.4037
  160TMC2    O5 2500   3.563   1.448   1.400  0.0700 -0.8717 -0.2560
  160TMC2    H5 2501   3.559   1.449   1.498 -0.3109 -0.0234 -0.2781
  161MPD2     C 2502   2.847   1.649   1.449  0.4647  0.0660 -0.6265
  161MPD2    C1 2503   2.929   1.761   1.444 -0.0888 -0.4409  0.5875
  161MPD2    C2 2504   2.890   1.881   1.383 -0.5794 -0.1247 -0.3276
  161MPD2    C3 2505   2.766   1.888   1.336 -0.2596 -0.1454  0.0793
  161MPD2    C4 2506   2.690   1.777   1.330  0.7737  0.8603  0.2166
  161MPD2    C5 2507   2.721   1.659   1.394 -0.1889  0.6841 -0.0118
  161MPD2     H 2508   2.961   1.963   1.383 -2.8514  1.8557 -0.4867
  161MPD2    H1 2509   2.588   1.778   1.291  0.4636 -1.3236  0.9752
  161MPD2    H2 2510   2.873   1.555   1.497  1.9674  0.1792 -1.2147
  161MPD2    H3 2511   2.656   1.574   1.411 -1.0653  1.3473 -0.0038
  161MPD2     N 2512   2.708   2.002   1.270  0.2198 -0.2438 -0.0685
  161MPD2    H5 2513   2.621   1.993   1.218 -0.3244  0.0808  0.7722
  161MPD2    N1 2514   3.054   1.760   1.498  0.8187 -0.1121  0.1346
  161MPD2    H7 2515   3.095   1.853   1.493 -0.5679  0.2973 -3.2497
  162TMC2    C1 2516   1.191   4.013   1.455  0.5025 -0.6602 -0.1903
  162TMC2    C2 2517   1.058   4.052   1.438  0.1485 -0.3924 -0.0517
  162TMC2    C3 2518   0.992   4.117   1.544  0.7304 -0.0366 -0.1382
  162TMC2    C4 2519   1.256   4.058   1.565 -0.0168  0.2754 -0.3199
  162TMC2    C5 2520   1.187   4.120   1.666  0.1026  0.0703 -0.7030
  162TMC2    C6 2521   1.052   4.146   1.662 -0.1898 -0.1111 -0.0183
  162TMC2     C 2522   1.267   3.980   1.337  0.6220 -0.8810  0.0709
  162TMC2     O 2523   1.227   4.012   1.224 -0.2347  0.3271 -0.3822
  162TMC2     H 2524   1.013   4.018   1.346  0.1680  1.5998 -0.8004
  162TMC2    H1 2525   1.360   4.037   1.586  0.1983  0.4156 -1.2454
  162TMC2    H2 2526   0.998   4.191   1.744  2.1619  1.7827  0.4744
  162TMC2    C7 2527   1.235   4.121   1.804  0.6947  0.2561 -0.2597
  162TMC2    C8 2528   0.847   4.142   1.524  0.4027  0.7932  0.4241
  162TMC2    O1 2529   1.195   4.203   1.883  0.5597 -0.0082 -0.1167
  162TMC2    O2 2530   0.796   4.148   1.411 -0.8984 -0.1279  0.7860
  162TMC2    O5 2531   0.787   4.082   1.629  0.5326 -0.3065 -0.1691
  162TMC2    H5 2532   0.851   4.074   1.703  1.1915  1.3583 -0.5641
  163MPD2     C 2533   1.633   3.666   1.145  0.2917  0.2610  0.0754
  163MPD2    C1 2534   1.526   3.722   1.077  0.4428  0.4780  0.8246
  163MPD2    C2 2535   1.443   3.812   1.147  0.2315  0.6353 -0.2603
  163MPD2    C3 2536   1.464   3.841   1.280  0.0076 -0.0087 -0.0404
  163MPD2    C4 2537   1.578   3.787   1.341  0.4579 -0.6444  0.0949
  163MPD2    C5 2538   1.669   3.710   1.273 -0.0853 -0.0449 -0.1614
  163MPD2     H 2539   1.346   3.845   1.110 -1.1294 -1.7577  1.1858
  163MPD2    H1 2540   1.603   3.813   1.443 -1.1869 -0.6152  0.4981
  163MPD2    H2 2541   1.698   3.597   1.094 -0.1453 -0.5538  0.6268
  163MPD2    H3 2542   1.759   3.671   1.320 -0.9487 -3.0249 -1.0056
  163MPD2     N 2543   1.379   3.912   1.371  0.5063  0.9394 -0.1472
  163MPD2    H5 2544   1.398   3.888   1.468  1.4750  0.6600 -0.4002
  163MPD2    N1 2545   1.492   3.676   0.948  0.2077  0.3202 -0.5883
  163MPD2    H7 2546   1.551   3.601   0.914  0.1758  0.5710 -1.1925
  164TMC2    C1 2547   2.352   3.367  10.803  0.5760  0.3634  0.3045
  164TMC2    C2 2548   2.467   3.433  10.765 -0.3863  0.5768 -0.2116
  164TMC2    C3 2549   2.444   3.567  10.733  0.5259  0.2522  0.1957
  164TMC2    C4 2550   2.224   3.419  10.810  0.1428 -0.1547  0.0249
  164TMC2    C5 2551   2.222   3.557  10.791 -0.2219 -0.1552  0.0146
  164TMC2    C6 2552   2.328   3.631  10.743  0.0314  0.1447  0.4116
  164TMC2     C 2553   2.356   3.221  10.811 -0.3233 -0.0143 -0.1419
  164TMC2     O 2554   2.249   3.167  10.799  0.4067  0.1493  0.0018
  164TMC2     H 2555   2.559   3.378  10.751 -1.6623 -1.7403  0.3764
  164TMC2    H1 2556   2.135   3.372  10.851  1.0827  0.1938  2.4299
  164TMC2    H2 2557   2.320   3.731  10.703 -3.0862  0.1326  0.9749
  164TMC2    C7 2558   2.092   3.613  10.794  0.2241  0.7780 -0.6207
  164TMC2    C8 2559   2.559   3.654  10.709 -0.6736  0.1652 -0.6977
  164TMC2    O1 2560   1.996   3.545  10.775 -0.2219  0.1085 -0.2894
  164TMC2    O2 2561   2.559   3.777  10.713 -0.2551  0.1534  0.4982
  164TMC2    O5 2562   2.644   3.584  10.624  0.3972 -0.2458  0.0359
  164TMC2    H5 2563   2.635   3.486  10.620 -0.1235 -0.1438 -1.1579
  165TMC2    C1 2564   3.100   1.072   1.408  0.4548 -0.1601  0.1145
  165TMC2    C2 2565   2.992   1.096   1.488  0.4606  0.4668  0.7860
  165TMC2    C3 2566   2.931   1.219   1.482  0.6610 -0.1003  0.1385
  165TMC2    C4 2567   3.135   1.162   1.304  0.6490 -0.6077  0.8271
  165TMC2    C5 2568   3.071   1.286   1.311 -0.5484  0.3546  0.4324
  165TMC2    C6 2569   2.968   1.317   1.393  0.5000 -0.2925 -0.0342
  165TMC2     C 2570   3.186   0.952   1.432  0.1723 -0.5412  0.6046
  165TMC2     O 2571   3.165   0.905   1.540  0.1301  0.3362 -0.1973
  165TMC2     H 2572   2.965   1.028   1.569 -0.1916 -0.7223 -0.4258
  165TMC2    H1 2573   3.225   1.134   1.249  1.4708 -1.4201  2.5801
  165TMC2    H2 2574   2.908   1.406   1.383 -0.1203 -0.9481 -2.1337
  165TMC2    C7 2575   3.138   1.385   1.239 -0.2918 -0.0573 -0.8444
  165TMC2    C8 2576   2.813   1.236   1.555 -0.2061 -0.5779 -0.3585
  165TMC2    O1 2577   3.253   1.359   1.218 -0.8067  0.2848  0.0143
  165TMC2    O2 2578   2.785   1.343   1.611  0.5828  0.1864  0.2451
  165TMC2    O5 2579   2.733   1.146   1.492  0.9841  0.0440 -0.1639
  165TMC2    H5 2580   2.785   1.067   1.468  0.6789 -0.1302 -0.2605
  166MPD2     C 2581   3.423   0.553   1.228 -0.3567 -0.3106  0.9824
  166MPD2    C1 2582   3.425   0.599   1.360 -0.1856  0.0543  0.4678
  166MPD2    C2 2583   3.368   0.724   1.381  0.2562  0.0594 -0.6211
  166MPD2    C3 2584   3.294   0.787   1.288 -0.7778 -0.1346  0.3360
  166MPD2    C4 2585   3.292   0.743   1.157  0.4946 -0.0309 -0.6560
  166MPD2    C5 2586   3.361   0.625   1.134 -0.1057 -0.1354 -0.0345
  166MPD2     H 2587   3.367   0.762   1.483 -0.9506  0.5372 -0.8081
  166MPD2    H1 2588   3.233   0.787   1.078 -0.9327  0.6756  0.7924
  166MPD2    H2 2589   3.459   0.455   1.200  0.4496  0.7750 -1.8226
  166MPD2    H3 2590   3.351   0.576   1.037  0.5795  2.4206 -1.3723
  166MPD2     N 2591   3.220   0.903   1.311  0.6535 -0.1658 -0.0741
  166MPD2    H5 2592   3.174   0.951   1.234  1.1874  2.5603  1.3161
  166MPD2    N1 2593   3.512   0.532   1.449  0.6630 -0.2499  0.0609
  166MPD2    H7 2594   3.574   0.462   1.408  0.9551  0.1960 -0.2522
  167TMC2    C1 2595   1.301   3.591  12.907  0.2330 -0.3022 -0.1589
  167TMC2    C2 2596   1.211   3.641  13.002  0.2467 -0.1358 -0.6477
  167TMC2    C3 2597   1.111   3.561  13.041 -0.0593  0.3951 -0.1798
  167TMC2    C4 2598   1.300   3.462  12.871 -0.1000 -0.2511  0.1733
  167TMC2    C5 2599   1.205   3.381  12.935  0.0060  0.4931 -0.7854
  167TMC2    C6 2600   1.109   3.428  13.018  1.1394  0.5813  0.0634
  167TMC2     C 2601   1.399   3.678  12.847 -0.2716 -0.2004  0.2711
  167TMC2     O 2602   1.435   3.784  12.903  1.0910 -0.7182 -0.1394
  167TMC2     H 2603   1.211   3.748  13.013 -1.6776 -0.1821 -0.1605
  167TMC2    H1 2604   1.385   3.430  12.812 -0.7831 -0.3334 -0.7668
  167TMC2    H2 2605   1.030   3.363  13.054  1.3867  0.0451 -0.3727
  167TMC2    C7 2606   1.200   3.241  12.887 -0.1999 -0.3585 -0.1410
  167TMC2    C8 2607   1.018   3.619  13.140 -0.4353  0.4737 -0.0540
  167TMC2    O1 2608   1.133   3.159  12.948 -0.3697 -0.0013  0.1012
  167TMC2    O2 2609   0.975   3.546  13.227 -0.0556 -0.4402  0.2958
  167TMC2    O5 2610   0.969   3.734  13.095 -0.4083 -0.1048  0.4655
  167TMC2    H5 2611   0.997   3.755  13.003  2.7746 -1.3558  1.1478
  168MPD2     C 2612   1.576   3.804  12.663  0.1968 -0.2487 -0.2347
  168MPD2    C1 2613   1.477   3.721  12.619  0.1744 -0.4299 -0.6023
  168MPD2    C2 2614   1.432   3.725  12.486 -0.4831 -0.6515 -0.1575
  168MPD2    C3 2615   1.501   3.797  12.390  0.5733 -1.1294  0.2862
  168MPD2    C4 2616   1.604   3.877  12.432 -0.2381  0.3072  1.4578
  168MPD2    C5 2617   1.640   3.878  12.569  0.1182 -0.1312 -0.2292
  168MPD2     H 2618   1.347   3.663  12.457 -1.3166  0.0986  0.6949
  168MPD2    H1 2619   1.663   3.937  12.364 -1.6835 -0.3261 -0.3604
  168MPD2    H2 2620   1.615   3.811  12.764  1.0061  0.6034 -0.6139
  168MPD2    H3 2621   1.723   3.935  12.609 -1.0523  0.8785  0.7570
  168MPD2     N 2622   1.464   3.791  12.249  0.9768 -0.7235 -0.8713
  168MPD2    H5 2623   1.530   3.835  12.186  2.0875  2.0074  2.2305
  168MPD2    N1 2624   1.405   3.649  12.713  0.3197  0.8100 -0.0032
  168MPD2    H7 2625   1.355   3.567  12.683  1.5006  0.3881 -0.7754
  169MPD1     C 2626   3.843   2.764  10.179  0.2144  0.4106  0.4440
  169MPD1    C1 2627   3.762   2.746  10.072 -0.7613  0.1391 -0.0921
  169MPD1    C2 2628   3.827   2.778   9.954 -0.0959  1.1241  0.5939
  169MPD1    C3 2629   3.948   2.847   9.953  0.4203  0.4762 -0.6711
  169MPD1    C4 2630   4.016   2.877  10.074 -0.0516  0.3569  0.3813
  169MPD1    C5 2631   3.961   2.835  10.188  0.1588 -0.2913  0.1438
  169MPD1     H 2632   3.772   2.754   9.863  0.8569  1.0278  0.0441
  169MPD1    H1 2633   4.115   2.920  10.081  0.4634 -0.3478 -2.2984
  169MPD1    H2 2634   3.804   2.728  10.274  0.0803  0.1994  0.3075
  169MPD1    H3 2635   4.001   2.872  10.281  2.5592  2.3601 -1.9829
  169MPD1     N 2636   3.993   2.897   9.830  0.4380 -0.2390 -0.4048
  169MPD1    H5 2637   3.946   2.882   9.741 -2.3371  0.5729  0.9248
  169MPD1    N1 2638   3.652   2.663  10.081  0.0529  0.4352  0.0561
  169MPD1    H6 2639   3.592   2.685  10.002  0.9809  0.6910 -0.5722
  169MPD1    H7 2640   3.591   2.660  10.163  0.7067 -0.3188  0.5206
  170MPD1     C 2641   2.619   1.160  12.994  0.0576 -0.2492  0.3170
  170MPD1    C1 2642   2.505   1.103  12.952 -0.0590 -0.5793  0.1101
  170MPD1    C2 2643   2.413   1.056  13.045 -0.0212 -0.0801  0.0683
  170MPD1    C3 2644   2.439   1.057  13.181 -0.2441  0.4540  0.4726
  170MPD1    C4 2645   2.564   1.104  13.222 -0.1078  0.0277 -0.0035
  170MPD1    C5 2646   2.651   1.150  13.129  0.3225 -0.2805 -0.2248
  170MPD1     H 2647   2.322   1.004  13.017 -0.4237 -0.0116  1.2464
  170MPD1    H1 2648   2.595   1.104  13.326 -2.0441  0.6651  0.5812
  170MPD1    H2 2649   2.695   1.197  12.926 -1.6763  2.3201 -0.2093
  170MPD1    H3 2650   2.746   1.192  13.159 -0.1324 -0.3814  1.3757
  170MPD1     N 2651   2.335   1.022  13.268  0.2944 -0.4315 -0.4600
  170MPD1    H5 2652   2.249   0.993  13.223  0.9698 -2.1182 -0.6670
  170MPD1    N1 2653   2.471   1.097  12.820 -0.3263  0.5553 -0.1010
  170MPD1    H6 2654   2.552   1.103  12.758 -0.1392 -0.6455  0.0310
  170MPD1    H7 2655   2.416   1.014  12.801  0.1659  0.3840 -0.8043
  171MPD1     C 2656   0.667   1.852  14.952  0.1215 -0.4726  0.1966
  171MPD1    C1 2657   0.608   1.918  15.057 -0.1502  0.8474  0.0854
  171MPD1    C2 2658   0.571   1.833  15.164 -0.7738 -0.0790 -0.1384
  171MPD1    C3 2659   0.560   1.697  15.148  0.2200  0.0038  0.4963
  171MPD1    C4 2660   0.606   1.643  15.026 -0.4248  0.1295 -0.5428
  171MPD1    C5 2661   0.665   1.723  14.937  0.2442  0.0896  0.0730
  171MPD1     H 2662   0.552   1.892  15.252 -1.9445 -1.2327  0.3963
  171MPD1    H1 2663   0.612   1.537  15.004 -0.4818 -0.1827  0.9000
  171MPD1    H2 2664   0.709   1.917  14.876  0.2327  0.0349  0.6880
  171MPD1    H3 2665   0.706   1.678  14.847 -1.5707 -1.1290 -0.1439
  171MPD1     N 2666   0.510   1.615  15.248 -0.2828  0.0288 -0.4998
  171MPD1    H5 2667   0.519   1.515  15.234 -0.3340 -0.2785  1.6538
  171MPD1    N1 2668   0.620   2.057  15.087 -0.4950 -0.6228 -0.1348
  171MPD1    H6 2669   0.632   2.128  15.015 -1.0198  0.1774  0.5621
  171MPD1    H7 2670   0.549   2.086  15.155  1.0981  0.7503  0.9499
  172MPD1     C 2671   3.953   0.995   0.218  0.1232  0.1031  0.0269
  172MPD1    C1 2672   3.920   1.071   0.333  0.1913  0.0532  0.3612
  172MPD1    C2 2673   4.010   1.169   0.371  0.2379 -0.3111 -0.1006
  172MPD1    C3 2674   4.139   1.180   0.319 -0.2562 -0.0170  0.5524
  172MPD1    C4 2675   4.169   1.089   0.223 -0.0699 -0.0279  0.1331
  172MPD1    C5 2676   4.078   1.004   0.166 -0.1474 -0.3872  0.5826
  172MPD1     H 2677   3.976   1.238   0.447 -0.6124 -0.1240 -0.6411
  172MPD1    H1 2678   4.266   1.093   0.174  0.6284 -3.0596  1.2255
  172MPD1    H2 2679   3.886   0.918   0.182 -1.4268  0.6046  1.8006
  172MPD1    H3 2680   4.112   0.947   0.081  0.3890  1.2702 -0.3228
  172MPD1     N 2681   4.228   1.279   0.363  1.0667  0.2763 -0.5497
  172MPD1    H5 2682   4.324   1.283   0.328  1.0158 -2.1097 -0.9883
  172MPD1    N1 2683   3.793   1.063   0.383  0.2764 -0.2936  0.5721
  172MPD1    H6 2684   3.749   0.971   0.388 -2.3181  0.8617 -1.0355
  172MPD1    H7 2685   3.773   1.111   0.471  0.2806  1.3250 -0.3011
  173MPD1     C 2686   1.370   1.490  13.752  0.6037 -0.3601 -0.5188
  173MPD1    C1 2687   1.465   1.402  13.790 -0.4850 -0.1954  0.5936
  173MPD1    C2 2688   1.442   1.307  13.893 -0.1595 -0.1809 -0.2768
  173MPD1    C3 2689   1.318   1.306  13.955 -0.2976 -0.3589  0.4521
  173MPD1    C4 2690   1.216   1.392  13.914 -0.6836  0.3950 -0.0349
  173MPD1    C5 2691   1.247   1.486  13.818 -0.6580 -0.0337  0.1936
  173MPD1     H 2692   1.522   1.242  13.924  0.7216  0.3658 -1.3715
  173MPD1    H1 2693   1.112   1.383  13.942 -0.1087 -0.5855  1.7222
  173MPD1    H2 2694   1.381   1.561  13.671 -0.9649  0.7488  0.2402
  173MPD1    H3 2695   1.171   1.560  13.793 -0.5575  0.1448  0.4191
  173MPD1     N 2696   1.294   1.207  14.057 -0.2612  0.7292 -0.0921
  173MPD1    H5 2697   1.373   1.152  14.088 -0.4287  1.2974  1.3162
  173MPD1    N1 2698   1.561   1.385  13.690 -0.1114 -0.6312 -0.0589
  173MPD1    H6 2699   1.576   1.477  13.649 -0.3585 -0.2348  0.7306
  173MPD1    H7 2700   1.651   1.351  13.725  1.1795  2.7719 -0.0707
  174MPD1     C 2701   1.856   0.942  14.598  0.3158  0.1671 -0.0862
  174MPD1    C1 2702   1.744   0.890  14.654  0.9680  0.6011  0.2974
  174MPD1    C2 2703   1.630   0.884  14.579 -0.4269 -0.4895 -0.3092
  174MPD1    C3 2704   1.621   0.932  14.449 -0.7675 -0.0055  0.0391
  174MPD1    C4 2705   1.728   0.997  14.395  0.3431  0.4907 -0.0385
  174MPD1    C5 2706   1.842   0.990  14.469  0.0085 -0.1149  0.2805
  174MPD1     H 2707   1.541   0.837  14.619 -0.8218  0.4606 -0.0752
  174MPD1    H1 2708   1.736   1.039  14.296  0.4318  1.1341  0.2373
  174MPD1    H2 2709   1.948   0.949  14.655  1.1036  0.5220 -1.4287
  174MPD1    H3 2710   1.935   1.027  14.429 -1.2171 -0.1136 -2.5340
  174MPD1     N 2711   1.503   0.935  14.380  0.6816 -0.4330  0.2609
  174MPD1    H5 2712   1.502   0.997  14.300 -0.7149 -0.9581 -0.1377
  174MPD1    N1 2713   1.739   0.864  14.795 -0.0397 -0.0447  0.4359
  174MPD1    H6 2714   1.688   0.780  14.822 -0.7549  0.7368  1.4937
  174MPD1    H7 2715   1.835   0.850  14.825  0.9298  0.6822 -2.3704
  175MPD1     C 2716   4.402   2.164  15.560  0.4007 -0.2781  0.7498
  175MPD1    C1 2717   4.473   2.046  15.590  0.2833  0.4717 -0.1691
  175MPD1    C2 2718   4.425   1.964  15.698 -0.4406 -0.2151  0.3614
  175MPD1    C3 2719   4.315   2.005  15.767  0.3520 -0.0215 -0.6272
  175MPD1    C4 2720   4.245   2.121  15.726  0.3154 -0.4282 -0.3228
  175MPD1    C5 2721   4.292   2.199  15.627 -0.0153 -0.6703 -0.4984
  175MPD1     H 2722   4.484   1.878  15.726  1.3429  1.2435  1.1079
  175MPD1    H1 2723   4.170   2.160  15.794 -0.1379 -1.1598 -0.4093
  175MPD1    H2 2724   4.439   2.231  15.483  0.8272 -1.7743 -0.3588
  175MPD1    H3 2725   4.233   2.283  15.594 -0.4504 -0.7792 -0.0013
  175MPD1     N 2726   4.266   1.938  15.881 -0.0956  0.7326 -0.5877
  175MPD1    H5 2727   4.189   1.986  15.927  0.5649  0.2181  1.0653
  175MPD1    N1 2728   4.601   2.017  15.530  0.0887  0.1008  0.0251
  175MPD1    H6 2729   4.622   1.918  15.540 -2.1177 -0.4645 -1.0048
  175MPD1    H7 2730   4.603   2.046  15.433  1.2244  1.5879  0.4937
  176MPD1     C 2731   0.981   4.011  17.429 -0.0117 -0.3235 -0.3933
  176MPD1    C1 2732   0.980   4.105  17.328  0.3802 -0.5316  0.4387
  176MPD1    C2 2733   1.043   4.225  17.351  0.6459  0.0886  0.2559
  176MPD1    C3 2734   1.091   4.269  17.477  0.3167  0.8532  0.7713
  176MPD1    C4 2735   1.086   4.172  17.577  0.2806 -0.1048  0.3187
  176MPD1    C5 2736   1.029   4.046  17.556  0.5425  0.2347  0.2326
  176MPD1     H 2737   1.058   4.292  17.267  0.5465  0.4570  0.5361
  176MPD1    H1 2738   1.133   4.180  17.675  2.3688  0.0126 -0.6980
  176MPD1    H2 2739   0.930   3.916  17.421 -0.8079  0.2108 -1.7390
  176MPD1    H3 2740   1.016   3.976  17.638 -0.8980  1.3329  0.9350
  176MPD1     N 2741   1.151   4.397  17.486 -0.1089  0.5312  0.5843
  176MPD1    H5 2742   1.143   4.449  17.400  2.3897 -0.6088 -0.3429
  176MPD1    N1 2743   0.933   4.063  17.197 -0.4270 -0.8934  0.0140
  176MPD1    H6 2744   0.856   3.996  17.203 -1.1451 -0.2631 -2.0756
  176MPD1    H7 2745   0.901   4.142  17.141  0.4120 -2.4828 -2.7027
  177MPD1     C 2746   0.513   4.391   9.808 -0.3186 -0.2116  1.2264
  177MPD1    C1 2747   0.452   4.265   9.796  0.5740  0.3859  0.2568
  177MPD1    C2 2748   0.437   4.211   9.670 -0.0437  0.3919 -0.9606
  177MPD1    C3 2749   0.483   4.279   9.558 -0.0361 -0.6689 -0.7334
  177MPD1    C4 2750   0.535   4.404   9.572  0.5950 -0.1335  0.7735
  177MPD1    C5 2751   0.540   4.463   9.694  0.1365 -0.5303  0.1814
  177MPD1     H 2752   0.398   4.110   9.661 -0.6329  0.4510  0.7798
  177MPD1    H1 2753   0.571   4.461   9.487  1.6796  1.8038  2.5157
  177MPD1    H2 2754   0.514   4.443   9.904 -0.1851  0.7486  0.7068
  177MPD1    H3 2755   0.586   4.560   9.710  0.1353 -0.3566 -0.8467
  177MPD1     N 2756   0.476   4.212   9.433 -0.1041 -0.9431  0.4558
  177MPD1    H5 2757   0.428   4.122   9.431  2.0597 -2.0837  0.6372
  177MPD1    N1 2758   0.435   4.184   9.909  0.3284 -0.3377  0.1659
  177MPD1    H6 2759   0.435   4.229  10.000  0.9371  1.0867 -0.5475
  177MPD1    H7 2760   0.381   4.098   9.900  2.4063 -1.7923  1.5811
  178MPD1     C 2761   2.155   4.455   0.447  0.1423  0.3958 -0.0561
  178MPD1    C1 2762   2.058   4.374   0.385 -0.5358 -0.0183 -0.0107
  178MPD1    C2 2763   2.028   4.402   0.254 -0.8161 -0.8467 -0.5079
  178MPD1    C3 2764   2.087   4.514   0.196 -0.1904 -0.5328 -0.1681
  178MPD1    C4 2765   2.180   4.584   0.259 -0.5505 -0.1657 -0.2836
  178MPD1    C5 2766   2.222   4.553   0.386  0.0298  0.3542 -0.2907
  178MPD1     H 2767   1.961   4.338   0.198  0.3798 -0.8036 -1.9700
  178MPD1    H1 2768   2.235   4.665   0.213  2.1951 -1.5057  0.6400
  178MPD1    H2 2769   2.191   4.423   0.544 -1.9874 -0.0442  0.6104
  178MPD1    H3 2770   2.309   4.589   0.439 -0.8291  3.1679 -0.7854
  178MPD1     N 2771   2.079   4.548   0.062  0.5697  0.1358 -0.2881
  178MPD1    H5 2772   2.140   4.624   0.035  0.6663  0.2885  0.3628
  178MPD1    N1 2773   2.021   4.252   0.439 -0.3951  0.2671  0.0387
  178MPD1    H6 2774   2.015   4.255   0.541 -1.0115 -0.9020  0.0294
  178MPD1    H7 2775   1.923   4.237   0.419  0.0088 -2.8874  0.4892
  179MPD1     C 2776   1.002   3.224  16.175 -0.1370  0.1201  0.5513
  179MPD1    C1 2777   0.912   3.114  16.154 -0.2817 -0.4473 -0.7678
  179MPD1    C2 2778   0.940   3.033  16.051  0.3010  0.3384 -0.0601
  179MPD1    C3 2779   1.047   3.056  15.958  0.1364  0.9869 -0.2597
  179MPD1    C4 2780   1.135   3.161  15.976 -0.5075 -0.1485 -0.7050
  179MPD1    C5 2781   1.104   3.239  16.088  0.5611  0.6503  0.0232
  179MPD1     H 2782   0.878   2.945  16.043  0.5850  0.0846  0.5879
  179MPD1    H1 2783   1.222   3.177  15.913 -0.9392  1.6584 -0.8511
  179MPD1    H2 2784   0.995   3.294  16.258  1.2247  2.2203 -1.1019
  179MPD1    H3 2785   1.169   3.324  16.107 -1.9008  2.5453  0.0019
  179MPD1     N 2786   1.083   2.966  15.857 -0.2805  0.9723 -0.9658
  179MPD1    H5 2787   1.174   2.971  15.813 -0.9762  2.8244 -2.1977
  179MPD1    N1 2788   0.813   3.080  16.252 -0.5500 -0.0187  0.0056
  179MPD1    H6 2789   0.736   3.030  16.207  2.1257 -2.1000 -2.3195
  179MPD1    H7 2790   0.782   3.164  16.299 -0.6796 -0.4706  0.7198
  180MPD1     C 2791   0.682   4.483  14.988  0.0991 -0.2442  0.1957
  180MPD1    C1 2792   0.639   4.362  14.944  0.1161  0.0956 -0.5343
  180MPD1    C2 2793   0.710   4.302  14.839  0.5641 -0.6086  0.3565
  180MPD1    C3 2794   0.827   4.354  14.787  0.1564  0.2541  0.1423
  180MPD1    C4 2795   0.863   4.480  14.827 -0.2341 -0.1753 -0.8207
  180MPD1    C5 2796   0.789   4.542  14.924 -0.2505  0.0565  0.6341
  180MPD1     H 2797   0.667   4.207  14.809 -0.6726 -0.6241  2.1911
  180MPD1    H1 2798   0.945   4.539  14.787  0.4844 -1.3121 -1.0190
  180MPD1    H2 2799   0.630   4.540  15.064  1.0654  2.1422 -0.9276
  180MPD1    H3 2800   0.825   4.640  14.953  3.7195 -0.9075 -1.1136
  180MPD1     N 2801   0.902   4.289  14.686 -0.3563 -0.0918 -0.5900
  180MPD1    H5 2802   0.862   4.205  14.644  0.2005 -0.6288 -0.0329
  180MPD1    N1 2803   0.517   4.311  14.985  0.0471  0.2751  0.5370
  180MPD1    H6 2804   0.483   4.342  15.076 -0.2449 -0.2779  0.6211
  180MPD1    H7 2805   0.505   4.210  14.980 -2.6141  0.5019  1.7424
  181MPD1     C 2806   3.017   1.565  10.268 -0.6570  0.1033  0.0636
  181MPD1    C1 2807   3.043   1.699  10.294 -0.0610  0.1274  0.3415
  181MPD1    C2 2808   3.158   1.751  10.240 -0.6242  0.2304  0.5759
  181MPD1    C3 2809   3.227   1.685  10.143  0.6112 -0.2142 -0.5740
  181MPD1    C4 2810   3.195   1.552  10.114 -0.3811  0.4160 -0.3005
  181MPD1    C5 2811   3.093   1.495  10.179  0.3018  0.4354 -0.3651
  181MPD1     H 2812   3.192   1.849  10.272 -2.9161  1.0374  0.5523
  181MPD1    H1 2813   3.252   1.485  10.050 -0.9466 -0.2659 -0.0841
  181MPD1    H2 2814   2.925   1.526  10.308 -0.9161 -3.4705 -4.0166
  181MPD1    H3 2815   3.056   1.396  10.154 -2.3505  0.5336  3.1749
  181MPD1     N 2816   3.344   1.735  10.082 -0.3333 -0.6001 -0.4649
  181MPD1    H5 2817   3.397   1.669  10.027 -0.1591  0.5609 -1.6963
  181MPD1    N1 2818   2.987   1.754  10.409  0.1900  0.0830  0.2774
  181MPD1    H6 2819   2.983   1.856  10.407 -0.9643  0.0439  0.4491
  181MPD1    H7 2820   2.890   1.722  10.410 -0.3203  1.6111 -0.0340
  182MPD1     C 2821   3.966   4.183   1.151 -0.4469 -0.3229  0.5856
  182MPD1    C1 2822   3.905   4.134   1.038 -0.5093  0.0161  0.1274
  182MPD1    C2 2823   3.848   4.225   0.944 -0.1114  0.2943  0.1358
  182MPD1    C3 2824   3.840   4.357   0.973 -0.6677  0.4003 -0.7100
  182MPD1    C4 2825   3.910   4.403   1.076 -0.1821 -0.9074 -0.5583
  182MPD1    C5 2826   3.967   4.320   1.172  0.3266 -0.8485  0.2872
  182MPD1     H 2827   3.814   4.186   0.848  0.3399 -0.3578  0.2436
  182MPD1    H1 2828   3.919   4.511   1.085 -4.2951 -0.6879  0.6604
  182MPD1    H2 2829   4.023   4.124   1.222 -0.3214 -0.7506  0.1289
  182MPD1    H3 2830   4.022   4.374   1.250  2.1510 -1.2915 -0.6976
  182MPD1     N 2831   3.773   4.455   0.891 -0.1405 -0.1732  0.3899
  182MPD1    H5 2832   3.797   4.552   0.908  1.0665 -0.4788  0.4452
  182MPD1    N1 2833   3.926   4.002   0.999 -1.0446  0.0580  0.3238
  182MPD1    H6 2834   3.927   3.924   1.064 -2.7658  1.2682  1.7954
  182MPD1    H7 2835   3.875   3.977   0.915  0.3626  0.8403 -0.7781
  183MPD1     C 2836   1.064   1.805   9.625  0.6894 -0.3430 -0.2544
  183MPD1    C1 2837   0.950   1.859   9.571  0.2042  0.2463 -0.3472
  183MPD1    C2 2838   0.841   1.778   9.538 -0.1800  0.4115  0.5718
  183MPD1    C3 2839   0.838   1.648   9.576 -0.1014 -0.3366  0.4989
  183MPD1    C4 2840   0.953   1.594   9.630 -0.3324 -0.2244 -0.0044
  183MPD1    C5 2841   1.063   1.674   9.659  0.5584  0.1358  0.0774
  183MPD1     H 2842   0.769   1.819   9.468 -0.1915 -0.6645 -0.0414
  183MPD1    H1 2843   0.971   1.491   9.658 -1.3868 -0.7697 -1.3506
  183MPD1    H2 2844   1.152   1.868   9.629  0.1549  0.4716 -1.7445
  183MPD1    H3 2845   1.152   1.626   9.698 -0.2466  0.1790  2.0178
  183MPD1     N 2846   0.715   1.568   9.562 -0.1659  0.1714 -0.1968
  183MPD1    H5 2847   0.633   1.620   9.533 -0.5734 -0.0892  0.4776
  183MPD1    N1 2848   0.967   1.993   9.512  0.2003  0.1013 -0.1498
  183MPD1    H6 2849   0.875   2.037   9.516  0.4658  0.3602  3.8079
  183MPD1    H7 2850   1.008   2.066   9.570  0.9735 -0.0914 -0.4484
  184MPD1     C 2851   4.062   4.077   9.450 -0.3257  0.3904 -0.1518
  184MPD1    C1 2852   4.041   3.990   9.345  0.6759  0.6519  0.7116
  184MPD1    C2 2853   4.126   3.985   9.234  0.1266  0.4323  1.0758
  184MPD1    C3 2854   4.239   4.065   9.233  0.1010 -0.4066  0.4793
  184MPD1    C4 2855   4.252   4.154   9.338 -0.1378 -0.2661  0.5705
  184MPD1    C5 2856   4.164   4.165   9.442 -0.2065  0.1109 -0.3475
  184MPD1     H 2857   4.105   3.909   9.159 -0.0919 -0.1739  1.7539
  184MPD1    H1 2858   4.342   4.213   9.350  0.0069 -0.0633 -1.5132
  184MPD1    H2 2859   3.997   4.075   9.537  0.3134  0.1018  0.3177
  184MPD1    H3 2860   4.193   4.228   9.526  0.2143 -1.8560  0.9768
  184MPD1     N 2861   4.338   4.075   9.134 -0.4988  0.4960 -0.4709
  184MPD1    H5 2862   4.417   4.133   9.161  0.1422  0.1953 -1.7061
  184MPD1    N1 2863   3.921   3.916   9.331  0.4747  0.6048 -0.3472
  184MPD1    H6 2864   3.942   3.828   9.286  0.6028  0.1166  0.6619
  184MPD1    H7 2865   3.878   3.902   9.423 -0.2250 -0.0743 -0.7779
  185MPD1     C 2866   0.231   3.470   8.550  0.3016  0.1856  0.6759
  185MPD1    C1 2867   0.105   3.454   8.607  0.1283 -0.1766 -0.1498
  185MPD1    C2 2868   0.030   3.576   8.621  0.1544 -0.6882 -0.9336
  185MPD1    C3 2869   0.081   3.699   8.608  0.2477  0.0178  0.3327
  185MPD1    C4 2870   0.210   3.711   8.559 -0.0929  0.1151  0.5616
  185MPD1    C5 2871   0.282   3.598   8.523 -0.2750  0.8198  0.2848
  185MPD1     H 2872   4.661   3.564   8.644  0.1735  1.7465  0.4524
  185MPD1    H1 2873   0.261   3.805   8.541 -1.8917  0.3868 -3.1751
  185MPD1    H2 2874   0.290   3.384   8.520 -2.9912 -1.9031  0.2636
  185MPD1    H3 2875   0.379   3.607   8.477  0.5784 -0.7946  1.7760
  185MPD1     N 2876   0.015   3.811   8.657  0.0151  0.2315 -0.1638
  185MPD1    H5 2877   0.077   3.891   8.662 -1.0503  1.2438 -2.8792
  185MPD1    N1 2878   0.049   3.324   8.612  0.5822 -0.6368 -0.7676
  185MPD1    H6 2879   4.704   3.320   8.673  1.3313  2.5501  0.4218
  185MPD1    H7 2880   0.120   3.255   8.635  1.5431  0.3486 -0.7859
  186MPD1     C 2881   1.619   2.782  15.909 -0.2801  0.0497  0.1578
  186MPD1    C1 2882   1.618   2.896  15.835  0.0811  0.1312  0.4063
  186MPD1    C2 2883   1.633   3.015  15.915 -0.7692  0.5490 -0.1846
  186MPD1    C3 2884   1.640   3.009  16.055  0.1297  0.1272  0.3410
  186MPD1    C4 2885   1.646   2.890  16.114 -0.1916  0.0651 -1.0341
  186MPD1    C5 2886   1.643   2.776  16.045 -0.1990  0.1423 -0.8962
  186MPD1     H 2887   1.616   3.115  15.876  3.1382  2.2512  2.4531
  186MPD1    H1 2888   1.641   2.889  16.223 -0.1623 -1.4256 -1.0521
  186MPD1    H2 2889   1.609   2.681  15.871  2.8905 -0.2619  0.2230
  186MPD1    H3 2890   1.650   2.682  16.097 -0.8038  1.7415  2.0416
  186MPD1     N 2891   1.659   3.122  16.142  0.2142 -0.2261  0.5253
  186MPD1    H5 2892   1.658   3.109  16.242  0.1414 -2.0420  0.2896
  186MPD1    N1 2893   1.572   2.895  15.699 -0.6098 -0.0275  0.2840
  186MPD1    H6 2894   1.626   2.961  15.643 -2.5651  1.9430  0.7425
  186MPD1    H7 2895   1.600   2.805  15.659  0.5719  0.4525  0.0254
  187MPD1     C 2896   2.106   0.508  17.490 -0.4844 -0.1979  0.2065
  187MPD1    C1 2897   1.988   0.504  17.557  0.1492  0.4838  0.4248
  187MPD1    C2 2898   1.883   0.547  17.478 -0.3336  0.8399  0.6436
  187MPD1    C3 2899   1.894   0.615  17.355 -0.1987  0.0495 -0.1282
  187MPD1    C4 2900   2.025   0.621  17.307  0.4870 -0.9037  0.3383
  187MPD1    C5 2901   2.132   0.579  17.375  0.5018 -0.0490 -0.3304
  187MPD1     H 2902   1.785   0.533  17.522  0.6929  0.2822  2.7705
  187MPD1    H1 2903   2.045   0.675  17.215 -2.4712 -0.6610 -0.1760
  187MPD1    H2 2904   2.190   0.453  17.531 -1.6625 -1.7012  0.5965
  187MPD1    H3 2905   2.231   0.586  17.331  0.8242  1.7355  0.6831
  187MPD1     N 2906   1.797   0.687  17.283 -0.0802 -0.2425  0.2084
  187MPD1    H5 2907   1.819   0.724  17.192  0.6131 -2.3500 -0.4880
  187MPD1    N1 2908   1.967   0.435  17.679  0.0047  0.3044 -0.8984
  187MPD1    H6 2909   2.050   0.434  17.738 -0.8092  0.5589  0.2471
  187MPD1    H7 2910   1.889   0.469  17.733  0.1913 -1.4660  0.4891
  188MPD1     C 2911   1.372   0.660  10.608  0.3683 -0.1189  0.9983
  188MPD1    C1 2912   1.405   0.541  10.661 -0.5407 -0.0265 -0.5269
  188MPD1    C2 2913   1.482   0.454  10.583  0.2075 -1.0542 -0.4421
  188MPD1    C3 2914   1.520   0.482  10.454  0.1861  0.0454  0.1691
  188MPD1    C4 2915   1.491   0.607  10.406  0.5869  0.0211 -0.1143
  188MPD1    C5 2916   1.412   0.697  10.482  0.2209 -0.0407 -0.4128
  188MPD1     H 2917   1.515   0.361  10.629  0.4186 -0.7523  0.0174
  188MPD1    H1 2918   1.531   0.653  10.317 -0.4241  1.2907  0.0809
  188MPD1    H2 2919   1.302   0.727  10.657  0.2483  0.3713  0.1542
  188MPD1    H3 2920   1.388   0.794  10.439 -1.6272 -0.3621 -0.1009
  188MPD1     N 2921   1.589   0.385  10.369 -0.2310  0.1085 -0.0789
  188MPD1    H5 2922   1.612   0.418  10.276  0.9495  1.0123  0.5243
  188MPD1    N1 2923   1.386   0.516  10.794  0.6109 -0.1106  0.5516
  188MPD1    H6 2924   1.368   0.416  10.806 -1.2831  0.0745 -0.8000
  188MPD1    H7 2925   1.301   0.558  10.830 -0.0533 -2.5890  1.9160
  189MPD1     C 2926   2.950   1.230   0.419 -0.6065  0.6986  0.0931
  189MPD1    C1 2927   2.827   1.185   0.467 -0.3445 -0.4128  0.2883
  189MPD1    C2 2928   2.724   1.272   0.460 -0.1791  0.1740  0.1401
  189MPD1    C3 2929   2.730   1.394   0.399  0.3234  0.3415  0.0752
  189MPD1    C4 2930   2.850   1.440   0.344 -0.4450  0.7621  0.2708
  189MPD1    C5 2931   2.959   1.356   0.357 -0.1178 -0.1528  0.5258
  189MPD1     H 2932   2.629   1.242   0.502  0.6800 -0.8557  1.3354
  189MPD1    H1 2933   2.862   1.540   0.304  0.8593  0.2019 -0.7608
  189MPD1    H2 2934   3.035   1.163   0.427 -0.5429  0.8829  0.9420
  189MPD1    H3 2935   3.053   1.405   0.339  0.4711 -0.9186  1.4828
  189MPD1     N 2936   2.611   1.472   0.403  1.0077  0.3020  0.5492
  189MPD1    H5 2937   2.534   1.419   0.441  1.0260 -0.5883 -0.6433
  189MPD1    N1 2938   2.826   1.065   0.542 -0.1544  0.1741  0.1154
  189MPD1    H6 2939   2.732   1.026   0.542 -0.5805  1.1896 -1.2527
  189MPD1    H7 2940   2.894   0.997   0.507 -0.6586 -0.0899 -0.3409
  190MPD1     C 2941   1.564   0.363  15.244  0.0069  0.0755 -0.2937
  190MPD1    C1 2942   1.687   0.318  15.241 -0.2454  0.4227  0.2334
  190MPD1    C2 2943   1.721   0.205  15.313  0.3732 -0.3433 -0.2993
  190MPD1    C3 2944   1.632   0.143  15.395  0.4857  0.2174 -0.1515
  190MPD1    C4 2945   1.499   0.197  15.403  0.1298 -0.3846 -0.3518
  190MPD1    C5 2946   1.470   0.306  15.324  0.0329  0.0692  0.3617
  190MPD1     H 2947   1.820   0.161  15.314  0.1594 -0.8509 -2.0477
  190MPD1    H1 2948   1.414   0.163  15.461 -0.1684  0.3635 -0.3618
  190MPD1    H2 2949   1.536   0.446  15.181 -2.0592 -1.9486 -2.0245
  190MPD1    H3 2950   1.376   0.353  15.348  0.1003  0.2552  0.2644
  190MPD1     N 2951   1.676   0.020  15.454 -0.2982 -0.2970  0.3827
  190MPD1    H5 2952   1.763   4.714  15.424 -1.3039  0.2822 -3.3654
  190MPD1    N1 2953   1.773   0.369  15.142 -0.2931  0.3182  0.9960
  190MPD1    H6 2954   1.767   0.468  15.120  0.3853  0.4610  1.4552
  190MPD1    H7 2955   1.870   0.347  15.163 -0.3441 -1.7728 -0.8543
  191MPD1     C 2956   0.709   1.385  12.873  0.0473  0.3853  0.3687
  191MPD1    C1 2957   0.614   1.452  12.804 -0.1149 -0.0873  0.3446
  191MPD1    C2 2958   0.649   1.497  12.676  0.5158 -0.5059  0.6977
  191MPD1    C3 2959   0.750   1.435  12.605  0.2234 -0.2989  0.4380
  191MPD1    C4 2960   0.839   1.354  12.681 -0.8679 -0.0235 -0.3859
  191MPD1    C5 2961   0.821   1.339  12.814 -0.0494  0.5195 -0.5461
  191MPD1     H 2962   0.572   1.559  12.631  3.5403  2.3275 -0.5008
  191MPD1    H1 2963   0.920   1.297  12.636 -0.7264  0.6140 -0.9373
  191MPD1    H2 2964   0.702   1.376  12.981 -1.9447 -2.4685 -0.0174
  191MPD1    H3 2965   0.889   1.286  12.879 -0.6051  3.4744  2.4441
  191MPD1     N 2966   0.768   1.457  12.467 -0.2493  0.4844  0.3972
  191MPD1    H5 2967   0.698   1.516  12.423 -1.9068  0.5334  3.1633
  191MPD1    N1 2968   0.502   1.500  12.881  0.3625  0.7855  0.6046
  191MPD1    H6 2969   0.480   1.434  12.956  0.1114 -1.2913 -1.3172
  191MPD1    H7 2970   0.414   1.520  12.834 -0.2052 -1.9555  0.5244
  192MPD1     C 2971   0.294   1.397  11.794 -0.3688  0.2885 -1.0385
  192MPD1    C1 2972   0.366   1.500  11.749  0.5023 -0.6426 -0.2814
  192MPD1    C2 2973   0.460   1.558  11.831 -0.6534 -0.4466 -0.7915
  192MPD1    C3 2974   0.478   1.521  11.963 -0.6472  0.0406  0.2641
  192MPD1    C4 2975   0.405   1.411  12.011 -0.3376 -0.4559 -0.0926
  192MPD1    C5 2976   0.316   1.358  11.923  0.7616 -0.5050 -0.3331
  192MPD1     H 2977   0.524   1.633  11.786  0.0019 -1.4155 -1.4954
  192MPD1    H1 2978   0.414   1.369  12.110  0.9053  1.2141  0.5121
  192MPD1    H2 2979   0.225   1.337  11.735  0.0268 -0.6766 -0.5223
  192MPD1    H3 2980   0.264   1.272  11.962  0.0552 -1.1144 -2.6507
  192MPD1     N 2981   0.580   1.555  12.048 -0.3292 -0.1706  0.1151
  192MPD1    H5 2982   0.583   1.514  12.141 -0.7312 -0.0198  0.1947
  192MPD1    N1 2983   0.328   1.553  11.626 -0.1415 -0.1631  0.0271
  192MPD1    H6 2984   0.387   1.626  11.587  0.1967 -0.3509  0.1783
  192MPD1    H7 2985   0.306   1.479  11.559  0.8522 -2.4796  2.2400
  193MPD1     C 2986   1.026   1.858  17.569 -0.1387  0.5597 -0.7002
  193MPD1    C1 2987   1.043   1.753  17.484  1.2463 -0.6410  0.2865
  193MPD1    C2 2988   1.051   1.782  17.353 -0.7181  0.2942 -0.7728
  193MPD1    C3 2989   1.071   1.913  17.304 -0.1869  0.1275  0.0623
  193MPD1    C4 2990   1.067   2.020  17.393 -0.4914  0.8967 -0.2493
  193MPD1    C5 2991   1.049   1.991  17.523  0.6079 -0.7496  0.4951
  193MPD1     H 2992   1.027   1.703  17.283  0.2547 -0.4082 -0.3095
  193MPD1    H1 2993   1.077   2.124  17.361  0.4227  0.7573 -0.4289
  193MPD1    H2 2994   1.006   1.842  17.675  2.5528 -1.2795 -0.4717
  193MPD1    H3 2995   1.019   2.075  17.585  1.6373 -0.2272  0.2825
  193MPD1     N 2996   1.069   1.953  17.168 -0.5659  0.1880  0.0703
  193MPD1    H5 2997   1.068   2.053  17.150  0.3688  0.3786  1.0554
  193MPD1    N1 2998   1.021   1.617  17.525  0.5546 -0.2448  0.1723
  193MPD1    H6 2999   1.060   1.595  17.616 -1.1223  0.2840  1.0162
  193MPD1    H7 3000   1.053   1.552  17.453 -1.9615  0.6831 -1.7970
  194MPD1     C 3001   2.768   3.490  16.363  0.1363 -0.2855 -0.2052
  194MPD1    C1 3002   2.765   3.354  16.344 -0.2581  0.4959  0.9130
  194MPD1    C2 3003   2.742   3.280  16.453  0.2704  0.0785  0.3323
  194MPD1    C3 3004   2.719   3.337  16.573  0.0908 -0.0193 -0.5618
  194MPD1    C4 3005   2.726   3.479  16.592 -0.4302  0.1181 -0.4843
  194MPD1    C5 3006   2.746   3.550  16.479 -0.1387 -0.0411  0.0607
  194MPD1     H 3007   2.739   3.174  16.430  0.7354  0.8643 -3.3332
  194MPD1    H1 3008   2.695   3.528  16.684 -0.6313  0.2487 -0.6226
  194MPD1    H2 3009   2.786   3.552  16.275  1.8100 -1.0882 -0.4205
  194MPD1    H3 3010   2.748   3.658  16.487 -3.4373  0.1363 -1.4444
  194MPD1     N 3011   2.708   3.254  16.684 -0.2913 -0.7305 -0.7823
  194MPD1    H5 3012   2.694   3.315  16.765 -2.5065 -2.0759 -0.1338
  194MPD1    N1 3013   2.798   3.297  16.220 -0.1597 -0.0445 -0.0089
  194MPD1    H6 3014   2.772   3.367  16.151 -0.6095  0.6254  0.8379
  194MPD1    H7 3015   2.740   3.218  16.190 -1.9432  1.8183 -1.5001
  195MPD1     C 3016   0.458   1.073   0.943 -0.3701 -0.5593  0.1558
  195MPD1    C1 3017   0.425   0.952   0.997 -0.6544 -0.2519  0.0954
  195MPD1    C2 3018   0.470   0.839   0.935 -0.3539 -0.0270 -0.6338
  195MPD1    C3 3019   0.555   0.848   0.824 -0.0743  0.2962  0.0520
  195MPD1    C4 3020   0.593   0.968   0.775  0.3762 -0.7418 -0.2500
  195MPD1    C5 3021   0.546   1.085   0.832  0.4690  0.4879 -0.0914
  195MPD1     H 3022   0.445   0.739   0.970  0.4053  0.3601  1.0385
  195MPD1    H1 3023   0.646   0.972   0.680  1.8182  2.3430  0.6621
  195MPD1    H2 3024   0.412   1.162   0.984  2.3196  0.6221  0.6120
  195MPD1    H3 3025   0.561   1.182   0.787  2.3238 -0.9501 -2.5898
  195MPD1     N 3026   0.605   0.735   0.758 -1.0816  0.0101  0.4400
  195MPD1    H5 3027   0.691   0.757   0.709 -1.0267 -0.0663  0.5013
  195MPD1    N1 3028   0.329   0.952   1.094  0.8046  0.4058 -0.9418
  195MPD1    H6 3029   0.332   1.038   1.148 -0.0208  0.0980 -0.4032
  195MPD1    H7 3030   0.327   0.868   1.152 -0.3943 -0.2484 -1.9278
  196MPD1     C 3031   4.553   0.982  17.644 -0.6841  0.3189  0.1129
  196MPD1    C1 3032   4.589   1.068   0.005  0.7804  0.3029  0.1799
  196MPD1    C2 3033   4.540   1.031   0.136 -0.1769  0.2571 -0.3876
  196MPD1    C3 3034   4.479   0.909   0.167 -0.2040  0.5444 -0.0045
  196MPD1    C4 3035   4.461   0.822   0.057 -0.6439  0.8510  0.7894
  196MPD1    C5 3036   4.494   0.863  17.667  0.5376 -0.1989 -0.2157
  196MPD1     H 3037   4.546   1.104   0.215  2.0140 -0.0455 -0.2548
  196MPD1    H1 3038   4.431   0.719   0.072  0.0471  0.0650 -3.3270
  196MPD1    H2 3039   4.567   1.013  17.541 -3.0805  0.6766 -0.1043
  196MPD1    H3 3040   4.474   0.802  17.580 -2.7155  1.1878 -0.4176
  196MPD1     N 3041   4.450   0.868   0.297  0.4311 -0.0911  0.7775
  196MPD1    H5 3042   4.411   0.775   0.294 -0.9639  0.5979 -2.3089
  196MPD1    N1 3043   4.641   1.193  17.727  0.4038  0.1402  0.2071
  196MPD1    H6 3044   4.700   1.199  17.644 -0.7326 -0.5436 -0.6497
  196MPD1    H7 3045   4.697   1.225   0.063 -1.1377 -0.6863  1.6477
  197MPD1     C 3046   3.910   1.836  17.580  0.0910 -0.2858 -0.5092
  197MPD1    C1 3047   4.003   1.907  17.650 -0.3174  0.4668  0.1449
  197MPD1    C2 3048   4.057   2.019  17.595 -0.2487  0.4878 -0.2171
  197MPD1    C3 3049   4.044   2.039  17.458  0.5698 -0.3452  0.0439
  197MPD1    C4 3050   3.959   1.957  17.386 -0.6733 -0.1240  0.2172
  197MPD1    C5 3051   3.886   1.857  17.445  0.1640 -0.0658  0.4351
  197MPD1     H 3052   4.107   2.090  17.660  1.3027  2.4934 -3.5570
  197MPD1    H1 3053   3.956   1.971  17.278  2.0728 -2.9376 -0.2276
  197MPD1    H2 3054   3.840   1.773  17.634 -1.2725  2.3996  0.8517
  197MPD1    H3 3055   3.815   1.797  17.389  0.5001 -0.4529  0.4256
  197MPD1     N 3056   4.122   2.132  17.387 -0.1791 -0.0519  0.4505
  197MPD1    H5 3057   4.104   2.128  17.287 -2.2048 -1.8663  0.9047
  197MPD1    N1 3058   4.006   1.870   0.041 -0.2432 -0.4524  0.0377
  197MPD1    H6 3059   3.952   1.789   0.069 -0.4736 -0.3937 -0.2393
  197MPD1    H7 3060   4.097   1.886   0.085 -0.8327  1.9386  0.4004
  198MPD1     C 3061   1.194   1.081  15.622  0.2462  0.2513  0.1796
  198MPD1    C1 3062   1.295   1.047  15.710 -0.5634 -0.5094  0.1054
  198MPD1    C2 3063   1.298   0.919  15.747 -0.1296 -0.2283  0.2818
  198MPD1    C3 3064   1.238   0.816  15.687  0.0905  0.1396  0.5565
  198MPD1    C4 3065   1.145   0.842  15.585  0.1712 -0.1790 -0.3432
  198MPD1    C5 3066   1.133   0.975  15.556  0.5825 -0.6457  0.3857
  198MPD1     H 3067   1.365   0.886  15.826  0.3392 -0.3545 -0.1692
  198MPD1    H1 3068   1.104   0.764  15.522  1.3811  0.1437 -1.5424
  198MPD1    H2 3069   1.184   1.181  15.582  0.0202 -0.6597 -2.0756
  198MPD1    H3 3070   1.077   0.998  15.466  0.4381 -0.2257  0.5840
  198MPD1     N 3071   1.274   0.682  15.721 -0.1639  0.5319 -0.5487
  198MPD1    H5 3072   1.343   0.671  15.795 -0.9415 -1.7632 -0.1370
  198MPD1    N1 3073   1.379   1.141  15.767  0.5166 -0.1203  0.2653
  198MPD1    H6 3074   1.454   1.082  15.803  0.6878  1.9856  3.3149
  198MPD1    H7 3075   1.410   1.196  15.688 -1.4122  0.6057  0.0304
  199MPD1     C 3076   3.509   1.675   9.525  0.1700 -0.6181  0.2122
  199MPD1    C1 3077   3.519   1.726   9.399 -0.5742  0.1018 -0.3170
  199MPD1    C2 3078   3.467   1.856   9.377  0.0195  0.1062 -0.4052
  199MPD1    C3 3079   3.431   1.936   9.484  0.0785 -0.0734  0.4172
  199MPD1    C4 3080   3.417   1.882   9.610 -0.5291 -0.5149  0.8472
  199MPD1    C5 3081   3.461   1.751   9.625  0.3234 -0.0320 -0.3459
  199MPD1     H 3082   3.459   1.883   9.273 -1.0402  0.5705 -0.2052
  199MPD1    H1 3083   3.387   1.946   9.692 -1.1932 -0.9342  0.9385
  199MPD1    H2 3084   3.539   1.573   9.546 -0.0130 -0.6945  0.1032
  199MPD1    H3 3085   3.449   1.705   9.723  0.1841  0.8738  0.0682
  199MPD1     N 3086   3.373   2.065   9.474 -0.3206 -0.5975 -0.1598
  199MPD1    H5 3087   3.326   2.098   9.559 -0.3273  0.7922 -0.7028
  199MPD1    N1 3088   3.534   1.637   9.296  0.2575 -0.2129 -0.2493
  199MPD1    H6 3089   3.604   1.567   9.318  1.0335  0.7728  0.4042
  199MPD1    H7 3090   3.569   1.691   9.217  1.1484  0.7060  0.7805
  200MPD1     C 3091   2.346   0.793  15.609 -0.4728 -0.0591  0.2141
  200MPD1    C1 3092   2.295   0.793  15.481 -0.3466  0.1788  0.5838
  200MPD1    C2 3093   2.365   0.873  15.390 -0.3129  0.4071  0.0854
  200MPD1    C3 3094   2.484   0.937  15.425 -0.1137  0.6540 -0.1472
  200MPD1    C4 3095   2.542   0.906  15.541 -0.1954 -0.2811  0.5662
  200MPD1    C5 3096   2.470   0.840  15.641  0.2172  0.1817 -0.1105
  200MPD1     H 3097   2.322   0.889  15.292  0.9022 -0.0798 -0.5310
  200MPD1    H1 3098   2.638   0.949  15.566 -0.3547  0.7421 -0.5695
  200MPD1    H2 3099   2.288   0.750  15.690 -0.2822  0.0446  0.4041
  200MPD1    H3 3100   2.513   0.818  15.738 -0.9879 -0.1541  0.3501
  200MPD1     N 3101   2.543   1.020  15.328 -0.3620 -0.2824 -0.4524
  200MPD1    H5 3102   2.480   1.043  15.252 -1.3893  3.0674  1.3973
  200MPD1    N1 3103   2.164   0.751  15.460  0.6100 -0.1697  0.6528
  200MPD1    H6 3104   2.124   0.691  15.532 -0.2144 -0.8844 -0.4011
  200MPD1    H7 3105   2.147   0.723  15.363 -2.3586  0.6408  0.9385
  201MPD1     C 3106   0.411   1.334  12.456  0.3022 -0.0148  0.0347
  201MPD1    C1 3107   0.353   1.277  12.567 -0.3342  0.4902  0.3978
  201MPD1    C2 3108   0.383   1.142  12.596  1.0928  0.1200 -1.0708
  201MPD1    C3 3109   0.467   1.066  12.517 -0.1889 -0.2039  0.1187
  201MPD1    C4 3110   0.538   1.129  12.414  0.0968 -1.1112  0.2972
  201MPD1    C5 3111   0.502   1.257  12.386 -0.1044 -0.2290 -0.4792
  201MPD1     H 3112   0.332   1.101  12.683 -0.1166 -1.2496 -2.4206
  201MPD1    H1 3113   0.624   1.087  12.361 -0.0272  1.0170 -1.5845
  201MPD1    H2 3114   0.380   1.432  12.423 -0.0093 -0.2625 -0.4046
  201MPD1    H3 3115   0.556   1.299  12.303  2.8294 -1.7266  0.6871
  201MPD1     N 3116   0.505   0.937  12.563  0.2746  0.5359 -0.1835
  201MPD1    H5 3117   0.468   0.893  12.646 -0.6943 -0.0689 -0.9410
  201MPD1    N1 3118   0.250   1.340  12.631  0.2315  0.2494 -0.2055
  201MPD1    H6 3119   0.227   1.307  12.725  0.5864  0.3635 -0.0766
  201MPD1    H7 3120   0.256   1.442  12.642  0.4177  0.2212 -0.0438
  202MPD1     C 3121   0.612   0.220   8.515 -0.1064  0.4369 -0.2035
  202MPD1    C1 3122   0.533   0.286   8.604  0.9016  0.3230 -0.1609
  202MPD1    C2 3123   0.583   0.293   8.732 -0.5826  0.0759 -0.2052
  202MPD1    C3 3124   0.718   0.268   8.762 -0.1567 -0.1960 -0.9949
  202MPD1    C4 3125   0.793   0.211   8.660  0.4071  0.3329  0.4004
  202MPD1    C5 3126   0.738   0.183   8.542 -0.1124 -0.4320 -0.1835
  202MPD1     H 3127   0.530   0.346   8.810 -2.0522 -0.7398 -0.6474
  202MPD1    H1 3128   0.897   0.188   8.677  0.5559  1.2488  0.7130
  202MPD1    H2 3129   0.574   0.173   8.425 -1.7418 -0.5883  1.0213
  202MPD1    H3 3130   0.792   0.127   8.467 -0.4239 -1.0573  0.0628
  202MPD1     N 3131   0.776   0.298   8.889  0.1976 -0.5717 -0.0380
  202MPD1    H5 3132   0.873   0.268   8.901  0.4798  0.3395 -0.1024
  202MPD1    N1 3133   0.394   0.288   8.582 -0.4053  0.3218 -0.2614
  202MPD1    H6 3134   0.365   0.300   8.485  1.0360  0.9087 -0.6194
  202MPD1    H7 3135   0.342   0.361   8.630 -2.3427 -1.3326  0.1356
  203MPD1     C 3136   3.041   0.855  11.929 -0.7106  0.0036  0.6175
  203MPD1    C1 3137   3.116   0.743  11.894  0.1111 -0.0338 -0.1991
  203MPD1    C2 3138   3.227   0.717  11.969 -0.2299 -0.3329  0.2381
  203MPD1    C3 3139   3.264   0.787  12.074  0.2654 -0.3479 -0.6553
  203MPD1    C4 3140   3.184   0.897  12.116 -0.6317  0.0039 -0.1443
  203MPD1    C5 3141   3.072   0.925  12.041 -0.2757  0.4316  0.6711
  203MPD1     H 3142   3.283   0.632  11.932  2.0066  1.2829 -0.1052
  203MPD1    H1 3143   3.201   0.962  12.200  1.5997 -0.4215 -0.2821
  203MPD1    H2 3144   2.951   0.877  11.873  0.6904  0.7936 -1.3405
  203MPD1    H3 3145   3.001   0.998  12.076  0.8075  1.7196  0.1904
  203MPD1     N 3146   3.384   0.761  12.143  0.4772 -0.1724  0.1635
  203MPD1    H5 3147   3.435   0.676  12.118  2.9966  1.3619  0.0553
  203MPD1    N1 3148   3.087   0.674  11.775  0.1602 -0.1726 -0.4719
  203MPD1    H6 3149   3.126   0.584  11.748  0.2715 -0.5122  0.8046
  203MPD1    H7 3150   2.989   0.675  11.751 -0.1162 -2.1142  0.6197
  204MPD1     C 3151   2.664   2.734  17.426  0.0163 -0.7853 -0.2989
  204MPD1    C1 3152   2.704   2.679  17.310 -0.4870 -0.3986  0.3890
  204MPD1    C2 3153   2.802   2.579  17.309  0.0900  0.4924  0.4120
  204MPD1    C3 3154   2.862   2.537  17.425 -0.4321 -0.3318  0.1436
  204MPD1    C4 3155   2.832   2.602  17.545 -0.3768  0.5302  0.4520
  204MPD1    C5 3156   2.726   2.683  17.539 -0.6531  0.3615 -0.1031
  204MPD1     H 3157   2.831   2.535  17.214  2.7539  1.1635  0.9202
  204MPD1    H1 3158   2.871   2.593  17.646  2.7641 -1.7354 -0.9657
  204MPD1    H2 3159   2.574   2.794  17.431  1.2182  1.0413 -0.8378
  204MPD1    H3 3160   2.690   2.722  17.634  0.9690 -1.9146  1.4543
  204MPD1     N 3161   2.964   2.441  17.417  0.6852 -0.4768  0.4927
  204MPD1    H5 3162   2.979   2.408  17.322  1.6278 -2.5419  1.3754
  204MPD1    N1 3163   2.632   2.717  17.193  0.1481  0.4833 -0.2085
  204MPD1    H6 3164   2.608   2.813  17.168 -1.4425  0.5174  1.4417
  204MPD1    H7 3165   2.667   2.678  17.106 -0.8475  1.7031 -1.1592
  205MPD1     C 3166   3.396   0.701  16.873 -0.0136 -0.2065  0.2682
  205MPD1    C1 3167   3.462   0.793  16.956  0.1260  0.5226  0.4874
  205MPD1    C2 3168   3.393   0.887  17.027  0.6698 -0.3922  0.0901
  205MPD1    C3 3169   3.257   0.881  17.029  0.2825 -0.3537  0.1384
  205MPD1    C4 3170   3.193   0.784  16.952  0.2568 -0.2051 -0.1935
  205MPD1    C5 3171   3.260   0.701  16.866 -0.5903 -0.8775 -1.0641
  205MPD1     H 3172   3.449   0.959  17.085  0.1240 -1.9627  2.5774
  205MPD1    H1 3173   3.085   0.775  16.956  0.2990 -0.1546  0.9535
  205MPD1    H2 3174   3.446   0.632  16.807  0.2803  0.2608  0.0029
  205MPD1    H3 3175   3.207   0.628  16.806 -3.4665 -0.3581  0.8292
  205MPD1     N 3176   3.167   0.959  17.105 -0.2989 -0.9047 -0.0927
  205MPD1    H5 3177   3.067   0.944  17.099 -0.8248  2.3908  0.3468
  205MPD1    N1 3178   3.606   0.800  16.951 -0.1582  0.3908 -0.4569
  205MPD1    H6 3179   3.643   0.825  17.043 -2.8764 -1.3118  1.0840
  205MPD1    H7 3180   3.648   0.711  16.925  2.3427  1.1698  0.8494
  206MPD1     C 3181   3.623   3.885  16.487 -0.5692 -0.2660 -0.6122
  206MPD1    C1 3182   3.498   3.852  16.426 -0.4078 -0.2760 -0.6844
  206MPD1    C2 3183   3.449   3.946  16.339 -0.2138  0.2151  0.1949
  206MPD1    C3 3184   3.506   4.067  16.315  0.1066 -1.0405  0.4954
  206MPD1    C4 3185   3.623   4.093  16.373 -0.1556  0.0069 -0.0877
  206MPD1    C5 3186   3.689   3.999  16.457  0.6815 -0.0024  0.2131
  206MPD1     H 3187   3.353   3.926  16.293  0.6745 -1.5217 -0.9020
  206MPD1    H1 3188   3.672   4.188  16.357  0.6064 -0.4976 -0.7229
  206MPD1    H2 3189   3.672   3.819  16.558 -0.8069 -0.6791 -0.8326
  206MPD1    H3 3190   3.785   4.029  16.497  0.5639  0.6919 -0.0290
  206MPD1     N 3191   3.461   4.142  16.207  0.4869  0.1331 -0.6495
  206MPD1    H5 3192   3.521   4.217  16.172 -0.2819  1.5126  1.0221
  206MPD1    N1 3193   3.423   3.743  16.478  0.0604  0.1996  0.2127
  206MPD1    H6 3194   3.351   3.716  16.411 -0.4376  1.4352  0.2478
  206MPD1    H7 3195   3.483   3.665  16.502 -0.8799 -0.4445  0.4711
  207MPD1     C 3196   1.265   1.853  10.184 -0.3228 -0.8687 -0.9549
  207MPD1    C1 3197   1.301   1.873  10.052 -0.1358 -0.1345  0.3560
  207MPD1    C2 3198   1.430   1.897  10.027  0.2803  0.5338  0.0259
  207MPD1    C3 3199   1.528   1.889  10.127 -0.2805  0.8686 -0.1116
  207MPD1    C4 3200   1.489   1.853  10.253 -0.1534 -0.4953 -0.1433
  207MPD1    C5 3201   1.358   1.838  10.284  0.4243  0.1675 -0.5220
  207MPD1     H 3202   1.457   1.924   9.926  0.0157  2.1963  0.4014
  207MPD1    H1 3203   1.555   1.830  10.335  0.0729  2.1186  0.3965
  207MPD1    H2 3204   1.164   1.832  10.215 -0.5853  0.3145 -1.0145
  207MPD1    H3 3205   1.329   1.813  10.386  0.1824 -0.0749 -0.6503
  207MPD1     N 3206   1.666   1.918  10.112 -0.1256 -0.5090 -0.4776
  207MPD1    H5 3207   1.730   1.904  10.190  2.5241  0.5662 -2.4859
  207MPD1    N1 3208   1.199   1.885   9.956  0.4532  0.4806  0.4433
  207MPD1    H6 3209   1.123   1.823   9.983  0.0742  0.7853  0.0834
  207MPD1    H7 3210   1.236   1.842   9.872  0.9516 -0.3579  1.0939
  208MPD1     C 3211   2.560   4.104  17.346 -0.7919 -0.7658 -0.1796
  208MPD1    C1 3212   2.597   4.118  17.482  0.3445  0.7209  0.3036
  208MPD1    C2 3213   2.644   4.241  17.521 -0.0440 -0.4439  0.0389
  208MPD1    C3 3214   2.645   4.345  17.433  0.4431 -0.2085  0.0574
  208MPD1    C4 3215   2.586   4.336  17.312  0.5484  0.2961 -0.2166
  208MPD1    C5 3216   2.544   4.209  17.266 -0.3737 -0.4289 -0.4095
  208MPD1     H 3217   2.698   4.252  17.614  0.7565 -0.7219 -0.3909
  208MPD1    H1 3218   2.589   4.415  17.238  1.0706  1.1879  0.7585
  208MPD1    H2 3219   2.536   4.007  17.306  0.5272 -2.1229  2.3237
  208MPD1    H3 3220   2.520   4.199  17.161 -1.5978 -0.4177 -0.1380
  208MPD1     N 3221   2.694   4.463  17.494 -0.6351 -0.0407 -0.2114
  208MPD1    H5 3222   2.757   4.449  17.573 -0.7624  0.9496  0.0736
  208MPD1    N1 3223   2.620   4.009  17.565  0.0731  0.3361  0.0809
  208MPD1    H6 3224   2.618   4.028  17.665  0.3493  0.1561  0.1202
  208MPD1    H7 3225   2.569   3.924  17.545  0.1730  0.3320 -0.1474
  209MPD1     C 3226   2.258   2.403  11.187  0.3937 -0.9601  0.4545
  209MPD1    C1 3227   2.256   2.263  11.172 -0.4825 -0.3223 -0.4734
  209MPD1    C2 3228   2.319   2.201  11.063 -0.1789 -0.2829 -0.4204
  209MPD1    C3 3229   2.394   2.285  10.975  0.4161 -0.4063 -0.1854
  209MPD1    C4 3230   2.402   2.421  10.995  0.4686 -0.0325  0.5829
  209MPD1    C5 3231   2.329   2.474  11.091  0.1905 -0.1366  0.0989
  209MPD1     H 3232   2.293   2.097  11.046 -0.9606 -0.3494  1.1743
  209MPD1    H1 3233   2.449   2.491  10.927 -1.0868 -0.8141 -1.2899
  209MPD1    H2 3234   2.206   2.469  11.255  3.0553  0.6961  0.8929
  209MPD1    H3 3235   2.325   2.582  11.096  0.1897 -0.0316 -2.6006
  209MPD1     N 3236   2.455   2.221  10.863  0.2310 -0.5919  0.2266
  209MPD1    H5 3237   2.442   2.121  10.851 -2.2625 -0.2125 -0.2974
  209MPD1    N1 3238   2.162   2.193  11.242  0.6213 -0.1595 -0.2642
  209MPD1    H6 3239   2.184   2.094  11.256  3.1189  0.3693 -0.5196
  209MPD1    H7 3240   2.148   2.229  11.336  0.6541 -3.3057  0.9670
  210MPD1     C 3241   3.254   2.433  10.275  0.5439  0.0115 -0.4766
  210MPD1    C1 3242   3.232   2.299  10.260 -0.5209 -0.9798  0.2723
  210MPD1    C2 3243   3.116   2.252  10.316  0.3443 -0.6840  0.0341
  210MPD1    C3 3244   3.051   2.320  10.416  0.1232  0.2312 -0.8119
  210MPD1    C4 3245   3.090   2.454  10.442  0.2005 -1.0436 -0.0253
  210MPD1    C5 3246   3.193   2.509  10.368  0.6366  0.5164  0.4704
  210MPD1     H 3247   3.089   2.152  10.285 -0.4157 -1.0678  1.9276
  210MPD1    H1 3248   3.033   2.515  10.510 -0.5704 -1.1058 -0.6193
  210MPD1    H2 3249   3.327   2.490  10.219 -1.0715 -0.0765 -2.6706
  210MPD1    H3 3250   3.221   2.613  10.382  0.0701  0.9608 -1.7316
  210MPD1     N 3251   2.939   2.265  10.470  0.1403 -0.1171  0.0684
  210MPD1    H5 3252   2.886   2.329  10.528  0.3070  1.8314 -1.9112
  210MPD1    N1 3253   3.297   2.241  10.153 -0.0483  0.3987  0.7367
  210MPD1    H6 3254   3.300   2.139  10.164  2.2059  0.6681  2.7064
  210MPD1    H7 3255   3.392   2.277  10.146 -0.5569  1.1964 -1.7751
  211MPD1     C 3256   3.999   0.729  16.099 -0.3283  0.5376 -0.7621
  211MPD1    C1 3257   3.999   0.849  16.171  0.2158  0.7505 -0.3115
  211MPD1    C2 3258   3.875   0.898  16.214  0.2311  0.1437  0.3114
  211MPD1    C3 3259   3.753   0.850  16.164  0.3038  0.4638 -0.5501
  211MPD1    C4 3260   3.753   0.740  16.084 -0.0906 -0.3102 -0.0830
  211MPD1    C5 3261   3.876   0.690  16.049 -0.2761 -0.6751 -0.1816
  211MPD1     H 3262   3.861   0.967  16.296 -0.1428  0.4023  0.0272
  211MPD1    H1 3263   3.664   0.698  16.039 -1.5091 -1.7481  3.9954
  211MPD1    H2 3264   4.090   0.681  16.063  1.1586  3.7715 -1.3504
  211MPD1    H3 3265   3.875   0.603  15.985 -1.3059 -0.7702 -0.0406
  211MPD1     N 3266   3.636   0.905  16.219  0.9395  0.2692 -0.4045
  211MPD1    H5 3267   3.646   0.982  16.284  1.7946  1.0265 -1.4373
  211MPD1    N1 3268   4.119   0.898  16.228  0.2556  0.2094  0.1774
  211MPD1    H6 3269   4.209   0.892  16.180 -0.2957 -0.5492 -0.7629
  211MPD1    H7 3270   4.109   0.994  16.261  2.0541  0.9118 -1.3271
  212MPD1     C 3271   2.722   4.047  16.418  0.4121 -0.0469 -0.0714
  212MPD1    C1 3272   2.647   4.107  16.511  0.3588 -0.9122 -0.0139
  212MPD1    C2 3273   2.562   4.028  16.579 -0.2036 -0.0444 -0.0583
  212MPD1    C3 3274   2.533   3.898  16.542  0.2598  0.0306 -0.1700
  212MPD1    C4 3275   2.593   3.847  16.432 -0.2898  0.7545 -0.5628
  212MPD1    C5 3276   2.703   3.914  16.372 -0.0558  0.2213 -0.3437
  212MPD1     H 3277   2.505   4.071  16.661 -0.6985  1.0819 -0.9931
  212MPD1    H1 3278   2.573   3.744  16.406 -0.1279  0.5228  0.2407
  212MPD1    H2 3279   2.803   4.097  16.365 -0.6000 -0.6344 -2.1545
  212MPD1    H3 3280   2.765   3.872  16.294  1.8259  0.3568  1.0673
  212MPD1     N 3281   2.436   3.815  16.607 -0.6551  0.4199  0.7358
  212MPD1    H5 3282   2.428   3.721  16.571  1.5907  0.9035 -1.0511
  212MPD1    N1 3283   2.671   4.237  16.561  0.4729  0.2980  0.2437
  212MPD1    H6 3284   2.591   4.283  16.603  0.5090 -0.2940  0.9479
  212MPD1    H7 3285   2.702   4.300  16.487 -3.1701  1.4902 -0.2651
  213MPD1     C 3286   1.167   4.453  15.807  0.4683  0.4802 -0.8343
  213MPD1    C1 3287   1.036   4.426  15.852  0.0314  0.2145  0.2041
  213MPD1    C2 3288   0.935   4.475  15.776  0.3353  0.3739  0.2238
  213MPD1    C3 3289   0.961   4.579  15.686  0.0441 -0.9370 -0.5108
  213MPD1    C4 3290   1.093   4.610  15.655 -0.4241  0.0958  0.8037
  213MPD1    C5 3291   1.196   4.539  15.709  0.0840  0.3058  0.0373
  213MPD1     H 3292   0.836   4.431  15.777  0.5472 -0.1384 -1.2872
  213MPD1    H1 3293   1.119   4.670  15.569  0.4626 -1.3016  0.0962
  213MPD1    H2 3294   1.236   4.378  15.843 -1.3479 -1.4813 -1.4822
  213MPD1    H3 3295   1.297   4.551  15.673  1.1793 -3.1868  1.9434
  213MPD1     N 3296   0.850   4.612  15.598  0.6092  0.6151 -0.2178
  213MPD1    H5 3297   0.761   4.564  15.610  0.1013  2.1201  1.9772
  213MPD1    N1 3298   1.019   4.301  15.912  0.1509  0.2775  0.1895
  213MPD1    H6 3299   0.926   4.297  15.953  0.0459 -0.7668 -0.1724
  213MPD1    H7 3300   1.083   4.300  15.991  0.4449 -1.6559 -0.0735
  214MPD1     C 3301   0.311   3.985  15.473 -0.5829 -1.0150 -0.1585
  214MPD1    C1 3302   0.305   4.054  15.357  0.0455  0.0250  0.2879
  214MPD1    C2 3303   0.363   4.179  15.340 -0.1561 -0.6054  1.1116
  214MPD1    C3 3304   0.424   4.239  15.447  0.5201 -0.5484  0.4100
  214MPD1    C4 3305   0.431   4.174  15.570 -0.0335 -0.1148  0.1801
  214MPD1    C5 3306   0.364   4.050  15.579 -0.5583  0.5077 -0.3270
  214MPD1     H 3307   0.346   4.228  15.246 -1.3202 -0.1249  1.5714
  214MPD1    H1 3308   0.472   4.217  15.661 -0.2131 -0.8366  0.6023
  214MPD1    H2 3309   0.290   3.880  15.489  0.6685 -1.4928 -1.5672
  214MPD1    H3 3310   0.370   3.998  15.674  0.2601 -0.2213 -0.7781
  214MPD1     N 3311   0.483   4.362  15.425 -0.2678  0.4596  0.5444
  214MPD1    H5 3312   0.529   4.400  15.507  1.3366  0.5284 -0.4006
  214MPD1    N1 3313   0.265   3.980  15.244 -0.2857 -0.1439  0.0884
  214MPD1    H6 3314   0.220   3.894  15.275 -0.4891  0.4180  1.3820
  214MPD1    H7 3315   0.354   3.966  15.197 -0.0221  0.7788  0.3223
  215MPD1     C 3316   0.308   1.672  10.734 -0.2971 -0.1538  0.2243
  215MPD1    C1 3317   0.372   1.776  10.794  0.0781 -0.5110  0.5558
  215MPD1    C2 3318   0.472   1.750  10.884 -0.1486 -0.5530 -0.0843
  215MPD1    C3 3319   0.516   1.622  10.911  0.3895 -0.1471  0.0586
  215MPD1    C4 3320   0.462   1.516  10.849  0.2325  0.5205  0.6278
  215MPD1    C5 3321   0.353   1.544  10.765 -0.1648 -0.1001 -0.1207
  215MPD1     H 3322   0.509   1.839  10.935  1.0348 -1.9207  1.4544
  215MPD1    H1 3323   0.495   1.416  10.876 -0.2729 -0.6126 -3.0360
  215MPD1    H2 3324   0.219   1.688  10.675 -1.4687  0.0744  2.0859
  215MPD1    H3 3325   0.294   1.460  10.728  0.5260 -1.3130  1.5171
  215MPD1     N 3326   0.622   1.607  11.003 -0.1399 -0.7055  0.1519
  215MPD1    H5 3327   0.652   1.697  11.039 -0.4863 -0.3856 -0.3511
  215MPD1    N1 3328   0.309   1.902  10.781 -0.5454  0.6731  0.4465
  215MPD1    H6 3329   0.252   1.917  10.698 -0.6078 -2.0809 -0.0145
  215MPD1    H7 3330   0.375   1.979  10.782 -1.1601  1.2012  0.6575
  216MPD1     C 3331   2.430   4.154   0.817 -0.9954 -0.9229  0.1634
  216MPD1    C1 3332   2.497   4.041   0.856 -0.2215  0.8038 -0.2652
  216MPD1    C2 3333   2.500   3.942   0.761  0.1779  0.4810 -0.0891
  216MPD1    C3 3334   2.449   3.948   0.637 -0.0881  0.0776 -0.5100
  216MPD1    C4 3335   2.366   4.052   0.612 -0.3033 -0.5675  1.1881
  216MPD1    C5 3336   2.355   4.155   0.701  0.2729 -0.1892  0.0436
  216MPD1     H 3337   2.553   3.849   0.782 -0.0735  0.4371  0.3486
  216MPD1    H1 3338   2.302   4.051   0.524 -0.2940 -1.2427  1.1892
  216MPD1    H2 3339   2.433   4.248   0.869 -0.9923 -1.6263  1.4234
  216MPD1    H3 3340   2.299   4.245   0.676  0.8792  0.3529  0.6422
  216MPD1     N 3341   2.469   3.846   0.541  0.7230  0.3825 -0.4395
  216MPD1    H5 3342   2.506   3.756   0.572  1.0034  0.4795 -0.4901
  216MPD1    N1 3343   2.571   4.037   0.977  0.2338  0.0757  0.1975
  216MPD1    H6 3344   2.584   3.940   1.006 -1.8125  0.0476  1.0209
  216MPD1    H7 3345   2.530   4.087   1.055 -1.3221  0.2869 -0.7485
  217MPD1     C 3346   0.271   1.963   8.314  0.0792  0.2772 -0.9439
  217MPD1    C1 3347   0.357   1.854   8.318 -0.3495 -0.1862  0.7784
  217MPD1    C2 3348   0.317   1.740   8.373  0.2262  0.2799  0.6348
  217MPD1    C3 3349   0.193   1.728   8.436  0.5840 -0.7485 -0.3855
  217MPD1    C4 3350   0.119   1.843   8.451 -0.2016  0.5658 -0.1883
  217MPD1    C5 3351   0.149   1.954   8.385 -0.8083  0.3223 -0.6572
  217MPD1     H 3352   0.377   1.649   8.379 -0.4934 -0.3041 -0.9918
  217MPD1    H1 3353   0.025   1.850   8.504  1.0727  2.5029  1.8321
  217MPD1    H2 3354   0.291   2.053   8.258  1.8467 -0.6339 -1.7782
  217MPD1    H3 3355   0.073   2.031   8.387 -0.8345  0.3127 -1.2564
  217MPD1     N 3356   0.147   1.613   8.505 -0.0340  0.5591  0.5727
  217MPD1    H5 3357   0.049   1.620   8.531  0.6272 -2.1646  3.7984
  217MPD1    N1 3358   0.468   1.854   8.231  0.1575 -1.0161 -0.7922
  217MPD1    H6 3359   0.543   1.791   8.259  2.1559  1.1669 -1.3663
  217MPD1    H7 3360   0.508   1.947   8.227 -1.9274 -0.0171  1.1601
  218MPD1     C 3361   0.635   4.632  12.215  0.1375  0.1763  0.2680
  218MPD1    C1 3362   0.768   4.654  12.181 -0.4337 -0.1041  0.2157
  218MPD1    C2 3363   0.804   0.045  12.156 -0.0715 -0.3740 -0.5547
  218MPD1    C3 3364   0.728   0.157  12.190 -0.1847 -0.3692 -0.2055
  218MPD1    C4 3365   0.601   0.138  12.231 -0.1570 -1.0342 -0.8964
  218MPD1    C5 3366   0.556   0.007  12.242  0.1054  0.1764 -0.3676
  218MPD1     H 3367   0.899   0.057  12.105  0.0827  1.2294  0.1287
  218MPD1    H1 3368   0.532   0.218  12.253 -0.4122 -1.0983 -1.4672
  218MPD1    H2 3369   0.588   4.534  12.221  0.6643 -0.1831 -1.2539
  218MPD1    H3 3370   0.454   4.729  12.274 -0.1817  1.0005 -0.9169
  218MPD1     N 3371   0.780   0.283  12.167  0.5432 -0.2600 -0.0615
  218MPD1    H5 3372   0.875   0.282  12.130  0.4570  2.8392 -0.3710
  218MPD1    N1 3373   0.848   4.544  12.143  0.1822 -0.0900 -0.3947
  218MPD1    H6 3374   0.830   4.460  12.198  1.7715  0.7402  1.3729
  218MPD1    H7 3375   0.943   4.573  12.161 -0.4706  0.1742  2.7493
  219MPD1     C 3376   0.732   0.989  11.509 -0.3139  0.0554  0.5292
  219MPD1    C1 3377   0.834   1.028  11.588 -0.0947 -0.0297 -0.4434
  219MPD1    C2 3378   0.841   0.973  11.709  0.3499 -0.4646  0.3918
  219MPD1    C3 3379   0.769   0.866  11.751  0.3791 -0.3902 -0.3359
  219MPD1    C4 3380   0.656   0.832  11.676 -0.7950  0.7993  0.4151
  219MPD1    C5 3381   0.646   0.892  11.551 -0.5372  0.4155  0.4714
  219MPD1     H 3382   0.920   1.012  11.772 -0.6782 -0.0925  1.4537
  219MPD1    H1 3383   0.598   0.742  11.691 -0.2475  0.6274  1.4940
  219MPD1    H2 3384   0.715   1.030  11.411 -0.6315  1.6763  1.2682
  219MPD1    H3 3385   0.563   0.867  11.487  1.5629 -1.3221 -1.5608
  219MPD1     N 3386   0.796   0.783  11.865  0.3419 -0.2140  1.0838
  219MPD1    H5 3387   0.735   0.702  11.869 -0.3627  0.2842  0.2353
  219MPD1    N1 3388   0.905   1.140  11.554  0.0595  0.5869  0.6789
  219MPD1    H6 3389   0.925   1.172  11.459 -0.3331  1.4785  0.8963
  219MPD1    H7 3390   0.999   1.149  11.593 -0.3528 -0.6068  1.9639
  220MPD1     C 3391   1.155   2.302   9.573 -0.0081  0.0991  0.5657
  220MPD1    C1 3392   1.234   2.234   9.659  0.3745  0.3180  0.2535
  220MPD1    C2 3393   1.179   2.184   9.775 -0.1539 -0.0275 -0.1474
  220MPD1    C3 3394   1.052   2.212   9.811 -0.7325  0.4340  0.3529
  220MPD1    C4 3395   0.974   2.293   9.732 -0.3258 -0.7922  0.1754
  220MPD1    C5 3396   1.024   2.337   9.613  0.3057  0.3412  0.2637
  220MPD1     H 3397   1.235   2.118   9.840 -1.0431  0.8073  1.4413
  220MPD1    H1 3398   0.872   2.315   9.761 -0.0941 -0.1176  0.4835
  220MPD1    H2 3399   1.192   2.317   9.473  0.5686 -1.7009  0.5082
  220MPD1    H3 3400   0.949   2.393   9.558 -1.1057 -1.0848  0.7472
  220MPD1     N 3401   1.009   2.156   9.928 -1.0474 -0.4373  0.2868
  220MPD1    H5 3402   1.073   2.088   9.968 -1.7524 -1.5521 -0.4765
  220MPD1    N1 3403   1.356   2.184   9.613  0.3783  0.0820 -0.2224
  220MPD1    H6 3404   1.425   2.152   9.682 -0.1936 -0.4323  0.1078
  220MPD1    H7 3405   1.416   2.249   9.563  0.0038  0.7858  0.2546
  221MPD1     C 3406   3.121   0.330  16.967 -0.0583  0.2505 -0.0254
  221MPD1    C1 3407   3.223   0.347  17.057 -0.0302 -0.6780  0.1026
  221MPD1    C2 3408   3.348   0.284  17.040  0.2255 -0.1382 -0.7518
  221MPD1    C3 3409   3.376   0.206  16.926  0.7017 -0.4121  0.3689
  221MPD1    C4 3410   3.263   0.179  16.845  0.0343 -0.1212 -0.2472
  221MPD1    C5 3411   3.144   0.243  16.863 -0.6738 -0.1405  0.9393
  221MPD1     H 3412   3.427   0.304  17.112  0.2893  1.4166 -1.2446
  221MPD1    H1 3413   3.269   0.102  16.768 -0.6029 -1.3786  0.9633
  221MPD1    H2 3414   3.023   0.377  16.972 -1.1672 -2.2589  1.8274
  221MPD1    H3 3415   3.068   0.227  16.788  1.5907 -0.9895 -1.1657
  221MPD1     N 3416   3.502   0.153  16.896 -0.2406  0.4149 -0.1263
  221MPD1    H5 3417   3.509   0.121  16.800 -1.2524  2.0092 -0.7292
  221MPD1    N1 3418   3.198   0.425  17.177 -0.0769  0.3289  0.3706
  221MPD1    H6 3419   3.131   0.501  17.172  0.9642  1.2757  1.0883
  221MPD1    H7 3420   3.283   0.471  17.206 -0.2789  0.9783 -0.0665
  222MPD1     C 3421   2.068   3.701   0.612 -0.4069 -0.3114 -0.0137
  222MPD1    C1 3422   2.040   3.654   0.484  0.2653 -0.1662 -0.3610
  222MPD1    C2 3423   2.057   3.750   0.382  0.4817  0.5699  0.1369
  222MPD1    C3 3424   2.062   3.889   0.414 -0.0474 -1.0347  0.8020
  222MPD1    C4 3425   2.076   3.932   0.546  0.4248 -0.3093  0.4580
  222MPD1    C5 3426   2.078   3.838   0.647  0.0822 -0.0606 -0.1273
  222MPD1     H 3427   2.062   3.732   0.275 -1.2031  1.1930 -0.0415
  222MPD1    H1 3428   2.071   4.036   0.574  1.0214  0.0742 -0.8305
  222MPD1    H2 3429   2.105   3.642   0.695 -1.4686 -1.4329 -0.3421
  222MPD1    H3 3430   2.122   3.863   0.743 -0.7941 -0.5005  0.3901
  222MPD1     N 3431   2.064   3.995   0.316  0.2488  0.2038  0.0883
  222MPD1    H5 3432   2.080   4.089   0.352  3.5182 -0.4288  0.2212
  222MPD1    N1 3433   2.041   3.521   0.451 -0.1349 -0.0794  0.1995
  222MPD1    H6 3434   2.014   3.463   0.530  0.8474  2.0719  2.1092
  222MPD1    H7 3435   1.980   3.494   0.374  0.1116 -1.4590  0.4871
  223MPD1     C 3436   2.189   4.459  17.076  1.2886  0.1065 -0.4585
  223MPD1    C1 3437   2.296   4.504  17.149 -0.6440 -0.2150 -0.1729
  223MPD1    C2 3438   2.305   4.461  17.278  0.4486  0.8206 -0.4851
  223MPD1    C3 3439   2.222   4.363  17.335  0.1288  0.3755 -0.2197
  223MPD1    C4 3440   2.119   4.310  17.252 -0.4740  1.2389 -0.2981
  223MPD1    C5 3441   2.099   4.369  17.130 -0.0784 -0.3722  0.5404
  223MPD1     H 3442   2.372   4.523  17.336  0.0189  0.1872  0.6751
  223MPD1    H1 3443   2.055   4.232  17.290  0.1959 -0.3317 -2.4416
  223MPD1    H2 3444   2.174   4.504  16.978 -0.4709  2.6827  0.9807
  223MPD1    H3 3445   2.016   4.339  17.067  0.9439  0.0482 -1.0153
  223MPD1     N 3446   2.253   4.322  17.471  0.5045  0.2704 -0.0520
  223MPD1    H5 3447   2.335   4.368  17.511  0.2878  0.8112 -0.2281
  223MPD1    N1 3448   2.350   4.630  17.124  0.3196 -0.1973  0.0927
  223MPD1    H6 3449   2.435   4.646  17.178 -0.9134 -1.5010  2.4136
  223MPD1    H7 3450   2.371   4.654  17.027  4.5253  0.2078  1.0983
  224MPD1     C 3451   4.507   2.107   9.209 -0.4138 -0.5528 -0.4650
  224MPD1    C1 3452   4.632   2.071   9.251  0.0241 -0.2521 -0.7665
  224MPD1    C2 3453   4.638   1.942   9.307  0.0176 -0.3041 -0.1406
  224MPD1    C3 3454   4.517   1.872   9.331 -0.0293 -0.2467 -0.5316
  224MPD1    C4 3455   4.393   1.923   9.291  0.1596 -0.0647 -0.0299
  224MPD1    C5 3456   4.391   2.035   9.219 -0.3187  0.3369 -0.0363
  224MPD1     H 3457   0.001   1.910   9.339 -0.0580  1.5966  1.9768
  224MPD1    H1 3458   4.300   1.868   9.299  0.1656  0.2350  2.1859
  224MPD1    H2 3459   4.496   2.197   9.151 -0.6173  0.5290  1.2464
  224MPD1    H3 3460   4.304   2.072   9.167 -0.9002 -1.9273 -0.6368
  224MPD1     N 3461   4.506   1.748   9.406 -0.1465 -0.1472 -0.0230
  224MPD1    H5 3462   4.417   1.699   9.410  0.6299 -1.4757  0.8031
  224MPD1    N1 3463   0.022   2.135   9.220 -0.5637 -0.3006 -0.5061
  224MPD1    H6 3464   0.107   2.113   9.271 -0.9169  0.0037  0.2150
  224MPD1    H7 3465   0.018   2.235   9.202  0.2684  0.0355  1.1363
  225MPD1     C 3466   1.065   1.851  12.459  0.1701  0.2393 -0.5787
  225MPD1    C1 3467   0.980   1.761  12.518  0.2785 -0.7848  0.5459
  225MPD1    C2 3468   0.850   1.780  12.487  0.3594  0.5456 -0.3939
  225MPD1    C3 3469   0.799   1.880  12.401 -0.2934  0.1209 -0.0677
  225MPD1    C4 3470   0.890   1.965  12.344  0.3859  0.1224  0.6466
  225MPD1    C5 3471   1.022   1.948  12.375  0.6311  1.0348  0.5358
  225MPD1     H 3472   0.781   1.713  12.537  1.1886 -0.2730 -0.3632
  225MPD1    H1 3473   0.856   2.050  12.286 -2.7534 -1.3923  0.2977
  225MPD1    H2 3474   1.172   1.835  12.464  0.0493 -0.2646  0.3295
  225MPD1    H3 3475   1.089   2.022  12.332 -0.8730  0.8194 -2.1112
  225MPD1     N 3476   0.662   1.886  12.360  0.5300  0.2351 -0.0224
  225MPD1    H5 3477   0.630   1.965  12.306  1.1567  2.2242  2.5316
  225MPD1    N1 3478   1.023   1.667  12.611 -0.1777 -0.0331 -0.0328
  225MPD1    H6 3479   0.959   1.589  12.625  0.2334 -0.6637 -1.6997
  225MPD1    H7 3480   1.108   1.622  12.579  0.4964  0.1633  1.5205
  226MPD1     C 3481   3.816   2.242   9.279  0.4585  0.3403 -0.2710
  226MPD1    C1 3482   3.841   2.137   9.369  0.0429  0.1829  0.0854
  226MPD1    C2 3483   3.961   2.127   9.429 -0.3033  0.2194  0.1809
  226MPD1    C3 3484   4.064   2.220   9.405 -0.5931  0.2536  0.1047
  226MPD1    C4 3485   4.043   2.318   9.316  0.3278 -0.6004  0.2942
  226MPD1    C5 3486   3.920   2.336   9.258  0.4194  0.2505  0.1685
  226MPD1     H 3487   3.978   2.038   9.489  2.5052 -0.4593 -1.6302
  226MPD1    H1 3488   4.112   2.396   9.285  0.5259 -0.7941  0.2433
  226MPD1    H2 3489   3.723   2.250   9.225  0.6356 -3.5286 -1.1406
  226MPD1    H3 3490   3.903   2.412   9.182 -0.3110  0.2853  0.3668
  226MPD1     N 3491   4.182   2.203   9.485  0.1184 -0.0636 -0.2800
  226MPD1    H5 3492   4.189   2.113   9.533 -0.9138  0.9566  1.7792
  226MPD1    N1 3493   3.754   2.027   9.362 -0.4042  0.8983  0.7247
  226MPD1    H6 3494   3.776   1.954   9.430  0.1331 -0.3305 -0.7761
  226MPD1    H7 3495   3.658   2.062   9.357 -0.9251 -0.8879 -1.6865
  227MPD1     C 3496   0.520   2.385   9.700 -0.0832  0.1621 -0.5555
  227MPD1    C1 3497   0.492   2.249   9.700 -0.4291 -0.1807  0.9006
  227MPD1    C2 3498   0.358   2.213   9.672 -0.0625  0.1233 -0.5784
  227MPD1    C3 3499   0.259   2.308   9.647  0.2568  0.9934  0.0778
  227MPD1    C4 3500   0.287   2.440   9.640  0.3264 -0.5237 -0.0980
  227MPD1    C5 3501   0.419   2.475   9.663  0.8983  0.5992  0.4425
  227MPD1     H 3502   0.332   2.108   9.673  2.1662 -0.3944  0.6980
  227MPD1    H1 3503   0.210   2.516   9.631  0.2787 -0.4439  0.9411
  227MPD1    H2 3504   0.620   2.418   9.723 -0.1205 -0.3015  0.2556
  227MPD1    H3 3505   0.451   2.578   9.678  2.3728  0.5500 -2.5764
  227MPD1     N 3506   0.129   2.255   9.620  0.2176 -0.4235  0.3986
  227MPD1    H5 3507   0.120   2.154   9.625 -0.4620 -0.6536 -4.9038
  227MPD1    N1 3508   0.584   2.149   9.714 -0.1629 -0.6720 -0.3114
  227MPD1    H6 3509   0.660   2.169   9.777 -0.6736 -0.7703  0.3352
  227MPD1    H7 3510   0.541   2.061   9.742  0.9190 -0.8204  0.8458
  228MPD1     C 3511   1.927   0.644  12.887  0.4839  0.6504 -0.0421
  228MPD1    C1 3512   1.933   0.535  12.965  0.0834 -0.4355 -0.0307
  228MPD1    C2 3513   1.909   0.401  12.916 -0.5230 -0.2754  0.0819
  228MPD1    C3 3514   1.873   0.386  12.785 -0.5641  0.4376  0.3457
  228MPD1    C4 3515   1.851   0.504  12.710 -0.2106 -0.4499  0.7716
  228MPD1    C5 3516   1.881   0.626  12.759 -0.2277 -0.2320  0.3761
  228MPD1     H 3517   1.920   0.310  12.974 -1.2399  0.4573  1.3761
  228MPD1    H1 3518   1.811   0.510  12.610  2.3519 -0.8696 -0.2969
  228MPD1    H2 3519   1.951   0.744  12.920  1.7182  0.5659 -0.6720
  228MPD1    H3 3520   1.887   0.704  12.683  0.3048 -1.1503 -0.5346
  228MPD1     N 3521   1.849   0.258  12.740 -0.6122 -0.3880  0.1659
  228MPD1    H5 3522   1.890   0.193  12.807 -3.2802 -2.1813  0.0747
  228MPD1    N1 3523   1.986   0.550  13.098 -1.0487  0.4934  0.9866
  228MPD1    H6 3524   1.964   0.464  13.149  0.3546 -0.6770 -0.3544
  228MPD1    H7 3525   1.958   0.640  13.136  0.6806  1.8998 -1.0553
  229MPD1     C 3526   1.784   2.867  14.908  0.0811 -0.5942 -0.1230
  229MPD1    C1 3527   1.781   2.882  15.044  0.2192  0.2400  0.2458
  229MPD1    C2 3528   1.792   2.768  15.121  0.1298  0.1202 -0.6130
  229MPD1    C3 3529   1.793   2.645  15.065  0.5440 -0.2361 -0.0199
  229MPD1    C4 3530   1.780   2.636  14.926  1.0498 -0.9115  0.4267
  229MPD1    C5 3531   1.787   2.744  14.851 -0.2440  0.0026  0.3536
  229MPD1     H 3532   1.800   2.777  15.229 -1.4510  0.7613 -0.5592
  229MPD1    H1 3533   1.787   2.536  14.882 -1.1912 -1.4914  1.4147
  229MPD1    H2 3534   1.803   2.948  14.840  1.0916 -1.0817 -0.4222
  229MPD1    H3 3535   1.799   2.739  14.743  1.5711  1.2280  0.4929
  229MPD1     N 3536   1.816   2.517  15.124 -0.7494 -0.3323  0.4128
  229MPD1    H5 3537   1.834   2.440  15.061 -0.9713  0.0342 -0.0959
  229MPD1    N1 3538   1.810   3.008  15.092  0.0661  0.0861 -0.3212
  229MPD1    H6 3539   1.756   3.019  15.177 -0.3318  0.2373 -0.5902
  229MPD1    H7 3540   1.782   3.076  15.022  1.5313  0.2870 -0.6951
  230MPD1     C 3541   2.430   2.027  15.874  0.2358  0.9449 -0.0031
  230MPD1    C1 3542   2.357   1.930  15.810 -0.0683 -0.1371  0.1960
  230MPD1    C2 3543   2.251   1.967  15.731  0.2974 -0.4381  0.1874
  230MPD1    C3 3544   2.214   2.099  15.727 -0.3027 -0.2529 -0.2917
  230MPD1    C4 3545   2.281   2.190  15.803  0.5626 -0.3983  0.3733
  230MPD1    C5 3546   2.387   2.150  15.882 -0.4118 -0.1381 -0.1993
  230MPD1     H 3547   2.206   1.892  15.667  1.9672  0.5565 -2.1676
  230MPD1    H1 3548   2.261   2.297  15.797  0.4974 -0.4237  0.1311
  230MPD1    H2 3549   2.518   2.000  15.931 -0.6691  3.5572  2.6083
  230MPD1    H3 3550   2.444   2.210  15.952  0.1856 -1.4421  0.4308
  230MPD1     N 3551   2.111   2.133  15.637  0.0976 -0.1249  0.3638
  230MPD1    H5 3552   2.060   2.054  15.599  0.1817  0.2988 -0.6305
  230MPD1    N1 3553   2.399   1.795  15.822  0.2295  0.2847 -0.2289
  230MPD1    H6 3554   2.351   1.731  15.760 -2.2660  1.4399  0.5325
  230MPD1    H7 3555   2.500   1.785  15.811  0.2392 -2.4019  2.1913
  231MPD1     C 3556   4.606   0.105  15.407 -0.1751  0.8327  1.5464
  231MPD1    C1 3557   4.558   0.161  15.297 -0.8910  0.4311 -0.0050
  231MPD1    C2 3558   4.647   0.212  15.205 -0.0500 -0.4112 -0.9259
  231MPD1    C3 3559   0.047   0.206  15.224  0.1422 -0.4596 -0.0524
  231MPD1    C4 3560   0.096   0.159  15.346 -0.2647  0.8643 -0.8515
  231MPD1    C5 3561   0.007   0.111  15.430 -0.4274  0.3033  0.7440
  231MPD1     H 3562   4.618   0.239  15.104  0.0041  1.6268 -0.4055
  231MPD1    H1 3563   0.201   0.155  15.371 -0.2456 -1.5903 -1.2699
  231MPD1    H2 3564   4.544   0.062  15.484  0.9148 -0.0874  1.9171
  231MPD1    H3 3565   0.054   0.076  15.521 -1.0554  0.0489  0.9747
  231MPD1     N 3566   0.136   0.249  15.122 -0.0673  0.4822  0.3779
  231MPD1    H5 3567   0.093   0.278  15.035 -1.3034 -2.4381  0.0286
  231MPD1    N1 3568   4.419   0.139  15.270  0.1882  0.3739 -0.2622
  231MPD1    H6 3569   4.379   0.220  15.222  2.1006  1.6230  0.2389
  231MPD1    H7 3570   4.370   0.132  15.359 -0.5685  2.1715 -0.5422
  232MPD1     C 3571   1.807   3.057   0.691 -0.4296 -0.0327  0.1543
  232MPD1    C1 3572   1.712   3.120   0.617  0.5129 -0.5422 -0.1297
  232MPD1    C2 3573   1.634   3.047   0.529 -0.3951 -0.1169 -0.3335
  232MPD1    C3 3574   1.658   2.913   0.511  0.1485 -0.2766  0.1345
  232MPD1    C4 3575   1.751   2.851   0.589 -0.4874  0.6486 -0.3069
  232MPD1    C5 3576   1.817   2.922   0.685 -0.4472 -0.2199 -0.8192
  232MPD1     H 3577   1.566   3.105   0.468 -1.4304  1.5849  2.4108
  232MPD1    H1 3578   1.773   2.745   0.584  0.1212  0.8556 -2.1713
  232MPD1    H2 3579   1.873   3.110   0.759  0.1976 -1.9946  1.0576
  232MPD1    H3 3580   1.892   2.870   0.743 -0.7649 -0.9790 -1.0843
  232MPD1     N 3581   1.576   2.845   0.419  0.3549 -0.2777  0.1900
  232MPD1    H5 3582   1.502   2.899   0.374 -0.3676  0.1020  1.8427
  232MPD1    N1 3583   1.701   3.256   0.627 -0.4010  0.5575  0.6058
  232MPD1    H6 3584   1.784   3.312   0.644  1.2907 -1.2194 -1.8141
  232MPD1    H7 3585   1.644   3.301   0.555  0.2281 -1.8102 -1.3692
  233MPD1     C 3586   3.150   1.227   0.693 -0.5316  0.2986 -0.0925
  233MPD1    C1 3587   3.178   1.251   0.831 -0.3050  0.3991  0.0370
  233MPD1    C2 3588   3.271   1.167   0.894  0.7452 -0.2237  0.1648
  233MPD1    C3 3589   3.337   1.067   0.818 -0.1087  0.5547  0.1844
  233MPD1    C4 3590   3.299   1.035   0.692  0.0096  0.2565 -0.1546
  233MPD1    C5 3591   3.204   1.118   0.627 -0.1550 -0.1193 -0.4764
  233MPD1     H 3592   3.291   1.188   0.999  0.6211 -0.4946  0.2411
  233MPD1    H1 3593   3.340   0.952   0.635 -1.4913  0.1555 -1.1204
  233MPD1    H2 3594   3.078   1.291   0.644 -0.6636  0.0970 -0.1599
  233MPD1    H3 3595   3.177   1.083   0.528 -1.1989  3.3999 -1.4310
  233MPD1     N 3596   3.439   0.984   0.879 -0.5389 -0.0656 -0.9236
  233MPD1    H5 3597   3.479   0.920   0.811 -1.1543 -1.6710  0.2446
  233MPD1    N1 3598   3.134   1.371   0.890 -0.5384 -0.4511 -0.0575
  233MPD1    H6 3599   3.130   1.363   0.991  1.8092 -0.1950  0.0704
  233MPD1    H7 3600   3.048   1.409   0.852 -1.1274  0.1508  1.8867
  234MPD1     C 3601   0.647   4.615   9.129 -0.4391 -0.3233 -0.0053
  234MPD1    C1 3602   0.578   4.693   9.033 -0.0185  0.5958  0.4139
  234MPD1    C2 3603   0.532   0.084   9.065  0.2642  0.8338 -0.2233
  234MPD1    C3 3604   0.531   0.122   9.193 -0.6136  0.3763  0.0647
  234MPD1    C4 3605   0.588   0.044   9.292 -0.1794  0.1987 -0.3074
  234MPD1    C5 3606   0.643   4.659   9.257 -0.0372  0.5751 -0.0010
  234MPD1     H 3607   0.490   0.154   8.994 -0.7401  1.3132  0.8505
  234MPD1    H1 3608   0.591   0.071   9.397 -0.4742  1.7034 -0.6927
  234MPD1    H2 3609   0.696   4.522   9.101  1.7932  0.7478  0.4135
  234MPD1    H3 3610   0.695   4.602   9.333  0.1476  1.4791  0.5577
  234MPD1     N 3611   0.473   0.250   9.225  0.3946 -0.1857  0.0967
  234MPD1    H5 3612   0.424   0.297   9.150  1.0273  0.2986 -0.0229
  234MPD1    N1 3613   0.587   4.642   8.905 -0.3148 -0.1570  0.5528
  234MPD1    H6 3614   0.593   4.541   8.893 -0.6454  0.1490 -2.2117
  234MPD1    H7 3615   0.520   4.682   8.840  3.0415  1.8446 -1.7143
  235MPD1     C 3616   1.565   2.273  10.492  0.0792 -0.4336  0.5529
  235MPD1    C1 3617   1.559   2.252  10.355  0.2654 -0.1805  0.1870
  235MPD1    C2 3618   1.662   2.321  10.278 -0.0122  0.1278 -0.5658
  235MPD1    C3 3619   1.756   2.401  10.340  0.8672  0.1814 -0.3922
  235MPD1    C4 3620   1.753   2.415  10.480 -0.5610  0.0187 -0.9840
  235MPD1    C5 3621   1.670   2.338  10.559  0.4539  0.0255 -1.0175
  235MPD1     H 3622   1.658   2.317  10.170 -2.4896 -0.2767 -0.4598
  235MPD1    H1 3623   1.822   2.482  10.531 -2.4095  0.5841  0.7713
  235MPD1    H2 3624   1.491   2.217  10.549  1.0192 -2.1885  0.0326
  235MPD1    H3 3625   1.662   2.342  10.668 -1.2297  2.4977 -1.2139
  235MPD1     N 3626   1.841   2.475  10.256  0.6747 -0.0509 -0.0234
  235MPD1    H5 3627   1.815   2.477  10.158 -2.4991  0.5860  0.8370
  235MPD1    N1 3628   1.447   2.190  10.296 -0.1693 -0.4358 -0.1343
  235MPD1    H6 3629   1.466   2.143  10.208 -2.8860 -2.6569  0.4701
  235MPD1    H7 3630   1.414   2.130  10.372 -0.6141 -0.5691 -0.4351
  236MPD1     C 3631   0.329   4.314  10.172  0.0117 -0.3312  0.7010
  236MPD1    C1 3632   0.455   4.346  10.205 -0.1469 -0.4068  0.9070
  236MPD1    C2 3633   0.542   4.248  10.243 -0.5428  0.6224 -0.3093
  236MPD1    C3 3634   0.498   4.118  10.261 -0.8386 -0.1099  0.5027
  236MPD1    C4 3635   0.368   4.089  10.236  0.4178 -0.0511  0.4449
  236MPD1    C5 3636   0.284   4.190  10.204 -1.1195 -0.0428 -0.1764
  236MPD1     H 3637   0.644   4.280  10.261 -0.8392  1.0757  0.5663
  236MPD1    H1 3638   0.324   3.990  10.243  2.0707 -0.8753 -1.0037
  236MPD1    H2 3639   0.263   4.385  10.123 -0.3945 -2.8696 -2.3819
  236MPD1    H3 3640   0.180   4.169  10.182 -1.5376  0.7013  1.1064
  236MPD1     N 3641   0.595   4.013  10.280  0.2598 -0.0562  0.3101
  236MPD1    H5 3642   0.566   3.918  10.257  1.6072 -0.6539  1.0747
  236MPD1    N1 3643   0.506   4.469  10.161 -0.4883  0.4077  0.1722
  236MPD1    H6 3644   0.566   4.519  10.227 -0.8590  1.1364 -0.0451
  236MPD1    H7 3645   0.440   4.539  10.128 -1.8746 -0.5272  0.9556
  237MPD1     C 3646   0.532   1.556  14.162 -0.2154 -0.4531 -0.2446
  237MPD1    C1 3647   0.546   1.628  14.277 -0.1387  0.1375 -0.2020
  237MPD1    C2 3648   0.479   1.580  14.394  0.6049 -0.0733 -0.9555
  237MPD1    C3 3649   0.385   1.480  14.382 -0.5146  0.2644 -0.0886
  237MPD1    C4 3650   0.363   1.420  14.263  0.5772  0.2375  0.1643
  237MPD1    C5 3651   0.445   1.455  14.158  0.6269  0.1819  0.3215
  237MPD1     H 3652   0.494   1.623  14.492 -1.2411  1.4258 -1.3376
  237MPD1    H1 3653   0.291   1.340  14.248  0.3725  0.6700 -1.0798
  237MPD1    H2 3654   0.579   1.571  14.066 -1.0063  1.5146 -0.3242
  237MPD1    H3 3655   0.434   1.398  14.067  0.4365  1.3459 -0.3714
  237MPD1     N 3656   0.305   1.431  14.494 -0.1630 -0.4813  1.0311
  237MPD1    H5 3657   0.231   1.368  14.464  0.8780 -1.7654  1.1380
  237MPD1    N1 3658   0.647   1.728  14.270 -0.0475  0.8093 -0.2478
  237MPD1    H6 3659   0.637   1.815  14.322 -1.9914  1.6541 -2.0613
  237MPD1    H7 3660   0.661   1.755  14.173  0.6156  1.7942  0.1186
  238MPD1     C 3661   2.208   4.030  14.752  0.4414 -0.2975 -0.7266
  238MPD1    C1 3662   2.267   4.145  14.705  0.0620  0.5942 -0.4561
  238MPD1    C2 3663   2.179   4.247  14.678  0.1885  0.4948  0.2349
  238MPD1    C3 3664   2.037   4.234  14.679  0.0653  0.4313 -0.6685
  238MPD1    C4 3665   1.985   4.107  14.693  0.3196  1.0452  0.2573
  238MPD1    C5 3666   2.075   4.007  14.735 -1.0316  0.9508  0.4186
  238MPD1     H 3667   2.226   4.344  14.688  0.5467  0.3336  0.0801
  238MPD1    H1 3668   1.880   4.083  14.681  0.4969  0.7851 -0.7719
  238MPD1    H2 3669   2.268   3.955  14.802 -1.1458 -0.5325  0.8258
  238MPD1    H3 3670   2.033   3.912  14.765  1.0519 -0.4041 -1.0080
  238MPD1     N 3671   1.952   4.345  14.661 -0.5462  0.3415  0.2828
  238MPD1    H5 3672   1.855   4.318  14.657 -0.2884 -0.2612 -1.7868
  238MPD1    N1 3673   2.398   4.172  14.746  0.2854  0.2326 -0.5779
  238MPD1    H6 3674   2.447   4.245  14.694  0.0363  1.6360  1.1479
  238MPD1    H7 3675   2.455   4.090  14.727 -2.7234 -1.8815 -0.4708
  239MPD1     C 3676   1.944   1.157  15.188 -0.0720 -0.4136 -0.1233
  239MPD1    C1 3677   2.036   1.106  15.108 -0.1517  0.1532  0.2620
  239MPD1    C2 3678   2.048   1.153  14.979  0.2274 -0.8687  0.1886
  239MPD1    C3 3679   1.953   1.242  14.926 -0.0394 -0.2400  0.8060
  239MPD1    C4 3680   1.863   1.294  15.013  0.7188 -0.4274 -0.1899
  239MPD1    C5 3681   1.851   1.250  15.140 -0.1659  0.7456  0.5180
  239MPD1     H 3682   2.121   1.108  14.913  0.6422  0.7526 -0.4453
  239MPD1    H1 3683   1.788   1.367  14.984  0.4802 -2.2882 -4.3155
  239MPD1    H2 3684   1.950   1.130  15.292  0.1597  1.3174  0.3140
  239MPD1    H3 3685   1.770   1.296  15.196 -1.3444  1.6778 -1.9561
  239MPD1     N 3686   1.952   1.293  14.799 -0.8682 -0.2924 -0.2287
  239MPD1    H5 3687   1.871   1.352  14.783 -0.4203  0.4231  0.1380
  239MPD1    N1 3688   2.130   1.018  15.157 -0.3866  0.4790 -0.0525
  239MPD1    H6 3689   2.184   0.979  15.080  1.0831 -0.9489  1.6861
  239MPD1    H7 3690   2.083   0.945  15.210  1.9376  0.2491  1.6897
  240MPD1     C 3691   1.562   0.975  13.719  0.2229 -0.1530 -0.4018
  240MPD1    C1 3692   1.449   0.902  13.755 -0.2423 -0.6929 -1.0307
  240MPD1    C2 3693   1.445   0.827  13.870 -0.0390  0.0248 -1.2524
  240MPD1    C3 3694   1.561   0.808  13.945  0.0438 -0.6812  0.9904
  240MPD1    C4 3695   1.666   0.892  13.909  0.4503 -0.3946  0.6144
  240MPD1    C5 3696   1.666   0.981  13.806 -0.2856  0.2353 -0.3202
  240MPD1     H 3697   1.355   0.777  13.902  0.1111  0.0120 -0.8434
  240MPD1    H1 3698   1.760   0.879  13.962  0.6719  0.4285  0.4361
  240MPD1    H2 3699   1.556   1.041  13.633 -0.4553 -0.3962 -0.5497
  240MPD1    H3 3700   1.752   1.038  13.774  0.7568 -2.5614 -2.4681
  240MPD1     N 3701   1.567   0.713  14.052 -1.0822  0.5092 -0.5109
  240MPD1    H5 3702   1.480   0.663  14.059 -1.7161  1.9690  2.2635
  240MPD1    N1 3703   1.326   0.936  13.688 -0.0479 -1.0881 -0.1565
  240MPD1    H6 3704   1.334   0.956  13.588  0.1914 -0.4790 -0.0155
  240MPD1    H7 3705   1.266   0.854  13.688 -0.3302 -0.8925 -2.7424
  241MPD1     C 3706   2.235   0.513  14.771  1.0435  0.6868 -0.4645
  241MPD1    C1 3707   2.125   0.433  14.812 -0.3443  0.0440  0.6268
  241MPD1    C2 3708   2.002   0.461  14.750  0.4673  0.1798  0.3444
  241MPD1    C3 3709   1.995   0.545  14.638  0.7061  0.2458  0.8425
  241MPD1    C4 3710   2.112   0.611  14.589 -0.7297  0.3537  0.8563
  241MPD1    C5 3711   2.224   0.601  14.666  0.4315 -0.5064  0.6341
  241MPD1     H 3712   1.919   0.396  14.775 -0.4192  0.4742 -1.8497
  241MPD1    H1 3713   2.104   0.692  14.517 -0.2820 -0.4538 -0.1037
  241MPD1    H2 3714   2.328   0.503  14.826  0.7757  1.8333  0.1941
  241MPD1    H3 3715   2.314   0.657  14.641  0.5301 -0.8396  0.2486
  241MPD1     N 3716   1.882   0.568  14.566 -0.2768  0.3199  0.2015
  241MPD1    H5 3717   1.889   0.633  14.489 -2.9919 -0.5308 -0.7482
  241MPD1    N1 3718   2.140   0.364  14.930  0.1233 -0.3125 -0.0162
  241MPD1    H6 3719   2.216   0.298  14.921  0.1848 -0.3171  0.5190
  241MPD1    H7 3720   2.057   0.309  14.950  1.3616 -1.9732  0.5083
  242MPD1     C 3721   1.366   3.634  16.054 -0.2109  0.4235  0.4291
  242MPD1    C1 3722   1.252   3.597  15.985 -0.4830  0.0556 -0.0744
  242MPD1    C2 3723   1.259   3.512  15.876  0.6294 -1.4241  0.6694
  242MPD1    C3 3724   1.383   3.459  15.849 -0.1230 -0.3214 -0.1094
  242MPD1    C4 3725   1.499   3.491  15.926  0.7814  0.7989 -0.5400
  242MPD1    C5 3726   1.487   3.576  16.028 -0.6218 -0.7104  0.2857
  242MPD1     H 3727   1.171   3.486  15.818 -0.3436 -1.7367  2.2787
  242MPD1    H1 3728   1.595   3.444  15.908 -0.2436 -1.3704 -0.4232
  242MPD1    H2 3729   1.360   3.703  16.137 -1.0718 -1.3606  1.8386
  242MPD1    H3 3730   1.580   3.609  16.072 -1.0982 -0.2926  0.9700
  242MPD1     N 3731   1.412   3.384  15.734  0.5886  0.3422  0.2802
  242MPD1    H5 3732   1.510   3.361  15.718  0.3420 -0.5504  0.0681
  242MPD1    N1 3733   1.126   3.667  15.998  0.6286  0.7632  0.4477
  242MPD1    H6 3734   1.051   3.603  15.974  2.0462 -1.0294  0.7952
  242MPD1    H7 3735   1.107   3.705  16.091  0.2388 -2.6594  1.7549
  243MPD1     C 3736   1.877   2.676   0.076  0.1470 -0.2887  0.0121
  243MPD1    C1 3737   1.999   2.702   0.140  0.2174 -0.0299 -0.0599
  243MPD1    C2 3738   2.116   2.660   0.085  0.2912  0.2575 -0.1428
  243MPD1    C3 3739   2.114   2.576  17.720 -0.8767 -0.2123  0.1176
  243MPD1    C4 3740   1.987   2.535  17.670  0.2949  0.6314 -0.5081
  243MPD1    C5 3741   1.875   2.585  17.718  0.0237 -0.0592 -0.0496
  243MPD1     H 3742   2.213   2.697   0.114  0.3273 -0.4522  0.6358
  243MPD1    H1 3743   1.987   2.461  17.591 -1.6652  0.6272 -0.4995
  243MPD1    H2 3744   1.788   2.709   0.129 -0.9359 -0.5417 -1.6741
  243MPD1    H3 3745   1.788   2.548  17.667  1.4260 -2.3596 -0.7935
  243MPD1     N 3746   2.236   2.537  17.667  0.1276 -0.3097 -0.3388
  243MPD1    H5 3747   2.316   2.585  17.706  1.4758 -0.4092 -2.9932
  243MPD1    N1 3748   1.998   2.802   0.238 -1.2511  0.6397 -0.1000
  243MPD1    H6 3749   2.073   2.789   0.306 -1.4252  0.2402  0.0180
  243MPD1    H7 3750   1.917   2.800   0.299 -0.4474  4.3814  1.0840
  244MPD1     C 3751   2.932   2.045   0.347 -0.5703 -0.6315  0.0046
  244MPD1    C1 3752   2.989   2.158   0.303  1.6499 -0.3959  0.6523
  244MPD1    C2 3753   2.931   2.213   0.197  0.5407 -0.1014 -1.2965
  244MPD1    C3 3754   2.813   2.170   0.137  0.7371 -0.3867 -0.2859
  244MPD1    C4 3755   2.750   2.059   0.199  0.1436  0.4084 -0.2818
  244MPD1    C5 3756   2.820   1.997   0.298  0.1363  0.0906 -0.1908
  244MPD1     H 3757   2.978   2.304   0.160  1.1307 -0.6684 -1.9448
  244MPD1    H1 3758   2.650   2.025   0.172 -0.6342  1.0012  1.8745
  244MPD1    H2 3759   2.971   1.996   0.436  1.6963  0.9603 -0.0927
  244MPD1    H3 3760   2.762   1.912   0.334  1.0852 -0.4931 -0.0328
  244MPD1     N 3761   2.763   2.246   0.030  0.5501  0.4327  0.3888
  244MPD1    H5 3762   2.829   2.303  17.720 -1.4410  0.3747 -2.1493
  244MPD1    N1 3763   3.116   2.201   0.344 -0.0007 -0.2247  0.1078
  244MPD1    H6 3764   3.132   2.187   0.443 -2.5702 -0.2138  0.5298
  244MPD1    H7 3765   3.125   2.298   0.315  1.3338 -0.2146  0.5665
  245MPD1     C 3766   0.664   2.432  12.913  0.8194 -0.4854 -0.0399
  245MPD1    C1 3767   0.770   2.499  12.972  0.7454  0.4668 -0.2715
  245MPD1    C2 3768   0.748   2.613  13.050  0.4290  0.5108 -1.0997
  245MPD1    C3 3769   0.619   2.669  13.059  0.8078 -0.7955  0.4973
  245MPD1    C4 3770   0.514   2.607  12.991 -0.1742  0.2576 -0.1839
  245MPD1    C5 3771   0.542   2.495  12.920 -0.0083  1.2198 -0.1450
  245MPD1     H 3772   0.834   2.659  13.096 -0.0136  0.0747  0.1915
  245MPD1    H1 3773   0.415   2.649  13.002  0.3899  1.1308  1.5071
  245MPD1    H2 3774   0.677   2.349  12.845 -3.2748 -1.0519 -0.1667
  245MPD1    H3 3775   0.451   2.456  12.876 -1.1441  2.0451  1.4680
  245MPD1     N 3776   0.606   2.778  13.148  0.2681  0.4787 -0.0028
  245MPD1    H5 3777   0.688   2.813  13.196  0.6652  0.6173 -0.7738
  245MPD1    N1 3778   0.897   2.433  12.968  0.3408 -0.1141  0.0807
  245MPD1    H6 3779   0.973   2.494  12.998  0.1034  0.7812 -1.1622
  245MPD1    H7 3780   0.907   2.376  12.885 -0.4280 -1.3225  0.8162
  246MPD1     C 3781   2.152   0.028   9.567  0.9731  0.3194 -0.0241
  246MPD1    C1 3782   2.046   0.012   9.482  0.1856  0.1934 -0.0720
  246MPD1    C2 3783   2.031   4.621   9.437 -0.8732  0.2425  0.1778
  246MPD1    C3 3784   2.100   4.507   9.485  0.2591 -0.0677  0.0450
  246MPD1    C4 3785   2.199   4.529   9.583  0.4634 -0.3953 -0.9661
  246MPD1    C5 3786   2.223   4.659   9.624  0.0156  0.1118  0.4872
  246MPD1     H 3787   1.953   4.605   9.363 -1.7615  1.2721  0.8940
  246MPD1    H1 3788   2.249   4.446   9.632  0.0897 -0.2846 -0.4080
  246MPD1    H2 3789   2.178   0.130   9.593 -1.5663  1.2180 -1.0059
  246MPD1    H3 3790   2.311   4.684   9.684  0.9469  2.4116 -1.8072
  246MPD1     N 3791   2.074   4.370   9.445 -0.3844 -0.0889  0.1779
  246MPD1    H5 3792   1.987   4.341   9.401  0.2354  1.7058 -2.2421
  246MPD1    N1 3793   1.970   0.116   9.430 -1.2991 -0.4877 -0.2601
  246MPD1    H6 3794   1.885   0.081   9.385 -0.5645 -2.0194 -0.4293
  246MPD1    H7 3795   1.951   0.195   9.492  0.0639  0.2611 -0.7945
  247MPD1     C 3796   3.537   2.775  16.769 -0.0068 -0.7097 -0.4277
  247MPD1    C1 3797   3.480   2.741  16.649 -0.1846 -0.4153  1.0331
  247MPD1    C2 3798   3.566   2.693  16.555 -0.3910 -1.2480  0.2251
  247MPD1    C3 3799   3.698   2.659  16.584  0.6468 -0.5608 -0.0118
  247MPD1    C4 3800   3.752   2.685  16.710 -0.0444 -0.3973  0.3386
  247MPD1    C5 3801   3.671   2.754  16.799  0.5829 -0.1523  0.0456
  247MPD1     H 3802   3.523   2.683  16.456  1.1046  0.6965 -0.6072
  247MPD1    H1 3803   3.848   2.659  16.754  0.6130  2.1416  0.3925
  247MPD1    H2 3804   3.482   2.820  16.851  0.2562 -1.3713  0.1127
  247MPD1    H3 3805   3.709   2.774  16.898 -0.6448 -2.0286  0.8960
  247MPD1     N 3806   3.796   2.604  16.499  0.2871 -0.2862 -0.6345
  247MPD1    H5 3807   3.890   2.588  16.534  0.4573 -1.1518 -1.4876
  247MPD1    N1 3808   3.347   2.762  16.617 -0.0773  0.1700 -0.8697
  247MPD1    H6 3809   3.299   2.790  16.702  0.8912 -2.2984  0.5111
  247MPD1    H7 3810   3.313   2.671  16.588 -1.4495  0.0403  1.1630
  248MPD1     C 3811   0.257   1.915  17.458 -0.7164 -0.5303 -0.3471
  248MPD1    C1 3812   0.344   2.017  17.501  0.0092 -0.3929  0.1915
  248MPD1    C2 3813   0.327   2.075  17.631  0.2754 -0.2034 -0.0570
  248MPD1    C3 3814   0.229   2.023  17.712  0.3482 -0.2496  0.1628
  248MPD1    C4 3815   0.147   1.923  17.669  0.5580 -0.4958  0.0816
  248MPD1    C5 3816   0.149   1.884  17.541 -0.1638 -0.1516 -0.3998
  248MPD1     H 3817   0.391   2.155  17.668  0.9579  0.1026 -1.8845
  248MPD1    H1 3818   0.072   1.878  17.734  0.3678 -1.2937 -0.6855
  248MPD1    H2 3819   0.244   1.880  17.356  0.4760  1.8425 -1.3143
  248MPD1    H3 3820   0.071   1.823  17.497 -0.9711  0.9505 -0.5011
  248MPD1     N 3821   0.219   2.074   0.101 -0.0274 -0.1538 -0.2950
  248MPD1    H5 3822   0.279   2.155   0.114 -0.9548  1.0055 -3.2280
  248MPD1    N1 3823   0.432   2.074  17.406  0.0877 -0.5577 -0.9140
  248MPD1    H6 3824   0.487   1.999  17.364 -1.1799 -0.7252 -2.2929
  248MPD1    H7 3825   0.495   2.138  17.452  0.5904 -1.1768 -0.7468
  249MPD1     C 3826   2.542   1.445  10.100  0.2396 -0.7379 -0.1680
  249MPD1    C1 3827   2.474   1.561  10.128  0.3974 -0.2264 -0.4251
  249MPD1    C2 3828   2.536   1.679  10.100  0.0658 -0.0932  0.2293
  249MPD1    C3 3829   2.672   1.684  10.065  0.0858 -0.6953  0.1038
  249MPD1    C4 3830   2.739   1.565  10.053 -0.0915  0.6889  0.0286
  249MPD1    C5 3831   2.668   1.450  10.056  0.0969 -0.1630 -0.4346
  249MPD1     H 3832   2.476   1.769  10.110 -0.3128 -0.4961  1.5564
  249MPD1    H1 3833   2.844   1.554  10.028 -0.9664 -1.1364 -2.7991
  249MPD1    H2 3834   2.487   1.354  10.124 -0.1428 -0.6601 -0.7586
  249MPD1    H3 3835   2.721   1.359  10.029  0.9978  1.1100 -2.9161
  249MPD1     N 3836   2.729   1.809  10.041 -0.3523  0.0517  0.0974
  249MPD1    H5 3837   2.680   1.895  10.064  0.8602  0.3752  1.4524
  249MPD1    N1 3838   2.334   1.562  10.152  0.3769 -0.1345 -0.1620
  249MPD1    H6 3839   2.300   1.646  10.198 -0.2358 -0.2967 -0.3134
  249MPD1    H7 3840   2.305   1.481  10.207  1.3569  0.0591  0.6390
  250MPD2     C 3841   2.912   1.629  13.136 -0.1624 -0.4335  0.6555
  250MPD2    C1 3842   2.884   1.746  13.069  0.4236 -0.1976  0.1988
  250MPD2    C2 3843   2.819   1.735  12.947  0.8385  0.4517  0.9140
  250MPD2    C3 3844   2.775   1.613  12.901  0.8104 -0.0610  1.1057
  250MPD2    C4 3845   2.800   1.495  12.973 -0.2040 -0.0181 -0.2104
  250MPD2    C5 3846   2.872   1.506  13.091 -0.4264 -0.0116  0.3292
  250MPD2     H 3847   2.794   1.825  12.893  0.0700 -0.3057  0.0309
  250MPD2    H1 3848   2.783   1.396  12.933  0.6987 -0.4275  0.4072
  250MPD2    H2 3849   2.974   1.634  13.224  1.0669 -2.1414 -0.1206
  250MPD2    H3 3850   2.899   1.419  13.149  0.9681 -0.0823 -0.4469
  250MPD2     N 3851   2.720   1.599  12.773 -0.0519 -0.2810  0.5766
  250MPD2    H5 3852   2.725   1.504  12.737 -2.9918  0.4230 -1.6702
  250MPD2    N1 3853   2.905   1.872  13.133 -0.1198 -0.4417  0.6842
  250MPD2    H7 3854   2.931   1.876  13.231 -0.9206 -0.6394  0.9085
  251TMC3    C1 3855   2.865   2.100  13.189  0.1159 -0.4534  0.3575
  251TMC3    C2 3856   2.790   2.212  13.160  0.0085 -0.3203  0.1888
  251TMC3    C3 3857   2.772   2.302  13.259 -0.4764 -0.1959 -0.7196
  251TMC3    C4 3858   2.922   2.079  13.314 -0.0447 -0.0389  0.3134
  251TMC3    C5 3859   2.896   2.178  13.409 -0.0116  0.0997  0.4459
  251TMC3    C6 3860   2.821   2.280  13.387  0.9711 -0.1889  0.2298
  251TMC3     C 3861   2.873   1.996  13.086  0.3583  0.4386  0.6727
  251TMC3     O 3862   2.846   2.018  12.971  0.0852  0.1449 -0.3992
  251TMC3     H 3863   2.746   2.230  13.063  0.4690  1.2175  0.2655
  251TMC3    H1 3864   2.985   1.995  13.339 -2.2374 -1.7483  0.0971
  251TMC3    H2 3865   2.819   2.365  13.455  0.5382  1.4031 -1.7827
  251TMC3    C7 3866   2.997   2.195  13.506  0.0712  0.6399 -1.1396
  251TMC3    C8 3867   2.808   2.434  13.214  0.0234  0.5060 -0.3220
  251TMC3    O1 3868   3.055   2.304  13.506  0.5923  0.1521  0.2441
  251TMC3    O2 3869   2.745   2.530  13.257 -0.2639  0.0477  0.0273
  252TMC3    C1 3870   4.127   3.027   9.682 -0.2356 -0.0186  0.1741
  252TMC3    C2 3871   4.208   3.130   9.670  0.0244  0.2112 -0.1853
  252TMC3    C3 3872   4.221   3.194   9.550 -0.0913  0.2574  0.6501
  252TMC3    C4 3873   4.063   2.968   9.569  1.0153  0.7501 -0.1690
  252TMC3    C5 3874   4.081   3.032   9.451 -0.1408  0.4724  0.3216
  252TMC3    C6 3875   4.167   3.140   9.431 -0.5750 -0.4402 -0.0668
  252TMC3     C 3876   4.103   2.984   9.818 -0.4515 -0.9343  0.0939
  252TMC3     O 3877   4.188   3.019   9.899  0.4886  0.3752 -0.0503
  252TMC3     H 3878   4.246   3.175   9.761  1.7229  0.9188 -1.2506
  252TMC3    H1 3879   4.025   2.866   9.572  1.0412  0.7547  0.4478
  252TMC3    H2 3880   4.180   3.188   9.334  2.0827 -1.2940 -0.1304
  252TMC3    C7 3881   4.018   2.980   9.336 -0.1217 -0.4651  0.5276
  252TMC3    C8 3882   4.330   3.287   9.530  0.6736 -0.0215 -0.6512
  252TMC3    O1 3883   4.074   3.007   9.233  0.4715  0.6062  0.5185
  252TMC3    O2 3884   4.395   3.300   9.428 -0.0695  0.2589  0.0459
  253MPD2     C 3885   4.696   1.756  15.266  0.5117 -0.4472  0.0476
  253MPD2    C1 3886   4.569   1.709  15.265  0.1469 -0.3909  0.0213
  253MPD2    C2 3887   4.508   1.664  15.382  0.7128  0.0771 -0.2146
  253MPD2    C3 3888   4.574   1.663  15.503  0.4276 -0.3311  0.6736
  253MPD2    C4 3889   4.703   1.714  15.503 -0.6502  0.9431 -1.4104
  253MPD2    C5 3890   0.024   1.762  15.388  0.3441  0.3917 -0.0862
  253MPD2     H 3891   4.409   1.619  15.374  1.0967 -1.0119  1.2195
  253MPD2    H1 3892   0.022   1.707  15.597  0.6894 -0.0847 -2.2711
  253MPD2    H2 3893   0.010   1.785  15.174 -1.9612 -0.5606 -1.3173
  253MPD2    H3 3894   0.130   1.787  15.389  0.1881  1.1217 -1.4290
  253MPD2     N 3895   4.512   1.613  15.625 -0.4537 -0.1240  0.0655
  253MPD2    H5 3896   4.569   1.605  15.708  2.3342 -3.3572 -2.1751
  253MPD2    N1 3897   4.493   1.700  15.147  0.0203  0.3586 -0.0830
  253MPD2    H7 3898   4.397   1.668  15.161  0.4112  0.0923  2.0073
  254TMC3    C1 3899   4.327   1.527  15.764  0.2373  0.0013 -0.5886
  254TMC3    C2 3900   4.192   1.530  15.788 -0.0780  0.2765  0.1758
  254TMC3    C3 3901   4.146   1.467  15.903  0.0446  0.3922 -0.2882
  254TMC3    C4 3902   4.420   1.487  15.863 -0.5248 -0.5816 -0.0931
  254TMC3    C5 3903   4.373   1.424  15.977 -0.0565 -0.5888  0.5165
  254TMC3    C6 3904   4.234   1.406  15.991 -0.1497 -0.4595  0.5311
  254TMC3     C 3905   4.377   1.602  15.649  0.2124 -0.1545 -0.2949
  254TMC3     O 3906   4.285   1.622  15.571  0.7817  0.9288 -0.5797
  254TMC3     H 3907   4.119   1.563  15.715  1.9058  2.4353 -0.8322
  254TMC3    H1 3908   4.524   1.478  15.836 -0.4979  0.6568 -0.4141
  254TMC3    H2 3909   4.197   1.378  16.090  0.6040  2.7595  1.7090
  254TMC3    C7 3910   4.457   1.410  16.093  0.3988 -0.5032  0.0048
  254TMC3    C8 3911   4.011   1.479  15.946  0.0921  0.3154  0.0089
  254TMC3    O1 3912   4.403   1.345  16.182  0.9570  0.4307  0.0285
  254TMC3    O2 3913   3.982   1.418  16.052 -0.8490  0.0681  0.0425
  255MPD2     C 3914   3.972   4.407   9.205  0.0135 -0.3073  0.1469
  255MPD2    C1 3915   4.076   4.466   9.276 -0.2379  0.0782  0.0435
  255MPD2    C2 3916   4.196   4.484   9.206  0.6069  0.2813 -0.5065
  255MPD2    C3 3917   4.210   4.455   9.073  0.0557 -0.3049  0.4559
  255MPD2    C4 3918   4.099   4.417   8.999 -0.3508 -0.4343 -0.5274
  255MPD2    C5 3919   3.979   4.388   9.072  0.6024 -0.0465  0.1256
  255MPD2     H 3920   4.281   4.515   9.265 -0.0519 -0.5639  0.9101
  255MPD2    H1 3921   4.095   4.407   8.891  1.3268  0.6061 -0.6915
  255MPD2    H2 3922   3.881   4.387   9.261 -0.0240  0.2219  0.2799
  255MPD2    H3 3923   3.882   4.373   9.027 -0.5862  1.9848  2.0270
  255MPD2     N 3924   4.324   4.477   8.998  0.3572  0.0370  0.6804
  255MPD2    H5 3925   4.322   4.456   8.899 -1.0647 -0.8256  0.8897
  255MPD2    N1 3926   4.045   4.494   9.413  0.2534 -0.6763 -0.2823
  255MPD2    H7 3927   3.961   4.456   9.454  0.9775 -2.2845 -0.3227
  256TMC3    C1 3928   4.064   4.599   9.616  0.6867 -0.0996 -0.0684
  256TMC3    C2 3929   4.050   4.728   9.661 -0.5219  0.0260  0.4152
  256TMC3    C3 3930   3.965   0.007   9.765  0.2073 -0.1295  0.5320
  256TMC3    C4 3931   4.000   4.487   9.673 -0.4425 -0.0214 -0.3440
  256TMC3    C5 3932   3.918   4.508   9.779  0.5272  0.1404  0.0222
  256TMC3    C6 3933   3.907   4.635   9.833  0.2102 -0.0551 -0.6052
  256TMC3     C 3934   4.126   4.584   9.485 -0.2974  0.2338  0.1580
  256TMC3     O 3935   4.220   4.659   9.452 -0.4353  0.1318 -0.0633
  256TMC3     H 3936   4.093   0.075   9.606  0.1710 -0.4460  0.2376
  256TMC3    H1 3937   4.018   4.388   9.631  1.9201  0.5371 -0.6704
  256TMC3    H2 3938   3.832   4.657   9.907 -0.7882 -3.0492 -0.7183
  256TMC3    C7 3939   3.807   4.417   9.789  0.4793 -0.4952  0.0734
  256TMC3    C8 3940   3.891   0.130   9.791  0.4187 -0.1700 -0.1746
  256TMC3    O1 3941   3.828   4.302   9.748  0.6279 -0.1939  0.3585
  256TMC3    O2 3942   3.807   0.126   9.880  0.2389  0.1325  0.5655
  257MPD2     C 3943   1.600   1.395  13.053 -0.1970 -1.1461  0.0971
  257MPD2    C1 3944   1.720   1.453  13.048 -0.1243  0.5009 -0.8681
  257MPD2    C2 3945   1.825   1.393  13.119  0.0554  0.4294 -0.0042
  257MPD2    C3 3946   1.800   1.292  13.212  1.0410  0.0777  0.1141
  257MPD2    C4 3947   1.673   1.243  13.224  0.1049  0.1309  0.7465
  257MPD2    C5 3948   1.578   1.286  13.137 -0.4139  0.0924 -0.8927
  257MPD2     H 3949   1.924   1.435  13.130  1.0523 -2.5430  2.7367
  257MPD2    H1 3950   1.660   1.154  13.285 -0.8820 -1.6265 -2.0289
  257MPD2    H2 3951   1.517   1.430  12.993 -1.7645 -1.9970  1.7703
  257MPD2    H3 3952   1.485   1.231  13.134 -1.1884  1.2622  1.2040
  257MPD2     N 3953   1.909   1.248  13.298 -0.3550  0.6446  0.2720
  257MPD2    H5 3954   2.001   1.266  13.257 -0.0576  0.2790  0.7796
  257MPD2    N1 3955   1.730   1.562  12.956  0.0926 -0.8498 -0.0186
  257MPD2    H7 3956   1.646   1.598  12.912 -0.7317 -0.3987  1.9304
  258TMC3    C1 3957   1.993   1.114  13.472 -0.3581  0.3785 -0.2423
  258TMC3    C2 3958   2.109   1.085  13.404  0.6870  0.2303  0.5386
  258TMC3    C3 3959   2.216   1.024  13.463 -0.1680 -0.4840 -0.5314
  258TMC3    C4 3960   1.983   1.071  13.604  0.4842  0.6529 -0.6056
  258TMC3    C5 3961   2.092   1.018  13.671  0.6101 -0.4514  0.3042
  258TMC3    C6 3962   2.208   1.004  13.597  0.3376  0.9273 -0.6679
  258TMC3     C 3963   1.883   1.194  13.420  0.2510  0.3231  0.1646
  258TMC3     O 3964   1.775   1.188  13.478  0.2930  0.7562 -0.0648
  258TMC3     H 3965   2.124   1.120  13.303  0.3845 -1.4241 -0.0711
  258TMC3    H1 3966   1.893   1.098  13.659  1.7120  2.7495  0.3761
  258TMC3    H2 3967   2.289   0.958  13.651 -0.2841  0.7440  0.0981
  258TMC3    C7 3968   2.090   1.044  13.818  0.2254  0.3139 -0.3317
  258TMC3    C8 3969   2.344   1.024  13.400 -0.2106  0.1708 -0.0569
  258TMC3    O1 3970   1.984   1.091  13.858 -0.2867  0.1666  0.0269
  258TMC3    O2 3971   2.438   1.020  13.476  0.2958  0.5065 -0.2305
  259MPD2     C 3972   1.066   3.460   1.129  0.1314  0.0019  0.1415
  259MPD2    C1 3973   1.000   3.345   1.094  0.6149  0.0408 -0.5058
  259MPD2    C2 3974   0.966   3.312   0.967 -0.2260  0.0735 -0.6814
  259MPD2    C3 3975   0.988   3.404   0.864 -0.7873 -0.1203  0.5671
  259MPD2    C4 3976   1.035   3.528   0.904  0.2785 -0.3172 -0.1266
  259MPD2    C5 3977   1.081   3.560   1.033  0.8424 -0.2605  0.3214
  259MPD2     H 3978   0.937   3.211   0.938 -0.4088  0.7236 -2.8298
  259MPD2    H1 3979   1.042   3.609   0.832 -1.5283 -0.7169 -0.7555
  259MPD2    H2 3980   1.101   3.495   1.225 -1.5841  1.5425  0.2094
  259MPD2    H3 3981   1.131   3.653   1.056 -1.5982  1.1841 -0.1735
  259MPD2     N 3982   0.951   3.368   0.728  0.5804 -0.0110  0.7311
  259MPD2    H5 3983   0.917   3.273   0.716 -2.2956  1.2598 -1.3866
  259MPD2    N1 3984   0.981   3.263   1.212  0.8323 -0.4948  0.5325
  259MPD2    H7 3985   0.996   3.307   1.302  0.7233  1.5593 -0.4672
  260TMC3    C1 3986   0.920   3.402   0.492  1.3637 -0.1210 -0.7697
  260TMC3    C2 3987   0.979   3.449   0.376 -0.4606  0.2665 -0.8814
  260TMC3    C3 3988   0.951   3.392   0.256 -0.6376  0.3600  0.6618
  260TMC3    C4 3989   0.827   3.295   0.484 -0.0752 -0.1472 -0.1024
  260TMC3    C5 3990   0.795   3.250   0.361 -0.4506  0.1099  0.6654
  260TMC3    C6 3991   0.855   3.296   0.248  0.8638 -0.3168 -0.6088
  260TMC3     C 3992   0.974   3.447   0.617  0.5676 -0.1632 -0.0638
  260TMC3     O 3993   1.033   3.554   0.608 -0.0079 -0.0104  0.6394
  260TMC3     H 3994   1.049   3.529   0.397  1.5286 -2.1539  1.7468
  260TMC3    H1 3995   0.780   3.257   0.575 -0.0231 -0.4319 -0.1944
  260TMC3    H2 3996   0.834   3.247   0.154  0.5910 -2.1926  0.4350
  260TMC3    C7 3997   0.759   3.108   0.342  0.8142 -0.1284  0.0156
  260TMC3    C8 3998   1.072   3.375   0.181  0.2073  0.6943  0.0202
  260TMC3    O1 3999   0.701   3.084   0.243 -0.1366 -0.3588  0.1755
  260TMC3    O2 4000   1.178   3.357   0.243  0.1105 -0.2500  0.4582
  261MPD2     C 4001   2.219   2.035  12.293  1.4636  0.2639  0.7905
  261MPD2    C1 4002   2.346   1.990  12.244 -0.5674 -0.5400  0.0250
  261MPD2    C2 4003   2.404   2.080  12.154  0.0107  0.5562  0.7023
  261MPD2    C3 4004   2.340   2.202  12.112 -0.4053  0.5785  0.3223
  261MPD2    C4 4005   2.216   2.240  12.167 -0.3854 -0.1038 -0.4102
  261MPD2    C5 4006   2.162   2.156  12.254 -0.1059 -0.2054  0.1841
  261MPD2     H 4007   2.500   2.054  12.110  0.1180  1.0067  0.6701
  261MPD2    H1 4008   2.163   2.330  12.137  0.2166  0.0149 -1.0883
  261MPD2    H2 4009   2.160   1.974  12.360 -1.7862 -0.3686 -2.6208
  261MPD2    H3 4010   2.070   2.191  12.299  0.6137  3.9879 -1.6803
  261MPD2     N 4011   2.410   2.287  12.023 -0.2799  0.4318 -0.2734
  261MPD2    H5 4012   2.509   2.267  12.008 -0.8118 -1.2919 -1.6154
  261MPD2    N1 4013   2.412   1.881  12.304  0.3765  0.0377  0.2920
  261MPD2    H7 4014   2.374   1.861  12.396  1.2444 -0.7274  0.4809
  262TMC3    C1 4015   2.448   2.470  11.870  0.5556  0.1769 -0.8858
  262TMC3    C2 4016   2.407   2.590  11.813  0.1021  0.1282 -0.0566
  262TMC3    C3 4017   2.487   2.640  11.715  0.9668  0.3509  0.3698
  262TMC3    C4 4018   2.558   2.401  11.821  0.3551 -0.6638  0.7099
  262TMC3    C5 4019   2.631   2.462  11.719  0.3656 -0.1830 -0.0044
  262TMC3    C6 4020   2.596   2.576  11.665  0.2965  0.0490 -0.5584
  262TMC3     C 4021   2.352   2.393  11.951 -0.4750  0.0421  0.0371
  262TMC3     O 4022   2.232   2.414  11.940 -0.0853 -0.4163  0.1571
  262TMC3     H 4023   2.308   2.628  11.835  0.4681  1.4761 -0.7091
  262TMC3    H1 4024   2.591   2.311  11.871 -0.2377 -0.7709  0.9143
  262TMC3    H2 4025   2.666   2.620  11.595 -0.1073 -1.2018 -1.7354
  262TMC3    C7 4026   2.729   2.394  11.639  0.6054  0.0879 -0.2066
  262TMC3    C8 4027   2.508   2.776  11.719  0.6712  0.2797 -0.1404
  262TMC3    O1 4028   2.733   2.414  11.514  0.0367  0.3080 -0.0964
  262TMC3    O2 4029   2.628   2.804  11.710  0.1629 -0.6895  0.3624
  263MPD2     C 4030   3.722   1.189  11.369  0.3255  0.2629  0.5635
  263MPD2    C1 4031   3.826   1.150  11.288  0.5548 -0.4804 -0.1955
  263MPD2    C2 4032   3.828   1.185  11.160  0.3452 -0.5085  0.1348
  263MPD2    C3 4033   3.732   1.267  11.106  0.3266  0.1944  0.5258
  263MPD2    C4 4034   3.630   1.306  11.187  0.1424  0.0432 -0.3148
  263MPD2    C5 4035   3.617   1.261  11.314 -0.9185 -0.1206 -0.1317
  263MPD2     H 4036   3.902   1.148  11.090  0.3876  1.4175 -0.8427
  263MPD2    H1 4037   3.550   1.370  11.151  2.1840  3.1695  0.6684
  263MPD2    H2 4038   3.715   1.151  11.470  0.0945  2.9141  1.5410
  263MPD2    H3 4039   3.537   1.285  11.383  0.2214 -1.0596  1.5120
  263MPD2     N 4040   3.741   1.294  10.965 -0.3132 -0.0030 -0.1210
  263MPD2    H5 4041   3.828   1.264  10.922 -1.1675 -0.1104 -1.7615
  263MPD2    N1 4042   3.929   1.064  11.344  0.4523  0.0082  0.9771
  263MPD2    H7 4043   3.931   1.051  11.445 -1.0495 -1.1073  0.8636
  264TMC3    C1 4044   3.678   1.417  10.763 -1.1081  1.0565 -0.1675
  264TMC3    C2 4045   3.630   1.538  10.735  0.2055  0.0847  0.4760
  264TMC3    C3 4046   3.687   1.605  10.633 -0.5339  0.2748  0.8337
  264TMC3    C4 4047   3.781   1.355  10.700 -0.7234  0.6035 -0.1287
  264TMC3    C5 4048   3.838   1.418  10.596 -0.7778 -0.5860  0.3604
  264TMC3    C6 4049   3.786   1.542  10.554 -0.3086 -0.1996  0.7911
  264TMC3     C 4050   3.643   1.372  10.899  0.3125 -0.2085 -0.6496
  264TMC3     O 4051   3.533   1.407  10.933  0.6318  0.1084  0.2377
  264TMC3     H 4052   3.552   1.586  10.793  0.2251  0.1292  0.4661
  264TMC3    H1 4053   3.802   1.255  10.736  2.1500  1.6594  1.1317
  264TMC3    H2 4054   3.842   1.590  10.475 -0.8051  0.7950  1.0468
  264TMC3    C7 4055   3.970   1.387  10.542  0.7469  0.2305 -0.1716
  264TMC3    C8 4056   3.707   1.746  10.634  0.2181 -0.1162 -0.8669
  264TMC3    O1 4057   4.038   1.470  10.472 -0.6293  0.3990  0.5225
  264TMC3    O2 4058   3.772   1.788  10.541 -0.1157  0.1732 -0.0110
  265MPD2     C 4059   0.744   1.018  15.602  0.5111 -0.8096  0.2299
  265MPD2    C1 4060   0.737   1.118  15.504 -0.1607  1.0023 -0.4540
  265MPD2    C2 4061   0.783   1.093  15.378 -0.0834  0.1084 -0.3453
  265MPD2    C3 4062   0.834   0.969  15.339  0.2998  0.7480 -0.0273
  265MPD2    C4 4063   0.845   0.875  15.435 -0.3199  0.1817  0.5958
  265MPD2    C5 4064   0.795   0.897  15.561 -0.6842  0.1020  0.0564
  265MPD2     H 4065   0.786   1.167  15.298 -2.5648  0.0035 -0.5157
  265MPD2    H1 4066   0.887   0.778  15.410 -0.2206 -0.2195  2.3086
  265MPD2    H2 4067   0.717   1.033  15.706  1.0765  1.7288  0.0117
  265MPD2    H3 4068   0.823   0.814  15.625  1.4546  0.1307 -0.8492
  265MPD2     N 4069   0.896   0.939  15.211  0.2552 -0.6546 -0.6585
  265MPD2    H5 4070   0.932   0.846  15.192  2.8956  0.2839 -0.1229
  265MPD2    N1 4071   0.681   1.239  15.523 -0.0118 -0.1485  0.1810
  265MPD2    H7 4072   0.700   1.306  15.449 -0.3793 -1.6882 -1.3222
  266TMC3    C1 4073   0.524   1.399  15.610 -0.0431  0.5919  1.3112
  266TMC3    C2 4074   0.454   1.447  15.718  0.1832 -0.2888 -0.2774
  266TMC3    C3 4075   0.360   1.543  15.703  0.3546  0.2065 -0.2988
  266TMC3    C4 4076   0.502   1.451  15.483  0.6500  0.0805  0.8082
  266TMC3    C5 4077   0.410   1.555  15.464 -0.4759  0.0246  0.0075
  266TMC3    C6 4078   0.333   1.593  15.577 -0.5670  0.1622  1.0545
  266TMC3     C 4079   0.596   1.279  15.628  0.3018  0.3193 -0.1778
  266TMC3     O 4080   0.560   1.211  15.727  0.1569  0.0395 -0.3999
  266TMC3     H 4081   0.455   1.394  15.813 -2.9967  1.0519  0.5136
  266TMC3    H1 4082   0.558   1.415  15.398 -0.4411 -0.6233  0.3770
  266TMC3    H2 4083   0.263   1.675  15.571 -0.2663  0.2761 -0.6867
  266TMC3    C7 4084   0.438   1.657  15.364  0.5491  0.7703  0.2615
  266TMC3    C8 4085   0.340   1.625  15.823 -0.1715  0.0769  0.5601
  266TMC3    O1 4086   0.406   1.769  15.395  0.1152 -0.1267 -0.0433
  266TMC3    O2 4087   0.236   1.689  15.821 -0.1222 -0.1812 -0.1950
  267MPD2     C 4088   2.968   3.155   0.644 -0.3079  0.2880  0.4068
  267MPD2    C1 4089   2.960   3.161   0.508 -0.4958 -0.6243 -0.0076
  267MPD2    C2 4090   2.879   3.252   0.449 -0.1787  0.3708  0.8481
  267MPD2    C3 4091   2.792   3.331   0.517  0.1573 -0.1305  0.2675
  267MPD2    C4 4092   2.799   3.324   0.656  0.5301 -0.0095  0.0863
  267MPD2    C5 4093   2.884   3.236   0.719  1.2492  0.0528 -0.8772
  267MPD2     H 4094   2.871   3.263   0.342  2.4278  0.7524  0.6908
  267MPD2    H1 4095   2.741   3.392   0.717 -1.9317 -0.0765 -2.1486
  267MPD2    H2 4096   3.022   3.081   0.702  0.4397 -0.0069 -0.6806
  267MPD2    H3 4097   2.899   3.242   0.826 -3.1111 -0.5615 -0.2468
  267MPD2     N 4098   2.704   3.424   0.459 -0.1915 -0.3985  0.5447
  267MPD2    H5 4099   2.660   3.484   0.528  1.2107  2.9530 -1.4667
  267MPD2    N1 4100   3.058   3.072   0.443  0.3182 -0.5347 -0.6187
  267MPD2    H7 4101   3.116   3.010   0.498 -1.2675 -1.7088 -0.2567
  268TMC3    C1 4102   3.202   3.016   0.261  0.3392 -0.4783 -0.0804
  268TMC3    C2 4103   3.223   3.030   0.128  0.2148  0.1634 -0.0155
  268TMC3    C3 4104   3.348   3.034   0.073 -0.3373  1.2524 -0.4029
  268TMC3    C4 4105   3.315   2.996   0.344 -0.1046 -0.2696  0.0655
  268TMC3    C5 4106   3.436   2.995   0.282  0.4180  0.2755  0.5747
  268TMC3    C6 4107   3.455   3.018   0.151  0.5000 -0.6498 -0.5851
  268TMC3     C 4108   3.082   3.081   0.306 -0.4853 -0.5558  0.6632
  268TMC3     O 4109   3.016   3.138   0.220  0.1929  0.6866  0.2512
  268TMC3     H 4110   3.137   3.036   0.062 -0.3101 -0.0157  0.6525
  268TMC3    H1 4111   3.308   2.989   0.452 -0.2305  1.9663  0.2100
  268TMC3    H2 4112   3.557   3.015   0.115  0.3087 -0.4925 -1.1468
  268TMC3    C7 4113   3.545   2.939   0.365  0.2518  0.3457 -0.0803
  268TMC3    C8 4114   3.377   3.092  17.686  0.2696 -0.5533  0.9789
  268TMC3    O1 4115   3.508   2.866   0.459 -0.4857 -0.5989  0.7716
  268TMC3    O2 4116   3.495   3.123  17.667 -0.1091  0.6170  0.1081
  269MPD2     C 4117   3.256   1.803  15.750  0.3094 -0.3591  0.1789
  269MPD2    C1 4118   3.250   1.799  15.889 -0.8742 -0.4708  0.3197
  269MPD2    C2 4119   3.262   1.915  15.966 -0.5486  0.8226  1.0255
  269MPD2    C3 4120   3.279   2.030  15.901 -0.0104  0.5716 -0.7556
  269MPD2    C4 4121   3.297   2.032  15.763  0.1666 -0.1920 -0.0029
  269MPD2    C5 4122   3.289   1.918  15.684  0.0724 -0.0917 -0.3207
  269MPD2     H 4123   3.224   1.916  16.067 -0.6563  4.3830  0.9359
  269MPD2    H1 4124   3.343   2.117  15.713  0.1557 -1.4594 -2.1490
  269MPD2    H2 4125   3.236   1.717  15.687 -3.4139  0.9013 -0.3828
  269MPD2    H3 4126   3.303   1.925  15.577  0.4662  1.9251 -0.1419
  269MPD2     N 4127   3.288   2.146  15.980 -0.4016  0.2577  0.5112
  269MPD2    H5 4128   3.254   2.133  16.074 -1.9355  0.2414 -0.0432
  269MPD2    N1 4129   3.218   1.673  15.947 -0.6973  0.0906  0.1371
  269MPD2    H7 4130   3.194   1.595  15.886 -0.0428  1.1396 -1.4681
  270TMC3    C1 4131   3.242   1.492  16.065 -0.8128 -1.4379  0.3440
  270TMC3    C2 4132   3.146   1.439  15.983  0.0786 -0.4639  0.7483
  270TMC3    C3 4133   3.176   1.328  15.915  0.0300 -1.0894 -0.5284
  270TMC3    C4 4134   3.357   1.427  16.085  0.4397 -0.2508  0.2846
  270TMC3    C5 4135   3.389   1.316  16.015 -0.0109 -1.2221 -0.1836
  270TMC3    C6 4136   3.289   1.266  15.939  0.5921 -0.2455 -0.6302
  270TMC3     C 4137   3.250   1.635  16.071 -0.2567 -0.4228  0.3676
  270TMC3     O 4138   3.309   1.696  16.162  0.2536  0.1938  0.1080
  270TMC3     H 4139   3.057   1.501  15.974  1.1949  1.1964  1.2841
  270TMC3    H1 4140   3.438   1.473  16.141  0.8043 -0.8196  0.2328
  270TMC3    H2 4141   3.322   1.184  15.876 -0.6878 -1.7595  0.6410
  270TMC3    C7 4142   3.523   1.306  15.959  0.3481  0.2708  0.3093
  270TMC3    C8 4143   3.173   1.356  15.765 -0.0259 -0.0801 -0.2053
  270TMC3    O1 4144   3.600   1.222  16.001 -0.4358 -0.5016 -0.1567
  270TMC3    O2 4145   3.186   1.471  15.732 -0.1051 -0.6190 -0.1307
  271MPD2     C 4146   2.741   1.530  13.959 -0.0679 -0.4592  0.4447
  271MPD2    C1 4147   2.684   1.583  14.073 -0.6456  0.4935 -0.1200
  271MPD2    C2 4148   2.566   1.656  14.063  1.1943  0.3933  0.6680
  271MPD2    C3 4149   2.503   1.674  13.943  0.2582 -0.2033  0.2439
  271MPD2    C4 4150   2.570   1.633  13.827 -0.5899 -0.5437  0.2126
  271MPD2    C5 4151   2.686   1.566  13.837  0.3403 -0.2461  0.6255
  271MPD2     H 4152   2.527   1.697  14.155 -0.7346 -4.1088  1.8814
  271MPD2    H1 4153   2.528   1.654  13.729 -0.3435  0.2792  0.2845
  271MPD2    H2 4154   2.828   1.466  13.954  1.1519  1.2311  0.1573
  271MPD2    H3 4155   2.737   1.523  13.751  0.6293 -0.9301  1.1350
  271MPD2     N 4156   2.382   1.745  13.925  0.1377  0.0645 -0.0914
  271MPD2    H5 4157   2.349   1.742  13.830  0.0488 -0.5783 -0.0428
  271MPD2    N1 4158   2.741   1.574  14.198 -0.1409 -0.4736  0.2640
  271MPD2    H7 4159   2.702   1.630  14.273 -1.2981  0.3009 -0.9110
  272TMC3    C1 4160   2.909   1.526  14.363  0.8848  0.1416  0.5087
  272TMC3    C2 4161   3.039   1.503  14.392 -0.1774  0.2015 -0.4539
  272TMC3    C3 4162   3.073   1.483  14.527  0.2546 -0.0669 -0.7413
  272TMC3    C4 4163   2.812   1.524  14.463  0.0314  0.5652  0.2669
  272TMC3    C5 4164   2.851   1.517  14.595 -0.0724  0.8651  0.1283
  272TMC3    C6 4165   2.981   1.493  14.624  0.5216 -0.2929 -0.1712
  272TMC3     C 4166   2.862   1.504  14.226 -0.3957 -0.1529  0.1847
  272TMC3     O 4167   2.934   1.433  14.159  0.4222 -0.4838  0.1193
  272TMC3     H 4168   3.102   1.487  14.305  1.7748  0.8321  0.8330
  272TMC3    H1 4169   2.706   1.529  14.438  0.0654 -0.2870 -0.0331
  272TMC3    H2 4170   3.021   1.464  14.721 -0.2645  0.8256  0.4849
  272TMC3    C7 4171   2.781   1.612  14.672  0.0677  0.1649 -0.2136
  272TMC3    C8 4172   3.166   1.378  14.544 -0.0293  0.2034  0.4442
  272TMC3    O1 4173   2.674   1.647  14.635 -0.4036 -0.1533  0.2129
  272TMC3    O2 4174   3.188   1.309  14.448  0.0189  0.1343 -0.2163
  273MPD2     C 4175   0.144   4.438  11.181 -0.2388 -0.2837  0.4567
  273MPD2    C1 4176   0.166   4.530  11.275  0.0469  0.2551  0.4992
  273MPD2    C2 4177   0.194   4.664  11.241 -0.7856 -0.0711 -0.0914
  273MPD2    C3 4178   0.194   4.700  11.108  0.0030  0.6950 -0.0546
  273MPD2    C4 4179   0.173   4.606  11.011 -0.2086  0.4022 -1.1153
  273MPD2    C5 4180   0.145   4.470  11.047 -0.7191  0.0592  1.0741
  273MPD2     H 4181   0.221   0.004  11.314 -1.1213 -0.7284  0.7177
  273MPD2    H1 4182   0.190   4.632  10.907  1.0890  0.7789 -0.7956
  273MPD2    H2 4183   0.107   4.341  11.213 -0.3492 -0.7895 -1.1679
  273MPD2    H3 4184   0.110   4.398  10.974  1.9640  1.1219 -1.2396
  273MPD2     N 4185   0.229   0.092  11.058 -0.4359 -0.5465 -0.2276
  273MPD2    H5 4186   0.211   0.104  10.959 -1.6993 -0.2076  0.0517
  273MPD2    N1 4187   0.155   4.483  11.410  0.4062 -0.2233  0.4073
  273MPD2    H7 4188   0.154   4.382  11.419 -3.5976 -0.2473 -0.0341
  274TMC3    C1 4189   0.309   0.305  11.059 -0.8339  1.3507 -0.0355
  274TMC3    C2 4190   0.293   0.295  10.918 -0.5084 -0.2251 -0.8564
  274TMC3    C3 4191   0.264   0.409  10.848 -0.8991 -0.1575  0.4505
  274TMC3    C4 4192   0.283   0.423  11.116  0.4159 -0.3291  0.0437
  274TMC3    C5 4193   0.259   0.536  11.043  0.0320  0.3634  0.5884
  274TMC3    C6 4194   0.238   0.528  10.910 -0.5359 -0.4321 -0.1343
  274TMC3     C 4195   0.276   0.193  11.132 -0.2896 -0.2154 -0.2388
  274TMC3     O 4196   0.267   0.214  11.253 -0.2978  0.4660 -0.0907
  274TMC3     H 4197   0.313   0.211  10.853  0.5079 -0.4366 -0.2753
  274TMC3    H1 4198   0.262   0.447  11.220  4.2728  0.4485  0.6226
  274TMC3    H2 4199   0.234   0.614  10.844 -0.1147 -0.2376  0.0960
  274TMC3    C7 4200   0.171   0.628  11.109 -0.5751 -0.1938  0.2998
  274TMC3    C8 4201   0.217   0.394  10.713 -0.4276 -0.0140 -0.2652
  274TMC3    O1 4202   0.093   0.577  11.187  0.0526 -0.2835  0.2672
  274TMC3    O2 4203   0.171   0.282  10.684  0.2776  0.2278  0.1659
  275MPD2     C 4204   3.874   3.032  14.982  0.5726 -0.9199 -0.0998
  275MPD2    C1 4205   3.908   2.911  14.940 -0.1145  0.0457  0.2220
  275MPD2    C2 4206   3.812   2.842  14.872  0.2077 -0.1887  0.6839
  275MPD2    C3 4207   3.684   2.898  14.852 -0.4202  0.5790  0.8994
  275MPD2    C4 4208   3.655   3.026  14.898 -0.7128  0.3156 -0.1063
  275MPD2    C5 4209   3.748   3.092  14.969 -0.2292 -0.0066 -0.5140
  275MPD2     H 4210   3.838   2.743  14.837 -3.0595 -0.7718 -0.1202
  275MPD2    H1 4211   3.556   3.067  14.906 -0.9811 -0.4472  0.4785
  275MPD2    H2 4212   3.943   3.092  15.041 -1.4993  1.5462 -0.2015
  275MPD2    H3 4213   3.727   3.177  15.033  0.5405  0.9278 -1.5001
  275MPD2     N 4214   3.573   2.822  14.798  0.6689  0.4915  0.2116
  275MPD2    H5 4215   3.486   2.873  14.784 -0.1957 -0.8645  0.6669
  275MPD2    N1 4216   4.035   2.854  14.953 -0.4774 -0.6500  0.0904
  275MPD2    H7 4217   4.045   2.759  14.918  1.2978 -0.8540  1.2013
  276TMC3    C1 4218   4.271   2.861  15.002  0.3630  0.5087  0.2529
  276TMC3    C2 4219   4.305   2.798  14.884 -0.3307 -0.3204 -0.2182
  276TMC3    C3 4220   4.433   2.772  14.864  0.8477 -0.0567 -0.1209
  276TMC3    C4 4221   4.361   2.881  15.107  1.1232  0.8323 -0.0514
  276TMC3    C5 4222   4.481   2.818  15.089 -0.0985  0.4939  0.1550
  276TMC3    C6 4223   4.525   2.772  14.969 -0.4966  0.1816  0.6301
  276TMC3     C 4224   4.138   2.916  15.016 -0.5521  0.1213  0.4742
  276TMC3     O 4225   4.137   3.004  15.102  0.0894  0.6516 -0.7274
  276TMC3     H 4226   4.229   2.796  14.807  0.0150  2.3913 -0.6582
  276TMC3    H1 4227   4.322   2.934  15.193  1.4255 -1.4613  1.5112
  276TMC3    H2 4228   4.624   2.728  14.959 -0.6824 -0.7417  2.8090
  276TMC3    C7 4229   4.566   2.817  15.210  0.2333  0.0832 -0.8439
  276TMC3    C8 4230   4.468   2.678  14.763  0.2808  0.1495 -0.1701
  276TMC3    O1 4231   4.515   2.846  15.315 -0.1392 -0.1813  0.0466
  276TMC3    O2 4232   4.583   2.689  14.721  0.6401 -0.0663 -0.3500
  277MPD2     C 4233   1.184   1.479  12.821 -0.0706 -0.0983 -0.0594
  277MPD2    C1 4234   1.118   1.537  12.919 -0.0110 -0.3219 -0.8196
  277MPD2    C2 4235   1.140   1.494  13.042 -0.1174 -0.2735 -0.1405
  277MPD2    C3 4236   1.198   1.367  13.063 -0.3590 -1.3047  0.3542
  277MPD2    C4 4237   1.234   1.290  12.953  0.4656  0.0333  0.5866
  277MPD2    C5 4238   1.226   1.346  12.831 -0.2998 -0.5255 -0.3826
  277MPD2     H 4239   1.105   1.552  13.127 -2.0877 -0.5535 -0.7479
  277MPD2    H1 4240   1.283   1.194  12.963  1.7910  0.5855 -0.5482
  277MPD2    H2 4241   1.196   1.518  12.721 -0.1817 -1.3390 -0.5621
  277MPD2    H3 4242   1.270   1.298  12.745  2.6903  0.4107  0.6191
  277MPD2     N 4243   1.187   1.328  13.199  0.0783  0.5060 -0.5919
  277MPD2    H5 4244   1.145   1.397  13.260 -1.5897  0.8728 -2.1440
  277MPD2    N1 4245   1.043   1.649  12.903 -0.2879  0.6786  0.1186
  277MPD2    H7 4246   1.048   1.677  12.805 -0.6938 -1.4640 -0.5209
  278TMC3    C1 4247   1.174   1.181  13.386  0.7598  0.2192 -0.5400
  278TMC3    C2 4248   1.091   1.071  13.410  0.1655  0.1291 -0.4797
  278TMC3    C3 4249   0.989   1.092  13.500  0.1770  0.3161  0.3247
  278TMC3    C4 4250   1.164   1.295  13.461  0.4601  0.4428 -0.5538
  278TMC3    C5 4251   1.057   1.315  13.553  0.0990 -0.1722 -0.5063
  278TMC3    C6 4252   0.968   1.210  13.569 -0.1813  0.6354 -0.1228
  278TMC3     C 4253   1.212   1.198  13.245 -0.4136 -0.5804 -0.5262
  278TMC3     O 4254   1.251   1.101  13.177 -0.0250 -0.5712 -0.1146
  278TMC3     H 4255   1.105   0.982  13.350  1.2158 -0.6108  0.8708
  278TMC3    H1 4256   1.218   1.387  13.440  0.6097  1.0038  2.2533
  278TMC3    H2 4257   0.890   1.219  13.645  1.1361 -0.6783  1.3901
  278TMC3    C7 4258   0.985   1.429  13.505 -0.0543  0.1335 -0.3421
  278TMC3    C8 4259   0.878   0.998  13.493 -0.0470  0.0534  0.0656
  278TMC3    O1 4260   1.022   1.465  13.394  0.4452  0.1610  0.4023
  278TMC3    O2 4261   0.811   0.982  13.593 -0.1829 -0.0811 -0.6154
  279MPD2     C 4262   0.054   1.125   0.334  0.6412  0.6949 -0.2652
  279MPD2    C1 4263   0.051   1.257   0.309  0.1597 -0.3452  0.1316
  279MPD2    C2 4264   0.134   1.294   0.204 -0.1259 -0.2301 -0.2901
  279MPD2    C3 4265   0.230   1.205   0.152  0.5835  0.5971  0.0483
  279MPD2    C4 4266   0.206   1.070   0.172  0.0554 -0.5551 -0.1865
  279MPD2    C5 4267   0.129   1.033   0.274  0.0130  0.1849 -0.1754
  279MPD2     H 4268   0.133   1.395   0.166 -1.3840  0.5645  1.8734
  279MPD2    H1 4269   0.265   0.986   0.138 -1.1107 -1.8190  0.8884
  279MPD2    H2 4270   4.726   1.086   0.413 -1.8044 -1.5538 -3.3606
  279MPD2    H3 4271   0.112   0.938   0.322  0.7652 -0.3219 -0.9198
  279MPD2     N 4272   0.332   1.251   0.068  0.6846  0.8153  0.1007
  279MPD2    H5 4273   0.333   1.348   0.037 -2.3507  1.3839  1.8543
  279MPD2    N1 4274   4.691   1.325   0.383  0.7999  0.5728  0.2201
  279MPD2    H7 4275   4.648   1.260   0.447 -2.9578  1.1601 -1.7222
  280TMC3    C1 4276   4.546   1.504   0.438  0.0357  0.0027 -0.1536
  280TMC3    C2 4277   4.444   1.409   0.450  0.4941  0.3989 -0.0193
  280TMC3    C3 4278   4.319   1.459   0.487 -0.0274 -0.1225 -0.6572
  280TMC3    C4 4279   4.524   1.639   0.422  0.0435 -0.1309 -0.5538
  280TMC3    C5 4280   4.391   1.679   0.450 -0.4679 -0.2134 -0.9749
  280TMC3    C6 4281   4.295   1.593   0.494  0.4540  0.0321  0.1728
  280TMC3     C 4282   4.662   1.456   0.369 -0.4414 -0.0711  0.4481
  280TMC3     O 4283   4.724   1.530   0.300 -0.5102 -0.2067  0.2392
  280TMC3     H 4284   4.457   1.301   0.449 -1.1766  0.1886 -1.9743
  280TMC3    H1 4285   4.600   1.708   0.389 -0.6658  0.7866 -0.3044
  280TMC3    H2 4286   4.199   1.636   0.521  0.1180 -0.7797  0.2803
  280TMC3    C7 4287   4.355   1.819   0.440 -0.1337 -0.6839  0.6838
  280TMC3    C8 4288   4.201   1.382   0.447  0.1923  1.0764 -0.3331
  280TMC3    O1 4289   4.236   1.846   0.433  0.4525 -0.3779  0.0559
  280TMC3    O2 4290   4.095   1.435   0.465  0.4481  0.1449  0.3127
  281TMC3    C1 4291   3.723   2.510  13.956  0.1653 -0.1847  0.6289
  281TMC3    C2 4292   3.603   2.467  13.900 -0.4635 -0.0718 -0.2213
  281TMC3    C3 4293   3.572   2.327  13.913 -0.8086  0.0191  0.2385
  281TMC3    C4 4294   3.799   2.416  14.025  0.6220 -0.2234  0.3801
  281TMC3    C5 4295   3.772   2.281  14.018  0.5335 -0.0425 -0.1680
  281TMC3    C6 4296   3.659   2.229  13.955  0.1515  0.0135  0.2853
  281TMC3     C 4297   3.802   2.590  13.870  0.0642 -0.3022  0.1900
  281TMC3     O 4298   3.915   2.553  13.858  0.4514 -0.3752  0.2163
  281TMC3     H 4299   3.535   2.534  13.848  0.9264  2.3134  1.0574
  281TMC3    H1 4300   3.900   2.437  14.058 -0.1442  0.4228  2.3104
  281TMC3    H2 4301   3.657   2.121  13.951 -0.9943  0.0972 -1.5497
  281TMC3    C7 4302   3.853   2.189  14.089 -0.6612 -0.3566  0.6631
  281TMC3    C8 4303   3.441   2.283  13.863  0.1319 -0.2521 -0.3924
  281TMC3    O1 4304   3.851   2.075  14.045  0.3611  0.2357 -0.2955
  281TMC3    O2 4305   3.372   2.368  13.811  0.0199 -0.1848  0.1388
  282MPD2     C 4306   0.951   3.191  15.218  0.2425  0.8191  0.3490
  282MPD2    C1 4307   0.904   3.302  15.291 -0.1298  0.1698 -0.3257
  282MPD2    C2 4308   0.840   3.405  15.219  0.7635 -0.5718  0.3621
  282MPD2    C3 4309   0.810   3.392  15.087 -0.2814 -1.4469 -0.0941
  282MPD2    C4 4310   0.868   3.281  15.016  0.7120 -0.7436  0.0879
  282MPD2    C5 4311   0.946   3.188  15.082  0.3851 -0.0551 -0.9377
  282MPD2     H 4312   0.804   3.495  15.267 -0.5409 -1.5937  1.2901
  282MPD2    H1 4313   0.862   3.265  14.909 -0.1000  0.8486 -0.1063
  282MPD2    H2 4314   0.992   3.105  15.270  0.3150  0.8777  0.3882
  282MPD2    H3 4315   1.011   3.126  15.022 -1.1701 -0.3105 -2.3587
  282MPD2     N 4316   0.721   3.484  15.024 -0.8287 -0.2911  0.1047
  282MPD2    H5 4317   0.686   3.559  15.084  0.8299  1.6186 -1.3032
  282MPD2    N1 4318   0.905   3.307  15.429 -0.2789  0.1988 -0.5085
  282MPD2    H7 4319   0.858   3.380  15.482  0.3408 -0.5272  1.0303
  283TMC3    C1 4320   0.885   3.236  15.651  0.3589 -0.8871 -0.1687
  283TMC3    C2 4321   0.901   3.364  15.689  0.0324 -0.7169  1.0768
  283TMC3    C3 4322   0.847   3.405  15.812  0.2902  0.3050 -0.1447
  283TMC3    C4 4323   0.801   3.149  15.715  0.1929 -0.4150  0.4139
  283TMC3    C5 4324   0.731   3.193  15.827 -0.4188 -0.5682 -0.4849
  283TMC3    C6 4325   0.765   3.316  15.884 -0.8519  0.2758 -0.3613
  283TMC3     C 4326   0.936   3.206  15.512  0.9129 -0.1745  0.4091
  283TMC3     O 4327   0.966   3.090  15.484  0.0623 -0.5271  0.7477
  283TMC3     H 4328   0.973   3.431  15.642 -0.4424 -2.6591 -2.3624
  283TMC3    H1 4329   0.768   3.065  15.655  0.6218 -0.5900  0.4217
  283TMC3    H2 4330   0.714   3.342  15.976  0.2475 -0.7113  0.5284
  283TMC3    C7 4331   0.634   3.109  15.896  0.0361  0.1189 -0.0304
  283TMC3    C8 4332   0.848   3.540  15.848  0.4604  0.4439 -0.4543
  283TMC3    O1 4333   0.550   3.164  15.964  0.4692 -0.1750 -0.3942
  283TMC3    O2 4334   0.847   3.558  15.970 -0.3193 -0.1610  0.5185
  284MPD2     C 4335   4.159   2.453  12.138  0.2639  0.0536 -0.3454
  284MPD2    C1 4336   4.250   2.501  12.047  0.5416 -0.8027  0.1625
  284MPD2    C2 4337   4.366   2.428  12.025  0.6462 -0.3287  0.1924
  284MPD2    C3 4338   4.396   2.316  12.102  0.1917  0.2266 -0.5145
  284MPD2    C4 4339   4.309   2.265  12.191  0.7382  0.5587  0.1501
  284MPD2    C5 4340   4.188   2.334  12.196  0.6654 -0.0486  0.1158
  284MPD2     H 4341   4.434   2.468  11.950 -1.0098 -0.3296 -1.2988
  284MPD2    H1 4342   4.343   2.176  12.243  1.1184  0.2101 -0.6936
  284MPD2    H2 4343   4.057   2.492  12.140 -0.6674 -2.3344 -1.4146
  284MPD2    H3 4344   4.111   2.290  12.260  1.5596  0.3411  1.4511
  284MPD2     N 4345   4.515   2.248  12.080  0.8300 -0.7271  0.0115
  284MPD2    H5 4346   4.519   2.150  12.107 -0.0693 -0.3603  1.4771
  284MPD2    N1 4347   4.235   2.608  11.952 -0.2119  0.2446 -0.3774
  284MPD2    H7 4348   4.317   2.629  11.897 -0.4344 -0.8052 -1.0969
  285TMC3    C1 4349   4.120   2.738  11.801 -1.0364  0.4241 -0.2443
  285TMC3    C2 4350   4.226   2.720  11.716  0.2013  0.3285 -0.2233
  285TMC3    C3 4351   4.215   2.790  11.600  0.2312 -0.2603  0.0778
  285TMC3    C4 4352   4.023   2.837  11.786  0.5059  0.6429 -0.4239
  285TMC3    C5 4353   4.034   2.910  11.670 -0.1751  0.9543 -0.4266
  285TMC3    C6 4354   4.121   2.882  11.571 -0.1924 -0.1907 -0.0199
  285TMC3     C 4355   4.114   2.668  11.927  0.4656  0.1592 -0.1847
  285TMC3     O 4356   4.005   2.648  11.973  0.9239 -0.1166 -0.9227
  285TMC3     H 4357   4.305   2.647  11.726  0.1940  0.1847 -1.1993
  285TMC3    H1 4358   3.948   2.857  11.862 -1.1132  0.8683 -2.0663
  285TMC3    H2 4359   4.125   2.931  11.475 -2.0167 -1.5677 -0.8089
  285TMC3    C7 4360   3.960   3.034  11.657  0.1272  0.6274  0.6824
  285TMC3    C8 4361   4.330   2.790  11.515  0.4519  0.0937 -0.5276
  285TMC3    O1 4362   3.851   3.053  11.713 -0.0974  0.3689  0.4006
  285TMC3    O2 4363   4.437   2.757  11.572  0.0911  0.2232  0.1725
  286MPD2     C 4364   3.954   1.755   1.470 -0.1993 -0.2850 -0.8202
  286MPD2    C1 4365   3.900   1.678   1.372 -0.7079 -1.2229  0.2414
  286MPD2    C2 4366   3.897   1.544   1.396 -0.8392  0.6880 -0.0124
  286MPD2    C3 4367   3.939   1.481   1.518 -0.5112 -0.1036  0.5128
  286MPD2    C4 4368   3.988   1.566   1.622  0.0372  0.5840 -0.0605
  286MPD2    C5 4369   4.001   1.698   1.586 -0.0892  0.4399 -0.9730
  286MPD2     H 4370   3.851   1.493   1.312  0.3189 -1.0367  0.4028
  286MPD2    H1 4371   4.018   1.523   1.717  0.6572 -1.7244 -1.3064
  286MPD2    H2 4372   3.959   1.862   1.453 -0.3256 -0.0916  0.4151
  286MPD2    H3 4373   4.038   1.772   1.655 -0.9489 -1.9592  2.0820
  286MPD2     N 4374   3.951   1.341   1.530 -0.2171  0.1702  0.1555
  286MPD2    H5 4375   3.967   1.297   1.620 -1.2574  0.5959  0.5489
  286MPD2    N1 4376   3.853   1.732   1.248  0.2334 -0.6308 -0.3997
  286MPD2    H7 4377   3.806   1.672   1.181 -0.1363 -0.2026 -0.5299
  287TMC3    C1 4378   3.982   1.117   1.454 -0.1176 -0.4450 -0.0880
  287TMC3    C2 4379   3.987   1.042   1.341  0.0533 -0.6607 -0.6698
  287TMC3    C3 4380   4.081   0.945   1.324 -0.0820  0.4380  0.4389
  287TMC3    C4 4381   4.075   1.098   1.560  0.1241 -0.0771  0.8557
  287TMC3    C5 4382   4.162   0.992   1.545  0.4864 -0.4075  0.3489
  287TMC3    C6 4383   4.160   0.916   1.429 -0.0572  0.2990 -0.4988
  287TMC3     C 4384   3.940   1.253   1.427 -0.1808  0.0278  0.0597
  287TMC3     O 4385   3.902   1.278   1.313 -0.0643  0.2371 -0.3002
  287TMC3     H 4386   3.899   1.052   1.279 -1.4387  2.3573  1.8710
  287TMC3    H1 4387   4.083   1.160   1.648 -2.3988  3.1180 -1.1419
  287TMC3    H2 4388   4.238   0.841   1.420  0.6360  1.0050 -0.3090
  287TMC3    C7 4389   4.258   0.970   1.649 -0.1352  0.1975  1.0150
  287TMC3    C8 4390   4.081   0.865   1.199  0.1329  0.1866  0.2651
  287TMC3    O1 4391   4.239   1.023   1.759 -0.0521 -0.0036 -0.1162
  287TMC3    O2 4392   4.139   0.758   1.205 -0.6574  0.3662  0.0585
  288TMC3    C1 4393   1.275   0.915  14.346  0.5249 -0.3646  0.5977
  288TMC3    C2 4394   1.162   0.908  14.420  0.0969  0.0873  0.1239
  288TMC3    C3 4395   1.047   0.959  14.371 -0.1201 -0.5871 -0.2800
  288TMC3    C4 4396   1.277   0.986  14.230 -0.1874  0.1638 -0.4570
  288TMC3    C5 4397   1.170   1.058  14.202 -0.2195  0.2776 -0.2277
  288TMC3    C6 4398   1.052   1.045  14.276 -0.0010 -0.8982 -0.4924
  288TMC3     C 4399   1.389   0.867  14.406  0.8213 -0.4605  0.2670
  288TMC3     O 4400   1.374   0.771  14.480 -0.7083  0.2653 -0.1144
  288TMC3     H 4401   1.157   0.847  14.509  3.0690 -1.0512 -0.4684
  288TMC3    H1 4402   1.368   0.984  14.171  0.3640  0.0970  0.3905
  288TMC3    H2 4403   0.966   1.095  14.233  0.9997  0.8899 -0.3863
  288TMC3    C7 4404   1.178   1.172  14.111 -0.7905  0.0826  0.7445
  288TMC3    C8 4405   0.938   0.981  14.458 -0.3247 -0.3868 -0.4518
  288TMC3    O1 4406   1.065   1.211  14.085 -0.0564 -0.0395 -0.4316
  288TMC3    O2 4407   0.899   1.094  14.478 -0.2613 -0.5761 -0.0015
  289MPD2     C 4408   1.218   0.142  14.586  0.4042  0.7330 -0.6742
  289MPD2    C1 4409   1.232   0.207  14.458 -0.0916 -0.4489 -0.4702
  289MPD2    C2 4410   1.132   0.188  14.357 -1.0978 -0.2312 -0.2686
  289MPD2    C3 4411   1.020   0.110  14.381 -0.2281 -0.4000 -0.6905
  289MPD2    C4 4412   1.007   0.048  14.504 -0.0804  0.6274  0.2564
  289MPD2    C5 4413   1.107   0.057  14.597  0.5393  0.1962  0.7905
  289MPD2     H 4414   1.149   0.240  14.264 -0.9354 -0.6171 -0.4531
  289MPD2    H1 4415   0.919   4.726  14.527  0.0890  0.1056 -0.3837
  289MPD2    H2 4416   1.284   0.151  14.671 -1.2717  2.0807  0.4909
  289MPD2    H3 4417   1.092   0.002  14.688  0.0215 -2.9866 -1.2130
  289MPD2     N 4418   0.911   0.093  14.288  0.2399  0.1849 -0.5330
  289MPD2    H5 4419   0.838   0.030  14.319 -0.0181  0.8503  0.2002
  289MPD2    N1 4420   1.345   0.288  14.445 -0.4399  0.4194 -0.0660
  289MPD2    H7 4421   1.402   0.307  14.527 -1.4920  1.9976  0.3142
  290TMC3    C1 4422   0.765   0.144  14.105 -0.6016 -0.2903  0.5585
  290TMC3    C2 4423   0.758   0.213  13.987  0.3715  0.9185  0.3376
  290TMC3    C3 4424   0.641   0.195  13.917  0.3540 -0.0636  0.1707
  290TMC3    C4 4425   0.680   0.047  14.148  0.2000  0.6625  0.5789
  290TMC3    C5 4426   0.570   0.028  14.068  0.6502  0.2074 -0.3825
  290TMC3    C6 4427   0.549   0.097  13.955  0.8915 -0.3888  0.0712
  290TMC3     C 4428   0.894   0.160  14.170 -0.5156  0.0138  0.6747
  290TMC3     O 4429   0.967   0.235  14.109 -0.2346 -0.1621  0.6093
  290TMC3     H 4430   0.821   0.296  13.958  3.6155 -1.6037  0.2699
  290TMC3    H1 4431   0.702   4.714  14.229  0.9392 -0.2594 -0.4047
  290TMC3    H2 4432   0.454   0.081  13.905  1.1379 -0.1047 -0.4902
  290TMC3    C7 4433   0.465   4.670  14.089 -0.1766  1.7416 -0.1201
  290TMC3    C8 4434   0.598   0.299  13.828 -0.0628 -0.4474  0.1786
  290TMC3    O1 4435   0.352   4.701  14.050 -0.0083  0.2768 -0.0702
  290TMC3    O2 4436   0.503   0.273  13.754 -0.1513  0.3587  0.8994
  291MPD2     C 4437   0.105   0.017   0.260  0.2454  0.0123  0.1825
  291MPD2    C1 4438   0.228   4.698   0.263  0.9362  0.0348  0.9356
  291MPD2    C2 4439   0.329   0.034   0.322  0.5277  0.0530  0.3192
  291MPD2    C3 4440   0.305   0.145   0.391 -0.0864 -0.5591  1.0708
  291MPD2    C4 4441   0.175   0.189   0.400  0.2046  0.2737 -0.0580
  291MPD2    C5 4442   0.079   0.130   0.327 -0.4588  0.3505 -0.7187
  291MPD2     H 4443   0.431   4.736   0.315  0.3477 -0.2325 -0.8463
  291MPD2    H1 4444   0.145   0.279   0.452 -1.2014 -0.1736 -0.1145
  291MPD2    H2 4445   0.025   4.697   0.213 -0.7616 -0.5268  2.5693
  291MPD2    H3 4446   4.713   0.168   0.320 -0.7854 -0.3283  0.3257
  291MPD2     N 4447   0.397   0.226   0.456 -0.3097  0.2611 -0.6553
  291MPD2    H5 4448   0.361   0.316   0.486 -0.2259  0.0119  0.1810
  291MPD2    N1 4449   0.255   4.571   0.206  0.1463 -0.1963 -0.1902
  291MPD2    H7 4450   0.350   4.540   0.223  0.4098 -0.3535 -1.8895
  292TMC3    C1 4451   0.205   4.345   0.159  0.0284 -0.5396 -0.2972
  292TMC3    C2 4452   0.280   4.302   0.268  0.1151  0.0973 -0.6948
  292TMC3    C3 4453   0.341   4.181   0.243 -0.5242  0.2896 -0.0929
  292TMC3    C4 4454   0.186   4.288   0.039  0.6326  0.8668  0.2529
  292TMC3    C5 4455   0.248   4.164   0.023  0.0343  0.0097 -0.8514
  292TMC3    C6 4456   0.326   4.119   0.123  0.6288 -0.8429  0.3064
  292TMC3     C 4457   0.169   4.485   0.145  0.1273  0.0747 -0.2811
  292TMC3     O 4458   0.072   4.513   0.072  0.7697 -0.5304 -0.0121
  292TMC3     H 4459   0.292   4.351   0.364  1.2329 -1.8633  0.1549
  292TMC3    H1 4460   0.121   4.327  17.704 -0.1795 -0.1766  0.4025
  292TMC3    H2 4461   0.380   4.025   0.114  0.6601 -0.7279 -0.7497
  292TMC3    C7 4462   0.237   4.087  17.643 -0.4582  0.0311 -0.0011
  292TMC3    C8 4463   0.411   4.118   0.347  0.4643 -0.2418 -0.1460
  292TMC3    O1 4464   0.317   3.996  17.627 -0.3337 -0.3836  0.0373
  292TMC3    O2 4465   0.491   4.029   0.322 -0.0151  0.2223  0.0762
  293MPD2     C 4466   2.305   1.449  12.559  0.7705  0.6430  0.4082
  293MPD2    C1 4467   2.183   1.502  12.600 -0.2388  0.1280 -0.4532
  293MPD2    C2 4468   2.160   1.534  12.730  1.1569 -0.2156 -0.1101
  293MPD2    C3 4469   2.256   1.517  12.822  0.7625  0.2732  0.2380
  293MPD2    C4 4470   2.375   1.455  12.788  0.2009 -0.5695 -1.0825
  293MPD2    C5 4471   2.397   1.414  12.659 -0.6612  0.0172  0.0010
  293MPD2     H 4472   2.066   1.571  12.769  0.2322 -3.1128  0.4885
  293MPD2    H1 4473   2.449   1.428  12.863 -0.1951 -0.6828 -0.7319
  293MPD2    H2 4474   2.319   1.402  12.462 -0.4711  0.7254  0.1881
  293MPD2    H3 4475   2.488   1.358  12.644  0.3503  1.8001 -0.6130
  293MPD2     N 4476   2.215   1.549  12.953 -0.4021 -0.0533  0.5274
  293MPD2    H5 4477   2.119   1.579  12.966  0.9310  4.0944  1.0933
  293MPD2    N1 4478   2.079   1.514  12.505 -0.7810  0.1060  0.0735
  293MPD2    H7 4479   2.102   1.526  12.407 -0.8990 -1.6150 -0.1797
  294TMC3    C1 4480   1.851   1.514  12.433  0.2973 -0.3412  0.3998
  294TMC3    C2 4481   1.724   1.493  12.464  0.2990 -0.0151 -0.6211
  294TMC3    C3 4482   1.632   1.496  12.361 -0.0535  0.1997 -0.4618
  294TMC3    C4 4483   1.881   1.573  12.314 -0.6156 -0.3496 -0.1391
  294TMC3    C5 4484   1.780   1.600  12.220  0.4869 -0.2705 -0.1974
  294TMC3    C6 4485   1.655   1.554  12.238  0.1593  0.2741 -0.0375
  294TMC3     C 4486   1.945   1.502  12.539  0.3945 -0.8300  0.6057
  294TMC3     O 4487   1.901   1.471  12.649  0.1353  0.6909 -0.1716
  294TMC3     H 4488   1.695   1.437  12.552  1.2775 -1.8299 -1.4707
  294TMC3    H1 4489   1.980   1.615  12.302 -0.2830 -1.5730 -1.6138
  294TMC3    H2 4490   1.573   1.566  12.167 -0.3483 -1.4468  0.2556
  294TMC3    C7 4491   1.822   1.684  12.113 -0.6837  0.3203  0.0637
  294TMC3    C8 4492   1.512   1.423  12.388  0.2266 -0.1613  0.4670
  294TMC3    O1 4493   1.916   1.762  12.130  0.1141  0.5558  0.1235
  294TMC3    O2 4494   1.479   1.395  12.504  0.4269  0.1709  0.0380
  295MPD2     C 4495   3.413   0.138   0.747 -0.3450  0.6519  0.3690
  295MPD2    C1 4496   3.337   0.033   0.728  0.2913 -0.0160 -0.0762
  295MPD2    C2 4497   3.342   4.661   0.817 -0.5158  0.3031  0.2895
  295MPD2    C3 4498   3.421   4.664   0.924 -0.0406  0.6472  0.5700
  295MPD2    C4 4499   3.499   0.038   0.942 -0.5409 -0.2406  0.6776
  295MPD2    C5 4500   3.500   0.137   0.847 -0.1956  0.5980  0.7209
  295MPD2     H 4501   3.276   4.575   0.807 -0.2265  0.2065 -0.8014
  295MPD2    H1 4502   3.566   0.053   1.026 -0.3751 -1.9189  0.8367
  295MPD2    H2 4503   3.417   0.224   0.681  0.2527  0.6408  0.3935
  295MPD2    H3 4504   3.566   0.221   0.865  1.7239 -0.6365 -0.6328
  295MPD2     N 4505   3.437   4.558   1.014  0.3003 -0.3992 -0.5143
  295MPD2    H5 4506   3.498   4.580   1.092 -0.1126 -0.0390 -0.2951
  295MPD2    N1 4507   3.241   0.037   0.617  0.1068 -0.1277  0.7491
  295MPD2    H7 4508   3.181   4.692   0.616  0.0240 -0.0609  0.2143
  296TMC3    C1 4509   3.417   4.353   1.121  0.1339  0.0210  0.3125
  296TMC3    C2 4510   3.535   4.375   1.188 -0.3658  0.3762 -0.4159
  296TMC3    C3 4511   3.586   4.281   1.274  0.2131 -0.5696 -0.7245
  296TMC3    C4 4512   3.356   4.231   1.140  0.1078  0.1699 -0.4886
  296TMC3    C5 4513   3.421   4.136   1.218 -0.0948  0.6042 -0.2577
  296TMC3    C6 4514   3.530   4.160   1.294  0.6072  0.4922  0.1977
  296TMC3     C 4515   3.378   4.433   1.007 -0.2569 -0.1189  0.7059
  296TMC3     O 4516   3.321   4.384   0.907 -0.0130  0.2200 -0.1856
  296TMC3     H 4517   3.595   4.464   1.170  2.1041 -1.4869 -1.3948
  296TMC3    H1 4518   3.263   4.216   1.087  0.3559  1.8894 -1.4042
  296TMC3    H2 4519   3.568   4.080   1.357 -0.7619 -0.2841  0.0324
  296TMC3    C7 4520   3.357   4.007   1.255  0.0610 -0.6453  0.2271
  296TMC3    C8 4521   3.699   4.317   1.360 -0.2735  0.2324 -0.2602
  296TMC3    O1 4522   3.412   3.917   1.313 -0.3013  0.0681  0.0330
  296TMC3    O2 4523   3.750   4.218   1.415 -0.0424  0.2432 -0.3112
  297MPD2     C 4524   4.624   1.764  16.618  0.4239  0.3991 -0.3848
  297MPD2    C1 4525   4.614   1.824  16.490  0.0971 -0.0196 -0.1823
  297MPD2    C2 4526   4.705   1.920  16.460 -0.8329 -0.1929  1.0990
  297MPD2    C3 4527   0.077   1.960  16.546 -0.4854  0.1449  0.2644
  297MPD2    C4 4528   0.080   1.895  16.671 -0.3325 -0.1481 -0.0211
  297MPD2    C5 4529   4.730   1.796  16.702  0.7370  0.4850 -0.0958
  297MPD2     H 4530   4.711   1.964  16.361 -1.9218 -0.4518  0.9222
  297MPD2    H1 4531   0.164   1.913  16.737  0.9299 -2.8437 -0.9242
  297MPD2    H2 4532   4.547   1.698  16.655 -0.5905  2.0738  0.4953
  297MPD2    H3 4533   0.017   1.736  16.789  0.6391 -1.4586 -1.3916
  297MPD2     N 4534   0.162   2.072  16.497  0.1666 -0.4562 -0.2216
  297MPD2    H5 4535   0.151   2.101  16.401 -0.4364 -0.1084 -0.0505
  297MPD2    N1 4536   4.514   1.792  16.395 -0.5187  0.4642 -0.3946
  297MPD2    H7 4537   4.520   1.845  16.308  1.0984 -1.0189 -1.1891
  298TMC3    C1 4538   4.305   1.722  16.305 -0.1294 -0.6620  0.0885
  298TMC3    C2 4539   4.352   1.752  16.180  0.3961  0.4864  0.6774
  298TMC3    C3 4540   4.277   1.819  16.082 -0.5440 -0.4814 -0.3632
  298TMC3    C4 4541   4.184   1.774  16.335  0.2980  0.9546  0.1115
  298TMC3    C5 4542   4.101   1.819  16.235 -1.0444  0.1027 -0.1364
  298TMC3    C6 4543   4.148   1.849  16.109  0.5316  0.5233 -0.1666
  298TMC3     C 4544   4.406   1.709  16.415  0.5326 -0.0454 -0.4775
  298TMC3     O 4545   4.364   1.669  16.524 -0.9337  0.3226  0.3562
  298TMC3     H 4546   4.458   1.736  16.160  0.4247  1.1526  0.3207
  298TMC3    H1 4547   4.147   1.776  16.437  0.1241  0.4737  0.0551
  298TMC3    H2 4548   4.085   1.888  16.030 -0.1565 -1.8306 -0.7896
  298TMC3    C7 4549   3.982   1.895  16.280  0.0188 -0.4438 -0.2288
  298TMC3    C8 4550   4.333   1.842  15.948 -0.7119  0.0997 -0.3837
  298TMC3    O1 4551   3.981   1.911  16.398 -0.4282 -0.0813 -0.0412
  298TMC3    O2 4552   4.440   1.786  15.929  0.0159 -0.4715 -0.2101
  299MPD2     C 4553   0.979   2.434  10.242 -0.1685 -0.0223 -0.2960
  299MPD2    C1 4554   0.878   2.385  10.323 -0.0947 -0.9316  0.1148
  299MPD2    C2 4555   0.748   2.378  10.272 -0.1751  0.2507  0.3807
  299MPD2    C3 4556   0.723   2.425  10.141 -0.5105 -0.4595  0.1868
  299MPD2    C4 4557   0.820   2.502  10.076 -0.2612  0.2078  0.2653
  299MPD2    C5 4558   0.953   2.497  10.122  0.0802  0.3297  0.3851
  299MPD2     H 4559   0.668   2.330  10.327  0.8760 -2.4839 -0.4991
  299MPD2    H1 4560   0.798   2.543   9.979  0.4537 -1.0747 -0.4401
  299MPD2    H2 4561   1.082   2.429  10.274  0.6141 -1.2227 -3.0169
  299MPD2    H3 4562   1.038   2.526  10.060  1.0788 -0.6746  1.2826
  299MPD2     N 4563   0.595   2.431  10.088 -0.2365 -0.0294 -0.0325
  299MPD2    H5 4564   0.583   2.492  10.008  1.4635 -1.3654 -1.2786
  299MPD2    N1 4565   0.918   2.337  10.445  0.1220  0.1342 -0.4370
  299MPD2    H7 4566   1.018   2.342  10.461 -0.1159  1.1686  0.7201
  300TMC3    C1 4567   0.366   2.360  10.051 -0.5313 -0.3082  0.2546
  300TMC3    C2 4568   0.318   2.487  10.005 -0.0704 -0.5506  0.8459
  300TMC3    C3 4569   0.194   2.496   9.943 -0.4239 -0.5751  0.6503
  300TMC3    C4 4570   0.291   2.246  10.036 -0.7166 -0.0203 -0.3322
  300TMC3    C5 4571   0.168   2.273   9.987  0.3769 -0.2255 -0.6085
  300TMC3    C6 4572   0.116   2.390   9.949 -0.1988  0.5997  0.5895
  300TMC3     C 4573   0.490   2.348  10.127 -0.3260  0.9413 -0.3829
  300TMC3     O 4574   0.502   2.251  10.200 -0.3965 -0.4012 -0.4109
  300TMC3     H 4575   0.382   2.572  10.022  1.7407 -1.7710  0.1576
  300TMC3    H1 4576   0.333   2.151  10.066 -1.6117 -0.3672 -0.2029
  300TMC3    H2 4577   0.019   2.386   9.900 -1.3640  0.8094  2.8734
  300TMC3    C7 4578   0.075   2.174  10.024  1.0978 -0.1919 -0.3562
  300TMC3    C8 4579   0.135   2.619   9.941  0.0162  0.6406  0.6026
  300TMC3    O1 4580   0.098   2.057   9.998  0.1304 -0.5870 -0.7344
  300TMC3    O2 4581   0.192   2.706  10.000  0.2584  0.3378  0.6668
  301MPD2     C 4582   2.614   2.951   1.610  0.0264 -0.2658  0.0216
  301MPD2    C1 4583   2.506   2.916   1.528 -0.1461  0.8932  0.7205
  301MPD2    C2 4584   2.510   2.790   1.459  0.7773 -0.3518 -0.6625
  301MPD2    C3 4585   2.616   2.708   1.461  0.6798  0.2549  0.4276
  301MPD2    C4 4586   2.722   2.743   1.538 -0.2244 -0.4939  0.3927
  301MPD2    C5 4587   2.721   2.863   1.611  0.1594  0.4884  0.4513
  301MPD2     H 4588   2.419   2.765   1.406  0.0891  0.2887  0.2098
  301MPD2    H1 4589   2.820   2.699   1.530  0.1546  0.3504  0.4117
  301MPD2    H2 4590   2.625   3.046   1.659 -0.9899 -0.2643  0.2435
  301MPD2    H3 4591   2.813   2.894   1.660 -1.7751  1.8070  3.1723
  301MPD2     N 4592   2.635   2.591   1.394  0.0074 -0.3994 -0.7661
  301MPD2    H5 4593   2.725   2.543   1.398 -0.4206 -1.2943 -1.9443
  301MPD2    N1 4594   2.390   2.993   1.525  0.0323  0.2851  0.2661
  301MPD2    H7 4595   2.304   2.953   1.488 -0.5025  2.4971 -0.8788
  302TMC3    C1 4596   2.572   2.420   1.241  0.2406 -0.0935 -0.0262
  302TMC3    C2 4597   2.663   2.336   1.292  0.4336  0.0020  0.4731
  302TMC3    C3 4598   2.676   2.221   1.228  0.5988 -0.2411 -0.0189
  302TMC3    C4 4599   2.487   2.382   1.141 -0.0252 -0.3704  0.3964
  302TMC3    C5 4600   2.509   2.264   1.079  0.0668  0.5220 -0.0424
  302TMC3    C6 4601   2.606   2.180   1.112  0.2824 -0.5490  0.0137
  302TMC3     C 4602   2.535   2.537   1.323  0.2622 -0.1348  0.0624
  302TMC3     O 4603   2.414   2.560   1.322 -0.6103 -0.3274  0.2409
  302TMC3     H 4604   2.725   2.355   1.379  0.1078 -0.8219  0.8883
  302TMC3    H1 4605   2.417   2.460   1.114  1.2161  0.9760  1.0494
  302TMC3    H2 4606   2.626   2.092   1.053 -0.1242  0.3531 -1.4717
  302TMC3    C7 4607   2.433   2.239   0.960  0.0226 -0.0834 -0.0269
  302TMC3    C8 4608   2.766   2.122   1.280  0.8471 -0.6881  0.2306
  302TMC3    O1 4609   2.500   2.173   0.874 -0.2733  0.3125  0.0827
  302TMC3    O2 4610   2.853   2.159   1.359 -0.1786  0.1372 -0.3254
  303MPD2     C 4611   2.993   1.402   9.731 -0.2634 -0.0092  0.3789
  303MPD2    C1 4612   2.870   1.353   9.772  0.2527 -0.0037 -0.4341
  303MPD2    C2 4613   2.752   1.413   9.736 -0.0285  0.3969  0.0599
  303MPD2    C3 4614   2.759   1.526   9.648  0.8085 -0.2295 -0.9761
  303MPD2    C4 4615   2.876   1.575   9.606  0.7733 -0.0346  0.0972
  303MPD2    C5 4616   2.993   1.516   9.651 -0.0149  0.3734  0.4016
  303MPD2     H 4617   2.658   1.369   9.765  0.9253 -1.1873  0.7197
  303MPD2    H1 4618   2.885   1.660   9.540 -1.2982  0.0463 -0.0695
  303MPD2    H2 4619   3.089   1.359   9.754 -1.0251 -1.7864  0.2484
  303MPD2    H3 4620   3.090   1.549   9.617 -0.8385 -0.7581 -2.9790
  303MPD2     N 4621   2.646   1.606   9.617 -0.0061  0.3438 -0.0086
  303MPD2    H5 4622   2.665   1.700   9.584  1.9315 -0.1699 -0.3071
  303MPD2    N1 4623   2.875   1.229   9.842 -0.3062 -0.3941 -0.2505
  303MPD2    H7 4624   2.963   1.200   9.882  0.2908  0.4620 -0.9480
  304TMC3    C1 4625   2.793   1.056   9.987  0.5600  0.5076 -0.2737
  304TMC3    C2 4626   2.828   1.121  10.098  0.4363 -0.2685  0.4720
  304TMC3    C3 4627   2.777   1.080  10.221 -0.2883  0.9595 -0.3240
  304TMC3    C4 4628   2.727   0.941   9.993  0.0334 -0.1352 -0.5152
  304TMC3    C5 4629   2.693   0.887  10.115 -0.1164 -0.1555 -0.0943
  304TMC3    C6 4630   2.722   0.956  10.234 -0.7467 -0.7750 -0.2108
  304TMC3     C 4631   2.766   1.141   9.877  0.3212 -0.5299 -0.8420
  304TMC3     O 4632   2.652   1.141   9.835 -0.1925 -0.0693  0.1801
  304TMC3     H 4633   2.875   1.219  10.093 -0.9164  0.2551 -1.8278
  304TMC3    H1 4634   2.716   0.891   9.897 -0.4020  0.2250 -0.6505
  304TMC3    H2 4635   2.683   0.910  10.324 -0.0256  1.2154  1.1320
  304TMC3    C7 4636   2.564   0.826  10.115  0.1135  0.4339 -0.0541
  304TMC3    C8 4637   2.711   1.190  10.287 -0.2225 -0.2307  1.0349
  304TMC3    O1 4638   2.496   0.873  10.209  0.2237  0.7008 -0.4434
  304TMC3    O2 4639   2.755   1.301  10.286 -0.1007 -0.1317  0.0756
  305MPD2     C 4640   0.987   3.779  13.982 -0.2563  0.0579  0.4872
  305MPD2    C1 4641   1.044   3.656  13.990 -0.2856  0.3697  0.6127
  305MPD2    C2 4642   1.033   3.558  13.892  0.0755  0.2436 -0.5520
  305MPD2    C3 4643   0.952   3.578  13.783 -0.0688  0.4681  0.5277
  305MPD2    C4 4644   0.882   3.701  13.781 -0.2246  0.5359  0.1539
  305MPD2    C5 4645   0.896   3.799  13.877 -0.4751  0.1690  0.3925
  305MPD2     H 4646   1.076   3.460  13.911  0.5007  0.1864 -1.8294
  305MPD2    H1 4647   0.826   3.731  13.693 -2.0741 -0.9363  0.8433
  305MPD2    H2 4648   1.007   3.857  14.055 -3.1669  0.7905  0.5220
  305MPD2    H3 4649   0.843   3.893  13.868 -2.1215 -0.4970  3.2114
  305MPD2     N 4650   0.939   3.487  13.675  0.6419  0.2064  0.5709
  305MPD2    H5 4651   0.891   3.520  13.593  3.3430  2.2833 -0.1756
  305MPD2    N1 4652   1.126   3.635  14.107  0.0485 -0.2935  0.4172
  305MPD2    H7 4653   1.121   3.707  14.178  3.6120  3.0949 -2.7376
  306TMC3    C1 4654   1.259   3.511  14.245  0.3477  0.1557  0.6471
  306TMC3    C2 4655   1.372   3.428  14.263 -0.4673 -0.5296  0.2625
  306TMC3    C3 4656   1.380   3.352  14.374  0.0069  0.1438  0.1321
  306TMC3    C4 4657   1.163   3.521  14.344 -0.2842  0.0931 -0.4384
  306TMC3    C5 4658   1.194   3.464  14.473  0.1606  0.0125 -0.6082
  306TMC3    C6 4659   1.293   3.368  14.486 -0.5336 -0.4005  0.0826
  306TMC3     C 4660   1.213   3.533  14.115 -0.6063 -0.0306 -0.2175
  306TMC3     O 4661   1.270   3.463  14.028  0.3203  0.3392 -0.5438
  306TMC3     H 4662   1.455   3.437  14.194  0.7227 -1.8579  1.5287
  306TMC3    H1 4663   1.075   3.584  14.335  0.4513  1.0968 -0.6222
  306TMC3    H2 4664   1.327   3.316  14.575 -0.1407 -1.0015 -0.4184
  306TMC3    C7 4665   1.110   3.492  14.587  0.2528  0.3946  0.6323
  306TMC3    C8 4666   1.483   3.256  14.379  1.0892  0.2304 -0.4051
  306TMC3    O1 4667   0.999   3.532  14.570 -0.2373 -0.3324 -0.7803
  306TMC3    O2 4668   1.586   3.277  14.310  0.1296 -0.0661  0.0336
  307MPD2     C 4669   3.479   1.688   0.037 -0.3322  0.5247  0.4939
  307MPD2    C1 4670   3.439   1.810   0.092 -0.5593 -0.1163  0.2857
  307MPD2    C2 4671   3.374   1.818   0.209  0.1821  0.7692  0.8781
  307MPD2    C3 4672   3.344   1.698   0.279 -0.6953 -0.0700 -0.6103
  307MPD2    C4 4673   3.379   1.570   0.226 -0.1708  0.4684  0.7178
  307MPD2    C5 4674   3.439   1.578   0.103 -0.4189 -0.1557  0.0819
  307MPD2     H 4675   3.339   1.914   0.245 -0.2092  1.3136 -0.9220
  307MPD2    H1 4676   3.332   1.479   0.262 -0.6093  0.4884  0.2011
  307MPD2    H2 4677   3.517   1.673  17.679  2.2019 -0.5487  1.6361
  307MPD2    H3 4678   3.447   1.483   0.051  3.5098  0.5225 -0.5292
  307MPD2     N 4679   3.268   1.723   0.396 -0.2845  0.0690 -0.4835
  307MPD2    H5 4680   3.253   1.820   0.423 -1.8449 -0.2528 -0.1820
  307MPD2    N1 4681   3.466   1.934   0.030  0.1391  0.2138 -0.1332
  307MPD2    H7 4682   3.420   2.012   0.075  1.1757  1.2518 -0.8755
  308TMC3    C1 4683   2.990   1.686   0.745  0.2489 -0.1166 -0.3628
  308TMC3    C2 4684   2.991   1.826   0.764  0.1762 -0.0652  0.2140
  308TMC3    C3 4685   3.105   1.882   0.714 -0.0643 -0.1346  0.5509
  308TMC3    C4 4686   3.077   1.623   0.662 -0.2224  0.7288 -0.4373
  308TMC3    C5 4687   3.179   1.691   0.606  0.2007  0.8094 -0.1817
  308TMC3    C6 4688   3.189   1.825   0.624 -0.4697 -0.3134  0.1110
  308TMC3     C 4689   2.881   1.596   0.780 -0.1280 -0.3864  0.5747
  308TMC3     O 4690   2.904   1.476   0.795  0.5057 -0.0175 -0.4799
  308TMC3     H 4691   2.937   1.883   0.839  0.4620 -0.4836  0.7406
  308TMC3    H1 4692   3.064   1.521   0.628  0.4118  0.2103  0.9132
  308TMC3    H2 4693   3.272   1.883   0.586 -1.4103  1.0666  0.1908
  308TMC3    C7 4694   3.229   1.628   0.486 -0.0034  0.3200 -0.2142
  308TMC3    C8 4695   3.101   2.027   0.692  0.3159  1.1325 -0.4966
  308TMC3    O1 4696   3.225   1.507   0.476 -0.2390 -0.0479 -0.5961
  308TMC3    O2 4697   2.995   2.081   0.657  0.8399 -0.5224 -0.2297
  309MPD2     C 4698   2.750   1.944  17.334 -0.8635 -0.1157  0.2220
  309MPD2    C1 4699   2.662   1.960  17.232  0.0854  0.2855  0.9082
  309MPD2    C2 4700   2.531   1.985  17.257  0.2018 -0.1370 -0.6441
  309MPD2    C3 4701   2.487   1.996  17.391  0.5864 -0.1805 -0.3244
  309MPD2    C4 4702   2.581   1.978  17.493  0.0965 -0.7323 -0.1100
  309MPD2    C5 4703   2.715   1.958  17.466  0.1437  0.3952  0.2369
  309MPD2     H 4704   2.462   2.005  17.176 -1.0541 -0.6352  0.2883
  309MPD2    H1 4705   2.554   1.997  17.596 -0.4591  0.4308 -0.4635
  309MPD2    H2 4706   2.855   1.920  17.317 -0.3825  1.4004  1.0811
  309MPD2    H3 4707   2.787   1.954  17.547  2.9124 -0.9455 -2.2942
  309MPD2     N 4708   2.349   2.023  17.419  0.2028  0.3695 -0.4275
  309MPD2    H5 4709   2.326   2.045  17.515 -0.3917  0.5139 -0.6025
  309MPD2    N1 4710   2.706   1.945  17.096  0.3160 -0.6042 -0.1390
  309MPD2    H7 4711   2.629   1.928  17.032 -0.6059  0.4513  0.6895
  310TMC3    C1 4712   2.832   1.937  16.909  0.0732  0.1479  0.2271
  310TMC3    C2 4713   2.722   1.983  16.841  0.1094 -0.0640 -0.3667
  310TMC3    C3 4714   2.721   1.945  16.706 -0.2958 -0.3524 -0.0298
  310TMC3    C4 4715   2.921   1.846  16.857  0.1685 -0.0955  0.2695
  310TMC3    C5 4716   2.908   1.813  16.727 -0.7613  0.0687  1.3935
  310TMC3    C6 4717   2.814   1.871  16.644  0.5137 -0.2619  0.5668
  310TMC3     C 4718   2.833   1.935  17.053 -0.1911 -0.2552  0.1393
  310TMC3     O 4719   2.945   1.939  17.102 -0.1739 -0.4221 -0.3123
  310TMC3     H 4720   2.646   2.047  16.883  0.4310  1.7359 -2.5386
  310TMC3    H1 4721   2.984   1.803  16.934  0.5235 -0.9397 -0.4997
  310TMC3    H2 4722   2.801   1.827  16.546 -0.4431  1.3260 -0.0115
  310TMC3    C7 4723   3.005   1.720  16.663  0.2650 -0.9856 -0.5845
  310TMC3    C8 4724   2.629   2.015  16.624  0.1558  0.9183  0.4047
  310TMC3    O1 4725   2.984   1.686  16.547  0.5545  0.6674  0.0658
  310TMC3    O2 4726   2.528   2.056  16.672 -0.2912 -0.3454  0.4275
  311MPD2     C 4727   0.043   3.081  12.482 -0.0225 -0.4010  0.5866
  311MPD2    C1 4728   0.023   3.206  12.547  0.0521 -0.4111 -0.0621
  311MPD2    C2 4729   4.675   3.208  12.652 -0.0971 -0.5093 -0.5085
  311MPD2    C3 4730   4.619   3.091  12.702  0.7857 -0.1931  0.4961
  311MPD2    C4 4731   4.635   2.973  12.638 -0.2108  0.4642 -0.2056
  311MPD2    C5 4732   4.714   2.968  12.527 -0.0507  0.5529  0.3503
  311MPD2     H 4733   4.653   3.300  12.705 -1.0393 -0.8020 -0.3989
  311MPD2    H1 4734   4.605   2.877  12.678  1.8740 -0.5473 -1.0565
  311MPD2    H2 4735   0.112   3.069  12.399 -0.0725 -0.4926  0.5583
  311MPD2    H3 4736   0.002   2.873  12.481  1.0895  1.8035 -1.5995
  311MPD2     N 4737   4.523   3.101  12.809  0.4156 -0.1587 -0.3869
  311MPD2    H5 4738   4.510   3.189  12.856  0.3635 -1.9529  2.9950
  311MPD2    N1 4739   0.079   3.331  12.494  0.0426 -0.6476  0.7439
  311MPD2    H7 4740   0.047   3.416  12.540 -0.8161 -0.2134 -0.6333
  312TMC3    C1 4741   4.322   3.060  12.927  0.5579 -0.4086  0.1086
  312TMC3    C2 4742   4.200   3.052  12.866  0.5296  0.5519  0.2313
  312TMC3    C3 4743   4.113   3.146  12.902  0.6324 -0.4412 -0.4759
  312TMC3    C4 4744   4.351   3.158  13.023  0.3329 -0.3301 -0.2797
  312TMC3    C5 4745   4.252   3.238  13.069  0.4720  0.7392 -0.1155
  312TMC3    C6 4746   4.132   3.236  13.005 -0.1846 -1.0169  0.1109
  312TMC3     C 4747   4.431   2.999  12.850 -0.5407  0.7596  0.6987
  312TMC3     O 4748   4.416   2.880  12.817 -0.2377 -0.0295  0.2440
  312TMC3     H 4749   4.176   2.974  12.795 -0.4532  0.5396  0.5772
  312TMC3    H1 4750   4.449   3.171  13.067  0.1603 -1.3415  0.4072
  312TMC3    H2 4751   4.043   3.286  13.043 -0.0562 -0.5380 -0.2103
  312TMC3    C7 4752   4.260   3.329  13.192 -0.2576 -0.6916  0.3663
  312TMC3    C8 4753   3.983   3.124  12.856  0.1449  0.5327 -0.0937
  312TMC3    O1 4754   4.154   3.384  13.215 -0.0323  0.0631 -0.0066
  312TMC3    O2 4755   3.948   3.011  12.828 -0.4492 -0.5234 -0.1134
  313MPD2     C 4756   3.930   2.622  10.560  0.0269 -0.2353  0.2945
  313MPD2    C1 4757   4.046   2.688  10.585  0.8088  0.3873  0.8303
  313MPD2    C2 4758   4.141   2.689  10.486  0.3191  0.6045  0.1471
  313MPD2    C3 4759   4.125   2.624  10.370  0.9552 -0.3113 -0.2969
  313MPD2    C4 4760   4.008   2.562  10.341  0.2871 -0.4644  0.1552
  313MPD2    C5 4761   3.911   2.556  10.441 -0.2886  0.2288 -0.4851
  313MPD2     H 4762   4.233   2.746  10.492  0.6340 -0.1131  2.0738
  313MPD2    H1 4763   3.992   2.510  10.248  1.6203 -1.7258  0.6188
  313MPD2    H2 4764   3.846   2.612  10.627 -1.7906 -0.5129 -2.0227
  313MPD2    H3 4765   3.812   2.518  10.419 -0.5435  1.0552 -0.7599
  313MPD2     N 4766   4.223   2.634  10.278 -0.8316  0.4407  0.5584
  313MPD2    H5 4767   4.312   2.672  10.308 -1.1693  0.9459  0.9083
  313MPD2    N1 4768   4.063   2.762  10.706 -0.0761  0.3661  0.4374
  313MPD2    H7 4769   4.141   2.827  10.710 -0.9988  1.5858 -1.4496
  314TMC3    C1 4770   4.015   2.869  10.902 -0.3896  0.0247 -0.7290
  314TMC3    C2 4771   4.151   2.887  10.935 -0.4843 -0.4039 -0.3429
  314TMC3    C3 4772   4.201   3.010  10.961 -0.0375 -0.3641 -0.3274
  314TMC3    C4 4773   3.939   2.989  10.895  0.5249  0.0952 -0.6417
  314TMC3    C5 4774   3.996   3.114  10.902  0.3832 -1.0096 -0.3845
  314TMC3    C6 4775   4.129   3.128  10.941  0.5457 -0.0285 -0.2610
  314TMC3     C 4776   3.976   2.774  10.809  0.2188 -0.3573  0.0931
  314TMC3     O 4777   3.869   2.717  10.833 -0.0942 -0.2229  0.0457
  314TMC3     H 4778   4.214   2.799  10.935 -1.4312 -1.0864  0.6906
  314TMC3    H1 4779   3.832   2.979  10.878  0.5513 -1.1648 -0.0842
  314TMC3    H2 4780   4.166   3.221  10.983  0.7046 -0.0877 -0.2673
  314TMC3    C7 4781   3.938   3.205  10.804 -0.4022 -0.5361  0.4789
  314TMC3    C8 4782   4.346   3.018  10.970 -0.7053 -0.5192 -0.0588
  314TMC3    O1 4783   3.834   3.176  10.754  0.4275 -0.3388 -0.6457
  314TMC3    O2 4784   4.414   2.976  10.877 -0.4737 -0.1500 -0.1983
  315MPD2     C 4785   3.522   2.129   0.374 -0.0132  0.2289 -0.5103
  315MPD2    C1 4786   3.633   2.058   0.351 -0.5475 -0.1511 -0.4082
  315MPD2    C2 4787   3.715   2.112   0.250 -0.1435  0.3617  0.2934
  315MPD2    C3 4788   3.703   2.237   0.192  0.4666 -0.5462 -0.0963
  315MPD2    C4 4789   3.586   2.306   0.215 -0.4125 -0.6474  0.2640
  315MPD2    C5 4790   3.502   2.253   0.313 -0.4358 -0.0752  0.5163
  315MPD2     H 4791   3.806   2.060   0.222 -0.2243 -0.7889  2.1675
  315MPD2    H1 4792   3.571   2.403   0.171  0.9306 -0.0715  1.0938
  315MPD2    H2 4793   3.446   2.096   0.444  0.0279  0.1819 -0.4878
  315MPD2    H3 4794   3.416   2.314   0.336  0.7211  1.1669  1.4703
  315MPD2     N 4795   3.803   2.287   0.107  0.7703  0.5513  0.0775
  315MPD2    H5 4796   3.884   2.227   0.100  0.8809  0.6380  0.6471
  315MPD2    N1 4797   3.665   1.938   0.410 -0.5655 -0.4768 -0.0059
  315MPD2    H7 4798   3.748   1.892   0.375  0.4780  1.5043 -0.1492
  316TMC3    C1 4799   3.958   2.444   0.037  0.2334  0.6956  0.3234
  316TMC3    C2 4800   4.052   2.391   0.123 -0.4032  0.2613  0.2168
  316TMC3    C3 4801   4.177   2.446   0.099 -0.2793 -0.0848 -0.2400
  316TMC3    C4 4802   3.982   2.535  17.681 -0.5093  0.2407  0.5848
  316TMC3    C5 4803   4.109   2.568  17.657 -0.6343 -0.2583  0.4586
  316TMC3    C6 4804   4.210   2.525   0.001 -0.7161 -0.2266 -0.8859
  316TMC3     C 4805   3.821   2.414   0.073 -0.2825 -0.3248  0.2344
  316TMC3     O 4806   3.737   2.500   0.049  0.3579  0.1749  0.1478
  316TMC3     H 4807   4.023   2.335   0.212 -3.3449  1.6188  0.1128
  316TMC3    H1 4808   3.900   2.565  17.617 -0.4396  1.2510  0.9783
  316TMC3    H2 4809   4.314   2.551  17.724 -0.3191 -2.5999 -1.9223
  316TMC3    C7 4810   4.153   2.595  17.522 -0.4471 -0.5319  0.2515
  316TMC3    C8 4811   4.277   2.425   0.199  0.4580  1.0825  0.0705
  316TMC3    O1 4812   4.268   2.639  17.519  0.7300 -0.3936  0.0238
  316TMC3    O2 4813   4.361   2.512   0.216 -0.0161 -0.4595  0.5583
  317MPD2     C 4814   1.088   0.275  11.946  0.6396 -0.5288  0.2387
  317MPD2    C1 4815   1.128   0.158  12.009 -0.6935 -0.9685 -0.2965
  317MPD2    C2 4816   1.137   0.160  12.149 -0.1411 -0.1363  0.5891
  317MPD2    C3 4817   1.117   0.281  12.223  0.4440 -0.3109  0.0982
  317MPD2    C4 4818   1.099   0.401  12.154  0.0712  0.1243 -1.0562
  317MPD2    C5 4819   1.081   0.392  12.017  0.2783 -0.4255  0.4137
  317MPD2     H 4820   1.161   0.071  12.206 -2.5585  0.4148  2.4851
  317MPD2    H1 4821   1.116   0.500  12.197 -0.7688  0.8561 -2.4303
  317MPD2    H2 4822   1.105   0.289  11.840  0.4787  1.1654  0.4260
  317MPD2    H3 4823   1.086   0.488  11.966 -0.3673 -1.0030 -0.7504
  317MPD2     N 4824   1.125   0.278  12.369  0.4476  0.0482 -0.5511
  317MPD2    H5 4825   1.131   0.183  12.406 -2.2352  0.2290  0.3346
  317MPD2    N1 4826   1.147   0.036  11.940 -0.5161  0.2179 -0.2016
  317MPD2    H7 4827   1.164   4.687  11.993 -0.3951  1.0355  1.0694
  318TMC3    C1 4828   1.193   0.339  12.584  0.5783 -0.1513 -0.2553
  318TMC3    C2 4829   1.128   0.231  12.637 -0.6177 -0.3887 -0.0837
  318TMC3    C3 4830   1.167   0.175  12.754  0.2956  0.4781  0.2166
  318TMC3    C4 4831   1.300   0.390  12.652  0.2882  0.6860 -0.3491
  318TMC3    C5 4832   1.340   0.334  12.772  0.4321  0.0527 -0.0830
  318TMC3    C6 4833   1.273   0.223  12.824 -0.3287  0.2824  0.1823
  318TMC3     C 4834   1.173   0.380  12.448 -0.4592  0.5125 -0.0967
  318TMC3     O 4835   1.196   0.499  12.414  0.5062 -0.1267 -0.1603
  318TMC3     H 4836   1.039   0.188  12.592 -1.4529  0.0982  1.0671
  318TMC3    H1 4837   1.351   0.479  12.615  1.0908  0.7190  0.8223
  318TMC3    H2 4838   1.294   0.188  12.925  0.1597  0.7974  0.2592
  318TMC3    C7 4839   1.432   0.408  12.851 -0.5937  0.1256 -0.7131
  318TMC3    C8 4840   1.094   0.058  12.799  0.1878  0.5008 -0.0142
  318TMC3    O1 4841   1.444   0.528  12.822 -0.3658  0.7290  0.8647
  318TMC3    O2 4842   0.975   0.071  12.768 -0.1616 -0.2817 -0.1447
  319MPD2     C 4843   2.008   1.353  16.601  0.0428  0.2981 -0.1560
  319MPD2    C1 4844   1.918   1.290  16.689  0.2986 -0.0670  0.4983
  319MPD2    C2 4845   1.807   1.223  16.635  0.0222 -0.4112  0.4573
  319MPD2    C3 4846   1.785   1.231  16.500 -0.4225 -0.4177  0.4785
  319MPD2    C4 4847   1.874   1.309  16.417 -0.0970 -0.0996  0.4206
  319MPD2    C5 4848   1.985   1.367  16.466 -0.2944  0.3424 -0.3492
  319MPD2     H 4849   1.739   1.173  16.702  2.0675 -2.3494  1.1194
  319MPD2    H1 4850   1.850   1.321  16.312 -0.2360 -2.6783  0.1532
  319MPD2    H2 4851   2.098   1.404  16.632  1.1458 -0.7090 -1.7102
  319MPD2    H3 4852   2.051   1.424  16.402 -0.3896  1.3307  0.4382
  319MPD2     N 4853   1.675   1.168  16.439  0.6941 -0.3546  1.0048
  319MPD2    H5 4854   1.649   1.183  16.342  1.0371  1.9144  1.2527
  319MPD2    N1 4855   1.932   1.280  16.825 -0.4300 -0.4307  0.1914
  319MPD2    H7 4856   1.853   1.237  16.872 -1.5802  1.0348 -0.3969
  320TMC3    C1 4857   1.507   1.030  16.408  0.3322 -0.8986  0.4508
  320TMC3    C2 4858   1.418   1.118  16.347  0.3065  0.1380 -0.1128
  320TMC3    C3 4859   1.316   1.072  16.269  0.2440  0.5252 -0.0406
  320TMC3    C4 4860   1.479   0.895  16.409 -1.4685 -0.6795 -0.0659
  320TMC3    C5 4861   1.373   0.856  16.331 -0.1451 -0.2561 -0.6401
  320TMC3    C6 4862   1.308   0.939  16.250  0.1317 -0.1155 -0.3776
  320TMC3     C 4863   1.600   1.071  16.501  0.4581  0.2082 -0.3911
  320TMC3     O 4864   1.592   1.032  16.615 -0.0465 -0.0157  0.2371
  320TMC3     H 4865   1.439   1.224  16.353 -1.6398  0.5459 -0.4791
  320TMC3    H1 4866   1.551   0.833  16.462 -0.7859 -1.1180 -1.5211
  320TMC3    H2 4867   1.229   0.897  16.189 -1.0258 -0.1319  1.1465
  320TMC3    C7 4868   1.362   0.717  16.320 -0.0773 -0.7355 -0.0614
  320TMC3    C8 4869   1.222   1.159  16.203  1.3154  0.3114 -0.3129
  320TMC3    O1 4870   1.317   0.678  16.212  0.1401 -0.2197  0.6656
  320TMC3    O2 4871   1.245   1.279  16.215 -1.1856 -0.0998 -0.3827
  321TMC3    C1 4872   2.008   1.332  17.040  0.3276 -0.0871  0.5054
  321TMC3    C2 4873   1.908   1.247  17.090  0.1831 -0.1140  0.1909
  321TMC3    C3 4874   1.876   1.271  17.222 -0.9754 -0.3161 -1.1126
  321TMC3    C4 4875   2.063   1.429  17.119 -0.2955 -0.3137  0.5989
  321TMC3    C5 4876   2.009   1.459  17.241 -0.5545 -0.1012 -0.4869
  321TMC3    C6 4877   1.904   1.389  17.285 -0.7432  0.4877  0.0359
  321TMC3     C 4878   2.033   1.341  16.896 -0.3479  0.5420 -0.3977
  321TMC3     O 4879   2.125   1.408  16.860 -0.8888  0.4542 -0.0490
  321TMC3     H 4880   1.874   1.157  17.039  1.6164 -0.1456 -0.7121
  321TMC3    H1 4881   2.159   1.468  17.089 -1.5085  0.5818 -2.1169
  321TMC3    H2 4882   1.843   1.422  17.369  0.0989  1.5780  0.2192
  321TMC3    C7 4883   2.107   1.478  17.345  0.6523 -0.3348  0.3122
  321TMC3    C8 4884   1.894   1.148  17.291  0.0251  0.0471 -0.2595
  321TMC3    O1 4885   2.096   1.404  17.440  0.2446  0.1720 -0.5600
  321TMC3    O2 4886   1.855   1.040  17.246  0.3918 -0.1498  0.9534
  322MPD2     C 4887   1.274   2.576  13.075 -0.2219  0.1169 -0.8833
  322MPD2    C1 4888   1.233   2.551  13.202 -0.4891 -0.1973 -0.3639
  322MPD2    C2 4889   1.192   2.431  13.250  0.3135 -0.2332 -0.3010
  322MPD2    C3 4890   1.178   2.329  13.154 -0.2310  0.4359 -0.2133
  322MPD2    C4 4891   1.208   2.357  13.023  0.3839  0.0407 -0.4595
  322MPD2    C5 4892   1.247   2.477  12.980  0.7193 -0.4828  0.2590
  322MPD2     H 4893   1.163   2.418  13.354  1.2101  0.8974  0.0889
  322MPD2    H1 4894   1.187   2.285  12.944 -0.8221 -0.3422  0.2102
  322MPD2    H2 4895   1.301   2.677  13.046 -1.1650 -0.4768 -3.8533
  322MPD2    H3 4896   1.285   2.490  12.879 -1.3628 -0.1939 -0.4945
  322MPD2     N 4897   1.124   2.203  13.187  0.0120  0.5368 -0.0730
  322MPD2    H5 4898   1.109   2.189  13.286 -0.8969  3.2518  0.1817
  322MPD2    N1 4899   1.237   2.668  13.289  0.4285 -0.6571 -0.1487
  322MPD2    H7 4900   1.292   2.747  13.255 -2.7064 -0.5852 -5.0892
  323TMC3    C1 4901   1.186   2.803  13.482 -0.4396  0.8914 -0.1131
  323TMC3    C2 4902   1.300   2.878  13.467  0.3735  0.0194  0.1267
  323TMC3    C3 4903   1.333   2.972  13.557 -0.1762 -0.4762 -0.1004
  323TMC3    C4 4904   1.104   2.827  13.589 -0.3862 -0.3741 -0.8561
  323TMC3    C5 4905   1.153   2.911  13.689  0.8467 -0.3260 -0.0226
  323TMC3    C6 4906   1.261   2.989  13.671  0.1477  0.7646 -0.0164
  323TMC3     C 4907   1.170   2.678  13.410  0.4727 -0.7734  0.9594
  323TMC3     O 4908   1.080   2.607  13.452  0.0502 -0.4311 -0.1533
  323TMC3     H 4909   1.371   2.845  13.392 -0.5964  1.3865 -1.4035
  323TMC3    H1 4910   1.024   2.756  13.609  2.2562 -2.9982  0.5390
  323TMC3    H2 4911   1.284   3.066  13.743 -0.5941  1.0495 -0.0824
  323TMC3    C7 4912   1.149   2.853  13.823 -0.5951 -0.0412  0.0462
  323TMC3    C8 4913   1.468   3.028  13.561 -0.0114  0.6013  0.5552
  323TMC3    O1 4914   1.059   2.768  13.840 -0.0782 -0.0839 -0.1259
  323TMC3    O2 4915   1.505   3.069  13.669 -0.0498 -0.2873  0.4632
  324MPD2     C 4916   2.909   4.214  14.288  0.4268 -0.0757  0.0929
  324MPD2    C1 4917   2.871   4.085  14.331 -0.1333  0.5597  0.4291
  324MPD2    C2 4918   2.738   4.048  14.334 -0.0175 -0.7486 -0.2620
  324MPD2    C3 4919   2.636   4.140  14.300  0.3386  0.1383  0.4378
  324MPD2    C4 4920   2.672   4.274  14.280 -0.4965  0.3840  0.0404
  324MPD2    C5 4921   2.810   4.309  14.276 -0.0069 -0.5907 -0.6037
  324MPD2     H 4922   2.721   3.942  14.348  2.1415 -0.9436  1.0546
  324MPD2    H1 4923   2.595   4.347  14.260 -0.2399  0.3898 -0.9089
  324MPD2    H2 4924   3.012   4.248  14.287  0.7661 -1.0219  1.8365
  324MPD2    H3 4925   2.844   4.408  14.249  1.7704 -0.3582  2.4452
  324MPD2     N 4926   2.503   4.112  14.317 -0.5193  0.4448 -0.2169
  324MPD2    H5 4927   2.439   4.186  14.290 -1.5163 -0.3737 -0.0971
  324MPD2    N1 4928   2.966   3.987  14.369 -0.0059  0.2139 -0.2963
  324MPD2    H7 4929   2.930   3.903  14.413  2.5950  0.4974  2.3564
  325TMC3    C1 4930   2.302   4.001  14.372 -0.0106 -0.4901 -0.0210
  325TMC3    C2 4931   2.238   3.879  14.358 -0.9908 -0.0961  0.3597
  325TMC3    C3 4932   2.111   3.881  14.311  0.7998 -0.2487 -0.1842
  325TMC3    C4 4933   2.234   4.120  14.356 -0.7414 -0.4915 -0.0283
  325TMC3    C5 4934   2.100   4.116  14.318 -0.1084  0.7543 -0.2010
  325TMC3    C6 4935   2.048   3.994  14.280  0.0487  0.5894  0.5235
  325TMC3     C 4936   2.448   3.997  14.365 -0.1836  0.7324  0.1905
  325TMC3     O 4937   2.502   3.893  14.383  0.0888  0.3300 -0.9306
  325TMC3     H 4938   2.293   3.788  14.379  1.2329  1.2960  0.4495
  325TMC3    H1 4939   2.281   4.217  14.366 -0.0117 -0.5481 -2.8918
  325TMC3    H2 4940   1.949   3.992  14.235 -1.0505  0.2484  2.9080
  325TMC3    C7 4941   2.019   4.232  14.305  0.8182 -0.2288  0.6127
  325TMC3    C8 4942   2.055   3.751  14.278  0.3393  0.0562 -0.1507
  325TMC3    O1 4943   2.077   4.338  14.289 -0.1134  0.2621 -0.3691
  325TMC3    O2 4944   2.126   3.657  14.316  0.0694  0.4081  0.5491
  326MPD2     C 4945   4.141   0.399  10.826  0.3663  0.0367  0.2832
  326MPD2    C1 4946   4.262   0.382  10.778  0.0425  0.0126 -0.2722
  326MPD2    C2 4947   4.360   0.463  10.816 -0.8657  0.3362 -0.0212
  326MPD2    C3 4948   4.338   0.572  10.904 -0.6136  0.0565  0.7881
  326MPD2    C4 4949   4.211   0.590  10.955 -0.2031 -0.4703 -0.2161
  326MPD2    C5 4950   4.110   0.498  10.918  0.5735  0.0445  0.5854
  326MPD2     H 4951   4.457   0.455  10.768 -0.2176  0.4557  1.2492
  326MPD2    H1 4952   4.195   0.669  11.027  1.9387 -1.0173  0.8686
  326MPD2    H2 4953   4.065   0.330  10.790 -1.8281  2.2649  0.7074
  326MPD2    H3 4954   4.009   0.507  10.955 -0.5874 -0.3225 -2.4556
  326MPD2     N 4955   4.435   0.674  10.918  0.5258  0.2315 -0.0750
  326MPD2    H5 4956   4.406   0.767  10.947  0.0397 -0.9481  3.1921
  326MPD2    N1 4957   4.291   0.303  10.664  0.8355 -0.2493 -0.2245
  326MPD2    H7 4958   4.381   0.327  10.623  0.7517 -0.1057 -0.3235
  327TMC3    C1 4959   4.248   0.262  10.444  0.5398  0.1189 -0.2493
  327TMC3    C2 4960   4.152   0.261  10.344 -0.6307  0.3676 -0.5169
  327TMC3    C3 4961   4.185   0.299  10.217 -0.7522  0.6220 -0.1401
  327TMC3    C4 4962   4.382   0.302  10.414 -0.5559 -0.2457 -0.7307
  327TMC3    C5 4963   4.404   0.344  10.284 -0.3594  0.1651  0.2056
  327TMC3    C6 4964   4.309   0.338  10.186 -0.3413  0.5883  0.1212
  327TMC3     C 4965   4.197   0.249  10.579  0.0388 -0.8725  0.0270
  327TMC3     O 4966   4.084   0.217  10.608  0.6056 -0.3075 -1.0267
  327TMC3     H 4967   4.054   0.225  10.372 -0.5593 -1.5140 -2.6988
  327TMC3    H1 4968   4.452   0.320  10.494 -3.2753  0.2222  1.5300
  327TMC3    H2 4969   4.328   0.379  10.088 -0.8303  0.9999  0.1973
  327TMC3    C7 4970   4.529   0.409  10.246 -0.7223  0.1489  0.1812
  327TMC3    C8 4971   4.079   0.356  10.133 -0.3748 -0.5395  0.5184
  327TMC3    O1 4972   4.534   0.481  10.145  0.2772  0.3810  0.5455
  327TMC3    O2 4973   4.113   0.445  10.055 -0.2134  0.4062 -0.2447
  328MPD2     C 4974   1.552   0.341  17.165 -0.1904  0.5917  0.4581
  328MPD2    C1 4975   1.450   0.255  17.179  0.2107 -0.0390 -0.7832
  328MPD2    C2 4976   1.344   0.273  17.093  0.1367  0.5465 -0.1363
  328MPD2    C3 4977   1.341   0.364  16.989  0.1306 -0.1392 -0.0434
  328MPD2    C4 4978   1.447   0.443  16.984 -0.2708 -0.1428  0.4131
  328MPD2    C5 4979   1.559   0.425  17.061  0.9934 -0.1204 -0.5499
  328MPD2     H 4980   1.266   0.198  17.098  0.4953  0.2070  0.4289
  328MPD2    H1 4981   1.462   0.514  16.903 -2.2946  2.0614  1.9957
  328MPD2    H2 4982   1.633   0.336  17.236 -0.3742  0.9019  0.6882
  328MPD2    H3 4983   1.641   0.493  17.044  0.4347  0.9815  1.2544
  328MPD2     N 4984   1.237   0.386  16.902 -0.3555 -0.3404  0.0699
  328MPD2    H5 4985   1.242   0.475  16.852 -0.6372  0.8595  2.1646
  328MPD2    N1 4986   1.454   0.150  17.275 -0.0531 -0.6250  0.2555
  328MPD2    H7 4987   1.527   0.166  17.344 -1.6581  0.2123  1.7479
  329TMC3    C1 4988   1.392   4.717  17.420 -1.0622 -0.1421 -0.6922
  329TMC3    C2 4989   1.421   0.067  17.528 -0.3224  0.0704  0.7716
  329TMC3    C3 4990   1.367   0.048  17.653 -0.0149 -0.2845 -0.8618
  329TMC3    C4 4991   1.301   4.617  17.444 -0.1543  0.1227  0.2499
  329TMC3    C5 4992   1.250   4.597  17.569  0.5660  0.1137  0.0542
  329TMC3    C6 4993   1.287   4.674  17.678  0.7186 -0.2974 -0.8690
  329TMC3     C 4994   1.371   0.043  17.293 -0.3602  0.0581  0.2814
  329TMC3     O 4995   1.283   0.001  17.215 -0.0717  0.5224 -0.3773
  329TMC3     H 4996   1.484   0.154  17.511 -0.0099 -0.4806 -0.8425
  329TMC3    H1 4997   1.271   4.550  17.364 -0.8738  2.2938 -1.2799
  329TMC3    H2 4998   1.240   4.658   0.032 -1.2138  0.5136 -1.6537
  329TMC3    C7 4999   1.203   4.462  17.597  0.2352  0.4929  0.1519
  329TMC3    C8 5000   1.396   0.142   0.017 -0.2706 -0.0507  0.5141
  329TMC3    O1 5001   1.214   4.404  17.703 -0.1174  0.0503  0.3388
  329TMC3    O2 5002   1.493   0.216   0.010  0.2039 -0.0268 -0.2694
  330TMC3    C1 5003   0.462   4.255   8.968 -0.3515 -0.3742 -0.5802
  330TMC3    C2 5004   0.375   4.156   8.954  0.8096  0.1263  0.4976
  330TMC3    C3 5005   0.338   4.086   9.067  0.1586 -0.4259 -0.4594
  330TMC3    C4 5006   0.519   4.277   9.087  0.3982  0.4427  0.5600
  330TMC3    C5 5007   0.499   4.199   9.197 -0.1604 -0.4198  0.2194
  330TMC3    C6 5008   0.402   4.098   9.192  0.6454 -0.0400  0.5945
  330TMC3     C 5009   0.513   4.310   8.848  0.5511  0.4840 -0.1931
  330TMC3     O 5010   0.629   4.350   8.857  0.3116  0.1233 -0.0809
  330TMC3     H 5011   0.341   4.122   8.857 -0.8533 -0.8842  1.4291
  330TMC3    H1 5012   0.603   4.346   9.091  1.0360 -0.2551 -0.6329
  330TMC3    H2 5013   0.380   4.029   9.272 -0.3212 -0.9771 -0.4830
  330TMC3    C7 5014   0.537   4.260   9.322 -0.1545  0.2092 -0.6340
  330TMC3    C8 5015   0.267   3.962   9.050 -0.3133  0.2702  0.0194
  330TMC3    O1 5016   0.633   4.340   9.314 -0.4528 -0.1201 -0.3052
  330TMC3    O2 5017   0.279   3.913   8.938 -0.0340 -0.0741 -0.9347
  331MPD2     C 5018   2.647   3.574  13.031 -0.0737 -0.1218  0.1246
  331MPD2    C1 5019   2.651   3.490  12.920  0.1135  0.2017 -0.5151
  331MPD2    C2 5020   2.546   3.397  12.918  0.0918 -0.0244  0.6312
  331MPD2    C3 5021   2.445   3.395  13.012 -0.3782  1.1366  0.8703
  331MPD2    C4 5022   2.439   3.484  13.113  0.6744  0.1182  0.1417
  331MPD2    C5 5023   2.547   3.569  13.130  0.0025 -0.2373  0.2899
  331MPD2     H 5024   2.537   3.331  12.832 -0.7537 -0.5388  1.1128
  331MPD2    H1 5025   2.364   3.480  13.191  1.2685  0.1608  0.7160
  331MPD2    H2 5026   2.720   3.654  13.033 -1.0618  0.8576 -2.0679
  331MPD2    H3 5027   2.551   3.632  13.218 -0.0651  0.7490 -0.4108
  331MPD2     N 5028   2.347   3.301  12.985  0.0934  0.1490  0.0254
  331MPD2    H5 5029   2.370   3.230  12.916 -1.3291 -0.2526 -0.0283
  331MPD2    N1 5030   2.741   3.507  12.809 -0.3712  0.1864 -0.6140
  331MPD2    H7 5031   2.811   3.580  12.817 -0.0504 -0.0841 -0.9799
  332TMC3    C1 5032   2.166   3.164  13.004 -0.2501  0.1367  0.0648
  332TMC3    C2 5033   2.035   3.165  12.975 -0.3624 -0.3586 -0.0692
  332TMC3    C3 5034   1.985   3.048  12.926 -0.0396  0.0826 -0.1715
  332TMC3    C4 5035   2.253   3.057  13.012 -0.6654  0.0877  0.0460
  332TMC3    C5 5036   2.203   2.943  12.963 -0.8022 -0.0118  0.0647
  332TMC3    C6 5037   2.068   2.937  12.922 -1.0154  0.1536  0.1842
  332TMC3     C 5038   2.225   3.292  13.042 -0.1623 -0.0778 -0.0632
  332TMC3     O 5039   2.159   3.367  13.109  0.2769  0.1190 -0.2448
  332TMC3     H 5040   1.967   3.247  12.992  0.1739  0.3232 -1.2539
  332TMC3    H1 5041   2.359   3.069  13.032 -0.8947  1.0655  0.6705
  332TMC3    H2 5042   2.038   2.840  12.885  2.4534 -0.7370 -0.2739
  332TMC3    C7 5043   2.285   2.821  12.974  0.1540 -1.0337  0.1967
  332TMC3    C8 5044   1.897   3.062  12.810  0.0162  0.4000  0.3452
  332TMC3    O1 5045   2.228   2.712  12.959  0.1352 -0.4140  1.3703
  332TMC3    O2 5046   1.880   3.175  12.772  0.3477  0.8707  0.1470
  333MPD2     C 5047   2.275   3.620  11.117 -0.8838  0.2189  0.0017
  333MPD2    C1 5048   2.398   3.566  11.104 -0.9904 -0.2244  0.7375
  333MPD2    C2 5049   2.411   3.434  11.137  0.0560  0.1293  0.3850
  333MPD2    C3 5050   2.307   3.353  11.178 -0.2269 -0.3581  0.7721
  333MPD2    C4 5051   2.187   3.409  11.199 -0.3023  0.1499 -0.0630
  333MPD2    C5 5052   2.171   3.543  11.173  0.6301 -0.7050  0.3738
  333MPD2     H 5053   2.500   3.376  11.116 -0.1371  0.7983 -2.2786
  333MPD2    H1 5054   2.105   3.351  11.238  0.3282 -2.2092 -2.3020
  333MPD2    H2 5055   2.255   3.724  11.091  0.9873  0.7246  0.5547
  333MPD2    H3 5056   2.072   3.585  11.186  0.9645  0.9489 -2.4681
  333MPD2     N 5057   2.337   3.215  11.199  0.0135  0.1614 -0.1841
  333MPD2    H5 5058   2.435   3.198  11.179  0.6047  0.7630  2.2282
  333MPD2    N1 5059   2.512   3.634  11.060 -0.2950  0.4753 -0.2157
  333MPD2    H7 5060   2.502   3.725  11.017  0.1174 -0.0628 -1.4685
  334TMC3    C1 5061   2.752   3.658  11.026  0.6163 -0.4291  0.0839
  334TMC3    C2 5062   2.852   3.579  10.980  0.2791  0.4565  0.2010
  334TMC3    C3 5063   2.952   3.626  10.904  0.5577  0.1068  0.2956
  334TMC3    C4 5064   2.731   3.779  10.970 -0.2133  0.2184 -0.3797
  334TMC3    C5 5065   2.829   3.825  10.886  0.5596 -0.2040  0.0345
  334TMC3    C6 5066   2.947   3.752  10.860 -0.4981  0.2744  0.9819
  334TMC3     C 5067   2.645   3.592  11.089 -0.6970  0.4057 -0.5755
  334TMC3     O 5068   2.672   3.497  11.162  0.2267 -0.1051  0.7534
  334TMC3     H 5069   2.867   3.478  11.016 -1.4818 -0.5588 -1.8472
  334TMC3    H1 5070   2.666   3.854  11.014 -0.8410  1.3463 -3.2172
  334TMC3    H2 5071   3.026   3.787  10.795 -1.8119  1.2865 -0.0980
  334TMC3    C7 5072   2.845   3.971  10.872 -0.1709 -0.6337  0.1869
  334TMC3    C8 5073   3.061   3.538  10.881  0.1311  0.3617  0.0940
  334TMC3    O1 5074   2.958   4.011  10.856 -0.1078 -0.1924  0.4322
  334TMC3    O2 5075   3.043   3.418  10.876  0.2747 -0.5637  0.3287
  335TMC3    C1 5076   2.010   4.558  17.574 -0.2683 -0.2117  0.2373
  335TMC3    C2 5077   1.932   4.512  17.475 -0.2091 -0.0518 -0.7864
  335TMC3    C3 5078   1.941   4.582  17.358 -0.2964 -0.5771 -0.1649
  335TMC3    C4 5079   2.094   4.668  17.563 -0.8285 -0.6819 -0.0557
  335TMC3    C5 5080   2.098   4.727  17.438  0.4119 -0.3102  0.5639
  335TMC3    C6 5081   2.020   4.688  17.336 -0.4879  0.6185  0.2161
  335TMC3     C 5082   1.989   4.505  17.715 -0.4423  0.2005  0.0392
  335TMC3     O 5083   1.905   4.423  17.732 -0.0818  0.3359 -0.3624
  335TMC3     H 5084   1.888   4.413  17.484 -0.9169  0.3279 -0.1004
  335TMC3    H1 5085   2.163   4.703  17.639 -1.8909 -0.5871  0.8644
  335TMC3    H2 5086   2.031   0.010  17.245  1.1395 -0.3629 -0.2236
  335TMC3    C7 5087   2.213   0.075  17.402  0.1278 -0.0790 -0.9942
  335TMC3    C8 5088   1.832   4.578  17.264 -0.4303 -0.1526  0.5096
  335TMC3    O1 5089   2.309   0.071  17.475 -0.3323 -0.1709  0.4613
  335TMC3    O2 5090   1.834   4.658  17.171 -0.0467  0.2413  0.0412
  336MPD2     C 5091   1.433   2.380  16.113 -0.2689  0.4807 -0.2228
  336MPD2    C1 5092   1.421   2.340  15.985  0.5401 -0.5305  0.0090
  336MPD2    C2 5093   1.487   2.221  15.945 -0.0399 -0.1722  0.2639
  336MPD2    C3 5094   1.548   2.146  16.046  0.4278  0.2109 -0.3907
  336MPD2    C4 5095   1.548   2.193  16.175  0.5184 -0.1587  0.5913
  336MPD2    C5 5096   1.501   2.315  16.204 -0.2948  0.2017 -0.3004
  336MPD2     H 5097   1.473   2.195  15.841 -1.0995 -2.5019  0.9968
  336MPD2    H1 5098   1.602   2.152  16.260 -2.4188  0.7590  2.8842
  336MPD2    H2 5099   1.412   2.482  16.143  0.9607  0.7212 -0.1980
  336MPD2    H3 5100   1.510   2.342  16.309 -0.6100 -0.0046 -0.2225
  336MPD2     N 5101   1.610   2.020  16.025  0.6322 -0.5361  0.2711
  336MPD2    H5 5102   1.653   1.988  16.112  0.5888  1.7147  1.1173
  336MPD2    N1 5103   1.351   2.415  15.887 -0.4195  0.4976 -0.3230
  336MPD2    H7 5104   1.345   2.377  15.793  0.4388  1.1352 -0.6385
  337TMC3    C1 5105   1.236   2.589  15.780 -1.1921  0.7397 -0.7691
  337TMC3    C2 5106   1.155   2.505  15.711  1.2598  0.2901  0.5758
  337TMC3    C3 5107   1.050   2.557  15.637 -0.2170  0.4386 -0.8575
  337TMC3    C4 5108   1.198   2.723  15.782  0.3641  0.9310 -0.1259
  337TMC3    C5 5109   1.090   2.770  15.723 -0.3166 -0.5785  0.0936
  337TMC3    C6 5110   1.017   2.688  15.640 -0.1604 -0.8142  0.2606
  337TMC3     C 5111   1.298   2.543  15.900 -1.3114 -0.5512 -0.0428
  337TMC3     O 5112   1.312   2.620  15.997  1.1376  0.5288 -0.2355
  337TMC3     H 5113   1.172   2.398  15.709  0.2603  0.1175  1.3450
  337TMC3    H1 5114   1.257   2.787  15.848  0.1965 -0.1607  1.0847
  337TMC3    H2 5115   0.921   2.729  15.612  0.3147 -2.0115 -3.0943
  337TMC3    C7 5116   1.009   2.859  15.801 -0.0696  0.3080 -0.2629
  337TMC3    C8 5117   0.974   2.473  15.544  0.0768  0.4245 -0.2200
  337TMC3    O1 5118   0.887   2.853  15.800  0.0124 -0.0290 -0.3891
  337TMC3    O2 5119   0.981   2.354  15.562  0.1289 -0.5106 -0.0041
  338MPD2     C 5120   1.819   2.323   1.261  0.6000 -0.2917  0.0365
  338MPD2    C1 5121   1.752   2.273   1.148  0.0831  0.5719 -0.0251
  338MPD2    C2 5122   1.617   2.284   1.144  0.1078 -0.7647 -0.2548
  338MPD2    C3 5123   1.541   2.334   1.245 -0.5988 -0.4435  0.3475
  338MPD2    C4 5124   1.600   2.371   1.359 -1.0298 -0.0201 -0.0923
  338MPD2    C5 5125   1.741   2.372   1.363 -0.1745 -0.7739  0.1167
  338MPD2     H 5126   1.568   2.244   1.056  1.8799 -1.2099 -1.0348
  338MPD2    H1 5127   1.537   2.401   1.443 -0.5778 -1.6333  0.8284
  338MPD2    H2 5128   1.927   2.326   1.278  0.5171 -1.6090  0.8753
  338MPD2    H3 5129   1.790   2.403   1.454 -1.7487  3.0246 -0.3273
  338MPD2     N 5130   1.403   2.332   1.233 -0.5726 -0.5548  0.5283
  338MPD2    H5 5131   1.361   2.305   1.144 -0.5149 -2.2791  1.0193
  338MPD2    N1 5132   1.821   2.204   1.037  0.6312  0.2523  0.7913
  338MPD2    H7 5133   1.754   2.179   0.965  0.6496  0.8501  0.5682
  339TMC3    C1 5134   1.169   2.330   1.277 -0.0876  0.5399  0.8016
  339TMC3    C2 5135   1.095   2.235   1.336  0.0132  0.8223 -0.8788
  339TMC3    C3 5136   1.019   2.152   1.253 -0.7689  1.0780  0.2837
  339TMC3    C4 5137   1.146   2.361   1.146 -0.1835  0.2769  0.1188
  339TMC3    C5 5138   1.075   2.273   1.071  0.0178 -0.3679 -0.1625
  339TMC3    C6 5139   1.012   2.163   1.121 -0.0978  0.0844 -0.0042
  339TMC3     C 5140   1.306   2.345   1.333 -0.6359 -0.2311  0.3335
  339TMC3     O 5141   1.311   2.351   1.458  0.0576  0.3119  0.0672
  339TMC3     H 5142   1.127   2.203   1.434 -2.2500  0.2198 -0.3487
  339TMC3    H1 5143   1.207   2.439   1.104  1.2987 -0.3752  1.0578
  339TMC3    H2 5144   0.970   2.081   1.064 -0.0010  1.2677 -1.7618
  339TMC3    C7 5145   1.066   2.306   0.931 -0.0191 -0.1074  0.4482
  339TMC3    C8 5146   1.005   2.013   1.301  0.4599  0.1425 -0.5496
  339TMC3    O1 5147   1.102   2.421   0.904 -0.2008  0.3135  0.3539
  339TMC3    O2 5148   1.028   1.924   1.222  0.0415 -0.2626  0.6926
  340MPD2     C 5149   3.327   4.284   9.798  0.6526 -0.3915 -1.0944
  340MPD2    C1 5150   3.426   4.241   9.721 -0.6891 -0.4133 -0.8246
  340MPD2    C2 5151   3.552   4.302   9.738  0.2885  0.0965 -0.1147
  340MPD2    C3 5152   3.569   4.406   9.826  0.5618  0.0578 -0.0743
  340MPD2    C4 5153   3.464   4.443   9.907 -0.0815 -0.6644  0.0202
  340MPD2    C5 5154   3.347   4.381   9.893  0.3029  0.1873 -0.2266
  340MPD2     H 5155   3.628   4.264   9.671  0.3982  3.0678 -1.6667
  340MPD2    H1 5156   3.470   4.522   9.981  1.0776  0.2426 -1.0418
  340MPD2    H2 5157   3.227   4.247   9.783  0.7160 -0.6583 -0.8704
  340MPD2    H3 5158   3.263   4.409   9.955  1.0823  0.0213  0.9007
  340MPD2     N 5159   3.692   4.469   9.852 -0.1700 -0.1358 -0.5325
  340MPD2    H5 5160   3.700   4.560   9.896 -0.5182  0.5446 -1.8800
  340MPD2    N1 5161   3.399   4.140   9.625 -0.1273 -0.2820  0.3222
  340MPD2    H7 5162   3.299   4.123   9.612 -0.9031  2.5414  2.5407
  341TMC3    C1 5163   3.443   3.971   9.474  0.1379 -0.2035 -0.0498
  341TMC3    C2 5164   3.315   3.931   9.494 -0.4932  0.4710 -0.5730
  341TMC3    C3 5165   3.265   3.829   9.414  0.7822  0.3749 -0.1827
  341TMC3    C4 5166   3.528   3.911   9.381  0.5942  0.5565 -0.3487
  341TMC3    C5 5167   3.464   3.820   9.292  0.0140  0.9254  0.3110
  341TMC3    C6 5168   3.335   3.777   9.312 -0.0516  0.6073  0.1006
  341TMC3     C 5169   3.498   4.061   9.567 -0.4687  0.2144  0.1904
  341TMC3     O 5170   3.618   4.053   9.591 -0.5063  0.0509  0.3774
  341TMC3     H 5171   3.249   3.970   9.570 -0.9177 -1.3509  0.0043
  341TMC3    H1 5172   3.632   3.940   9.369  0.5175  0.1165 -2.0754
  341TMC3    H2 5173   3.297   3.691   9.259 -2.1935  1.1019  0.8528
  341TMC3    C7 5174   3.535   3.780   9.172  1.0282  0.4234 -0.1854
  341TMC3    C8 5175   3.136   3.772   9.437  0.5366  0.0526 -0.5246
  341TMC3    O1 5176   3.658   3.791   9.166 -0.1283 -0.3378  0.4692
  341TMC3    O2 5177   3.108   3.666   9.381  0.0165  0.1704 -0.1769
  342MPD2     C 5178   0.269   3.099  17.580 -0.2678 -0.2877  0.2520
  342MPD2    C1 5179   0.336   3.076  17.458 -0.2647 -0.2731 -0.1708
  342MPD2    C2 5180   0.378   3.175  17.374  0.1029 -0.1187  0.3462
  342MPD2    C3 5181   0.371   3.303  17.419 -0.0399  0.5721  0.5557
  342MPD2    C4 5182   0.316   3.330  17.540 -1.1336 -0.3359 -0.5055
  342MPD2    C5 5183   0.265   3.227  17.622  0.0782 -0.5422 -0.3469
  342MPD2     H 5184   0.416   3.144  17.277  1.4652  2.1339  0.1541
  342MPD2    H1 5185   0.301   3.434  17.568 -0.2868 -0.5293  0.6347
  342MPD2    H2 5186   0.229   3.019  17.642  0.0828 -0.3251  0.4282
  342MPD2    H3 5187   0.210   3.262  17.709  0.2878 -3.2713  0.8837
  342MPD2     N 5188   0.404   3.416  17.340 -0.2713  0.3449  1.0610
  342MPD2    H5 5189   0.365   3.503  17.374 -2.6789 -0.0857 -0.5803
  342MPD2    N1 5190   0.352   2.946  17.409  0.4709  0.3743  0.6770
  342MPD2    H7 5191   0.403   2.930  17.322 -0.5676 -3.3843  0.7726
  343TMC3    C1 5192   0.303   2.721  17.375  0.3636 -0.0466 -0.0320
  343TMC3    C2 5193   0.337   2.735  17.239 -0.3877 -0.2074  0.1465
  343TMC3    C3 5194   0.330   2.624  17.160  0.6338 -0.3954  0.6888
  343TMC3    C4 5195   0.265   2.599  17.423  0.1729 -0.6691  0.5419
  343TMC3    C5 5196   0.243   2.496  17.336  0.1413  0.6516  0.0297
  343TMC3    C6 5197   0.273   2.502  17.199 -0.1275 -0.1001  0.5227
  343TMC3     C 5198   0.302   2.832  17.466 -0.2870 -0.1900 -0.2733
  343TMC3     O 5199   0.264   2.800  17.580 -0.4708  0.7383 -0.2455
  343TMC3     H 5200   0.362   2.830  17.193 -1.0543  0.2553  0.7323
  343TMC3    H1 5201   0.268   2.586  17.530 -0.4037 -0.0219  0.6331
  343TMC3    H2 5202   0.240   2.419  17.137 -1.8393  2.4555 -2.0082
  343TMC3    C7 5203   0.161   2.383  17.388  0.4509 -0.0609 -0.4368
  343TMC3    C8 5204   0.385   2.628  17.024  0.1294  0.3699 -0.0526
  343TMC3    O1 5205   0.141   2.288  17.313 -0.0681 -0.2984  0.3309
  343TMC3    O2 5206   0.401   2.739  16.968 -0.4247 -0.2651  0.3644
  344MPD2     C 5207   1.484   2.463  10.862  0.3559 -0.2002 -0.5492
  344MPD2    C1 5208   1.405   2.469  10.750 -0.0452  0.4667 -0.7647
  344MPD2    C2 5209   1.433   2.563  10.652  0.5510  0.0700  0.1315
  344MPD2    C3 5210   1.544   2.643  10.667  0.5356 -0.0269  0.3638
  344MPD2    C4 5211   1.611   2.647  10.784  0.3195 -0.1028  0.5814
  344MPD2    C5 5212   1.577   2.556  10.876  0.8353 -0.9952 -0.7101
  344MPD2     H 5213   1.368   2.568  10.566  0.7894  1.1189  0.0154
  344MPD2    H1 5214   1.683   2.725  10.810  0.0374 -0.2601  1.8205
  344MPD2    H2 5215   1.474   2.385  10.938  0.3538  0.0253 -0.3174
  344MPD2    H3 5216   1.620   2.574  10.975  1.8865 -3.6599 -0.6963
  344MPD2     N 5217   1.581   2.732  10.566  0.4300 -0.1254 -0.1646
  344MPD2    H5 5218   1.669   2.779  10.582  1.4848 -3.0403  2.5733
  344MPD2    N1 5219   1.292   2.390  10.731 -0.6061 -0.6391  0.0201
  344MPD2    H7 5220   1.239   2.398  10.645  1.9162 -0.9387 -1.5693
  345TMC3    C1 5221   1.571   2.840  10.360  0.6486 -0.2574  0.4084
  345TMC3    C2 5222   1.708   2.854  10.363  0.4768 -0.1692  0.4397
  345TMC3    C3 5223   1.768   2.950  10.283  0.2486  0.3043  0.2262
  345TMC3    C4 5224   1.498   2.929  10.281  0.0186 -0.1122  0.2340
  345TMC3    C5 5225   1.564   3.025  10.204 -0.1344  0.0068  0.1568
  345TMC3    C6 5226   1.699   3.031  10.195 -0.1827  0.4100 -0.2426
  345TMC3     C 5227   1.502   2.771  10.463  0.1686 -0.1976 -0.4886
  345TMC3     O 5228   1.378   2.768  10.453 -0.4143 -0.3363  0.1298
  345TMC3     H 5229   1.771   2.793  10.427 -0.2666 -0.9143  0.4720
  345TMC3    H1 5230   1.389   2.928  10.282  0.0276 -1.2177  0.5496
  345TMC3    H2 5231   1.733   3.109  10.128  0.0983 -0.4404 -1.0800
  345TMC3    C7 5232   1.498   3.161  10.189 -0.6014 -0.7368 -0.7062
  345TMC3    C8 5233   1.904   2.989  10.318 -0.3194  0.1202  0.2008
  345TMC3    O1 5234   1.563   3.259  10.218 -0.1141 -0.0662  0.3228
  345TMC3    O2 5235   1.972   2.902  10.373  0.4678  0.2098  0.4208
  346MPD2     C 5236   0.796   4.232  13.725  0.9523 -0.4968 -0.3516
  346MPD2    C1 5237   0.932   4.222  13.726 -0.3029 -0.2346 -0.5879
  346MPD2    C2 5238   0.996   4.202  13.848 -0.3405  0.0697  0.0560
  346MPD2    C3 5239   0.921   4.185  13.967  0.3300 -0.2384 -0.6242
  346MPD2    C4 5240   0.786   4.200  13.961 -0.1994  0.4268  0.3032
  346MPD2    C5 5241   0.724   4.213  13.838  0.8948 -0.0178 -0.1740
  346MPD2     H 5242   1.101   4.226  13.862 -0.0462 -0.5392 -1.1127
  346MPD2    H1 5243   0.715   4.197  14.043  0.4829  0.2442  0.8811
  346MPD2    H2 5244   0.739   4.226  13.633  0.3628 -0.0067 -0.0178
  346MPD2    H3 5245   0.616   4.214  13.826  1.0500  0.9849 -1.4474
  346MPD2     N 5246   0.989   4.163  14.095  0.1289 -0.3270 -0.2537
  346MPD2    H5 5247   1.090   4.155  14.098  0.1523 -0.3517 -0.9967
  346MPD2    N1 5248   1.008   4.251  13.616 -0.3284 -0.3352 -0.0508
  346MPD2    H7 5249   1.109   4.250  13.633 -0.3420 -0.6554  0.0266
  347TMC3    C1 5250   1.021   4.143  14.329  0.5598 -0.2725  0.6962
  347TMC3    C2 5251   1.156   4.117  14.315 -0.1060 -0.3102 -0.3420
  347TMC3    C3 5252   1.239   4.172  14.412 -0.4333  0.1342  0.2590
  347TMC3    C4 5253   0.976   4.213  14.439 -1.2478 -0.2950  0.1548
  347TMC3    C5 5254   1.067   4.253  14.533 -0.0839 -0.5596 -0.0733
  347TMC3    C6 5255   1.201   4.240  14.528 -0.1608 -0.3227 -0.3312
  347TMC3     C 5256   0.929   4.149  14.220  0.2010 -0.1104 -0.2000
  347TMC3     O 5257   0.811   4.145  14.252 -0.4709  0.0256  0.1427
  347TMC3     H 5258   1.198   4.052  14.239  2.4458  2.7079 -1.5014
  347TMC3    H1 5259   0.878   4.259  14.444 -1.0166  0.1807  0.2399
  347TMC3    H2 5260   1.269   4.292  14.595  0.9059  0.2142 -1.8422
  347TMC3    C7 5261   1.017   4.349  14.628  0.2484  0.0805  0.2043
  347TMC3    C8 5262   1.376   4.188  14.365  0.2401 -0.4305 -0.2347
  347TMC3    O1 5263   1.090   4.446  14.654  0.1112  0.1609  0.0964
  347TMC3    O2 5264   1.425   4.101  14.291  0.0074  0.2465 -0.0247
  348MPD2     C 5265   4.673   3.831  11.455 -0.0947  0.3663 -0.5763
  348MPD2    C1 5266   0.071   3.859  11.426 -1.2855  0.8319 -0.3754
  348MPD2    C2 5267   0.101   3.934  11.310  0.3182 -0.2867 -0.0584
  348MPD2    C3 5268   0.001   3.987  11.234  0.2064 -0.1328 -0.2247
  348MPD2    C4 5269   4.612   3.968  11.268  0.2990 -0.2159 -1.0751
  348MPD2    C5 5270   4.583   3.890  11.373  1.2332 -0.2025  0.2037
  348MPD2     H 5271   0.203   3.950  11.276  0.6503  1.2117  1.6441
  348MPD2    H1 5272   4.532   4.015  11.212  2.1435  4.2686 -0.0243
  348MPD2    H2 5273   4.642   3.764  11.534 -0.3126 -0.3077 -1.2374
  348MPD2    H3 5274   4.477   3.875  11.387  0.9004  2.2191  0.2811
  348MPD2     N 5275   0.043   4.042  11.109 -0.0640 -0.2828  0.4415
  348MPD2    H5 5276   0.142   4.058  11.099  0.4861 -2.4741  2.2843
  348MPD2    N1 5277   0.173   3.808  11.511 -0.1714 -0.1338 -0.2468
  348MPD2    H7 5278   0.269   3.802  11.478  0.9355  1.9205  2.6315
  349TMC3    C1 5279   0.283   3.661  11.659  0.0232 -0.3713  0.0280
  349TMC3    C2 5280   0.260   3.563  11.748 -0.9187 -0.6587 -0.1778
  349TMC3    C3 5281   0.314   3.437  11.728  0.5296  0.1567  0.6982
  349TMC3    C4 5282   0.367   3.634  11.553  0.5711  0.4557 -0.1355
  349TMC3    C5 5283   0.427   3.511  11.546  0.6850  0.5061 -0.1207
  349TMC3    C6 5284   0.403   3.408  11.632  0.3255  0.4011 -0.0050
  349TMC3     C 5285   0.158   3.740  11.630  0.5979  0.5268 -0.3265
  349TMC3     O 5286   0.053   3.735  11.697  0.3588  0.2361  0.1760
  349TMC3     H 5287   0.197   3.589  11.833 -0.6892 -0.9362  0.0766
  349TMC3    H1 5288   0.396   3.717  11.490  0.7110  0.4699 -0.0535
  349TMC3    H2 5289   0.460   3.317  11.615 -1.1522 -0.4330 -0.4964
  349TMC3    C7 5290   0.396   3.464  11.412 -0.2803  0.0419  0.1046
  349TMC3    C8 5291   0.311   3.354  11.845  0.6292 -0.3166  0.5310
  349TMC3    O1 5292   0.320   3.366  11.405 -0.6608 -0.2335  0.5423
  349TMC3    O2 5293   0.303   3.411  11.951 -0.6134 -0.2312  0.4718
  350MPD2     C 5294   3.751   2.419   9.682 -0.2433  0.4197 -0.4492
  350MPD2    C1 5295   3.830   2.330   9.750  0.9417 -0.0733  0.3886
  350MPD2    C2 5296   3.962   2.357   9.773  0.0736 -0.2090 -0.2337
  350MPD2    C3 5297   4.022   2.476   9.730 -0.1349  0.5690 -0.1657
  350MPD2    C4 5298   3.942   2.559   9.654  0.8937 -0.1898  0.7023
  350MPD2    C5 5299   3.811   2.531   9.633 -0.2593  0.8410  0.2454
  350MPD2     H 5300   4.026   2.306   9.844 -2.6486 -1.4204  1.3218
  350MPD2    H1 5301   3.994   2.649   9.623 -1.3297 -0.0220 -2.4779
  350MPD2    H2 5302   3.644   2.413   9.664 -0.3169 -0.5607  0.3720
  350MPD2    H3 5303   3.757   2.587   9.558 -3.1923  0.4221  2.0721
  350MPD2     N 5304   4.150   2.509   9.778 -0.6159  0.1102  0.1119
  350MPD2    H5 5305   4.193   2.456   9.853 -0.7885 -1.7500 -1.0966
  350MPD2    N1 5306   3.776   2.203   9.796 -0.1604 -0.4106  0.0332
  350MPD2    H7 5307   3.845   2.154   9.853  0.0206 -0.9479 -0.6504
  351TMC3    C1 5308   3.626   2.029   9.861 -0.6967  0.6519 -0.1777
  351TMC3    C2 5309   3.730   1.938   9.855 -0.4783 -0.1967 -0.1492
  351TMC3    C3 5310   3.710   1.821   9.917 -0.8232  0.3708  0.4887
  351TMC3    C4 5311   3.502   2.005   9.908  0.2671 -0.4975  0.3937
  351TMC3    C5 5312   3.492   1.887   9.983 -0.0862  0.3134 -0.6695
  351TMC3    C6 5313   3.598   1.804   9.994  0.8557 -0.1560 -0.4224
  351TMC3     C 5314   3.645   2.163   9.799 -0.3550  0.1803 -0.4139
  351TMC3     O 5315   3.542   2.226   9.778  1.0648 -0.2066 -0.5106
  351TMC3     H 5316   3.817   1.955   9.793 -0.1260  1.1768  0.7294
  351TMC3    H1 5317   3.420   2.076   9.900 -1.2001 -2.2437 -0.0758
  351TMC3    H2 5318   3.578   1.703  10.030 -0.3160  0.3735  0.3872
  351TMC3    C7 5319   3.366   1.870  10.054 -0.2948 -0.0377 -0.0388
  351TMC3    C8 5320   3.802   1.717   9.895 -0.3246  0.6371  0.2818
  351TMC3    O1 5321   3.304   1.969  10.091 -0.0036 -0.4141 -0.5694
  351TMC3    O2 5322   3.861   1.728   9.788 -0.8425 -0.1260 -0.4279
  352MPD2     C 5323   2.200   3.847   1.067  0.3233 -0.4432  0.4058
  352MPD2    C1 5324   2.094   3.843   1.147 -0.4932  0.5993 -0.1761
  352MPD2    C2 5325   2.102   3.735   1.237  0.1806 -0.1704 -1.1114
  352MPD2    C3 5326   2.206   3.639   1.247  0.1716 -0.0518  0.1071
  352MPD2    C4 5327   2.310   3.648   1.159 -0.0722 -0.8875  0.7805
  352MPD2    C5 5328   2.296   3.749   1.065 -0.1626  0.1577 -0.8409
  352MPD2     H 5329   2.010   3.730   1.294 -0.3096  1.0131 -1.7903
  352MPD2    H1 5330   2.392   3.578   1.154 -1.1048 -2.1748  1.8251
  352MPD2    H2 5331   2.210   3.925   0.992  2.0997 -0.5628  0.5300
  352MPD2    H3 5332   2.373   3.754   0.989  0.5663 -1.9157 -0.2083
  352MPD2     N 5333   2.206   3.526   1.329 -0.4775  0.4905 -0.7691
  352MPD2    H5 5334   2.282   3.459   1.317 -1.6203 -0.5644 -1.9739
  352MPD2    N1 5335   1.996   3.944   1.142  0.4586  0.3939 -0.6392
  352MPD2    H7 5336   2.005   4.020   1.075 -0.3861 -0.1035 -1.3108
  353TMC3    C1 5337   2.108   3.351   1.468  0.3257  0.3622 -0.5869
  353TMC3    C2 5338   2.226   3.304   1.515 -0.2166 -0.6567 -0.6861
  353TMC3    C3 5339   2.237   3.175   1.552  0.6181 -0.3353 -0.7251
  353TMC3    C4 5340   1.997   3.266   1.454 -0.9289  0.8162  0.6495
  353TMC3    C5 5341   2.005   3.139   1.512 -0.1508 -0.2647  0.0107
  353TMC3    C6 5342   2.127   3.094   1.557  0.3010 -0.0076  0.7413
  353TMC3     C 5343   2.101   3.483   1.410 -0.0118  0.2144 -0.8036
  353TMC3     O 5344   1.988   3.526   1.415 -0.2080 -0.1506 -0.0573
  353TMC3     H 5345   2.311   3.371   1.502  0.9412 -1.8647  0.7733
  353TMC3    H1 5346   1.897   3.298   1.428 -0.8308 -0.5255 -1.4251
  353TMC3    H2 5347   2.149   2.995   1.595  0.2597 -1.4469 -3.0096
  353TMC3    C7 5348   1.923   3.035   1.440 -0.2690 -0.3162  0.3319
  353TMC3    C8 5349   2.377   3.126   1.566  0.4684 -0.7973 -0.2858
  353TMC3    O1 5350   1.890   3.068   1.331  0.1773 -0.1022 -0.3838
  353TMC3    O2 5351   2.465   3.207   1.596 -0.0860  0.2995 -0.0252
  354TMC3    C1 5352   4.234   0.636  13.343  0.0385 -0.3397 -0.1009
  354TMC3    C2 5353   4.151   0.697  13.251 -0.2411 -0.3933  0.4978
  354TMC3    C3 5354   4.187   0.686  13.120  0.0533  0.1794  0.0123
  354TMC3    C4 5355   4.340   0.554  13.312 -0.2283  0.3062 -0.3647
  354TMC3    C5 5356   4.373   0.561  13.174  0.3183 -0.6501  0.8235
  354TMC3    C6 5357   4.294   0.612  13.078  0.2070  0.2730 -0.4580
  354TMC3     C 5358   4.185   0.628  13.478  0.1608 -0.7242 -0.2595
  354TMC3     O 5359   4.079   0.683  13.479  0.2430  0.9414 -0.4053
  354TMC3     H 5360   4.058   0.747  13.276 -0.3253 -1.8257  2.9865
  354TMC3    H1 5361   4.417   0.560  13.389 -2.8734 -0.1325  2.2880
  354TMC3    H2 5362   4.316   0.592  12.974  1.5963 -1.7448  0.2232
  354TMC3    C7 5363   4.510   0.522  13.145  0.7349 -0.4068 -0.6074
  354TMC3    C8 5364   4.086   0.717  13.019  0.2185 -0.8932  0.1333
  354TMC3    O1 5365   4.578   0.497  13.244 -0.3435  0.4912  0.3737
  354TMC3    O2 5366   4.076   0.643  12.919  0.4331 -0.0649  0.5295
  355MPD2     C 5367   3.867   1.501  11.416  0.5266  0.7669  1.3294
  355MPD2    C1 5368   3.963   1.474  11.320 -0.3593 -0.2921  0.2242
  355MPD2    C2 5369   4.073   1.400  11.352  0.2485 -0.0892  0.3277
  355MPD2    C3 5370   4.085   1.341  11.478  0.2878 -0.8628 -0.5934
  355MPD2    C4 5371   3.988   1.356  11.568  0.0504  0.0994 -0.0555
  355MPD2    C5 5372   3.880   1.436  11.539 -0.2714  0.1381 -0.2582
  355MPD2     H 5373   4.161   1.397  11.289  0.8095  0.4128  1.0948
  355MPD2    H1 5374   4.004   1.326  11.671  0.0576  0.3209  0.0079
  355MPD2    H2 5375   3.783   1.562  11.386  1.1488 -0.1347 -2.2895
  355MPD2    H3 5376   3.804   1.449  11.615 -1.4470 -1.4228 -1.1796
  355MPD2     N 5377   4.199   1.270  11.518  0.9214  0.0915 -0.1651
  355MPD2    H5 5378   4.218   1.252  11.616  1.5282  0.7237 -0.1625
  355MPD2    N1 5379   3.936   1.549  11.200 -1.0161 -0.6455  0.1798
  355MPD2    H7 5380   3.858   1.614  11.201 -0.8083 -0.4001  0.5808
  356TMC3    C1 5381   4.423   1.256  11.486 -0.0779 -0.2936  0.2040
  356TMC3    C2 5382   4.506   1.338  11.419  0.3484 -0.3525  0.3952
  356TMC3    C3 5383   4.620   1.393  11.478 -0.1988 -0.2494  0.0484
  356TMC3    C4 5384   4.447   1.228  11.618  0.1148 -0.4269  0.2128
  356TMC3    C5 5385   4.564   1.265  11.676  0.2631  0.4725 -0.5998
  356TMC3    C6 5386   4.646   1.357  11.611  0.6170  0.2562 -0.0658
  356TMC3     C 5387   4.297   1.246  11.425 -0.2580 -0.7810  0.0923
  356TMC3     O 5388   4.300   1.225  11.304 -0.1206 -0.1253  0.3333
  356TMC3     H 5389   4.485   1.360  11.315 -2.1095  2.2974  1.4703
  356TMC3    H1 5390   4.377   1.164  11.671 -0.2411  0.8335  1.2811
  356TMC3    H2 5391   0.006   1.384  11.653  0.1347  1.4487  0.2619
  356TMC3    C7 5392   4.587   1.249  11.816  0.5548  0.2124 -0.4852
  356TMC3    C8 5393   4.727   1.437  11.390  0.8791  0.1636 -0.6067
  356TMC3    O1 5394   4.523   1.158  11.872  0.6022 -0.0712 -0.2444
  356TMC3    O2 5395   4.727   1.376  11.284 -0.1928  0.5438 -0.0061
  357MPD2     C 5396   3.767   0.426   0.399  0.1347  0.6317  0.4206
  357MPD2    C1 5397   3.779   0.367   0.516  0.3036 -0.3868  0.1378
  357MPD2    C2 5398   3.787   0.438   0.626 -0.0146  0.0831  0.2738
  357MPD2    C3 5399   3.772   0.575   0.620  0.1239 -0.2851 -0.4605
  357MPD2    C4 5400   3.759   0.635   0.503  0.2654 -0.5486 -0.7263
  357MPD2    C5 5401   3.762   0.565   0.392 -0.4955  0.2572 -0.3365
  357MPD2     H 5402   3.803   0.390   0.722  0.9229 -0.4544 -0.1496
  357MPD2    H1 5403   3.755   0.744   0.503  3.7043 -0.4255 -0.4484
  357MPD2    H2 5404   3.761   0.374   0.304  2.1435  1.4990 -0.1672
  357MPD2    H3 5405   3.746   0.614   0.297  0.4481 -1.1973 -1.2276
  357MPD2     N 5406   3.754   0.657   0.735  0.8321  0.0263 -0.0784
  357MPD2    H5 5407   3.722   0.752   0.723  0.7579 -0.0238 -0.2733
  357MPD2    N1 5408   3.783   0.229   0.514 -0.0160  0.3116 -0.2807
  357MPD2    H7 5409   3.776   0.190   0.421 -2.0426  2.1662 -0.8951
  358TMC3    C1 5410   3.711   0.019   0.601 -0.4969  0.6682  0.1317
  358TMC3    C2 5411   3.634   0.001   0.498  0.1212  0.4960 -0.0737
  358TMC3    C3 5412   3.557   4.617   0.496 -0.2346 -0.0911 -0.1476
  358TMC3    C4 5413   3.727   4.653   0.690  0.2202  0.3668 -0.4050
  358TMC3    C5 5414   3.656   4.536   0.685 -1.0025  0.4320 -0.0493
  358TMC3    C6 5415   3.566   4.515   0.583  0.6811 -0.1234  0.1290
  358TMC3     C 5416   3.780   0.145   0.623  0.1334 -0.6951 -0.4451
  358TMC3     O 5417   3.794   0.165   0.740 -0.2538  0.0011 -0.2164
  358TMC3     H 5418   3.608   0.085   0.435 -1.5620 -0.9179 -1.2669
  358TMC3    H1 5419   3.801   4.672   0.767  0.9960 -0.2117 -1.0152
  358TMC3    H2 5420   3.497   4.433   0.596  0.4252  0.2062  0.8258
  358TMC3    C7 5421   3.704   4.424   0.776 -0.1599 -0.0399  0.2432
  358TMC3    C8 5422   3.463   4.611   0.385  0.3494  0.8210  0.9351
  358TMC3    O1 5423   3.658   4.320   0.734 -0.0054  0.1262 -0.3173
  358TMC3    O2 5424   3.478   4.682   0.286 -0.1963  0.0169  1.1166
  359MPD2     C 5425   4.544   4.623  12.212  0.6852 -0.3654 -0.3875
  359MPD2    C1 5426   4.534   4.495  12.159  0.5858 -0.4324 -0.2873
  359MPD2    C2 5427   4.469   4.390  12.223 -1.1344  0.7504 -0.3869
  359MPD2    C3 5428   4.415   4.412  12.350  0.0828 -0.0411  0.1047
  359MPD2    C4 5429   4.445   4.528  12.411 -0.0068  0.1585 -0.4394
  359MPD2    C5 5430   4.502   4.630  12.345 -0.5774  0.0469  0.4884
  359MPD2     H 5431   4.455   4.297  12.169 -2.2075  0.0960  1.0277
  359MPD2    H1 5432   4.416   4.548  12.513 -0.5183 -0.8678 -0.3759
  359MPD2    H2 5433   4.584   4.707  12.157  2.8898 -0.8949  0.4015
  359MPD2    H3 5434   4.512   4.725  12.397  1.0402  0.4356 -0.5458
  359MPD2     N 5435   4.333   4.327  12.414  0.5048  0.3279 -0.3904
  359MPD2    H5 5436   4.291   4.360  12.500  1.9496  1.3093 -0.0639
  359MPD2    N1 5437   4.594   4.458  12.033  0.5216 -0.9219 -0.5977
  359MPD2    H7 5438   4.612   4.361  12.011 -0.0879 -1.0235 -0.6505
  360TMC3    C1 5439   4.730   4.476  11.849 -0.0006  0.4910  0.1331
  360TMC3    C2 5440   0.065   4.364  11.883  0.4457 -0.1621  0.7159
  360TMC3    C3 5441   0.168   4.329  11.803 -0.2308 -0.0779 -0.0365
  360TMC3    C4 5442   0.005   4.535  11.724 -0.4446  0.0322 -0.0988
  360TMC3    C5 5443   0.111   4.493  11.643  0.3798  0.2219 -0.4416
  360TMC3    C6 5444   0.197   4.396  11.681 -0.6312 -0.0901 -0.0038
  360TMC3     C 5445   4.656   4.543  11.945 -0.2471  0.9950 -0.6183
  360TMC3     O 5446   4.666   4.666  11.935  0.0660  0.9618  0.0194
  360TMC3     H 5447   0.068   4.323  11.984  1.8673 -2.4070 -0.2482
  360TMC3    H1 5448   4.678   4.617  11.691 -1.1606 -0.8583 -0.9494
  360TMC3    H2 5449   0.291   4.391  11.629 -0.3895 -1.0089  0.5117
  360TMC3    C7 5450   0.139   4.565  11.519 -0.4585  0.0991  0.1776
  360TMC3    C8 5451   0.240   4.204  11.829  0.4470  0.2767  0.0867
  360TMC3    O1 5452   0.111   4.687  11.514  0.5913  0.3648 -0.1916
  360TMC3    O2 5453   0.226   4.163  11.942 -0.1476  0.0653 -0.4218
  361MPD2     C 5454   1.163   3.262  16.727 -0.0885  0.7110  0.7578
  361MPD2    C1 5455   1.116   3.289  16.853  0.4969 -0.7076  0.4195
  361MPD2    C2 5456   1.136   3.207  16.962 -0.9693 -0.6872  0.5040
  361MPD2    C3 5457   1.222   3.101  16.947 -0.1581 -0.3302  0.1363
  361MPD2    C4 5458   1.268   3.067  16.819 -0.8251  0.0286 -0.6017
  361MPD2    C5 5459   1.246   3.150  16.713 -0.2073  0.7371  0.8707
  361MPD2     H 5460   1.095   3.242  17.056  1.2836  0.7187  0.9530
  361MPD2    H1 5461   1.325   2.976  16.805 -0.8764 -0.1763  0.5516
  361MPD2    H2 5462   1.134   3.310  16.634 -1.6232 -2.5271 -0.4367
  361MPD2    H3 5463   1.284   3.125  16.615 -0.4134  1.1679  0.6808
  361MPD2     N 5464   1.250   3.000  17.047 -0.0448 -0.2647 -0.4894
  361MPD2    H5 5465   1.323   2.932  17.027  0.0349 -0.7579  1.4875
  361MPD2    N1 5466   1.056   3.411  16.877 -0.1411  0.5783  0.2449
  361MPD2    H7 5467   1.008   3.423  16.966 -2.3039  2.3142 -1.1733
  362TMC3    C1 5468   0.972   3.615  16.821  0.0556 -0.0253  0.1056
  362TMC3    C2 5469   0.933   3.623  16.953 -0.8116  0.1940 -0.7318
  362TMC3    C3 5470   0.864   3.744  16.981  0.7928 -0.0435  0.4717
  362TMC3    C4 5471   0.936   3.699  16.723 -0.0089  0.7268 -0.0001
  362TMC3    C5 5472   0.865   3.812  16.753 -0.2493  1.3421  0.3063
  362TMC3    C6 5473   0.839   3.839  16.882 -0.2551  0.1094  0.1299
  362TMC3     C 5474   1.061   3.512  16.781  0.0208 -0.3835 -0.0958
  362TMC3     O 5475   1.117   3.523  16.675 -0.4740 -0.1345 -0.4090
  362TMC3     H 5476   0.972   3.565  17.036  0.9940 -0.1008 -1.7682
  362TMC3    H1 5477   0.948   3.671  16.619  1.1746 -2.0502  0.8707
  362TMC3    H2 5478   0.790   3.933  16.905 -0.7362  0.0541 -0.6808
  362TMC3    C7 5479   0.850   3.913  16.649 -0.6628  0.2767 -0.2265
  362TMC3    C8 5480   0.806   3.752  17.111  0.1811  0.1038 -0.5659
  362TMC3    O1 5481   0.752   3.987  16.664 -0.4180  0.3485 -0.3467
  362TMC3    O2 5482   0.846   3.675  17.197  0.2880  0.0152  0.0601
  363TMC3    C1 5483   0.560   1.393   9.610  0.1997 -0.5818  0.5807
  363TMC3    C2 5484   0.558   1.265   9.630  0.3313  0.0594 -0.2394
  363TMC3    C3 5485   0.444   1.222   9.687  0.4142  0.1114 -0.9615
  363TMC3    C4 5486   0.466   1.482   9.650  0.2783 -0.2515 -0.8102
  363TMC3    C5 5487   0.356   1.437   9.712 -0.4955  0.7444 -0.8018
  363TMC3    C6 5488   0.342   1.304   9.732 -0.9058 -0.8931 -0.0217
  363TMC3     C 5489   0.696   1.436   9.600 -0.0566  0.5117  0.5928
  363TMC3     O 5490   0.772   1.357   9.650  0.0688  0.4709  0.0388
  363TMC3     H 5491   0.639   1.199   9.600 -0.5554 -2.3855  2.7489
  363TMC3    H1 5492   0.496   1.586   9.638 -0.9512 -0.1249 -2.7943
  363TMC3    H2 5493   0.243   1.263   9.749 -1.7479  1.3119  0.3333
  363TMC3    C7 5494   0.256   1.531   9.759 -0.2441  0.8613  0.5664
  363TMC3    C8 5495   0.443   1.083   9.733 -0.0219 -0.2985 -0.2530
  363TMC3    O1 5496   0.279   1.647   9.731  0.3095  0.3101  0.4289
  363TMC3    O2 5497   0.374   1.053   9.827 -0.1764 -0.0537 -0.6613
  364MPD2     C 5498   3.619   0.567  10.220 -0.6687 -0.3258 -0.2537
  364MPD2    C1 5499   3.732   0.615  10.153  0.6559  0.2718 -0.1394
  364MPD2    C2 5500   3.835   0.538  10.134 -0.0233  0.0127 -0.3234
  364MPD2    C3 5501   3.844   0.406  10.181  0.4170  0.2539  0.9194
  364MPD2    C4 5502   3.733   0.351  10.247 -0.3782 -1.1040  0.0229
  364MPD2    C5 5503   3.624   0.438  10.272 -0.0628  0.4117 -0.2953
  364MPD2     H 5504   3.918   0.575  10.075  0.7805 -0.4964  0.4889
  364MPD2    H1 5505   3.728   0.248  10.282  0.2555 -1.2912 -0.4266
  364MPD2    H2 5506   3.532   0.628  10.242  0.5365  1.7154 -1.2026
  364MPD2    H3 5507   3.540   0.395  10.324  0.9817 -0.7064  0.4927
  364MPD2     N 5508   3.953   0.323  10.174 -0.2989  0.2516  0.0976
  364MPD2    H5 5509   3.944   0.234  10.223 -0.3294 -0.5639 -1.3815
  364MPD2    N1 5510   3.726   0.749  10.112 -0.4265 -0.5452  0.2086
  364MPD2    H7 5511   3.635   0.792  10.125  0.3011  0.5750  1.5864
  365TMC3    C1 5512   3.797   0.957  10.021 -0.1736  0.4028 -0.2075
  365TMC3    C2 5513   3.849   1.001   9.900  0.4015 -1.4539 -0.2502
  365TMC3    C3 5514   3.849   1.135   9.882  1.1428 -0.1282  0.2704
  365TMC3    C4 5515   3.734   1.032  10.112  0.2219  0.7022 -0.7583
  365TMC3    C5 5516   3.724   1.169  10.076 -0.2182  0.6243  0.2482
  365TMC3    C6 5517   3.792   1.222   9.967  0.1885 -0.5068 -0.1259
  365TMC3     C 5518   3.830   0.819  10.050 -0.5602 -0.7447 -0.1006
  365TMC3     O 5519   3.934   0.778   9.997  0.0671  0.3589  0.1587
  365TMC3     H 5520   3.880   0.941   9.815 -0.4990  0.2586 -1.7791
  365TMC3    H1 5521   3.680   0.985  10.193 -0.6477  2.2312 -0.4601
  365TMC3    H2 5522   3.792   1.325   9.933  1.1202 -0.8287 -1.1246
  365TMC3    C7 5523   3.649   1.257  10.164 -0.1115  0.0433  0.0252
  365TMC3    C8 5524   3.913   1.194   9.771  0.6009 -0.8235  0.0022
  365TMC3    O1 5525   3.610   1.367  10.120 -0.1192  0.9623 -0.1868
  365TMC3    O2 5526   3.854   1.274   9.702  0.0215  0.1435 -0.2312
  366MPD2     C 5527   0.817   2.017  15.485  0.8806  0.5554  0.6012
  366MPD2    C1 5528   0.917   2.010  15.389 -0.1108  0.2617  0.7379
  366MPD2    C2 5529   0.934   1.894  15.316 -0.0185  0.0173  0.6999
  366MPD2    C3 5530   0.858   1.784  15.351 -0.1004 -0.0445  0.0349
  366MPD2    C4 5531   0.768   1.787  15.453 -0.7118 -0.1223  0.8614
  366MPD2    C5 5532   0.745   1.905  15.515 -0.5884 -0.2560 -0.1671
  366MPD2     H 5533   1.017   1.886  15.247 -0.8599  2.3405 -0.5926
  366MPD2    H1 5534   0.711   1.697  15.471 -0.7312 -0.2730  0.0567
  366MPD2    H2 5535   0.798   2.104  15.548 -0.6806  0.3976  0.3382
  366MPD2    H3 5536   0.662   1.908  15.585 -2.1103 -0.6161 -1.9551
  366MPD2     N 5537   0.898   1.668  15.291 -0.1362  0.3069  0.5566
  366MPD2    H5 5538   0.967   1.692  15.221  0.6684  0.5763  1.4493
  366MPD2    N1 5539   0.989   2.128  15.383 -0.8213 -0.4246  0.7910
  366MPD2    H7 5540   0.969   2.196  15.455  0.1387 -0.1408  0.7903
  367TMC3    C1 5541   1.166   2.264  15.300  1.0432 -0.6802  0.0135
  367TMC3    C2 5542   1.237   2.286  15.412 -0.5301  0.9441 -0.2598
  367TMC3    C3 5543   1.348   2.373  15.406 -0.2555  0.0850  0.8786
  367TMC3    C4 5544   1.199   2.329  15.182 -0.0294  0.2863 -0.1712
  367TMC3    C5 5545   1.307   2.413  15.181  0.0908 -0.4807 -0.6345
  367TMC3    C6 5546   1.386   2.440  15.290 -0.1697  0.2820 -0.1711
  367TMC3     C 5547   1.078   2.153  15.283  0.2179  0.1597 -0.2014
  367TMC3     O 5548   1.108   2.093  15.185 -0.5062 -0.6914 -0.1439
  367TMC3     H 5549   1.213   2.225  15.499  0.3475 -0.0094 -0.6910
  367TMC3    H1 5550   1.142   2.302  15.095  1.5079  0.3888 -1.2068
  367TMC3    H2 5551   1.480   2.494  15.287 -1.1716  2.2027  2.5422
  367TMC3    C7 5552   1.320   2.486  15.056 -0.7537  0.8627  0.0700
  367TMC3    C8 5553   1.435   2.388  15.526  0.8057  0.5461 -0.0212
  367TMC3    O1 5554   1.436   2.503  15.027  0.0088 -0.6746 -0.2252
  367TMC3    O2 5555   1.398   2.335  15.624  0.0864  0.4602 -0.5796
  368MPD2     C 5556   2.987   4.089  13.638 -0.2487  0.8256 -0.3980
  368MPD2    C1 5557   2.996   4.206  13.560  0.0262  0.5083  0.6249
  368MPD2    C2 5558   3.125   4.249  13.515 -0.4922  0.6447 -0.2462
  368MPD2    C3 5559   3.236   4.179  13.563  1.0224  0.5439  0.2673
  368MPD2    C4 5560   3.223   4.067  13.637  0.6688  0.3061 -0.0421
  368MPD2    C5 5561   3.097   4.031  13.685 -0.5752 -0.4267 -0.6503
  368MPD2     H 5562   3.146   4.338  13.456  1.1367  0.7500  0.5115
  368MPD2    H1 5563   3.305   4.000  13.661 -0.3253  0.1293  2.9363
  368MPD2    H2 5564   2.896   4.065  13.691 -0.0269  2.3290  0.6534
  368MPD2    H3 5565   3.086   3.950  13.756 -2.2195  0.5791  0.2361
  368MPD2     N 5566   3.367   4.204  13.520  0.5918  0.2338 -0.0048
  368MPD2    H5 5567   3.430   4.127  13.540  0.3102  0.1700  0.6448
  368MPD2    N1 5568   2.871   4.255  13.520 -0.0195 -0.2158  0.2138
  368MPD2    H7 5569   2.793   4.196  13.547 -2.2768  2.1278 -1.1890
  369TMC3    C1 5570   2.710   4.388  13.414 -0.2929  0.2564  0.2239
  369TMC3    C2 5571   2.697   4.449  13.288  0.2212 -0.1529  0.6711
  369TMC3    C3 5572   2.574   4.453  13.232  0.0326 -0.0649  0.9629
  369TMC3    C4 5573   2.609   4.318  13.479  0.3384 -0.4711  0.0087
  369TMC3    C5 5574   2.486   4.325  13.409  0.3114  0.3348 -0.3790
  369TMC3    C6 5575   2.473   4.383  13.283 -0.3793  0.0417  0.4272
  369TMC3     C 5576   2.848   4.375  13.454  0.7445  0.3617 -0.8217
  369TMC3     O 5577   2.925   4.456  13.406 -0.2002  0.0028  0.1444
  369TMC3     H 5578   2.777   4.508  13.244  0.3545  1.0195  2.4735
  369TMC3    H1 5579   2.623   4.279  13.579  0.3510 -0.4263  0.0241
  369TMC3    H2 5580   2.382   4.375  13.225 -0.4030  0.8871  0.3536
  369TMC3    C7 5581   2.407   4.206  13.437 -0.3299 -0.1633  0.3621
  369TMC3    C8 5582   2.579   4.451  13.094 -0.6980 -0.1535  0.4617
  369TMC3    O1 5583   2.381   4.166  13.550 -0.7076 -0.1302  0.0088
  369TMC3    O2 5584   2.540   4.552  13.037  0.0419 -0.5741 -0.1336
  370TMC3    C1 5585   1.921   4.219  16.207 -0.4797 -0.2519 -0.7350
  370TMC3    C2 5586   1.827   4.160  16.287 -0.0708 -0.2979  0.1590
  370TMC3    C3 5587   1.766   4.041  16.251  0.5176 -0.1939  0.3586
  370TMC3    C4 5588   1.948   4.155  16.087  1.5397 -0.6018  0.2274
  370TMC3    C5 5589   1.866   4.053  16.050  0.4911  0.5011 -0.2522
  370TMC3    C6 5590   1.787   3.980  16.129 -0.1896 -0.8615 -0.2132
  370TMC3     C 5591   2.028   4.286  16.263  0.1324 -0.3447  0.4725
  370TMC3     O 5592   2.033   4.287  16.385 -0.1424  0.1881  0.2256
  370TMC3     H 5593   1.825   4.202  16.387  0.3105  1.1431 -0.4370
  370TMC3    H1 5594   2.012   4.203  16.014 -1.6690 -1.1985 -2.9745
  370TMC3    H2 5595   1.720   3.901  16.097 -2.5292  1.1971 -0.4800
  370TMC3    C7 5596   1.915   4.005  15.924  0.0217  0.2968  0.4398
  370TMC3    C8 5597   1.669   3.984  16.343 -0.4064 -0.1899 -0.2580
  370TMC3    O1 5598   1.927   4.085  15.830  0.3847  0.7023 -0.2421
  370TMC3    O2 5599   1.642   3.864  16.338 -0.6439 -0.1226 -0.4768
  371TMC3    C1 5600   3.259   2.382  15.991  0.3666 -0.4847  0.0371
  371TMC3    C2 5601   3.140   2.368  16.053 -0.5669 -0.6106  0.1612
  371TMC3    C3 5602   3.061   2.477  16.062  0.2031 -0.6146  0.4276
  371TMC3    C4 5603   3.309   2.505  15.948 -0.5172  0.2333  0.0520
  371TMC3    C5 5604   3.232   2.613  15.973  0.1721 -0.0133 -0.6242
  371TMC3    C6 5605   3.104   2.602  16.031 -0.4005 -0.7062  0.3253
  371TMC3     C 5606   3.320   2.271  15.928  0.0511 -0.2578  0.2007
  371TMC3     O 5607   3.393   2.303  15.840 -0.0465  0.2146 -0.1520
  371TMC3     H 5608   3.100   2.269  16.073  0.5486 -0.7593  1.6543
  371TMC3    H1 5609   3.409   2.523  15.910 -0.3296 -2.1314 -0.5812
  371TMC3    H2 5610   3.050   2.694  16.050 -1.6901 -1.6113  1.0423
  371TMC3    C7 5611   3.272   2.740  15.918  0.5813 -0.8552 -0.4931
  371TMC3    C8 5612   2.927   2.447  16.011 -0.0273  0.0654 -0.7038
  371TMC3    O1 5613   3.179   2.814  15.892 -0.2593  0.3408 -0.2178
  371TMC3    O2 5614   2.896   2.331  15.980  0.1831 -0.4704 -0.4032
  372MPD2     C 5615   2.889   4.527  13.745  0.1996 -0.8013 -0.1943
  372MPD2    C1 5616   2.971   4.439  13.813 -0.3377 -0.4234 -0.1235
  372MPD2    C2 5617   2.925   4.329  13.880 -0.3626 -0.0019  0.9738
  372MPD2    C3 5618   2.795   4.297  13.868 -0.1467  0.3253 -0.8041
  372MPD2    C4 5619   2.710   4.392  13.808 -0.3364 -0.1488  0.5969
  372MPD2    C5 5620   2.751   4.510  13.754  0.4108 -0.6155  0.2931
  372MPD2     H 5621   2.995   4.266  13.932  2.3195 -0.4326 -3.1760
  372MPD2    H1 5622   2.602   4.380  13.807 -0.1933 -1.6143  1.9248
  372MPD2    H2 5623   2.922   4.620  13.701  3.0108 -1.5918  0.2305
  372MPD2    H3 5624   2.680   4.581  13.714 -0.6013 -1.3610  0.7709
  372MPD2     N 5625   2.757   4.166  13.915 -0.1689  0.7010 -0.1023
  372MPD2    H5 5626   2.834   4.106  13.942 -0.5050  0.2276 -0.1731
  372MPD2    N1 5627   3.107   4.457  13.821 -0.3680  0.7298  0.7245
  372MPD2    H7 5628   3.150   4.392  13.885  0.7853  2.3165  1.5495
  373TMC3    C1 5629   2.625   3.969  13.945  0.2043  0.0837  0.0453
  373TMC3    C2 5630   2.515   3.924  14.005  0.6415  0.3457  0.3119
  373TMC3    C3 5631   2.491   3.796  14.002  0.5667 -0.1199 -0.2201
  373TMC3    C4 5632   2.710   3.885  13.880  0.1791 -0.6114  0.7530
  373TMC3    C5 5633   2.680   3.759  13.871 -0.6284  0.5992  0.0418
  373TMC3    C6 5634   2.559   3.709  13.921 -0.3602  0.6372  0.3844
  373TMC3     C 5635   2.628   4.115  13.919 -0.1058 -0.1737 -1.2086
  373TMC3     O 5636   2.530   4.180  13.914 -0.0084 -0.1239 -0.4439
  373TMC3     H 5637   2.445   3.992  14.052 -2.1432 -3.0036  1.0166
  373TMC3    H1 5638   2.775   3.936  13.810  0.9453  0.8647  2.5184
  373TMC3    H2 5639   2.535   3.604  13.920  0.1876  0.4950  1.5884
  373TMC3    C7 5640   2.788   3.666  13.825  0.3103 -0.2157 -0.1843
  373TMC3    C8 5641   2.360   3.769  14.059  1.3000  0.1379  0.3098
  373TMC3    O1 5642   2.866   3.716  13.743  0.8191  0.3020  0.1461
  373TMC3    O2 5643   2.278   3.842  14.005 -0.3092 -0.1376 -0.5412
  374TMC3    C1 5644   4.452   4.040   8.929 -0.4631  0.7248 -0.0130
  374TMC3    C2 5645   4.549   4.123   8.966  0.1963  0.3016 -0.7947
  374TMC3    C3 5646   4.671   4.126   8.896 -0.6244 -0.0951  0.3230
  374TMC3    C4 5647   4.467   3.953   8.829  0.3485 -0.1340 -0.7108
  374TMC3    C5 5648   4.591   3.950   8.769 -0.6698 -0.3466 -0.2591
  374TMC3    C6 5649   4.695   4.035   8.800 -1.0524  0.4673 -0.7101
  374TMC3     C 5650   4.336   4.015   9.010 -0.0645 -0.0925 -0.7031
  374TMC3     O 5651   4.250   3.934   8.973 -0.8268  0.2234 -0.0739
  374TMC3     H 5652   4.527   4.202   9.037 -0.8631 -1.1642  0.5015
  374TMC3    H1 5653   4.378   3.897   8.803 -0.3993 -0.1225  1.9205
  374TMC3    H2 5654   0.053   4.036   8.747 -0.8482 -1.7101 -0.3911
  374TMC3    C7 5655   4.616   3.821   8.697 -0.2551  0.0267  1.2300
  374TMC3    C8 5656   0.048   4.217   8.924  0.6418 -0.6487 -0.2808
  374TMC3    O1 5657   4.527   3.737   8.687  0.3134  0.1767  0.4363
  374TMC3    O2 5658   0.118   4.261   8.832  0.2887  0.2864 -0.0793
  375MPD2     C 5659   3.465   4.694  17.326 -0.7216  0.8610 -0.7769
  375MPD2    C1 5660   3.395   4.674  17.207 -0.5089  0.2709 -0.1899
  375MPD2    C2 5661   3.463   4.621  17.106  0.1093 -0.2148  0.1248
  375MPD2    C3 5662   3.594   4.587  17.110  0.0476  0.0280  0.6374
  375MPD2    C4 5663   3.670   4.617  17.221 -0.6284 -0.3558 -0.6345
  375MPD2    C5 5664   3.605   4.676  17.332  0.1224 -0.8682 -0.0014
  375MPD2     H 5665   3.415   4.604  17.010  0.0087 -0.7038  0.2618
  375MPD2    H1 5666   3.778   4.607  17.224 -0.6072  0.7224  2.5405
  375MPD2    H2 5667   3.425   0.012  17.411  0.2483 -2.4975  1.8402
  375MPD2    H3 5668   3.654   4.726  17.414 -1.4882 -1.0947  1.1094
  375MPD2     N 5669   3.664   4.534  17.001 -0.1599  0.0699 -0.0222
  375MPD2    H5 5670   3.765   4.529  17.006 -0.1433 -0.0625 -0.5010
  375MPD2    N1 5671   3.256   4.702  17.188 -0.6575  0.2858 -0.4377
  375MPD2    H7 5672   3.206   4.667  17.107  2.0201 -0.1313 -1.8983
  376TMC3    C1 5673   3.686   4.458  16.771 -0.3875  0.5943 -0.7018
  376TMC3    C2 5674   3.817   4.438  16.796  0.1693  0.0543 -0.5039
  376TMC3    C3 5675   3.894   4.441  16.680  0.6791 -0.2687 -0.6860
  376TMC3    C4 5676   3.627   4.478  16.652  0.5279 -0.5297 -0.6174
  376TMC3    C5 5677   3.713   4.472  16.539  0.0768 -0.8110 -0.3733
  376TMC3    C6 5678   3.843   4.445  16.554  0.0431  0.6724  0.5929
  376TMC3     C 5679   3.596   4.484  16.887  0.0543 -0.1734 -0.4070
  376TMC3     O 5680   3.479   4.452  16.877 -0.2454  0.7934 -0.1173
  376TMC3     H 5681   3.858   4.420  16.895 -0.6909  3.2251  0.4149
  376TMC3    H1 5682   3.519   4.494  16.652  0.9182  2.0913 -2.6332
  376TMC3    H2 5683   3.914   4.441  16.472  1.3361  1.7232  1.6589
  376TMC3    C7 5684   3.668   4.518  16.408  0.0405 -0.4855  0.4819
  376TMC3    C8 5685   4.032   4.472  16.704  0.2710  0.0261 -0.3227
  376TMC3    O1 5686   3.744   4.530  16.313  0.0762  0.2643  0.3240
  376TMC3    O2 5687   4.073   4.535  16.606  0.1667  0.1307 -0.1432
  377MPD2     C 5688   2.435   3.737  12.804 -0.0693 -0.2023 -0.2069
  377MPD2    C1 5689   2.418   3.865  12.838 -0.7829 -0.1723 -0.6035
  377MPD2    C2 5690   2.304   3.900  12.911 -0.2803  0.0216 -0.3638
  377MPD2    C3 5691   2.204   3.807  12.935 -0.1175 -0.1616 -0.7113
  377MPD2    C4 5692   2.223   3.674  12.894 -0.2840  0.0556 -0.7289
  377MPD2    C5 5693   2.338   3.639  12.821 -0.1828  0.9387 -0.8896
  377MPD2     H 5694   2.291   4.005  12.935  0.7913  0.1405 -0.3408
  377MPD2    H1 5695   2.144   3.602  12.914  0.5371 -0.6657 -0.0768
  377MPD2    H2 5696   2.522   3.703  12.750  0.7775  0.0927  0.9671
  377MPD2    H3 5697   2.360   3.538  12.790 -0.0541  0.4650  0.7173
  377MPD2     N 5698   2.083   3.831  13.001 -0.0383 -0.2426 -0.1094
  377MPD2    H5 5699   2.031   3.745  13.014  0.3927 -0.5542 -0.4636
  377MPD2    N1 5700   2.520   3.955  12.794 -0.0376  0.2293 -0.4107
  377MPD2    H7 5701   2.577   3.916  12.720  2.8647  0.5168  1.6996
  378TMC3    C1 5702   2.562   4.253  12.507 -0.4862 -0.4317 -0.1628
  378TMC3    C2 5703   2.520   4.242  12.640  0.8617 -0.4977 -0.5736
  378TMC3    C3 5704   2.594   4.165  12.721  0.0565  0.2708  0.1090
  378TMC3    C4 5705   2.681   4.195  12.463  0.4447  0.4850 -0.5721
  378TMC3    C5 5706   2.759   4.122  12.561 -0.1197 -0.2601 -0.6241
  378TMC3    C6 5707   2.716   4.111  12.688  0.2380 -0.5253 -0.4326
  378TMC3     C 5708   2.479   4.328  12.412 -0.1449 -0.1539  0.1989
  378TMC3     O 5709   2.370   4.366  12.454 -0.3818 -0.4756  0.0837
  378TMC3     H 5710   2.426   4.280  12.678  1.1008 -1.1660  0.6808
  378TMC3    H1 5711   2.706   4.193  12.358  1.7970 -2.2413 -0.2192
  378TMC3    H2 5712   2.766   4.051  12.763 -0.3800 -0.5839 -0.0679
  378TMC3    C7 5713   2.887   4.067  12.520  0.1550 -0.3072  0.1267
  378TMC3    C8 5714   2.513   4.092  12.814  0.1122  0.3364 -0.2170
  378TMC3    O1 5715   2.946   4.002  12.608  0.9989 -0.2540  0.0696
  378TMC3    O2 5716   2.437   4.163  12.878 -0.9012 -0.4700 -0.0976
  379MPD2     C 5717   2.517   2.287  16.207  1.0125 -0.3400  0.4026
  379MPD2    C1 5718   2.445   2.203  16.282 -0.0555  0.7601 -0.8407
  379MPD2    C2 5719   2.506   2.124  16.379 -0.0033 -0.3196 -0.5702
  379MPD2    C3 5720   2.637   2.142  16.421 -0.9356  0.3061  0.3249
  379MPD2    C4 5721   2.709   2.230  16.338 -0.2940  0.1968  0.1145
  379MPD2    C5 5722   2.646   2.299  16.238 -0.0592 -0.2435  0.6932
  379MPD2     H 5723   2.447   2.060  16.444 -0.9944  0.1822 -0.9871
  379MPD2    H1 5724   2.812   2.261  16.354 -0.0964 -0.0108 -0.7399
  379MPD2    H2 5725   2.484   2.345  16.121  2.2741 -0.2420 -0.0173
  379MPD2    H3 5726   2.703   2.366  16.175 -0.4243 -0.2128  0.3943
  379MPD2     N 5727   2.697   2.065  16.518 -0.6027 -0.6742 -0.2389
  379MPD2    H5 5728   2.797   2.048  16.513 -0.5354  0.3140 -2.4744
  379MPD2    N1 5729   2.309   2.206  16.254  0.0435  0.0549  0.4655
  379MPD2    H7 5730   2.278   2.284  16.198 -0.2477  0.7896  1.6505
  380TMC3    C1 5731   2.102   2.084  16.188  0.3770  0.2541 -0.3663
  380TMC3    C2 5732   2.076   1.963  16.143 -0.4052 -1.3794  0.4214
  380TMC3    C3 5733   2.004   1.950  16.029 -0.9126 -0.7758 -0.8364
  380TMC3    C4 5734   2.045   2.203  16.138  0.1961  0.7976  0.3261
  380TMC3    C5 5735   1.972   2.185  16.024 -0.1373 -0.7176  0.1716
  380TMC3    C6 5736   1.951   2.060  15.968 -0.1028  1.0113 -0.1494
  380TMC3     C 5737   2.220   2.097  16.282  0.4274 -0.5005 -0.2430
  380TMC3     O 5738   2.236   2.000  16.354 -0.1794 -0.4175 -0.3052
  380TMC3     H 5739   2.132   1.881  16.186 -1.0687 -1.8543  0.3785
  380TMC3    H1 5740   2.073   2.297  16.185  0.9324  2.3805 -3.2310
  380TMC3    H2 5741   1.889   2.057  15.879 -0.0801  0.2116 -0.1366
  380TMC3    C7 5742   1.935   2.311  15.960 -0.0632  0.1147 -0.4206
  380TMC3    C8 5743   2.008   1.824  15.962  0.6316 -0.1064  0.5837
  380TMC3    O1 5744   1.983   2.416  16.009 -0.5133  0.0971 -0.3232
  380TMC3    O2 5745   1.979   1.821  15.844 -0.3738 -0.4145 -0.4430
  381TMC3    C1 5746   1.707   3.349  16.202 -0.4278 -0.3031  0.2953
  381TMC3    C2 5747   1.786   3.459  16.174  0.7850 -0.6348  0.1422
  381TMC3    C3 5748   1.799   3.548  16.286 -0.1387  0.5431  0.7855
  381TMC3    C4 5749   1.631   3.336  16.317 -0.7522  0.2596  0.3697
  381TMC3    C5 5750   1.646   3.429  16.418  0.0241  0.6544 -1.0524
  381TMC3    C6 5751   1.724   3.536  16.404  0.9539  0.2436 -0.0768
  381TMC3     C 5752   1.701   3.246  16.096  0.1746 -0.8253  0.5324
  381TMC3     O 5753   1.749   3.272  15.985  0.3442 -0.1542 -0.1527
  381TMC3     H 5754   1.841   3.465  16.080  0.5682  1.0024  0.1221
  381TMC3    H1 5755   1.561   3.253  16.324 -1.0107  0.6100  1.8677
  381TMC3    H2 5756   1.724   3.618  16.474  2.0552  1.6903 -1.7670
  381TMC3    C7 5757   1.608   3.373  16.547  0.2062  0.1972 -0.6608
  381TMC3    C8 5758   1.882   3.666  16.263 -0.2753 -0.0435 -0.1885
  381TMC3    O1 5759   1.619   3.251  16.550 -0.6897 -0.2543  0.0184
  381TMC3    O2 5760   1.916   3.689  16.147 -0.0679 -0.3934  1.3588
  382MPD2     C 5761   1.599   1.521  17.058  0.4050  0.7522 -0.2558
  382MPD2    C1 5762   1.488   1.471  17.131 -0.0433 -0.9290  0.0901
  382MPD2    C2 5763   1.462   1.337  17.125 -0.4273 -0.9683  0.3517
  382MPD2    C3 5764   1.534   1.257  17.040  0.1574  1.0368  0.7289
  382MPD2    C4 5765   1.624   1.307  16.950  0.0434  0.1957  0.4910
  382MPD2    C5 5766   1.650   1.442  16.959 -0.1965 -0.1595  1.0177
  382MPD2     H 5767   1.383   1.290  17.183 -1.5958  0.4119 -0.1364
  382MPD2    H1 5768   1.694   1.252  16.888  0.3518 -0.5656  1.5070
  382MPD2    H2 5769   1.627   1.625  17.074  0.2734  0.8725 -0.8162
  382MPD2    H3 5770   1.725   1.480  16.891  0.4160 -1.7528  0.7976
  382MPD2     N 5771   1.514   1.116  17.048 -0.4225  0.2357  0.5243
  382MPD2    H5 5772   1.444   1.074  17.108  0.3868 -0.2377  1.1412
  382MPD2    N1 5773   1.406   1.536  17.221  0.5752 -0.1924  0.0850
  382MPD2    H7 5774   1.347   1.479  17.281  0.6164  1.5892  1.7989
  383TMC3    C1 5775   1.553   0.891  17.035 -0.3199  0.4565 -0.2436
  383TMC3    C2 5776   1.416   0.851  17.031  0.1054 -0.8678 -1.0436
  383TMC3    C3 5777   1.370   0.782  17.136 -0.2720  0.0866 -0.0670
  383TMC3    C4 5778   1.639   0.847  17.128 -0.2441 -0.6613  0.4619
  383TMC3    C5 5779   1.588   0.766  17.226  0.6064 -0.0081 -0.5339
  383TMC3    C6 5780   1.453   0.740  17.242 -1.0535  0.0109  0.3020
  383TMC3     C 5781   1.583   1.017  16.978 -0.3540 -0.4212 -0.0208
  383TMC3     O 5782   1.691   1.035  16.922 -0.5274  0.2757  0.5193
  383TMC3     H 5783   1.345   0.906  16.970  0.9382  0.0764 -1.1696
  383TMC3    H1 5784   1.742   0.877  17.139 -0.5504  0.9205 -0.9483
  383TMC3    H2 5785   1.415   0.681  17.324 -1.1875  0.9692  0.9222
  383TMC3    C7 5786   1.674   0.707  17.324  0.1398 -0.9371 -0.1188
  383TMC3    C8 5787   1.234   0.745  17.132  0.4679 -0.4374  0.3021
  383TMC3    O1 5788   1.628   0.675  17.437  0.1010 -0.1700 -0.0247
  383TMC3    O2 5789   1.161   0.814  17.062 -0.7089  0.0575  0.0578
  384MPD2     C 5790   2.731   2.008  11.866  1.0795  0.5209  0.5727
  384MPD2    C1 5791   2.793   1.964  11.983 -0.1554  0.3603  0.1499
  384MPD2    C2 5792   2.861   1.844  11.980 -0.8034 -0.5814 -0.0955
  384MPD2    C3 5793   2.868   1.766  11.863 -0.1542  0.2851  0.2047
  384MPD2    C4 5794   2.804   1.811  11.752  0.2151  0.0390 -0.1410
  384MPD2    C5 5795   2.737   1.935  11.751 -0.1977 -0.0558 -0.0318
  384MPD2     H 5796   2.919   1.814  12.067 -0.4439  2.6830  0.8170
  384MPD2    H1 5797   2.812   1.754  11.660 -0.1113 -1.2443  0.6124
  384MPD2    H2 5798   2.683   2.105  11.865 -2.9781 -1.4716 -0.0052
  384MPD2    H3 5799   2.697   1.973  11.657 -0.8038  0.6614  0.5190
  384MPD2     N 5800   2.913   1.639  11.880 -0.1143  0.3205  0.8384
  384MPD2    H5 5801   2.945   1.619  11.974 -1.6942 -1.1805  1.0605
  384MPD2    N1 5802   2.801   2.035  12.103 -0.0381 -0.1420 -0.6708
  384MPD2    H7 5803   2.855   1.988  12.175  0.7412 -3.7940 -3.6325
  385TMC3    C1 5804   2.942   1.413  11.838  0.2658  0.9032  0.4947
  385TMC3    C2 5805   3.050   1.341  11.802 -0.6471 -0.1730  0.2634
  385TMC3    C3 5806   3.131   1.291  11.901  0.6274 -0.2715 -0.3565
  385TMC3    C4 5807   2.902   1.410  11.969  0.1461 -0.5868  0.6553
  385TMC3    C5 5808   2.980   1.350  12.066 -0.2359 -0.0456 -0.6106
  385TMC3    C6 5809   3.101   1.297  12.033  0.0276  0.3194  0.1526
  385TMC3     C 5810   2.923   1.541  11.781  1.0480 -0.4623 -0.3624
  385TMC3     O 5811   2.936   1.554  11.661  0.4016  0.0823  0.3161
  385TMC3     H 5812   3.088   1.365  11.703 -0.0434  2.2709  1.0659
  385TMC3    H1 5813   2.812   1.463  11.999 -0.5197 -1.1943 -0.2677
  385TMC3    H2 5814   3.171   1.260  12.107 -0.0004 -1.5435 -0.7490
  385TMC3    C7 5815   2.983   1.452  12.176  0.4524 -0.2236 -0.3253
  385TMC3    C8 5816   3.230   1.186  11.867 -0.3272 -0.2554  0.0761
  385TMC3    O1 5817   2.984   1.566  12.127  0.2339 -0.2918 -0.2809
  385TMC3    O2 5818   3.312   1.157  11.955  0.1213  0.0158  0.5355
  386TMC3    C1 5819   3.859   4.411  11.953  0.4709 -0.0267  0.5584
  386TMC3    C2 5820   3.812   4.401  11.828 -0.9554 -0.2193 -1.1866
  386TMC3    C3 5821   3.737   4.507  11.796  0.3880 -0.3008 -0.1583
  386TMC3    C4 5822   3.828   4.499  12.050 -0.7038  0.4590 -0.4477
  386TMC3    C5 5823   3.753   4.605  12.007 -0.0016 -0.1274 -0.1118
  386TMC3    C6 5824   3.709   4.602  11.879  0.0287 -0.1101 -0.4333
  386TMC3     C 5825   3.928   4.296  12.014  0.1550 -0.4147 -0.1867
  386TMC3     O 5826   4.002   4.320  12.106 -0.0294 -0.7282  0.0381
  386TMC3     H 5827   3.837   4.318  11.763  0.5201  0.3067 -1.2905
  386TMC3    H1 5828   3.857   4.482  12.153  1.7272  0.0906 -1.1868
  386TMC3    H2 5829   3.654   4.687  11.842  1.9891  1.1805 -0.3950
  386TMC3    C7 5830   3.680   4.690  12.095 -0.0812 -0.0205  0.7050
  386TMC3    C8 5831   3.675   4.511  11.661  0.2992 -0.4246  0.2913
  386TMC3    O1 5832   3.576   4.734  12.055  0.0431  0.3450  0.4159
  386TMC3    O2 5833   3.568   4.569  11.658 -0.0123 -0.3071  0.2602
  387MPD2     C 5834   1.365   4.695   9.848 -0.0687 -0.1317 -0.2810
  387MPD2    C1 5835   1.484   4.637   9.883  0.3118  0.4297 -0.2312
  387MPD2    C2 5836   1.502   4.497   9.871 -0.1196  1.4740 -0.0769
  387MPD2    C3 5837   1.398   4.423   9.818 -0.3744  0.0426  0.5890
  387MPD2    C4 5838   1.280   4.490   9.776  0.3314  0.6702 -0.9212
  387MPD2    C5 5839   1.264   4.622   9.801  0.2557  1.0348 -0.5078
  387MPD2     H 5840   1.599   4.453   9.891 -2.1684 -2.1459  1.7323
  387MPD2    H1 5841   1.201   4.425   9.740 -0.5762  1.2082  0.0820
  387MPD2    H2 5842   1.343   0.064   9.857 -1.6490 -0.4364 -0.7372
  387MPD2    H3 5843   1.168   4.666   9.776  0.3396  0.8468 -1.1561
  387MPD2     N 5844   1.421   4.287   9.813 -0.2120  0.2502  0.7665
  387MPD2    H5 5845   1.511   4.244   9.832  1.3740  2.2192 -2.2383
  387MPD2    N1 5846   1.597   4.704   9.936 -0.2406 -0.4192 -0.2576
  387MPD2    H7 5847   1.680   4.650   9.956 -0.3432 -0.5788 -0.2561
  388TMC3    C1 5848   1.700   0.126  10.075 -0.0398 -0.1460  0.1250
  388TMC3    C2 5849   1.661   0.212  10.173 -0.2417  0.0112 -0.6397
  388TMC3    C3 5850   1.708   0.200  10.300  0.0629 -0.2553  0.1781
  388TMC3    C4 5851   1.795   0.028  10.102 -0.1545  0.3035 -0.0797
  388TMC3    C5 5852   1.837   0.020  10.226  0.3623 -0.1292  0.4721
  388TMC3    C6 5853   1.798   0.098  10.327 -0.1094 -0.1828 -0.1037
  388TMC3     C 5854   1.591   0.094   9.983  0.4413 -0.2888  0.2396
  388TMC3     O 5855   1.490   0.167   9.984 -0.5413 -0.3737  0.7684
  388TMC3     H 5856   1.573   0.272  10.151 -1.5468 -1.6642  0.0006
  388TMC3    H1 5857   1.834   4.701  10.023  0.9786  0.2622  0.5113
  388TMC3    H2 5858   1.847   0.089  10.424  2.7487  3.3294 -1.2272
  388TMC3    C7 5859   1.881   4.619  10.253 -0.3965  0.4072 -0.6970
  388TMC3    C8 5860   1.648   0.268  10.412 -0.5944  0.1295  0.3371
  388TMC3    O1 5861   1.959   4.610  10.347  0.4493  0.0833  0.0677
  388TMC3    O2 5862   1.659   0.220  10.524 -0.5073  0.0906 -0.1336
  389MPD2     C 5863   0.416   2.819  10.232  0.2984  0.8629 -0.7175
  389MPD2    C1 5864   0.292   2.831  10.282 -0.5113  0.5094  0.5471
  389MPD2    C2 5865   0.249   2.735  10.372  0.2180 -0.0552 -0.4167
  389MPD2    C3 5866   0.319   2.626  10.412  0.3883 -0.3110 -0.7194
  389MPD2    C4 5867   0.449   2.617  10.359 -0.4471  0.7571  0.0398
  389MPD2    C5 5868   0.493   2.711  10.272  0.2331 -0.0216  0.2335
  389MPD2     H 5869   0.150   2.747  10.415  0.4410 -0.8165  0.2970
  389MPD2    H1 5870   0.517   2.538  10.390 -0.8996 -0.0222 -0.9465
  389MPD2    H2 5871   0.462   2.887  10.162  0.9005  1.9773  0.7880
  389MPD2    H3 5872   0.593   2.702  10.232  0.8226  0.0948  1.6815
  389MPD2     N 5873   0.277   2.526  10.498  0.4921  0.6187 -0.0923
  389MPD2    H5 5874   0.344   2.454  10.524  0.2285  0.2245 -0.4929
  389MPD2    N1 5875   0.228   2.950  10.241  0.6328 -0.4278  0.2846
  389MPD2    H7 5876   0.273   3.012  10.174 -2.2461  1.2068 -0.1897
  390TMC3    C1 5877   0.142   2.390  10.627  0.1708 -0.3850 -0.5281
  390TMC3    C2 5878   0.014   2.343  10.660  0.2294  0.1717  0.3280
  390TMC3    C3 5879   4.720   2.292  10.783  0.4720 -0.0920 -0.6727
  390TMC3    C4 5880   0.234   2.381  10.726  0.3759  0.0649  0.2243
  390TMC3    C5 5881   0.201   2.316  10.846 -0.4455 -0.5244  0.3981
  390TMC3    C6 5882   0.081   2.258  10.869 -0.0008  0.1466  0.0138
  390TMC3     C 5883   0.147   2.504  10.531  0.4374  0.2850  0.1668
  390TMC3     O 5884   0.045   2.571  10.520 -0.0234 -0.7322 -0.0205
  390TMC3     H 5885   4.672   2.367  10.588  1.8204  0.6364 -1.2555
  390TMC3    H1 5886   0.331   2.428  10.711  1.2294 -1.4688  0.9599
  390TMC3    H2 5887   0.052   2.209  10.961 -2.6267 -0.1934 -0.9986
  390TMC3    C7 5888   0.297   2.347  10.955  0.7618  0.4434 -0.0910
  390TMC3    C8 5889   4.590   2.240  10.810  0.0681 -0.6269 -0.3680
  390TMC3    O1 5890   0.377   2.435  10.936 -0.1800 -0.6129 -0.1791
  390TMC3    O2 5891   4.544   2.153  10.736 -0.1097 -0.3415  0.1356
  391MPD2     C 5892   4.395   4.310  10.414  0.0012 -0.5943  1.0223
  391MPD2    C1 5893   4.531   4.333  10.439  0.4985 -0.1487 -0.7459
  391MPD2    C2 5894   4.598   4.381  10.332 -0.5940 -0.2580  0.0876
  391MPD2    C3 5895   4.540   4.407  10.207  0.1864  0.0267  0.1274
  391MPD2    C4 5896   4.415   4.382  10.180  0.1640 -0.5828 -0.4166
  391MPD2    C5 5897   4.340   4.331  10.285  0.2287  0.3352 -0.6100
  391MPD2     H 5898   4.706   4.392  10.325 -0.4221 -2.2123 -0.4059
  391MPD2    H1 5899   4.363   4.409  10.088  0.7763 -1.4258 -1.0077
  391MPD2    H2 5900   4.334   4.272  10.495 -0.9414 -0.5445  0.3369
  391MPD2    H3 5901   4.234   4.322  10.269 -0.3690  2.1922  2.3762
  391MPD2     N 5902   4.628   4.458  10.103  0.0322 -0.0220 -0.4610
  391MPD2    H5 5903   4.715   4.502  10.131  0.3154 -0.3868 -0.7559
  391MPD2    N1 5904   4.585   4.278  10.556 -0.0711 -0.1034 -0.3545
  391MPD2    H7 5905   4.533   4.237  10.633  0.6550  2.2288  1.3717
  392TMC3    C1 5906   4.712   4.500   9.880 -0.2473 -0.7275 -0.1781
  392TMC3    C2 5907   4.719   4.449   9.749  0.5018  0.0711 -0.0674
  392TMC3    C3 5908   0.099   4.486   9.674  0.8154  0.3741 -0.4194
  392TMC3    C4 5909   0.078   4.563   9.935 -0.4287  0.0718 -0.3873
  392TMC3    C5 5910   0.190   4.593   9.859  0.1054 -0.5473  0.3880
  392TMC3    C6 5911   0.211   4.545   9.734 -0.1447 -0.4415  0.0871
  392TMC3     C 5912   4.611   4.436   9.964 -0.2268  0.0583  0.1585
  392TMC3     O 5913   4.515   4.389   9.903  0.5884  0.2103  0.0322
  392TMC3     H 5914   4.639   4.386   9.711 -0.6730  0.6542  1.4802
  392TMC3    H1 5915   0.077   4.624  10.025  0.4605  0.3432 -0.5621
  392TMC3    H2 5916   0.304   4.564   9.682 -1.4829 -1.8025 -2.8137
  392TMC3    C7 5917   0.295   4.665   9.922  0.4121  0.5409  0.1789
  392TMC3    C8 5918   0.096   4.431   9.543  0.7931 -0.9654 -0.0064
  392TMC3    O1 5919   0.303   4.656  10.048  0.2616  0.2271 -0.6161
  392TMC3    O2 5920   0.034   4.328   9.520  0.5154  0.0639  0.3017
  393TMC3    C1 5921   3.543   2.357  10.407  0.5852 -0.3984  0.3002
  393TMC3    C2 5922   3.457   2.290  10.487 -0.1496 -0.3928  0.3922
  393TMC3    C3 5923   3.463   2.154  10.475  0.1674 -0.5104  0.5501
  393TMC3    C4 5924   3.636   2.305  10.323 -0.0189 -0.1232  0.2355
  393TMC3    C5 5925   3.643   2.170  10.326 -0.2781 -0.5922 -0.6506
  393TMC3    C6 5926   3.567   2.092  10.408  0.3720 -0.2023 -0.0841
  393TMC3     C 5927   3.543   2.502  10.432  0.1180  0.2379  0.0291
  393TMC3     O 5928   3.581   2.580  10.346 -0.1137 -0.4541 -0.3531
  393TMC3     H 5929   3.363   2.323  10.531 -0.4012 -1.3728  0.6021
  393TMC3    H1 5930   3.696   2.380  10.273 -0.5735  0.9893  1.2322
  393TMC3    H2 5931   3.563   1.985  10.392  0.7813 -0.3898  1.0937
  393TMC3    C7 5932   3.748   2.097  10.267 -0.2032  0.7765  0.7653
  393TMC3    C8 5933   3.374   2.064  10.545 -0.8099 -0.3710 -0.4276
  393TMC3    O1 5934   3.764   1.975  10.280 -0.0309  0.1955  0.0629
  393TMC3    O2 5935   3.367   1.945  10.512 -0.3907  0.7154 -0.2627
  394TMC3    C1 5936   0.062   3.119  10.208  0.6065 -0.4149 -0.2628
  394TMC3    C2 5937   4.665   3.142  10.181 -0.0076 -0.0280 -0.3398
  394TMC3    C3 5938   4.628   3.240  10.101 -0.7743  0.5008  0.0013
  394TMC3    C4 5939   0.156   3.195  10.151  0.1638 -0.5687  0.2242
  394TMC3    C5 5940   0.112   3.304  10.091 -0.0281  0.7608  0.4003
  394TMC3    C6 5941   4.717   3.338  10.074 -0.6575 -0.6070  0.0929
  394TMC3     C 5942   0.099   2.994  10.280  0.3162  0.1091  0.7022
  394TMC3     O 5943   0.007   2.932  10.330  0.5322 -0.3381  0.1484
  394TMC3     H 5944   4.597   3.071  10.227 -0.1088 -0.8093 -1.6949
  394TMC3    H1 5945   0.254   3.194  10.198  0.8361 -1.1174 -1.2066
  394TMC3    H2 5946   4.676   3.418  10.013  0.9476  0.7728  0.8282
  394TMC3    C7 5947   0.224   3.394  10.043  0.1997 -0.5426  0.6851
  394TMC3    C8 5948   4.574   3.179   9.981  0.0551 -0.1954 -0.1696
  394TMC3    O1 5949   0.214   3.512  10.047 -0.5319  0.4330 -0.5518
  394TMC3    O2 5950   4.549   3.250   9.886 -0.0685  0.4248  0.0415
  395TMC3    C1 5951   4.230   4.559  14.755  0.5873 -0.2790  0.1252
  395TMC3    C2 5952   4.162   4.603  14.645  0.3605  0.2646 -1.0363
  395TMC3    C3 5953   4.224   4.586  14.523 -0.2990 -0.4381 -0.9346
  395TMC3    C4 5954   4.363   4.521  14.746 -0.1345 -0.7749 -0.8627
  395TMC3    C5 5955   4.427   4.523  14.623  0.2930  0.8898 -0.4723
  395TMC3    C6 5956   4.351   4.539  14.510 -0.0083 -0.7006 -0.3647
  395TMC3     C 5957   4.166   4.560  14.887 -0.4491  0.6678 -0.1429
  395TMC3     O 5958   4.237   4.551  14.990  0.1450 -0.0387 -0.2521
  395TMC3     H 5959   4.061   4.642  14.639  0.3247  0.4861  1.1260
  395TMC3    H1 5960   4.424   4.507  14.835 -1.8932  1.8550  0.7441
  395TMC3    H2 5961   4.408   4.558  14.419 -2.3110 -1.9174 -2.0451
  395TMC3    C7 5962   4.560   4.580  14.629 -0.0196 -0.0966 -0.7550
  395TMC3    C8 5963   4.143   4.609  14.393  0.4127  0.8639  0.0035
  395TMC3    O1 5964   4.580   4.634  14.737 -0.0569  0.1624  0.6721
  395TMC3    O2 5965   4.067   4.704  14.382  0.1389  0.2188 -0.4801
  396MPD2     C 5966   4.646   0.719  17.373 -0.3295  0.3845 -0.3090
  396MPD2    C1 5967   4.733   0.823  17.405  0.3020  0.4070  0.1925
  396MPD2    C2 5968   0.011   0.933  17.318  0.6984 -0.1694  0.4936
  396MPD2    C3 5969   4.679   0.933  17.190  0.0122  0.2985 -0.5501
  396MPD2    C4 5970   4.587   0.834  17.164  0.0961  0.0110  0.0456
  396MPD2    C5 5971   4.582   0.727  17.252  0.7485  0.3460 -0.5600
  396MPD2     H 5972   0.086   1.008  17.337  0.3555  0.8947 -2.3439
  396MPD2    H1 5973   4.532   0.830  17.070 -0.3130 -2.2434  0.3804
  396MPD2    H2 5974   4.630   0.634  17.438 -2.5068  2.8545  2.3883
  396MPD2    H3 5975   4.524   0.641  17.218 -1.2365  0.9316  1.3811
  396MPD2     N 5976   4.707   1.032  17.095  0.2707 -0.0360  0.1228
  396MPD2    H5 5977   0.041   1.100  17.124  0.3707 -0.4581  0.8956
  396MPD2    N1 5978   0.072   0.812  17.520  0.5607 -0.0391  0.0236
  396MPD2    H7 5979   0.062   0.728  17.576 -2.2564  0.0069 -0.4113
  397TMC3    C1 5980   0.242   0.822  17.667  0.4990  0.2967  0.5136
  397TMC3    C2 5981   0.366   0.802  17.616 -0.3084  0.3111  0.6249
  397TMC3    C3 5982   0.402   0.676  17.575 -0.3818  0.1699  0.0407
  397TMC3    C4 5983   0.171   0.710  17.720  0.0457 -0.2008 -0.4818
  397TMC3    C5 5984   0.219   0.588  17.691 -0.0330 -0.1592  0.0801
  397TMC3    C6 5985   0.327   0.560  17.616  0.0405 -0.4590  0.3665
  397TMC3     C 5986   0.159   0.902  17.578 -0.0855  0.9935 -0.4401
  397TMC3     O 5987   0.189   1.016  17.546 -0.6316 -0.4066 -0.4501
  397TMC3     H 5988   0.422   0.882  17.568  0.9311  0.2900  2.0326
  397TMC3    H1 5989   0.070   0.726   0.015 -0.1078 -0.0711 -0.9494
  397TMC3    H2 5990   0.377   0.465  17.606  0.1934 -0.4854  1.3856
  397TMC3    C7 5991   0.126   0.473  17.694  0.3935 -0.5643 -0.9425
  397TMC3    C8 5992   0.429   0.657  17.437 -0.6153 -0.0058  0.2756
  397TMC3    O1 5993   0.139   0.391  17.607  0.0152 -0.5390  0.7188
  397TMC3    O2 5994   0.361   0.571  17.384 -0.4488 -0.1899  0.1111
  398MPD2     C 5995   2.244   2.261   0.287  0.4516  0.9488 -0.5074
  398MPD2    C1 5996   2.370   2.213   0.334  0.1283 -0.0332  0.2029
  398MPD2    C2 5997   2.465   2.301   0.372  0.3296 -0.6034  0.5271
  398MPD2    C3 5998   2.452   2.433   0.344  0.4302 -0.9249 -0.2293
  398MPD2    C4 5999   2.335   2.479   0.285  0.1526  0.2386  0.8448
  398MPD2    C5 6000   2.235   2.393   0.257 -0.0982  0.0603 -0.1445
  398MPD2     H 6001   2.553   2.263   0.422  1.3019 -1.9214 -2.1564
  398MPD2    H1 6002   2.326   2.585   0.265 -0.1839  0.2413  1.0088
  398MPD2    H2 6003   2.163   2.195   0.258 -1.5635  1.4745  3.9608
  398MPD2    H3 6004   2.146   2.430   0.207 -0.2999 -0.8895 -0.4987
  398MPD2     N 6005   2.567   2.510   0.363  0.0186 -0.6497  0.6209
  398MPD2    H5 6006   2.650   2.466   0.401 -1.3185 -3.1139  0.6452
  398MPD2    N1 6007   2.392   2.075   0.352  0.1599  0.2394  0.7830
  398MPD2    H7 6008   2.474   2.047   0.406 -0.9201 -2.1335  1.1774
  399TMC3    C1 6009   2.335   1.846   0.381  0.2004  0.2985 -0.1293
  399TMC3    C2 6010   2.459   1.800   0.389 -0.4905  0.2549 -0.1870
  399TMC3    C3 6011   2.467   1.666   0.414  0.2539 -0.2697 -0.6754
  399TMC3    C4 6012   2.218   1.775   0.405 -0.0053  0.1484 -0.1914
  399TMC3    C5 6013   2.232   1.647   0.433  0.4150 -0.2710  0.2342
  399TMC3    C6 6014   2.357   1.587   0.432 -0.7517 -0.0960 -0.0737
  399TMC3     C 6015   2.310   1.973   0.317 -0.2164  0.2484 -0.0204
  399TMC3     O 6016   2.202   1.974   0.261  0.4257  0.1645  0.9713
  399TMC3     H 6017   2.535   1.857   0.338 -0.0468  0.3888  0.6228
  399TMC3    H1 6018   2.118   1.817   0.402  0.4198  1.1869  0.2416
  399TMC3    H2 6019   2.374   1.482   0.451  0.0622 -0.4629 -2.7432
  399TMC3    C7 6020   2.118   1.570   0.391 -0.2380 -0.0824 -0.1444
  399TMC3    C8 6021   2.597   1.611   0.377 -0.7257  0.0438  0.2749
  399TMC3    O1 6022   2.152   1.463   0.340  0.0648  0.1777  0.0907
  399TMC3    O2 6023   2.685   1.685   0.331 -0.2051 -0.2718  0.1485
  400TMC3    C1 6024   1.034   0.355  16.788  0.1610 -0.1126 -0.5343
  400TMC3    C2 6025   0.914   0.296  16.813  0.6266  0.2046 -0.1283
  400TMC3    C3 6026   0.816   0.305  16.714 -0.7235 -0.8077 -0.1941
  400TMC3    C4 6027   1.066   0.427  16.673 -0.2357 -0.3979 -0.4655
  400TMC3    C5 6028   0.966   0.429  16.578 -0.4227  0.4297  0.0406
  400TMC3    C6 6029   0.841   0.370  16.594  0.2357  0.3768 -0.4105
  400TMC3     C 6030   1.133   0.307  16.884 -0.0655 -0.4396 -0.3142
  400TMC3     O 6031   1.121   0.192  16.922 -0.4393 -0.1337  0.3889
  400TMC3     H 6032   0.899   0.242  16.905  1.7262 -0.5116 -0.3713
  400TMC3    H1 6033   1.161   0.473  16.648 -0.5056  2.0620  2.9771
  400TMC3    H2 6034   0.759   0.375  16.524  0.5922  0.8677 -0.7907
  400TMC3    C7 6035   0.962   0.556  16.496  0.1576  0.1466 -0.0851
  400TMC3    C8 6036   0.691   0.229  16.735  0.5970  0.2890 -0.6488
  400TMC3    O1 6037   0.893   0.547  16.396  0.0968 -0.3322  0.6320
  400TMC3    O2 6038   0.657   0.221  16.854  0.2772 -0.0983  0.4430
  401MPD2     C 6039   4.439   3.888   0.900 -0.1032 -0.2340 -0.2855
  401MPD2    C1 6040   4.564   3.854   0.945 -0.3244 -0.5102 -0.0795
  401MPD2    C2 6041   4.617   3.739   0.898 -0.3796  0.4057 -0.2088
  401MPD2    C3 6042   4.549   3.658   0.806  0.0566  0.1392  0.0155
  401MPD2    C4 6043   4.421   3.697   0.756  0.6508 -0.4931 -0.1385
  401MPD2    C5 6044   4.369   3.816   0.808 -0.1814 -0.0824 -0.1394
  401MPD2     H 6045   4.715   3.713   0.936 -0.7978 -0.5541  0.2046
  401MPD2    H1 6046   4.374   3.651   0.670  0.3461 -1.3029  0.4506
  401MPD2    H2 6047   4.389   3.978   0.933 -0.5402 -1.0475  1.2436
  401MPD2    H3 6048   4.273   3.850   0.770 -1.0822 -0.3656  1.8841
  401MPD2     N 6049   4.602   3.539   0.770 -0.3305 -0.3468 -0.5139
  401MPD2    H5 6050   4.677   3.495   0.822  0.8740  0.5488 -1.5156
  401MPD2    N1 6051   4.639   3.940   1.028 -0.3216 -0.4107  0.0872
  401MPD2    H7 6052   4.729   3.903   1.059  0.1912 -0.1014 -1.0239
  402TMC3    C1 6053   4.621   3.324   0.673  0.1592  0.3221 -0.0254
  402TMC3    C2 6054   4.645   3.272   0.796 -0.3697  1.5128  0.1083
  402TMC3    C3 6055   4.712   3.156   0.801 -0.1536  1.0365 -0.2759
  402TMC3    C4 6056   4.652   3.266   0.552  0.9920 -0.3624 -0.6294
  402TMC3    C5 6057   4.718   3.148   0.569  0.2141 -0.7643  0.1578
  402TMC3    C6 6058   0.025   3.096   0.686  0.6029 -0.9454  0.0075
  402TMC3     C 6059   4.556   3.458   0.666  0.4408  0.0328  0.2557
  402TMC3     O 6060   4.483   3.484   0.570  0.3384 -0.8125  0.4519
  402TMC3     H 6061   4.600   3.310   0.887 -1.1444 -0.0674  0.3957
  402TMC3    H1 6062   4.637   3.321   0.460  1.7046  1.6334  0.4276
  402TMC3    H2 6063   0.090   3.011   0.704  1.9126  0.3360  1.3420
  402TMC3    C7 6064   4.728   3.081   0.441  0.1642  0.0775  0.8560
  402TMC3    C8 6065   0.014   3.099   0.930 -0.4151  0.4714 -0.3073
  402TMC3    O1 6066   4.696   3.134   0.339 -0.7429  0.5124 -0.1636
  402TMC3    O2 6067   0.036   2.977   0.926 -0.4267  0.3280 -0.2636
  403MPD2     C 6068   2.261   2.148  13.185 -0.7028 -0.1918  0.1286
  403MPD2    C1 6069   2.257   2.059  13.294  0.4741  1.2750 -0.3724
  403MPD2    C2 6070   2.313   2.096  13.413 -0.2193 -0.1674 -0.1976
  403MPD2    C3 6071   2.374   2.225  13.420  0.4004  0.1993 -0.3658
  403MPD2    C4 6072   2.383   2.307  13.314 -0.5640 -0.4679  0.4747
  403MPD2    C5 6073   2.321   2.271  13.191 -0.1468 -0.4489  0.1567
  403MPD2     H 6074   2.331   2.020  13.488  2.6729  0.5306 -0.1582
  403MPD2    H1 6075   2.432   2.404  13.308  0.3126 -1.0634 -1.8827
  403MPD2    H2 6076   2.215   2.115  13.093 -1.3512 -0.9288  0.7185
  403MPD2    H3 6077   2.318   2.340  13.107 -0.4745 -3.0948 -2.0351
  403MPD2     N 6078   2.441   2.251  13.541  0.5269  0.3594  0.2659
  403MPD2    H5 6079   2.429   2.183  13.615 -2.6887 -1.4589 -1.9067
  403MPD2    N1 6080   2.191   1.932  13.274 -0.2184 -0.8028 -0.2601
  403MPD2    H7 6081   2.164   1.917  13.177  0.0170 -0.5769 -0.3619
  404TMC3    C1 6082   2.120   1.712  13.341 -0.3407  0.4880  0.4140
  404TMC3    C2 6083   2.129   1.626  13.438  0.2533  0.0308 -0.2359
  404TMC3    C3 6084   2.199   1.508  13.418  0.2661  0.1954 -0.7103
  404TMC3    C4 6085   2.164   1.673  13.218 -0.0968 -0.0045 -0.3944
  404TMC3    C5 6086   2.214   1.548  13.191  0.4253  0.1841  0.0952
  404TMC3    C6 6087   2.234   1.465  13.295 -0.6372 -0.5108 -0.2297
  404TMC3     C 6088   2.142   1.852  13.379 -0.1876 -0.0378 -1.0622
  404TMC3     O 6089   2.132   1.882  13.496  0.6835 -1.1918  0.1130
  404TMC3     H 6090   2.105   1.661  13.538  0.9452 -0.9845  0.2799
  404TMC3    H1 6091   2.141   1.726  13.127  1.8851  2.5682  0.6063
  404TMC3    H2 6092   2.278   1.367  13.294 -0.3078 -0.3513 -0.9512
  404TMC3    C7 6093   2.285   1.514  13.067 -0.1740  0.4452  0.1102
  404TMC3    C8 6094   2.252   1.433  13.531 -0.1950  0.1822  1.1753
  404TMC3    O1 6095   2.391   1.454  13.078  0.4957 -0.0788  0.6042
  404TMC3    O2 6096   2.342   1.355  13.510  0.3677  0.4073  0.1282
  405MPD2     C 6097   2.995   1.613  15.463 -0.3499 -0.1059  0.3506
  405MPD2    C1 6098   2.955   1.605  15.330  0.2544  0.5001  0.6710
  405MPD2    C2 6099   2.900   1.713  15.258 -0.7369 -0.1425 -0.1998
  405MPD2    C3 6100   2.888   1.831  15.329  0.4464 -0.1722  0.3222
  405MPD2    C4 6101   2.928   1.843  15.459  0.1467  0.3896 -0.4160
  405MPD2    C5 6102   2.980   1.735  15.527  0.4697 -0.0314 -0.6059
  405MPD2     H 6103   2.875   1.712  15.153 -0.3416 -2.0828 -0.2680
  405MPD2    H1 6104   2.923   1.938  15.511  0.1079  0.0109  0.2720
  405MPD2    H2 6105   3.048   1.535  15.515 -0.3669 -0.2987  0.0755
  405MPD2    H3 6106   3.002   1.755  15.631  1.0581  0.4816 -0.8358
  405MPD2     N 6107   2.822   1.935  15.259 -1.0623  0.1957 -0.5337
  405MPD2    H5 6108   2.791   1.918  15.165  0.9589  1.8732 -1.5155
  405MPD2    N1 6109   2.955   1.477  15.271 -0.3564 -0.3314 -0.1532
  405MPD2    H7 6110   2.995   1.401  15.325 -0.3641  0.1522  0.5342
  406TMC3    C1 6111   2.639   2.312  15.106 -0.1104 -0.5670 -0.2383
  406TMC3    C2 6112   2.535   2.238  15.036 -0.8969 -0.1822 -0.1747
  406TMC3    C3 6113   2.528   2.102  15.068 -0.1055 -0.5215  0.0516
  406TMC3    C4 6114   2.727   2.253  15.194 -0.4340  0.6531 -0.1323
  406TMC3    C5 6115   2.717   2.122  15.212  0.0219  0.6801 -0.7922
  406TMC3    C6 6116   2.617   2.047  15.160  0.5087  0.1433  0.2985
  406TMC3     C 6117   2.693   2.426  15.037  0.3217 -0.0099  0.4288
  406TMC3     O 6118   2.813   2.438  15.044  0.3985 -0.8476 -0.0768
  406TMC3     H 6119   2.469   2.283  14.963 -1.0422  1.6072  1.0469
  406TMC3    H1 6120   2.813   2.309  15.227 -0.2677 -0.2717  1.0044
  406TMC3    H2 6121   2.603   1.949  15.205 -1.7118  0.4342  0.2361
  406TMC3    C7 6122   2.817   2.063  15.295  0.2453 -0.0312  0.0481
  406TMC3    C8 6123   2.444   2.012  14.983  0.4307  0.3145  0.5645
  406TMC3    O1 6124   2.880   2.130  15.371  0.3699  0.0105 -0.5050
  406TMC3    O2 6125   2.365   2.057  14.905 -0.3721 -0.4365  0.0983
  407MPD2     C 6126   0.690   3.675   9.731 -0.1744  0.1474 -0.3493
  407MPD2    C1 6127   0.819   3.717   9.759  0.1308  0.5603  0.5237
  407MPD2    C2 6128   0.827   3.841   9.826  0.0952  0.3909 -0.7612
  407MPD2    C3 6129   0.718   3.919   9.853 -0.6583  0.4495 -0.4501
  407MPD2    C4 6130   0.593   3.881   9.796  0.8558 -0.2189 -0.4081
  407MPD2    C5 6131   0.580   3.756   9.746 -0.5548 -0.4972  0.6878
  407MPD2     H 6132   0.926   3.886   9.833  0.9906 -1.4071 -1.7789
  407MPD2    H1 6133   0.505   3.944   9.809 -0.3665 -2.2472  1.1694
  407MPD2    H2 6134   0.674   3.576   9.689  1.2347  0.1389 -0.8815
  407MPD2    H3 6135   0.484   3.719   9.711  1.4223 -2.7661 -2.3659
  407MPD2     N 6136   0.731   4.052   9.896  0.0173  0.7314 -0.5153
  407MPD2    H5 6137   0.648   4.109   9.880 -0.6919  0.9723  4.1939
  407MPD2    N1 6138   0.936   3.649   9.730 -0.3975  0.5533 -0.1979
  407MPD2    H7 6139   1.022   3.695   9.759  0.2968 -0.9691  0.1806
  408TMC3    C1 6140   1.073   3.512   9.600  0.0315  0.4333  0.1409
  408TMC3    C2 6141   1.129   3.388   9.622  0.3040  0.0360 -0.9966
  408TMC3    C3 6142   1.271   3.385   9.620 -0.0298  0.0299  1.0563
  408TMC3    C4 6143   1.139   3.626   9.569 -0.2718 -0.8891 -0.3314
  408TMC3    C5 6144   1.272   3.610   9.536  0.5756  0.3274  0.2142
  408TMC3    C6 6145   1.333   3.492   9.564 -0.4868  0.0484  0.3681
  408TMC3     C 6146   0.941   3.532   9.651 -0.5528 -0.7754 -0.3885
  408TMC3     O 6147   0.855   3.446   9.624 -0.4372  0.0020  0.6512
  408TMC3     H 6148   1.067   3.300   9.637 -0.3194  0.7535  0.5849
  408TMC3    H1 6149   1.072   3.707   9.543 -0.2244 -1.5634 -2.5483
  408TMC3    H2 6150   1.439   3.480   9.543 -1.1278 -4.5687 -0.1395
  408TMC3    C7 6151   1.356   3.703   9.478 -0.7241  0.4863  0.0681
  408TMC3    C8 6152   1.341   3.269   9.656 -0.1807 -0.1372  0.4157
  408TMC3    O1 6153   1.441   3.656   9.407  0.0854 -0.7025 -0.0095
  408TMC3    O2 6154   1.284   3.161   9.658  0.2368  0.3790  0.0246
  409MPD2     C 6155   0.112   4.678  17.134  0.2827 -0.1418  0.0091
  409MPD2    C1 6156   0.225   4.730  17.200  0.0734  0.4942 -0.0130
  409MPD2    C2 6157   0.272   0.117  17.151 -0.4551 -0.1514 -0.2034
  409MPD2    C3 6158   0.219   0.180  17.040 -0.2521  1.4996  0.0842
  409MPD2    C4 6159   0.117   0.118  16.978  0.5955  0.2325 -0.0915
  409MPD2    C5 6160   0.065   0.001  17.021  0.0168  0.8187 -0.6333
  409MPD2     H 6161   0.361   0.151  17.203 -0.9884 -2.1701  1.9903
  409MPD2    H1 6162   0.063   0.168  16.898  0.1703 -1.4036 -0.8471
  409MPD2    H2 6163   0.063   4.582  17.148 -0.1996 -0.1372 -1.7247
  409MPD2    H3 6164   4.717   4.687  16.974 -1.7605  2.7970  0.4316
  409MPD2     N 6165   0.273   0.289  16.968 -0.4414  0.2779  0.3598
  409MPD2    H5 6166   0.210   0.322  16.895 -0.0260 -1.5211 -0.8170
  409MPD2    N1 6167   0.294   4.666  17.304  0.1899 -0.5342  0.3745
  409MPD2    H7 6168   0.368   4.724  17.343 -0.4747  1.4410 -1.3200
  410TMC3    C1 6169   0.413   0.475  16.923  0.4163 -0.2726 -0.2405
  410TMC3    C2 6170   0.516   0.556  16.969 -0.0021  0.2405  0.6005
  410TMC3    C3 6171   0.595   0.625  16.889 -0.0194  0.1590  0.2743
  410TMC3    C4 6172   0.390   0.471  16.791 -0.9881 -0.0153 -0.1351
  410TMC3    C5 6173   0.476   0.540  16.709  0.1483 -0.0842 -0.2173
  410TMC3    C6 6174   0.581   0.619  16.754 -0.2107 -0.0304  0.1039
  410TMC3     C 6175   0.379   0.365  17.009  0.2089  0.0400  0.2638
  410TMC3     O 6176   0.459   0.341  17.099  0.3338  0.0482 -0.5074
  410TMC3     H 6177   0.510   0.565  17.077  0.3756  0.9034  0.5698
  410TMC3    H1 6178   0.309   0.409  16.754  0.2826 -2.1401  0.6597
  410TMC3    H2 6179   0.655   0.673  16.697 -0.1920  0.0984  0.2492
  410TMC3    C7 6180   0.404   0.577  16.586 -0.8317 -0.2127 -0.9666
  410TMC3    C8 6181   0.734   0.622  16.932 -0.0235  0.4290 -0.3672
  410TMC3    O1 6182   0.310   0.503  16.554  0.5446 -0.9101  0.0117
  410TMC3    O2 6183   0.819   0.694  16.869  0.1722  0.0292  0.2557
  411MPD2     C 6184   0.492   0.562  14.318 -0.6737 -0.0299 -0.0856
  411MPD2    C1 6185   0.389   0.567  14.405  0.3753 -0.6830 -0.3057
  411MPD2    C2 6186   0.268   0.489  14.372 -0.0937  0.1874  0.0999
  411MPD2    C3 6187   0.268   0.412  14.258 -0.5924  1.0125  0.6752
  411MPD2    C4 6188   0.383   0.406  14.183 -0.2574 -0.4768  0.3088
  411MPD2    C5 6189   0.493   0.477  14.208  0.0880 -0.1949  0.7293
  411MPD2     H 6190   0.179   0.490  14.434  1.6238  1.9741  2.5437
  411MPD2    H1 6191   0.388   0.348  14.092 -0.9963 -0.7775  0.4577
  411MPD2    H2 6192   0.570   0.633  14.344  1.1149 -2.6341  1.6532
  411MPD2    H3 6193   0.577   0.470  14.141 -1.8109  2.0383 -1.9173
  411MPD2     N 6194   0.156   0.342  14.206  0.2620  0.1680 -0.4357
  411MPD2    H5 6195   0.177   0.286  14.124 -1.4519  1.6533 -1.8717
  411MPD2    N1 6196   0.387   0.661  14.509  0.2317 -0.3719  0.3781
  411MPD2    H7 6197   0.474   0.711  14.525  0.4680 -0.0759 -1.8360
  412TMC3    C1 6198   4.677   0.260  14.185 -0.1026  0.8741 -0.7924
  412TMC3    C2 6199   4.555   0.326  14.160 -0.0283  0.0882 -0.2142
  412TMC3    C3 6200   4.497   0.314  14.035  0.0696  0.5755 -0.3331
  412TMC3    C4 6201   4.723   0.179  14.079 -0.3905  0.0746 -0.9393
  412TMC3    C5 6202   4.658   0.170  13.957 -0.2728  0.0774 -0.2772
  412TMC3    C6 6203   4.544   0.236  13.931  0.1930 -0.0636 -0.3587
  412TMC3     C 6204   0.031   0.342  14.255  0.2649  0.0498 -0.3023
  412TMC3     O 6205   4.722   0.413  14.343  0.6381  0.0207 -0.0813
  412TMC3     H 6206   4.516   0.403  14.225  0.2460  0.7475 -0.8329
  412TMC3    H1 6207   0.081   0.128  14.096 -0.8884 -0.6330 -0.2923
  412TMC3    H2 6208   4.496   0.210  13.837 -0.1569 -2.2436  0.4477
  412TMC3    C7 6209   4.729   0.138  13.839 -0.4046  0.2201  0.0198
  412TMC3    C8 6210   4.497   0.441  13.965 -0.1969  0.3782  0.8096
  412TMC3    O1 6211   0.095   0.072  13.856 -0.3688  0.0338 -0.9598
  412TMC3    O2 6212   4.593   0.457  13.891 -0.1522 -0.9438 -0.2845
  413MPD2     C 6213   1.948   3.102  15.616  0.8199  0.8703  0.4175
  413MPD2    C1 6214   1.862   3.042  15.531  0.5194 -0.0336  0.2052
  413MPD2    C2 6215   1.902   2.931  15.462  0.4793  0.3118  0.1347
  413MPD2    C3 6216   2.028   2.876  15.493  0.2939 -0.6509  0.1633
  413MPD2    C4 6217   2.113   2.937  15.586  0.1402 -0.3157 -0.6100
  413MPD2    C5 6218   2.068   3.048  15.647 -0.4426  0.1542  0.3764
  413MPD2     H 6219   1.830   2.875  15.403 -0.4218 -0.3098  1.8251
  413MPD2    H1 6220   2.211   2.897  15.611  0.5960  0.7783 -0.6285
  413MPD2    H2 6221   1.928   3.199  15.660  0.5600 -0.1361  2.5195
  413MPD2    H3 6222   2.136   3.093  15.718  0.6493 -0.3375 -0.3571
  413MPD2     N 6223   2.059   2.750  15.425 -0.3471 -1.0143 -0.0553
  413MPD2    H5 6224   1.987   2.704  15.370  0.6069 -1.2149 -1.1424
  413MPD2    N1 6225   1.745   3.115  15.512  0.0184 -0.2380 -0.2294
  413MPD2    H7 6226   1.736   3.209  15.550  1.0856 -0.9208  1.7040
  414TMC3    C1 6227   2.189   2.574  15.343 -0.3674  0.4445 -0.4894
  414TMC3    C2 6228   2.275   2.470  15.375 -0.7891  0.3718  0.1353
  414TMC3    C3 6229   2.292   2.367  15.290 -0.6531 -0.2205 -0.3974
  414TMC3    C4 6230   2.153   2.584  15.207 -0.7403  0.0515  0.5337
  414TMC3    C5 6231   2.178   2.482  15.123 -0.1282 -0.2049 -0.3561
  414TMC3    C6 6232   2.246   2.365  15.163  1.0468 -0.5039  0.1249
  414TMC3     C 6233   2.185   2.691  15.428 -0.2788 -0.0840  0.0341
  414TMC3     O 6234   2.285   2.705  15.495  0.5549 -0.1402 -0.1479
  414TMC3     H 6235   2.313   2.475  15.477 -0.4929  0.7397  0.0066
  414TMC3    H1 6236   2.094   2.671  15.178 -0.9397 -0.2585  0.0196
  414TMC3    H2 6237   2.252   2.280  15.096  2.6024  0.7279 -1.2805
  414TMC3    C7 6238   2.228   2.534  14.997  0.7036 -0.5188 -0.4065
  414TMC3    C8 6239   2.352   2.242  15.341 -0.1576 -0.4625 -0.4677
  414TMC3    O1 6240   2.325   2.486  14.945  0.2411 -0.5710 -0.6630
  414TMC3    O2 6241   2.301   2.139  15.298  0.0199  0.2193 -0.2777
  415TMC3    C1 6242   2.445   1.703   9.697  0.2972 -0.7268  0.0311
  415TMC3    C2 6243   2.519   1.816   9.733  0.1202  0.2066  0.5359
  415TMC3    C3 6244   2.443   1.932   9.762  0.8823  0.2053 -0.1990
  415TMC3    C4 6245   2.310   1.698   9.688  0.0952 -0.2094  0.1295
  415TMC3    C5 6246   2.247   1.815   9.715 -1.1045 -0.2460 -0.2551
  415TMC3    C6 6247   2.309   1.931   9.757  0.5214 -0.7643  0.6092
  415TMC3     C 6248   2.515   1.574   9.662 -0.1286 -0.1372 -0.3214
  415TMC3     O 6249   2.457   1.471   9.695 -0.5691 -0.0330  0.0783
  415TMC3     H 6250   2.625   1.810   9.758  0.1546  1.9648  0.7664
  415TMC3    H1 6251   2.252   1.613   9.651 -1.7043  0.8417  0.5145
  415TMC3    H2 6252   2.250   2.019   9.777 -0.7193 -1.0619 -1.8136
  415TMC3    C7 6253   2.110   1.804   9.757  1.2753  0.8735  0.8875
  415TMC3    C8 6254   2.506   2.060   9.792  0.1921 -0.2210  0.2367
  415TMC3    O1 6255   2.036   1.897   9.738 -0.5620 -0.4887  0.5862
  415TMC3    O2 6256   2.427   2.146   9.832  0.4827 -0.3483  0.5888
  416MPD2     C 6257   4.679   1.070  11.190  0.3702  0.4719  0.4493
  416MPD2    C1 6258   4.636   0.941  11.220  0.1093  0.6408 -0.2041
  416MPD2    C2 6259   4.722   0.837  11.191  0.1049  0.5459  1.0175
  416MPD2    C3 6260   0.112   0.854  11.121  0.4933  0.0890 -0.1646
  416MPD2    C4 6261   0.143   0.981  11.091  0.4012  0.2107  1.1140
  416MPD2    C5 6262   0.064   1.085  11.123 -0.5806  0.1631  0.2600
  416MPD2     H 6263   4.681   0.737  11.200 -2.3011  1.6068  1.8311
  416MPD2    H1 6264   0.241   1.001  11.049  0.3356 -1.1122  0.3175
  416MPD2    H2 6265   4.619   1.159  11.203  0.3906  0.5111  0.2686
  416MPD2    H3 6266   0.093   1.187  11.100  1.1377 -0.3365  0.1986
  416MPD2     N 6267   0.185   0.755  11.071 -0.0666 -0.2030 -0.8604
  416MPD2    H5 6268   0.269   0.784  11.022 -0.7849 -1.0411 -2.5616
  416MPD2    N1 6269   4.505   0.923  11.272 -0.8189  0.3371  0.1573
  416MPD2    H7 6270   4.458   1.010  11.296 -3.1587 -1.2966  1.5265
  417TMC3    C1 6271   4.318   0.823  11.363  0.7595 -0.1277 -0.0369
  417TMC3    C2 6272   4.281   0.757  11.472 -0.2051  0.6118  0.3788
  417TMC3    C3 6273   4.154   0.770  11.516  0.7891  0.5013 -0.1712
  417TMC3    C4 6274   4.235   0.910  11.300  0.5233 -0.3374  0.4864
  417TMC3    C5 6275   4.120   0.936  11.355 -0.1049 -0.4448  0.1481
  417TMC3    C6 6276   4.067   0.858  11.451  0.1084  0.5884 -0.2698
  417TMC3     C 6277   4.453   0.800  11.317  0.7060  0.7091 -0.4557
  417TMC3     O 6278   4.502   0.685  11.322 -0.0074 -0.4515  0.2766
  417TMC3     H 6279   4.349   0.682  11.510 -0.0733  0.3893 -0.3008
  417TMC3    H1 6280   4.267   0.964  11.211  0.0601  0.8016  1.0079
  417TMC3    H2 6281   3.960   0.854  11.470  0.3744  2.1608  1.5965
  417TMC3    C7 6282   4.024   0.998  11.270  0.8277  0.0972 -0.1245
  417TMC3    C8 6283   4.111   0.724  11.643  0.0573 -0.2962 -0.7453
  417TMC3    O1 6284   4.049   0.992  11.150 -0.3517  0.7020 -0.3638
  417TMC3    O2 6285   4.013   0.784  11.683 -0.3839  0.0242  0.4872
  418TMC3    C1 6286   2.894   2.765   0.231 -0.0782  0.3161  0.0409
  418TMC3    C2 6287   2.762   2.754   0.234 -0.5119 -0.0564 -0.2281
  418TMC3    C3 6288   2.710   2.684   0.339 -0.2392  0.2001  0.0509
  418TMC3    C4 6289   2.979   2.701   0.322  0.2968  0.1287 -0.4616
  418TMC3    C5 6290   2.921   2.648   0.434 -0.3971  0.3757  0.4093
  418TMC3    C6 6291   2.783   2.639   0.444  0.1899  0.3437  0.2658
  418TMC3     C 6292   2.945   2.803   0.104  0.1322 -0.1834 -0.6298
  418TMC3     O 6293   2.880   2.870   0.024 -0.3436 -0.1303  0.0111
  418TMC3     H 6294   2.696   2.788   0.155  1.9042  0.9784 -1.7878
  418TMC3    H1 6295   3.086   2.718   0.321 -0.1853  3.1690  0.3343
  418TMC3    H2 6296   2.755   2.580   0.530  1.7122  0.6520  0.9858
  418TMC3    C7 6297   2.989   2.531   0.504 -0.1388 -1.0152  0.2815
  418TMC3    C8 6298   2.577   2.643   0.326 -1.1819 -0.7474 -0.9125
  418TMC3    O1 6299   2.918   2.426   0.514 -0.2241 -0.0662 -0.1792
  418TMC3    O2 6300   2.496   2.715   0.266  0.2337 -0.0771 -0.2854
  419MPD2     C 6301   1.773   1.212  12.099  0.3031 -0.4105  0.4130
  419MPD2    C1 6302   1.664   1.129  12.121 -0.1018  0.6504  0.1441
  419MPD2    C2 6303   1.657   1.074  12.250 -0.0812  0.3754  1.3361
  419MPD2    C3 6304   1.732   1.122  12.353 -0.1643  0.1345 -0.3432
  419MPD2    C4 6305   1.844   1.202  12.323 -0.0107  0.4058 -0.0488
  419MPD2    C5 6306   1.872   1.238  12.193  0.2539 -0.5986 -0.2721
  419MPD2     H 6307   1.579   1.000  12.268  0.5915 -0.1676  2.0038
  419MPD2    H1 6308   1.905   1.244  12.402  1.2718 -0.2643 -0.6830
  419MPD2    H2 6309   1.792   1.262  12.004  1.6436  0.5778  1.1971
  419MPD2    H3 6310   1.958   1.300  12.168  0.3764 -0.8937 -0.5795
  419MPD2     N 6311   1.685   1.090  12.486 -0.2922  0.1164 -0.0067
  419MPD2    H5 6312   1.605   1.026  12.487  0.7199 -1.1283  1.7021
  419MPD2    N1 6313   1.582   1.070  12.018  0.3241  0.3872  0.0525
  419MPD2    H7 6314   1.521   0.995  12.049 -0.4140  0.7296 -0.5687
  420TMC3    C1 6315   1.638   1.107  12.719  0.3282 -0.2863  0.3971
  420TMC3    C2 6316   1.512   1.092  12.692  0.4764  0.1328  0.2479
  420TMC3    C3 6317   1.435   1.041  12.794  0.4154  0.2918 -0.0411
  420TMC3    C4 6318   1.699   1.078  12.844 -0.7950 -0.3159  0.3105
  420TMC3    C5 6319   1.617   1.031  12.936 -0.0933  0.2809  0.4337
  420TMC3    C6 6320   1.486   1.015  12.918 -0.2008 -0.3408  0.0769
  420TMC3     C 6321   1.735   1.132  12.607  0.0677  0.8063  0.2009
  420TMC3     O 6322   1.844   1.173  12.638 -0.3026 -0.1813 -0.1168
  420TMC3     H 6323   1.478   1.108  12.590 -0.1413 -2.2713  0.0747
  420TMC3    H1 6324   1.805   1.096  12.859 -0.6591 -2.1946  1.5061
  420TMC3    H2 6325   1.418   0.980  12.996  0.2137 -1.0809  0.1009
  420TMC3    C7 6326   1.667   0.958  13.058  0.1382  0.5126  0.2549
  420TMC3    C8 6327   1.319   0.966  12.739 -0.3514  0.3812  0.2010
  420TMC3    O1 6328   1.580   0.911  13.128 -0.1945  0.1037  0.1503
  420TMC3    O2 6329   1.269   0.994  12.630 -0.0641  1.0083 -0.5385
  421TMC3    C1 6330   2.577   2.357  13.694 -0.0636  0.0579  0.1765
  421TMC3    C2 6331   2.630   2.467  13.758 -0.1455  0.0737 -0.2985
  421TMC3    C3 6332   2.688   2.452  13.876 -0.4138  0.3833  0.7081
  421TMC3    C4 6333   2.628   2.232  13.723  0.1649  0.3659  0.0349
  421TMC3    C5 6334   2.707   2.218  13.830 -0.1058 -0.4622 -0.0213
  421TMC3    C6 6335   2.732   2.328  13.909  0.7748  0.2938 -0.1691
  421TMC3     C 6336   2.505   2.373  13.569  0.9234 -0.2649 -0.0305
  421TMC3     O 6337   2.509   2.480  13.513  0.5581  0.0335 -0.3379
  421TMC3     H 6338   2.586   2.565  13.738 -0.5087  0.4392  2.2647
  421TMC3    H1 6339   2.620   2.142  13.664 -0.5337  0.7693 -0.4744
  421TMC3    H2 6340   2.792   2.316  13.999 -0.0335  1.0712  0.4664
  421TMC3    C7 6341   2.757   2.086  13.855 -0.4980 -0.0028  0.4046
  421TMC3    C8 6342   2.743   2.571  13.945  0.4989  0.4604  0.0364
  421TMC3    O1 6343   2.713   1.987  13.800  0.1394 -0.3692  0.2138
  421TMC3    O2 6344   2.761   2.669  13.880 -0.1093 -0.0446  0.5984
  422TMC3    C1 6345   0.382   3.624  12.298 -0.1396  0.2159 -0.1602
  422TMC3    C2 6346   0.353   3.718  12.393  0.1494  0.2556  0.2277
  422TMC3    C3 6347   0.282   3.677  12.503  0.6897  0.8091 -0.6140
  422TMC3    C4 6348   0.328   3.499  12.308  0.2417 -0.0990 -0.6324
  422TMC3    C5 6349   0.243   3.470  12.403  0.8564 -0.2508 -0.3828
  422TMC3    C6 6350   0.228   3.552  12.507 -0.2236  0.4665 -0.7297
  422TMC3     C 6351   0.506   3.647  12.213 -0.0516 -0.2058 -0.3662
  422TMC3     O 6352   0.539   3.766  12.207  0.4513 -0.4061  0.1700
  422TMC3     H 6353   0.389   3.820  12.394  0.2103  0.2352  0.0120
  422TMC3    H1 6354   0.352   3.423  12.235 -2.4056 -2.1483  0.6204
  422TMC3    H2 6355   0.181   3.510  12.596 -1.4030  0.2044 -1.4774
  422TMC3    C7 6356   0.182   3.344  12.400 -0.1712 -0.3588  0.4892
  422TMC3    C8 6357   0.281   3.769  12.619  0.1182 -0.3562  0.4050
  422TMC3    O1 6358   0.215   3.262  12.318  0.2465 -0.6070  0.7101
  422TMC3    O2 6359   0.328   3.882  12.602  0.4138 -0.4189  0.2585
  423MPD2     C 6360   1.679   4.313   0.611 -0.2394 -0.7319  0.1451
  423MPD2    C1 6361   1.697   4.180   0.654 -0.2104  0.1390 -0.0757
  423MPD2    C2 6362   1.704   4.086   0.554  0.4340  0.9380  0.1557
  423MPD2    C3 6363   1.701   4.114   0.416  0.1219 -0.2352 -0.0965
  423MPD2    C4 6364   1.693   4.242   0.377  0.5886  0.4083  0.8525
  423MPD2    C5 6365   1.668   4.338   0.477  0.2418  0.5973  0.3880
  423MPD2     H 6366   1.705   3.982   0.587 -0.1701  0.8403 -0.1238
  423MPD2    H1 6367   1.695   4.264   0.271  0.1095  3.6832  1.5208
  423MPD2    H2 6368   1.666   4.393   0.684  1.0935 -0.8895  0.5647
  423MPD2    H3 6369   1.653   4.439   0.440  0.5746  0.9988  1.3751
  423MPD2     N 6370   1.712   4.021   0.312 -0.0135 -0.0350 -0.5132
  423MPD2    H5 6371   1.726   4.055   0.218 -1.2011 -0.6459 -0.9171
  423MPD2    N1 6372   1.706   4.140   0.789  0.0915  0.0758 -0.3292
  423MPD2    H7 6373   1.729   4.042   0.804  1.6297  0.4436 -0.2652
  424TMC3    C1 6374   1.692   4.169   1.021  1.0353  0.8006  0.7636
  424TMC3    C2 6375   1.797   4.090   1.054  0.1312  0.2870 -0.0170
  424TMC3    C3 6376   1.802   4.044   1.188  0.2539  0.1816 -0.7426
  424TMC3    C4 6377   1.617   4.231   1.120  0.0944  0.6978 -0.4536
  424TMC3    C5 6378   1.632   4.186   1.250  0.1938 -0.0726 -0.2006
  424TMC3    C6 6379   1.715   4.084   1.288 -0.1708 -0.4351 -0.8063
  424TMC3     C 6380   1.681   4.227   0.894 -0.4151  0.8815 -0.6406
  424TMC3     O 6381   1.635   4.343   0.891  0.6236 -1.4493  0.1401
  424TMC3     H 6382   1.850   4.045   0.971  1.2639  0.9112  0.3641
  424TMC3    H1 6383   1.532   4.294   1.093  0.5565  1.2385 -0.6589
  424TMC3    H2 6384   1.717   4.040   1.388 -3.1402  0.0497 -0.5406
  424TMC3    C7 6385   1.543   4.243   1.345 -0.2462 -0.2352  0.6202
  424TMC3    C8 6386   1.907   3.965   1.242  0.9329  0.5326 -0.3746
  424TMC3    O1 6387   1.577   4.209   1.460 -0.4437  0.1968  0.0900
  424TMC3    O2 6388   1.911   3.931   1.358  0.2959  0.4432  0.0349
  425MPD2     C 6389   0.901   3.197  16.577 -0.1907 -0.0271 -0.3259
  425MPD2    C1 6390   0.861   3.148  16.700 -0.5824  0.2898 -0.6000
  425MPD2    C2 6391   0.750   3.216  16.757 -0.3155 -0.4218 -0.0527
  425MPD2    C3 6392   0.720   3.341  16.722 -0.5733  0.0263 -0.1851
  425MPD2    C4 6393   0.762   3.395  16.601  0.1299 -0.7048  0.0068
  425MPD2    C5 6394   0.854   3.322  16.536 -0.0773  1.0441 -0.5084
  425MPD2     H 6395   0.693   3.166  16.834 -0.8277  0.8426  0.3991
  425MPD2    H1 6396   0.740   3.491  16.557 -1.4604 -0.4861  1.2565
  425MPD2    H2 6397   0.978   3.148  16.518  1.3857 -0.7516  2.3591
  425MPD2    H3 6398   0.897   3.372  16.449  1.2703  0.2093 -0.3148
  425MPD2     N 6399   0.648   3.415  16.817 -0.1058 -0.4747  0.7376
  425MPD2    H5 6400   0.639   3.367  16.906 -3.7510  0.6950  0.9830
  425MPD2    N1 6401   0.910   3.023  16.744  0.3811  0.5519 -0.3795
  425MPD2    H7 6402   0.971   2.965  16.688  2.3132  1.9155  0.3108
  426TMC3    C1 6403   0.928   2.841  16.898 -0.6151 -0.9486  0.4034
  426TMC3    C2 6404   1.037   2.792  16.833  0.5357  0.3801  0.7364
  426TMC3    C3 6405   1.081   2.666  16.871  0.7896 -0.2811  0.3609
  426TMC3    C4 6406   0.868   2.777  16.996  0.0348  0.1838  0.1623
  426TMC3    C5 6407   0.911   2.651  17.026 -0.1396  0.1795  0.5128
  426TMC3    C6 6408   1.023   2.595  16.969 -0.5247 -0.8513 -0.5126
  426TMC3     C 6409   0.868   2.964  16.863 -0.3201 -0.0014  0.1692
  426TMC3     O 6410   0.794   3.014  16.948 -0.7030 -0.5791 -0.2494
  426TMC3     H 6411   1.082   2.850  16.753  0.5405 -0.8178 -0.1309
  426TMC3    H1 6412   0.770   2.814  17.023  0.5209 -0.3294  2.5611
  426TMC3    H2 6413   1.072   2.506  17.005 -0.3258 -0.1310  1.0039
  426TMC3    C7 6414   0.836   2.571  17.122  0.2253 -0.0487 -0.1951
  426TMC3    C8 6415   1.154   2.594  16.768 -0.2554 -0.8480 -0.4719
  426TMC3    O1 6416   0.856   2.451  17.110 -0.1356  0.2637  0.3281
  426TMC3    O2 6417   1.129   2.627  16.654 -0.1944  1.1452  0.0856
  427MPD2     C 6418   4.314   0.808  14.932  0.5453  0.1820 -1.1814
  427MPD2    C1 6419   4.306   0.809  15.072  0.1890  0.0642 -0.3748
  427MPD2    C2 6420   4.199   0.878  15.127 -0.1146  0.5925  0.1515
  427MPD2    C3 6421   4.103   0.947  15.053 -0.0470  0.8918 -0.2588
  427MPD2    C4 6422   4.117   0.938  14.917 -0.2769  0.2184  0.0935
  427MPD2    C5 6423   4.219   0.874  14.860  0.0207 -0.0640  0.1120
  427MPD2     H 6424   4.188   0.877  15.235  1.2237  1.8745  0.2921
  427MPD2    H1 6425   4.042   0.992  14.859 -0.6001 -0.4756 -0.1429
  427MPD2    H2 6426   4.385   0.746  14.878 -0.4161  0.9080 -3.2741
  427MPD2    H3 6427   4.220   0.860  14.753 -2.9540  0.6954 -0.0231
  427MPD2     N 6428   3.993   1.017  15.094  0.5535  0.4714 -0.1679
  427MPD2    H5 6429   3.933   1.052  15.021 -0.9417 -0.6418  0.5369
  427MPD2    N1 6430   4.396   0.738  15.154  0.3896 -0.0892  0.1967
  427MPD2    H7 6431   4.378   0.741  15.254  1.4494  0.1055  0.3844
  428TMC3    C1 6432   4.588   0.620  15.228 -0.4218 -0.0822 -0.4176
  428TMC3    C2 6433   4.523   0.565  15.333  0.3124 -0.3259 -0.4570
  428TMC3    C3 6434   4.594   0.506  15.437 -0.3508  0.4321 -0.4975
  428TMC3    C4 6435   4.729   0.601  15.223 -1.0284  0.3224  0.5615
  428TMC3    C5 6436   0.061   0.545  15.325 -0.3648  0.2446  0.6636
  428TMC3    C6 6437   4.729   0.495  15.429 -0.0326 -0.2211 -0.3893
  428TMC3     C 6438   4.512   0.674  15.114  0.9476 -0.3567  0.2825
  428TMC3     O 6439   4.568   0.673  15.002 -0.2470  0.3485 -0.1939
  428TMC3     H 6440   4.415   0.553  15.331  0.6268 -2.9611 -2.1076
  428TMC3    H1 6441   0.052   0.641  15.141  0.2008  0.8964  1.7382
  428TMC3    H2 6442   0.044   0.426  15.495  3.1592  0.7052 -1.8903
  428TMC3    C7 6443   0.176   0.615  15.371  0.2234  0.6774  0.3134
  428TMC3    C8 6444   4.521   0.424  15.534  0.5467  0.4037  0.2785
  428TMC3    O1 6445   0.210   0.580  15.485 -0.2143  0.4987 -0.4000
  428TMC3    O2 6446   4.402   0.417  15.513  0.0799  0.0406  0.1164
  429MPD2     C 6447   0.788   1.060  17.428 -0.0669 -0.7340  0.2893
  429MPD2    C1 6448   0.908   0.991  17.399  0.3061 -0.1695 -0.1120
  429MPD2    C2 6449   0.994   1.043  17.304  0.0341  0.4840 -0.1464
  429MPD2    C3 6450   0.971   1.166  17.246 -0.2555  0.1613 -0.0281
  429MPD2    C4 6451   0.865   1.242  17.293 -1.1925  0.1000 -0.5440
  429MPD2    C5 6452   0.776   1.185  17.381 -0.0284 -0.8653  0.2756
  429MPD2     H 6453   1.072   0.976  17.268  0.1998  1.0673 -0.8831
  429MPD2    H1 6454   0.829   1.336  17.255  0.7374  0.9507 -0.2790
  429MPD2    H2 6455   0.710   1.018  17.491 -0.6576 -0.3247 -0.1758
  429MPD2    H3 6456   0.683   1.238  17.397 -0.2282 -1.0378 -0.3059
  429MPD2     N 6457   1.056   1.207  17.143 -0.2187 -0.6061 -0.0518
  429MPD2    H5 6458   1.123   1.139  17.107 -1.5291 -0.3684 -2.9445
  429MPD2    N1 6459   0.945   0.871  17.456  0.3037  0.1218 -0.3314
  429MPD2    H7 6460   1.045   0.852  17.446 -0.5290 -3.7396 -1.4524
  430TMC3    C1 6461   1.151   1.339  16.971 -0.4519  0.2133 -0.3305
  430TMC3    C2 6462   1.146   1.457  16.898  0.7341  0.3311 -0.1687
  430TMC3    C3 6463   1.196   1.455  16.767  0.0195  0.2958 -0.4305
  430TMC3    C4 6464   1.208   1.220  16.919  0.6462  0.3819  0.2252
  430TMC3    C5 6465   1.262   1.226  16.796 -0.2306  0.0734  1.2570
  430TMC3    C6 6466   1.271   1.345  16.722  0.1147  0.1936  0.0963
  430TMC3     C 6467   1.046   1.324  17.075 -0.7598  0.3700 -0.5155
  430TMC3     O 6468   0.965   1.412  17.079 -0.3616  0.0167 -0.2073
  430TMC3     H 6469   1.126   1.550  16.951 -1.7155 -1.1587  1.5424
  430TMC3    H1 6470   1.199   1.120  16.959  1.5385  0.7847  1.4198
  430TMC3    H2 6471   1.299   1.334  16.618  1.9442 -1.7601  0.8006
  430TMC3    C7 6472   1.239   1.104  16.725  0.0301  0.7882  0.1739
  430TMC3    C8 6473   1.092   1.494  16.670  0.4017  0.5786 -0.6096
  430TMC3    O1 6474   1.277   1.001  16.779 -0.2361 -0.2265  0.0792
  430TMC3    O2 6475   1.100   1.442  16.559  0.4110  0.2595 -0.9278
  431MPD2     C 6476   1.298   1.222  12.359 -0.2491  0.2253 -0.4402
  431MPD2    C1 6477   1.343   1.292  12.249  0.2131 -0.3762 -0.4901
  431MPD2    C2 6478   1.296   1.273  12.122  0.2057  0.2422  0.3978
  431MPD2    C3 6479   1.208   1.170  12.111  0.1255 -0.3132 -0.3040
  431MPD2    C4 6480   1.168   1.090  12.219  0.5657  0.5280 -0.2515
  431MPD2    C5 6481   1.206   1.127  12.342  0.8679 -0.2111 -0.6834
  431MPD2     H 6482   1.339   1.314  12.031  0.4317  1.0777  0.8856
  431MPD2    H1 6483   1.092   1.014  12.206  0.6599  0.4569 -0.3872
  431MPD2    H2 6484   1.343   1.236  12.457  0.6694 -0.8453 -0.7102
  431MPD2    H3 6485   1.173   1.071  12.429  0.3144 -1.1624 -1.5105
  431MPD2     N 6486   1.169   1.119  11.988 -0.1323 -0.5775  0.0546
  431MPD2    H5 6487   1.128   1.027  11.985 -0.1086 -0.4907 -2.6321
  431MPD2    N1 6488   1.446   1.394  12.270 -0.5840 -0.1484 -0.0684
  431MPD2    H7 6489   1.493   1.436  12.190 -1.3820 -0.2792 -0.6009
  432TMC3    C1 6490   1.254   1.096  11.773 -0.3942  0.1571  0.1707
  432TMC3    C2 6491   1.236   0.964  11.806 -0.2105 -0.6787  0.4370
  432TMC3    C3 6492   1.337   0.880  11.850  0.5895  0.2902 -0.0623
  432TMC3    C4 6493   1.386   1.129  11.767  0.4078 -0.7044  0.2953
  432TMC3    C5 6494   1.486   1.044  11.805 -0.2444 -0.2679  0.5787
  432TMC3    C6 6495   1.464   0.920  11.852 -0.8775 -0.3995 -0.1227
  432TMC3     C 6496   1.193   1.184  11.865  0.3942 -0.3171 -0.6182
  432TMC3     O 6497   1.206   1.306  11.852 -0.0851 -0.1778 -0.1961
  432TMC3     H 6498   1.136   0.924  11.809  0.2052 -1.6882  0.9503
  432TMC3    H1 6499   1.407   1.234  11.752  0.6032 -1.1919 -2.7221
  432TMC3    H2 6500   1.548   0.859  11.882 -0.0812  0.5741 -0.3627
  432TMC3    C7 6501   1.582   1.107  11.888  0.2624 -0.0049  0.4515
  432TMC3    C8 6502   1.308   0.737  11.850  0.0128 -0.0157  0.3924
  432TMC3    O1 6503   1.630   1.206  11.836  0.0530 -0.5677  0.4729
  432TMC3    O2 6504   1.201   0.698  11.802 -0.7312  0.1581 -0.6954
  433MPD2     C 6505   0.646   3.680  10.460  0.2278  0.2820 -0.6468
  433MPD2    C1 6506   0.763   3.684  10.524  0.3636 -0.0906 -0.5746
  433MPD2    C2 6507   0.790   3.775  10.619  0.0789 -0.0530 -0.0948
  433MPD2    C3 6508   0.692   3.853  10.666 -0.6431 -0.3176 -0.3678
  433MPD2    C4 6509   0.570   3.849  10.604 -0.0278 -0.0967 -0.5108
  433MPD2    C5 6510   0.554   3.771  10.494  0.0898  0.4168 -0.5211
  433MPD2     H 6511   0.884   3.779  10.672 -1.5162 -1.8938  2.9013
  433MPD2    H1 6512   0.480   3.899  10.638  1.1914  0.1697  2.2769
  433MPD2    H2 6513   0.639   3.620  10.370 -0.5814 -0.1174 -0.3107
  433MPD2    H3 6514   0.459   3.774  10.442 -0.5806 -1.4764  0.6031
  433MPD2     N 6515   0.719   3.929  10.785 -0.2753 -0.4094 -0.7183
  433MPD2    H5 6516   0.816   3.930  10.813 -0.0138  1.0932 -1.7074
  433MPD2    N1 6517   0.850   3.576  10.483 -0.8347 -0.5448  0.3200
  433MPD2    H7 6518   0.819   3.511  10.411  0.0045 -0.4130 -0.1575
  434TMC3    C1 6519   1.059   3.471  10.452  0.0373  0.3145 -0.5319
  434TMC3    C2 6520   1.192   3.508  10.467  0.7098  0.4852 -0.1635
  434TMC3    C3 6521   1.295   3.412  10.444  0.2938  0.2671  0.1623
  434TMC3    C4 6522   1.019   3.339  10.429 -0.1355 -0.1841 -0.9054
  434TMC3    C5 6523   1.119   3.253  10.423 -0.1145  0.0687  0.8931
  434TMC3    C6 6524   1.253   3.281  10.435  0.5160 -0.1646  0.1863
  434TMC3     C 6525   0.978   3.567  10.521  0.2329  0.4757 -0.0765
  434TMC3     O 6526   1.031   3.612  10.620  0.1763 -0.1588  0.4459
  434TMC3     H 6527   1.218   3.608  10.500  2.1881 -0.3835  1.2803
  434TMC3    H1 6528   0.917   3.315  10.402 -0.7797 -0.6685  1.9320
  434TMC3    H2 6529   1.317   3.195  10.451  1.6840  0.8387  0.8719
  434TMC3    C7 6530   1.082   3.111  10.421 -0.2697  0.1986  0.3359
  434TMC3    C8 6531   1.412   3.437  10.516  0.3381  0.1016  0.1841
  434TMC3    O1 6532   1.169   3.030  10.403 -0.3951  0.7338 -0.9367
  434TMC3    O2 6533   1.431   3.546  10.573  0.0991 -0.2241  0.3889
  435MPD2     C 6534   2.166   4.193  15.397 -0.6161  0.3472 -0.2591
  435MPD2    C1 6535   2.122   4.202  15.526 -0.1652  0.5746 -0.1525
  435MPD2    C2 6536   2.205   4.149  15.624  0.6444  0.3463  0.2132
  435MPD2    C3 6537   2.329   4.087  15.604  0.3195 -0.0571  0.0878
  435MPD2    C4 6538   2.364   4.077  15.468 -0.3886 -0.5746  0.5761
  435MPD2    C5 6539   2.280   4.127  15.365  0.2477 -0.0786 -0.0264
  435MPD2     H 6540   2.184   4.162  15.730  0.5901  2.4270 -0.0589
  435MPD2    H1 6541   2.463   4.044  15.439  0.1489  1.0251  0.5724
  435MPD2    H2 6542   2.107   4.237  15.318  1.4042 -0.5004 -2.2578
  435MPD2    H3 6543   2.311   4.121  15.261 -0.0904  0.1296 -0.1384
  435MPD2     N 6544   2.406   4.038  15.715  0.3067  0.2451  0.3645
  435MPD2    H5 6545   2.376   4.059  15.810 -2.1142  0.2831 -0.4015
  435MPD2    N1 6546   1.999   4.265  15.557  0.5700  0.2284 -0.0415
  435MPD2    H7 6547   1.960   4.265  15.651  0.0418 -2.3702 -0.2484
  436TMC3    C1 6548   1.639   4.366  15.721 -0.3204  0.4032 -0.4325
  436TMC3    C2 6549   1.747   4.317  15.654  0.0644  0.9426  0.3035
  436TMC3    C3 6550   1.800   4.382  15.542 -0.4466 -0.1881 -0.2505
  436TMC3    C4 6551   1.589   4.489  15.676  0.6317 -0.1457 -0.0832
  436TMC3    C5 6552   1.640   4.550  15.568 -0.1292  0.0003  0.6079
  436TMC3    C6 6553   1.742   4.495  15.494 -0.4545 -0.2438 -0.4698
  436TMC3     C 6554   1.569   4.267  15.791 -0.1889  0.2113 -0.8097
  436TMC3     O 6555   1.590   4.155  15.750 -0.2235  0.4182 -0.5513
  436TMC3     H 6556   1.793   4.228  15.694  0.9732  0.2702 -2.2876
  436TMC3    H1 6557   1.497   4.519  15.726 -0.8746 -2.4143 -1.5041
  436TMC3    H2 6558   1.783   4.541  15.405 -3.3011  1.9268 -0.6524
  436TMC3    C7 6559   1.589   4.682  15.535  0.5278 -0.4888  0.2661
  436TMC3    C8 6560   1.925   4.347  15.470 -0.3154  0.1080  0.1276
  436TMC3    O1 6561   1.478   4.714  15.581 -0.0488  0.5590  0.0506
  436TMC3    O2 6562   1.932   4.397  15.360  0.1611 -0.0907 -0.0366
  437TMC3    C1 6563   0.897   1.484  12.271 -0.2370 -0.2227  0.9237
  437TMC3    C2 6564   0.784   1.511  12.202 -0.1446  0.0218 -0.1101
  437TMC3    C3 6565   0.792   1.618  12.112 -0.1634 -0.0726  0.0091
  437TMC3    C4 6566   1.011   1.543  12.232  0.0867 -0.2220 -0.1400
  437TMC3    C5 6567   1.022   1.639  12.134 -0.1246 -0.0486 -0.7738
  437TMC3    C6 6568   0.907   1.679  12.067 -0.9076  0.1963 -1.0380
  437TMC3     C 6569   0.889   1.430  12.402  0.1466  0.1585 -0.0372
  437TMC3     O 6570   0.998   1.398  12.445 -0.5167  0.0896 -0.2524
  437TMC3     H 6571   0.690   1.469  12.236  0.2948  0.0614  1.1543
  437TMC3    H1 6572   1.100   1.502  12.278  1.1457  1.1782 -0.9292
  437TMC3    H2 6573   0.916   1.764  12.000 -1.3039  1.5162  0.5600
  437TMC3    C7 6574   1.144   1.701  12.092 -0.2551  0.3258 -1.0109
  437TMC3    C8 6575   0.684   1.635  12.018  0.0383 -0.2294  0.3192
  437TMC3    O1 6576   1.139   1.776  11.995 -0.0980  0.2116 -0.0666
  437TMC3    O2 6577   0.697   1.718  11.930  0.3795  0.3653  0.3913
  438MPD2     C 6578   3.169   2.061  16.697  0.0548 -0.0155 -0.6138
  438MPD2    C1 6579   3.284   2.050  16.765 -0.3417 -0.4411  0.2346
  438MPD2    C2 6580   3.306   2.103  16.888  1.0030 -0.2128  0.0174
  438MPD2    C3 6581   3.209   2.180  16.951  0.1262 -0.1821 -0.1316
  438MPD2    C4 6582   3.094   2.179  16.887  0.0783  0.2797 -0.5855
  438MPD2    C5 6583   3.071   2.124  16.762 -0.9671 -0.1082  0.2802
  438MPD2     H 6584   3.391   2.066  16.943  0.0332  0.0085  1.6471
  438MPD2    H1 6585   3.008   2.230  16.928  0.4393  0.2511  0.2061
  438MPD2    H2 6586   3.147   2.025  16.597  1.1658 -1.0508 -0.4904
  438MPD2    H3 6587   2.981   2.148  16.707 -0.4114  3.0220  0.7518
  438MPD2     N 6588   3.218   2.240  17.080  0.0692 -0.1432  0.0107
  438MPD2    H5 6589   3.132   2.266  17.126  0.1790 -0.2231  0.2617
  438MPD2    N1 6590   3.400   1.992  16.708  0.6656 -0.4435 -0.0002
  438MPD2    H7 6591   3.473   1.964  16.774 -1.2770 -1.2937  1.8014
  439TMC3    C1 6592   3.541   1.876  16.562 -0.0637  0.0206 -0.6323
  439TMC3    C2 6593   3.556   1.819  16.440  0.3121  0.0099  0.4012
  439TMC3    C3 6594   3.666   1.736  16.427 -0.2022 -0.0250  0.1364
  439TMC3    C4 6595   3.631   1.862  16.670  0.4990 -0.6035 -0.0129
  439TMC3    C5 6596   3.746   1.788  16.647  0.4612  0.3599  0.2618
  439TMC3    C6 6597   3.764   1.724  16.528 -0.4352 -0.6971  0.2189
  439TMC3     C 6598   3.419   1.951  16.582 -0.1533  0.1979  0.4688
  439TMC3     O 6599   3.349   1.966  16.482  0.4820  0.0565  0.4771
  439TMC3     H 6600   3.481   1.808  16.363 -1.4571  2.2873  1.7967
  439TMC3    H1 6601   3.623   1.927  16.757  0.1215 -1.3911  0.5431
  439TMC3    H2 6602   3.854   1.663  16.525  1.2412  1.7781  0.5032
  439TMC3    C7 6603   3.853   1.813  16.731 -0.2465 -0.1368 -0.8166
  439TMC3    C8 6604   3.679   1.651  16.306  0.4727  0.3451  0.3829
  439TMC3    O1 6605   3.830   1.831  16.853  0.1245  0.1009 -0.0978
  439TMC3    O2 6606   3.762   1.563  16.312  0.4342 -0.1545  0.7147
  440MPD2     C 6607   2.011   1.772  15.054  0.0213 -0.3056 -0.3340
  440MPD2    C1 6608   2.105   1.838  15.126  0.5678 -0.4254  0.4544
  440MPD2    C2 6609   2.210   1.764  15.182 -0.0674  0.3241 -0.4264
  440MPD2    C3 6610   2.229   1.629  15.160 -0.0428  0.0653  0.9693
  440MPD2    C4 6611   2.131   1.564  15.083 -0.7783  0.0349 -0.2947
  440MPD2    C5 6612   2.024   1.638  15.037  0.2223 -0.4847  0.0100
  440MPD2     H 6613   2.270   1.806  15.262  1.4235 -3.0493  0.1951
  440MPD2    H1 6614   2.130   1.458  15.063  0.8706 -0.3609  1.6926
  440MPD2    H2 6615   1.918   1.820  15.024 -0.3786 -0.4786  0.6448
  440MPD2    H3 6616   1.949   1.581  14.985 -1.0522  2.3781 -1.3051
  440MPD2     N 6617   2.336   1.555  15.224 -0.5657 -0.2236 -0.3957
  440MPD2    H5 6618   2.337   1.453  15.226 -1.4485 -0.2134  0.3064
  440MPD2    N1 6619   2.085   1.964  15.183  0.9082  0.1968  0.2379
  440MPD2    H7 6620   2.168   1.985  15.238  1.4543  1.0411 -0.9181
  441TMC3    C1 6621   2.501   1.533  15.384  0.3904 -0.0855 -0.4372
  441TMC3    C2 6622   2.608   1.588  15.448  0.4436  0.4436  1.1847
  441TMC3    C3 6623   2.626   1.579  15.582 -0.4859  0.8324 -0.0058
  441TMC3    C4 6624   2.418   1.460  15.464 -0.9168 -0.2641  0.1450
  441TMC3    C5 6625   2.437   1.440  15.595  0.3382 -0.4379  0.2788
  441TMC3    C6 6626   2.542   1.497  15.658  0.0317  0.0031 -0.7063
  441TMC3     C 6627   2.447   1.612  15.276  0.3757 -0.3057 -0.4016
  441TMC3     O 6628   2.513   1.714  15.249 -0.0985  0.7198  0.2809
  441TMC3     H 6629   2.686   1.641  15.395 -0.5090  1.3462  0.6736
  441TMC3    H1 6630   2.334   1.410  15.417 -0.9937 -0.5836  0.6229
  441TMC3    H2 6631   2.533   1.511  15.765  2.1568  1.4919 -0.7232
  441TMC3    C7 6632   2.325   1.490  15.676 -0.2635 -0.5670  0.4831
  441TMC3    C8 6633   2.643   1.713  15.631  0.6307 -0.3367  0.3442
  441TMC3    O1 6634   2.285   1.599  15.641 -0.7809 -0.0475  0.5040
  441TMC3    O2 6635   2.675   1.721  15.750  0.5022 -0.5505  0.2148
  442MPD2     C 6636   0.476   3.092  16.575  1.0067  0.2896  0.3385
  442MPD2    C1 6637   0.409   3.010  16.656  0.2524  0.0018 -0.1066
  442MPD2    C2 6638   0.395   2.874  16.628 -0.3204 -0.6102  0.3130
  442MPD2    C3 6639   0.458   2.826  16.513 -0.6483  0.0427 -0.2583
  442MPD2    C4 6640   0.552   2.900  16.441  0.1794 -0.1669  0.4261
  442MPD2    C5 6641   0.553   3.033  16.479  0.1049  0.1891 -0.1923
  442MPD2     H 6642   0.324   2.819  16.689 -1.5078  0.3853 -0.1676
  442MPD2    H1 6643   0.628   2.853  16.379 -0.0085 -1.0915  0.8930
  442MPD2    H2 6644   0.497   3.196  16.595  0.2380  0.3754  0.6740
  442MPD2    H3 6645   0.623   3.097  16.427 -0.6361  1.8024  0.8065
  442MPD2     N 6646   0.460   2.693  16.484  0.5917 -0.4510 -0.4587
  442MPD2    H5 6647   0.541   2.661  16.432 -0.1262 -1.9531 -0.6482
  442MPD2    N1 6648   0.351   3.056  16.778  0.8905 -0.8154 -0.2828
  442MPD2    H7 6649   0.303   2.988  16.836 -1.0161  0.4161 -0.3944
  443TMC3    C1 6650   0.274   3.208  16.951 -0.3223  0.1991  0.4842
  443TMC3    C2 6651   0.230   3.335  16.980  0.6245  0.5088 -0.3206
  443TMC3    C3 6652   0.130   3.343  17.072  0.0897  0.4501  0.2586
  443TMC3    C4 6653   0.230   3.093  17.020 -0.5558 -0.0472  0.2493
  443TMC3    C5 6654   0.145   3.110  17.125  0.0881 -0.2979 -0.7122
  443TMC3    C6 6655   0.088   3.236  17.146  0.8856 -0.2073  0.1708
  443TMC3     C 6656   0.347   3.188  16.819 -0.0326 -0.3911 -0.8629
  443TMC3     O 6657   0.392   3.293  16.772 -0.8471  0.0730 -0.0943
  443TMC3     H 6658   0.272   3.412  16.916 -1.2009  2.3923  0.7810
  443TMC3    H1 6659   0.263   2.993  16.998  1.9172  0.4262  1.7803
  443TMC3    H2 6660   0.010   3.258  17.218  0.2021  1.4539 -1.0692
  443TMC3    C7 6661   0.082   2.989  17.178  0.1555  0.1643 -0.0285
  443TMC3    C8 6662   0.062   3.462  17.102  0.1010  0.7863 -0.0987
  443TMC3    O1 6663   0.082   2.890  17.105  0.8783  0.6718 -0.3343
  443TMC3    O2 6664   0.062   3.491  17.224  0.2841  0.6019  0.0966
  444MPD2     C 6665   0.582   2.594  16.804  0.1154 -0.7415 -0.3375
  444MPD2    C1 6666   0.547   2.492  16.888 -0.1383  0.5358 -0.3713
  444MPD2    C2 6667   0.621   2.377  16.896 -0.3869  0.0826  0.3062
  444MPD2    C3 6668   0.732   2.357  16.817 -0.0213 -0.6456  0.1173
  444MPD2    C4 6669   0.765   2.468  16.735  0.1335  0.6350  0.4991
  444MPD2    C5 6670   0.695   2.582  16.725  0.0123  0.4417  0.0017
  444MPD2     H 6671   0.602   2.311  16.980 -0.1764 -1.2924 -0.7246
  444MPD2    H1 6672   0.853   2.464  16.672  1.8500  0.0607  2.9466
  444MPD2    H2 6673   0.534   2.690  16.791  1.3601 -0.0026  0.5304
  444MPD2    H3 6674   0.729   2.666  16.665 -0.9302  1.0472  0.3195
  444MPD2     N 6675   0.820   2.241  16.835 -0.3139 -0.1823 -0.4316
  444MPD2    H5 6676   0.814   2.186  16.920 -0.2080  0.7652  0.1967
  444MPD2    N1 6677   0.449   2.511  16.991  0.8204 -0.1343 -0.2122
  444MPD2    H7 6678   0.444   2.434  17.058 -0.5309  0.2057  0.0953
  445TMC3    C1 6679   1.012   2.092  16.776  0.8086  1.1244  0.0075
  445TMC3    C2 6680   0.989   2.028  16.897  0.4525  0.4280  0.3220
  445TMC3    C3 6681   1.079   1.923  16.927 -0.3285 -0.1370 -0.1123
  445TMC3    C4 6682   1.102   2.033  16.685 -0.7596  0.7117  0.2851
  445TMC3    C5 6683   1.175   1.915  16.718  0.0749 -0.8437  0.8037
  445TMC3    C6 6684   1.164   1.856  16.840 -0.0449 -0.4058 -0.0147
  445TMC3     C 6685   0.927   2.214  16.748  0.8704  0.9487 -0.3196
  445TMC3     O 6686   0.949   2.267  16.640  0.6676 -0.1350 -0.3048
  445TMC3     H 6687   0.931   2.075  16.975 -0.3249 -2.7509  1.6511
  445TMC3    H1 6688   1.112   2.080  16.587  1.7701 -1.3541 -0.4304
  445TMC3    H2 6689   1.235   1.778  16.865  0.3054  0.3909  1.4694
  445TMC3    C7 6690   1.246   1.864  16.604  0.0599  0.2062 -0.7813
  445TMC3    C8 6691   1.086   1.866  17.061  0.0646  0.4334 -0.0054
  445TMC3    O1 6692   1.217   1.904  16.490  0.5028  0.4212 -0.1588
  445TMC3    O2 6693   1.105   1.746  17.065  0.2091 -0.2848  0.0218
  446MPD2     C 6694   0.710   3.415  11.119 -0.2618  0.3384  0.0182
  446MPD2    C1 6695   0.688   3.461  10.997 -0.0210 -0.0219 -0.5293
  446MPD2    C2 6696   0.796   3.515  10.928 -0.1726 -0.8067 -0.4311
  446MPD2    C3 6697   0.929   3.521  10.984 -0.0688 -0.5287 -0.3014
  446MPD2    C4 6698   0.953   3.451  11.095  0.1551 -0.1835  0.3090
  446MPD2    C5 6699   0.841   3.401  11.158 -0.4540  0.2014  0.0137
  446MPD2     H 6700   0.789   3.558  10.828 -4.0164 -0.8459 -0.1759
  446MPD2    H1 6701   1.047   3.436  11.148 -0.4800  3.5653  2.4415
  446MPD2    H2 6702   0.637   3.362  11.178  0.9290 -0.2932  0.9130
  446MPD2    H3 6703   0.857   3.344  11.249  0.5805 -0.4774 -0.5929
  446MPD2     N 6704   1.033   3.587  10.912  0.1160 -0.0303 -0.4280
  446MPD2    H5 6705   1.012   3.639  10.827 -1.4490  1.9593  1.1523
  446MPD2    N1 6706   0.551   3.452  10.944  0.5373 -0.4405  0.3321
  446MPD2    H7 6707   0.477   3.417  11.004 -1.6039  1.5777 -1.1078
  447TMC3    C1 6708   1.222   3.703  10.876 -0.2293 -0.4609  0.2335
  447TMC3    C2 6709   1.154   3.811  10.831 -0.6503 -0.2092  0.4543
  447TMC3    C3 6710   1.223   3.900  10.752 -0.9068  0.0871  0.4011
  447TMC3    C4 6711   1.355   3.685  10.860  0.3147 -0.0990  0.2831
  447TMC3    C5 6712   1.427   3.778  10.796 -0.1622 -0.0859 -0.7805
  447TMC3    C6 6713   1.364   3.891  10.741 -0.4519  0.0509  0.0434
  447TMC3     C 6714   1.157   3.609  10.960  0.5367 -0.8282  0.2831
  447TMC3     O 6715   1.226   3.559  11.048 -0.3261 -0.1579  0.1844
  447TMC3     H 6716   1.055   3.842  10.862 -1.1265 -1.0910 -0.1650
  447TMC3    H1 6717   1.410   3.602  10.903  1.8498  1.2821  0.9795
  447TMC3    H2 6718   1.410   3.970  10.682  1.9201 -0.2578  1.5048
  447TMC3    C7 6719   1.570   3.772  10.791  0.3220  0.2886  0.3470
  447TMC3    C8 6720   1.147   4.016  10.700 -0.0268 -0.6480  0.2013
  447TMC3    O1 6721   1.614   3.664  10.825 -0.0792  0.3065 -0.6338
  447TMC3    O2 6722   1.028   4.016  10.683  0.0885  0.0874 -0.1131
  448TMC3    C1 6723   2.744   3.071  16.833  0.2890  0.5526  0.1658
  448TMC3    C2 6724   2.746   2.932  16.847  0.0730  0.3267 -0.0264
  448TMC3    C3 6725   2.815   2.878  16.951 -0.1922 -0.2702  0.2936
  448TMC3    C4 6726   2.812   3.148  16.920 -0.0457  0.3074 -0.0706
  448TMC3    C5 6727   2.869   3.091  17.027  0.4566 -0.0508 -0.1679
  448TMC3    C6 6728   2.866   2.954  17.050  0.2693 -0.2400 -0.5263
  448TMC3     C 6729   2.734   3.120  16.693 -0.1521  0.1778  0.2348
  448TMC3     O 6730   2.755   3.035  16.610  0.5281  0.5208 -0.0625
  448TMC3     H 6731   2.685   2.874  16.779 -3.0077  1.1092  2.0444
  448TMC3    H1 6732   2.833   3.251  16.894 -2.8142  0.9490  0.3148
  448TMC3    H2 6733   2.924   2.908  17.129  0.8950  0.0966 -0.7843
  448TMC3    C7 6734   2.993   3.158  17.068 -0.4620  0.3271 -0.5274
  448TMC3    C8 6735   2.898   2.767  16.918  0.7201 -0.0773 -0.3233
  448TMC3    O1 6736   3.062   3.203  16.977 -0.1219 -0.8552  0.5810
  448TMC3    O2 6737   2.986   2.740  16.998  0.2545 -0.1706 -0.2671
  449MPD2     C 6738   0.156   2.757  13.982 -0.1231  1.1661  0.5068
  449MPD2    C1 6739   0.068   2.760  13.885  0.4516 -0.1380 -0.2550
  449MPD2    C2 6740   4.684   2.829  13.903 -0.0949  0.3647 -0.6844
  449MPD2    C3 6741   4.645   2.884  14.024 -0.0717 -0.3058 -0.6151
  449MPD2    C4 6742   4.735   2.882  14.128 -0.2277 -0.3873 -0.0093
  449MPD2    C5 6743   0.120   2.818  14.101 -0.2190  0.8247  0.0930
  449MPD2     H 6744   4.621   2.848  13.817 -1.2963 -2.1263 -0.3480
  449MPD2    H1 6745   4.720   2.929  14.224 -2.9344  3.0020 -2.0997
  449MPD2    H2 6746   0.257   2.718  13.977 -1.3220 -1.7698 -0.8563
  449MPD2    H3 6747   0.201   2.807  14.172 -0.1404  1.8755  0.1658
  449MPD2     N 6748   4.514   2.938  14.029  0.4035 -0.1272  0.9984
  449MPD2    H5 6749   4.465   2.933  13.940  1.4467  1.6145  0.3262
  449MPD2    N1 6750   0.098   2.726  13.749  0.9559 -0.0849 -0.4294
  449MPD2    H7 6751   0.024   2.740  13.682 -0.0413  2.6099  1.2214
  450TMC3    C1 6752   0.221   2.742  13.548 -0.1484 -0.1607 -0.4243
  450TMC3    C2 6753   0.252   2.656  13.449 -0.8983 -0.5220 -0.2372
  450TMC3    C3 6754   0.199   2.683  13.326 -0.3467  0.1801  0.0244
  450TMC3    C4 6755   0.135   2.846  13.529 -0.0457 -0.3910  0.2130
  450TMC3    C5 6756   0.074   2.858  13.405 -0.7254  0.2818 -0.0085
  450TMC3    C6 6757   0.107   2.778  13.305  0.0865  0.0332  0.9108
  450TMC3     C 6758   0.217   2.694  13.687 -0.2164 -0.5963  0.3958
  450TMC3     O 6759   0.320   2.650  13.735  0.0220  0.0895  0.0152
  450TMC3     H 6760   0.298   2.559  13.465  0.2665  0.1314  0.3334
  450TMC3    H1 6761   0.116   2.915  13.610  0.0495 -0.5556  0.3751
  450TMC3    H2 6762   0.062   2.793  13.208  2.1504 -1.1201 -0.2306
  450TMC3    C7 6763   4.682   2.928  13.425 -0.5014 -0.2655 -0.7113
  450TMC3    C8 6764   0.207   2.583  13.220 -0.1137 -0.0192  0.0481
  450TMC3    O1 6765   4.671   2.998  13.521  0.2475 -0.3952 -0.5557
  450TMC3    O2 6766   0.122   2.579  13.134  0.2116  0.4377  0.2825
  451MPD2     C 6767   0.793   0.533   1.012  0.2458 -0.7236 -0.3505
  451MPD2    C1 6768   0.885   0.630   0.993  0.1133 -0.5720 -0.2557
  451MPD2    C2 6769   1.002   0.596   0.925  0.1172 -0.1409 -0.3263
  451MPD2    C3 6770   1.009   0.468   0.862  0.6301  0.0284  0.1320
  451MPD2    C4 6771   0.917   0.368   0.893 -0.5306 -0.2453 -0.5153
  451MPD2    C5 6772   0.806   0.405   0.963  0.4861 -0.5647  0.0744
  451MPD2     H 6773   1.083   0.667   0.920 -0.5942  0.6564 -0.5743
  451MPD2    H1 6774   0.917   0.270   0.846 -1.3646  0.2851 -1.6360
  451MPD2    H2 6775   0.695   0.555   1.053  0.4018  0.9127 -0.8531
  451MPD2    H3 6776   0.722   0.337   0.974  0.1603  0.2480  2.6215
  451MPD2     N 6777   1.110   0.431   0.766  0.4386 -0.7088 -0.0143
  451MPD2    H5 6778   1.112   0.332   0.742 -0.7582 -0.4509 -1.2217
  451MPD2    N1 6779   0.854   0.755   1.051 -0.2152 -0.0626 -0.1835
  451MPD2    H7 6780   0.781   0.748   1.122 -0.6625  1.6237 -0.4739
  452TMC3    C1 6781   1.322   0.462   0.658 -0.1299  0.3393  1.0240
  452TMC3    C2 6782   1.331   0.329   0.655 -1.1296  0.5029  0.2183
  452TMC3    C3 6783   1.435   0.263   0.590  0.8869  0.2572  0.2325
  452TMC3    C4 6784   1.414   0.545   0.608  0.4799 -0.3026  0.2505
  452TMC3    C5 6785   1.510   0.476   0.539  0.0094  0.0433  0.1957
  452TMC3    C6 6786   1.522   0.338   0.517  0.1713 -0.0582 -0.4382
  452TMC3     C 6787   1.210   0.520   0.730 -0.5007 -0.1373  0.3008
  452TMC3     O 6788   1.219   0.642   0.747 -0.3084 -0.6586 -0.9218
  452TMC3     H 6789   1.268   0.261   0.711 -0.9742  0.1484 -0.0345
  452TMC3    H1 6790   1.408   0.653   0.613 -1.1865 -0.4114  0.6689
  452TMC3    H2 6791   1.595   0.295   0.450 -0.3510  0.4106 -1.3203
  452TMC3    C7 6792   1.600   0.562   0.465  0.5832 -0.4779 -0.6566
  452TMC3    C8 6793   1.404   0.125   0.545  0.2852  0.7317  0.2346
  452TMC3    O1 6794   1.557   0.674   0.443 -0.3561  0.2771 -0.5585
  452TMC3    O2 6795   1.303   0.070   0.582 -0.0425  0.1269 -0.3407
  453TMC3    C1 6796   2.964   3.457  11.661  0.1146 -0.2679  0.1974
  453TMC3    C2 6797   2.852   3.391  11.630  0.3501 -0.2047  0.0133
  453TMC3    C3 6798   2.767   3.436  11.532 -0.0162  0.1476 -0.7896
  453TMC3    C4 6799   3.002   3.577  11.605  0.2098  0.4757  0.0130
  453TMC3    C5 6800   2.916   3.627  11.509 -0.2691 -0.8225 -0.3822
  453TMC3    C6 6801   2.803   3.559  11.469 -0.4270 -0.0897  0.6744
  453TMC3     C 6802   3.043   3.422  11.776  1.0421  0.4304 -1.2453
  453TMC3     O 6803   3.086   3.512  11.849 -0.3256 -0.2059 -0.3964
  453TMC3     H 6804   2.820   3.329  11.714  1.1571 -0.9886 -0.2607
  453TMC3    H1 6805   3.089   3.628  11.643  0.1895  0.3567  0.2190
  453TMC3    H2 6806   2.734   3.601  11.396 -1.1721 -2.2325  0.1390
  453TMC3    C7 6807   2.955   3.746  11.436 -0.9629  0.3768 -0.0750
  453TMC3    C8 6808   2.633   3.383  11.514  0.1175  0.3232 -0.7474
  453TMC3    O1 6809   3.072   3.783  11.451 -0.2464  0.0795  0.0779
  453TMC3    O2 6810   2.547   3.454  11.464  0.3138 -0.1086  0.1538
  454MPD2     C 6811   1.324   1.493  15.784 -0.4621 -0.5185 -1.1218
  454MPD2    C1 6812   1.286   1.627  15.754 -0.0541 -0.4331 -0.8414
  454MPD2    C2 6813   1.265   1.717  15.863  0.1758  0.2843  0.5126
  454MPD2    C3 6814   1.284   1.667  15.989  0.1677  0.1777 -0.1201
  454MPD2    C4 6815   1.317   1.533  16.014  0.2578 -0.1981 -0.0341
  454MPD2    C5 6816   1.341   1.448  15.910 -0.2492  0.1504 -0.0869
  454MPD2     H 6817   1.222   1.815  15.845  2.3218  1.6638  2.9205
  454MPD2    H1 6818   1.332   1.493  16.114  1.9089 -1.4443 -0.7832
  454MPD2    H2 6819   1.333   1.423  15.702 -2.7657 -0.6293 -1.2900
  454MPD2    H3 6820   1.373   1.345  15.924 -0.6762  0.3435  2.2362
  454MPD2     N 6821   1.242   1.747  16.101 -0.2629 -0.1560  0.3149
  454MPD2    H5 6822   1.222   1.698  16.187 -2.6443  0.7049  0.2600
  454MPD2    N1 6823   1.256   1.675  15.624  0.0148  0.0245 -0.3460
  454MPD2    H7 6824   1.246   1.609  15.549 -0.8252  0.0065 -0.2186
  455TMC3    C1 6825   1.145   1.948  16.194 -0.4804  0.5919 -1.0172
  455TMC3    C2 6826   1.189   2.072  16.222  0.5710 -0.8972 -0.2201
  455TMC3    C3 6827   1.105   2.149  16.291  0.3318 -0.5086 -0.3462
  455TMC3    C4 6828   1.017   1.906  16.214 -0.1615 -0.4499  0.6861
  455TMC3    C5 6829   0.927   1.993  16.278 -0.9785  0.4147 -1.0981
  455TMC3    C6 6830   0.972   2.116  16.308 -0.1539  0.2956  0.1261
  455TMC3     C 6831   1.236   1.884  16.095 -0.4539  0.5148 -0.4044
  455TMC3     O 6832   1.285   1.960  16.012  0.3097 -0.1846 -0.3392
  455TMC3     H 6833   1.294   2.097  16.214  0.0630  1.2611  0.0166
  455TMC3    H1 6834   0.990   1.802  16.197 -0.1530 -0.1058 -1.4339
  455TMC3    H2 6835   0.911   2.187  16.362 -1.0284 -0.3002 -0.0721
  455TMC3    C7 6836   0.785   1.974  16.275 -0.5642 -0.0197 -0.8468
  455TMC3    C8 6837   1.174   2.251  16.364  0.2300 -0.5340  0.1492
  455TMC3    O1 6838   0.716   2.046  16.339 -0.0319 -0.0889 -0.0549
  455TMC3    O2 6839   1.122   2.360  16.368  0.4299  0.3325 -0.6291
  456MPD2     C 6840   3.713   2.056  16.102  0.6509 -0.5500 -0.5064
  456MPD2    C1 6841   3.792   2.028  16.215  0.0861  0.3031 -0.1756
  456MPD2    C2 6842   3.771   2.089  16.335  0.0846 -0.5364 -0.2690
  456MPD2    C3 6843   3.661   2.166  16.348 -0.8968 -0.1311  0.1043
  456MPD2    C4 6844   3.577   2.190  16.249 -0.3221 -0.0258  0.8248
  456MPD2    C5 6845   3.608   2.140  16.127  0.4343 -1.0856  0.0094
  456MPD2     H 6846   3.848   2.084  16.411 -0.5483 -2.7148  0.2303
  456MPD2    H1 6847   3.494   2.255  16.273  0.5723  1.2099  0.5925
  456MPD2    H2 6848   3.722   2.020  16.000 -1.0516 -0.5219 -0.6676
  456MPD2    H3 6849   3.544   2.179  16.049 -0.6558 -2.5480  0.1699
  456MPD2     N 6850   3.633   2.242  16.469  0.0376 -0.2480  0.2881
  456MPD2    H5 6851   3.562   2.314  16.470 -0.1956 -0.4553 -1.3582
  456MPD2    N1 6852   3.894   1.946  16.188  0.1631 -0.3456  0.6325
  456MPD2    H7 6853   3.904   1.922  16.089 -2.0110  0.1009  0.3153
  457TMC3    C1 6854   3.652   2.310  16.699 -0.0553  0.4810  0.2068
  457TMC3    C2 6855   3.518   2.344  16.693 -0.8686  0.5334  0.0152
  457TMC3    C3 6856   3.472   2.419  16.804  0.8955  0.4645 -0.7697
  457TMC3    C4 6857   3.727   2.332  16.808  0.0668  0.2792  0.1431
  457TMC3    C5 6858   3.673   2.398  16.916 -0.1104 -0.6000  0.4860
  457TMC3    C6 6859   3.551   2.447  16.914  0.7349 -0.7806 -0.9678
  457TMC3     C 6860   3.704   2.228  16.588  0.2431  0.1405  0.6994
  457TMC3     O 6861   3.789   2.141  16.624 -0.0933 -0.2029 -0.2057
  457TMC3     H 6862   3.449   2.316  16.615 -1.1994  1.3250  0.0241
  457TMC3    H1 6863   3.825   2.287  16.816  0.3947  0.8742 -0.5177
  457TMC3    H2 6864   3.515   2.507  16.997  0.4467 -1.8103 -0.3400
  457TMC3    C7 6865   3.761   2.453  17.014 -0.4296  0.0308 -0.2939
  457TMC3    C8 6866   3.338   2.465  16.817  0.2949 -0.6101  0.1530
  457TMC3    O1 6867   3.705   2.520  17.102 -0.7979 -0.0953  0.5760
  457TMC3    O2 6868   3.313   2.535  16.916  0.8688 -0.0016 -0.2156
  458MPD2     C 6869   1.599   1.914  12.198 -0.3956 -0.8462  0.3494
  458MPD2    C1 6870   1.544   1.853  12.315 -0.1054  0.0842 -0.3477
  458MPD2    C2 6871   1.425   1.786  12.305 -0.0277  0.1994 -0.5340
  458MPD2    C3 6872   1.353   1.794  12.187  1.1033  0.0243 -0.0192
  458MPD2    C4 6873   1.406   1.857  12.074 -0.0862 -0.0413  0.9717
  458MPD2    C5 6874   1.532   1.911  12.081 -0.6451  0.5456 -0.4746
  458MPD2     H 6875   1.380   1.735  12.390  0.6014  2.4307  1.1452
  458MPD2    H1 6876   1.361   1.848  11.975  0.1989  0.2953  0.8100
  458MPD2    H2 6877   1.696   1.962  12.208 -1.3460  1.3807 -1.0245
  458MPD2    H3 6878   1.586   1.947  11.994 -0.3926  1.3866  0.0337
  458MPD2     N 6879   1.233   1.712  12.191 -1.3197 -0.5162 -0.6636
  458MPD2    H5 6880   1.221   1.655  12.274 -0.6297 -0.8205 -0.7714
  458MPD2    N1 6881   1.631   1.860  12.424 -0.0445  0.2783 -0.0301
  458MPD2    H7 6882   1.720   1.904  12.403 -0.2087  0.1202 -1.0494
  459TMC3    C1 6883   1.719   1.829  12.646 -0.1477  0.2463  0.2030
  459TMC3    C2 6884   1.826   1.917  12.626 -0.0172  0.7284 -0.7166
  459TMC3    C3 6885   1.924   1.917  12.717 -0.1315 -0.0672 -0.1998
  459TMC3    C4 6886   1.716   1.744  12.759 -0.2457  0.1393  0.8003
  459TMC3    C5 6887   1.818   1.757  12.851 -0.8019  0.3138  0.5123
  459TMC3    C6 6888   1.931   1.832  12.826  0.4328 -0.0069  0.1121
  459TMC3     C 6889   1.616   1.797  12.550 -0.0228  0.2474  0.1359
  459TMC3     O 6890   1.524   1.726  12.591  0.2083  0.2576  0.7435
  459TMC3     H 6891   1.831   1.975  12.534 -0.6755  0.9441 -0.6191
  459TMC3    H1 6892   1.633   1.676  12.775 -0.2781 -0.0745 -0.3167
  459TMC3    H2 6893   2.015   1.835  12.896  0.9950 -1.3613 -0.5133
  459TMC3    C7 6894   1.833   1.646  12.941  0.6302  0.6635 -0.7055
  459TMC3    C8 6895   2.037   2.009  12.697  0.0881  0.9047  0.4589
  459TMC3    O1 6896   1.944   1.626  12.991 -0.1302  0.2712 -0.5435
  459TMC3    O2 6897   2.138   1.974  12.750 -0.3878 -0.0224  0.2124
  460MPD2     C 6898   1.266   4.359  10.657  0.0923 -0.4290 -0.3920
  460MPD2    C1 6899   1.187   4.252  10.630 -0.4598 -0.4169 -0.0736
  460MPD2    C2 6900   1.082   4.261  10.542 -0.2911  0.3271 -0.4325
  460MPD2    C3 6901   1.066   4.380  10.465  0.6427  0.0287  0.4561
  460MPD2    C4 6902   1.144   4.496  10.495 -0.2983  0.0073 -0.4882
  460MPD2    C5 6903   1.242   4.478  10.592 -0.1053  0.7507 -0.8432
  460MPD2     H 6904   1.021   4.174  10.520  2.8216 -1.8586 -0.3959
  460MPD2    H1 6905   1.126   4.589  10.442  3.0749  0.9174 -0.0568
  460MPD2    H2 6906   1.355   4.347  10.717  0.5514 -1.9032 -1.3624
  460MPD2    H3 6907   1.302   4.565  10.619  1.5843 -1.0712  1.2769
  460MPD2     N 6908   0.975   4.377  10.352 -0.1906  0.4015  0.7906
  460MPD2    H5 6909   0.915   4.295  10.341 -0.3456  0.5563  0.4842
  460MPD2    N1 6910   1.222   4.126  10.690 -0.2337  0.4248 -0.1516
  460MPD2    H7 6911   1.315   4.127  10.731 -0.9735 -0.7778  1.5462
  461TMC3    C1 6912   0.931   4.415  10.129 -0.0933  0.0763  0.0005
  461TMC3    C2 6913   0.901   4.286  10.118 -0.1514 -1.1075  0.3830
  461TMC3    C3 6914   0.825   4.248  10.007 -0.1389  0.0068 -0.1657
  461TMC3    C4 6915   0.912   4.504  10.025  0.3947  0.1226  0.8649
  461TMC3    C5 6916   0.868   4.451   9.905 -0.2301  0.8374 -0.7226
  461TMC3    C6 6917   0.810   4.327   9.899  0.1492 -0.0078 -0.4088
  461TMC3     C 6918   0.985   4.467  10.243 -0.1346  0.0105 -0.2816
  461TMC3     O 6919   1.025   4.583  10.236 -0.1648  0.4479  0.3955
  461TMC3     H 6920   0.931   4.209  10.188 -1.5230 -1.7343  0.2802
  461TMC3    H1 6921   0.942   4.608  10.031 -0.7589  0.5252 -0.3228
  461TMC3    H2 6922   0.781   4.280   9.806 -1.9997 -1.7922  1.1501
  461TMC3    C7 6923   0.878   4.527   9.783 -0.5662 -0.2268  0.6169
  461TMC3    C8 6924   0.838   4.109   9.966 -0.3095 -0.0304 -0.9618
  461TMC3    O1 6925   0.887   4.646   9.794 -0.4344 -0.5020  0.0931
  461TMC3    O2 6926   0.926   4.053  10.030  0.5574  0.3766  0.2769
  462TMC3    C1 6927   0.619   0.503   0.669  0.1324  0.0006  0.0588
  462TMC3    C2 6928   0.752   0.516   0.636 -0.5504 -0.0111  0.2107
  462TMC3    C3 6929   0.807   0.424   0.547  0.1566  0.2066  0.8145
  462TMC3    C4 6930   0.546   0.395   0.616 -0.2372 -0.2787  0.1661
  462TMC3    C5 6931   0.599   0.325   0.513  0.4917 -0.5596 -0.2923
  462TMC3    C6 6932   0.731   0.336   0.475 -0.2841  0.5734  0.3641
  462TMC3     C 6933   0.546   0.604   0.756 -0.6781  0.2490 -0.1866
  462TMC3     O 6934   0.448   0.562   0.814 -0.1474 -0.2591  0.4787
  462TMC3     H 6935   0.809   0.600   0.673  0.6110 -0.8359  0.3050
  462TMC3    H1 6936   0.451   0.363   0.657 -0.9619 -1.2624 -2.3148
  462TMC3    H2 6937   0.757   0.306   0.374 -0.3263 -2.0524  1.1207
  462TMC3    C7 6938   0.538   0.204   0.460 -0.4993  0.5048 -0.6370
  462TMC3    C8 6939   0.929   0.471   0.485 -0.3956  0.0443  0.4574
  462TMC3    O1 6940   0.598   0.104   0.428  0.3686  0.3591  0.1472
  462TMC3    O2 6941   0.967   0.587   0.508 -1.0472 -0.0744  0.4348
  463MPD2     C 6942   2.311   3.474   2.047 -0.4959  0.2930  0.5071
  463MPD2    C1 6943   2.200   3.509   1.972  0.3856  0.0368 -0.7697
  463MPD2    C2 6944   2.230   3.572   1.849  0.2662  0.5182 -0.0277
  463MPD2    C3 6945   2.359   3.591   1.798  0.3187 -0.2849 -0.6709
  463MPD2    C4 6946   2.466   3.542   1.877 -0.1600  0.5799  0.3324
  463MPD2    C5 6947   2.438   3.478   1.999 -0.1168 -0.4711  0.2884
  463MPD2     H 6948   2.145   3.601   1.787 -0.7905  0.3195  1.3255
  463MPD2    H1 6949   2.570   3.552   1.846 -0.2267 -0.1567 -0.1402
  463MPD2    H2 6950   2.308   3.438   2.149 -1.8686  0.2814  0.4664
  463MPD2    H3 6951   2.505   3.435   2.073  1.2938 -0.0585 -0.7512
  463MPD2     N 6952   2.391   3.664   1.680  0.6450 -0.3111  0.0012
  463MPD2    H5 6953   2.490   3.680   1.667  0.7605 -0.3372  0.8803
  463MPD2    N1 6954   2.068   3.496   2.003 -0.0617 -0.6615  0.2639
  463MPD2    H7 6955   1.998   3.554   1.958  2.0231  0.0353 -2.0806
  464TMC3    C1 6956   1.876   3.400   2.095 -0.0976 -0.2460 -0.2264
  464TMC3    C2 6957   1.801   3.507   2.045 -0.0805 -0.8827  0.7742
  464TMC3    C3 6958   1.664   3.485   2.047 -0.0366  0.3343 -0.0861
  464TMC3    C4 6959   1.829   3.277   2.126 -0.1833  0.2721  0.1454
  464TMC3    C5 6960   1.702   3.259   2.091  0.1366  0.1095 -0.1757
  464TMC3    C6 6961   1.615   3.359   2.068  0.2604  0.4182 -0.4515
  464TMC3     C 6962   2.026   3.410   2.094  0.2509 -0.8105  0.1755
  464TMC3     O 6963   2.093   3.326   2.156  0.1410 -0.0245 -0.1038
  464TMC3     H 6964   1.857   3.599   2.050 -0.2544 -0.5928 -2.2776
  464TMC3    H1 6965   1.893   3.191   2.145  1.1442  1.2811  0.2230
  464TMC3    H2 6966   1.509   3.338   2.068  0.6710 -1.6043 -0.3911
  464TMC3    C7 6967   1.659   3.118   2.070 -0.1997 -1.0942 -0.3817
  464TMC3    C8 6968   1.582   3.594   2.005 -0.0827  0.6352 -0.7245
  464TMC3    O1 6969   1.728   3.029   2.112 -0.2049  0.1434 -0.4055
  464TMC3    O2 6970   1.472   3.570   1.963  0.4911 -0.0799 -0.5333
  465MPD2     C 6971   2.705   2.362  16.975 -0.3469 -0.1351 -1.1919
  465MPD2    C1 6972   2.572   2.372  17.017  0.1103  0.3755 -0.1800
  465MPD2    C2 6973   2.476   2.390  16.918  0.3098 -0.7010 -0.1996
  465MPD2    C3 6974   2.507   2.400  16.785 -0.0843  0.0269  0.3112
  465MPD2    C4 6975   2.639   2.397  16.745  0.0426 -0.5854 -0.1231
  465MPD2    C5 6976   2.733   2.375  16.842 -0.3639  0.2646 -0.2653
  465MPD2     H 6977   2.369   2.394  16.935  0.6340  0.2297  1.6587
  465MPD2    H1 6978   2.675   2.399  16.643 -1.5514 -0.5814 -0.6905
  465MPD2    H2 6979   2.791   2.342  17.038  0.5811  0.6327 -2.2378
  465MPD2    H3 6980   2.838   2.379  16.815 -0.2446 -1.2088 -0.0287
  465MPD2     N 6981   2.399   2.412  16.691  0.2813  0.0869  0.2301
  465MPD2    H5 6982   2.306   2.395  16.727 -1.1380  1.0705 -2.9795
  465MPD2    N1 6983   2.535   2.358  17.152 -0.1824  0.7050  0.2302
  465MPD2    H7 6984   2.436   2.365  17.175 -1.6345 -3.9957 -4.5682
  466TMC3    C1 6985   2.052   2.385  16.546 -0.1959 -0.3482  0.2709
  466TMC3    C2 6986   2.013   2.497  16.478  0.3726  0.2152  0.8135
  466TMC3    C3 6987   2.105   2.577  16.424 -0.0509  1.1195  0.3479
  466TMC3    C4 6988   2.187   2.355  16.541  0.2905  0.4369  0.0025
  466TMC3    C5 6989   2.280   2.445  16.491  0.5378 -0.0465  0.0800
  466TMC3    C6 6990   2.242   2.561  16.438 -0.0487  0.2494  0.7348
  466TMC3     C 6991   2.025   2.406  16.684 -0.3212  0.4068  0.0912
  466TMC3     O 6992   2.120   2.368  16.753  0.5157  0.0349  0.2474
  466TMC3     H 6993   1.910   2.532  16.476  0.1642 -0.3167  2.5918
  466TMC3    H1 6994   2.218   2.260  16.585 -0.8698  1.3996  2.9433
  466TMC3    H2 6995   2.322   2.626  16.405  2.0685 -2.7045  0.0613
  466TMC3    C7 6996   2.412   2.435  16.550  0.3016  0.1023  0.5241
  466TMC3    C8 6997   2.046   2.688  16.361 -0.1541  0.5094  0.4915
  466TMC3    O1 6998   2.504   2.480  16.486 -0.3777  0.0978  0.5430
  466TMC3    O2 6999   2.017   2.684  16.239  0.2090  0.1119 -0.1332
  467TMC3    C1 7000   3.980   1.408  14.274  1.0852  0.0649  0.6674
  467TMC3    C2 7001   3.942   1.522  14.346  0.0741 -0.4682 -0.5026
  467TMC3    C3 7002   3.817   1.568  14.320 -0.0541  0.2068  0.2511
  467TMC3    C4 7003   3.904   1.347  14.181 -0.9298  0.4315  0.0815
  467TMC3    C5 7004   3.776   1.400  14.162 -0.4808 -0.4355 -0.2777
  467TMC3    C6 7005   3.734   1.506  14.227  0.5106 -1.0865 -0.2599
  467TMC3     C 7006   4.126   1.392  14.265  0.5788 -0.7382  0.1116
  467TMC3     O 7007   4.193   1.481  14.309 -0.0789 -0.1633 -0.0925
  467TMC3     H 7008   4.012   1.562  14.418 -0.1464 -0.9243 -0.0376
  467TMC3    H1 7009   3.938   1.255  14.134  0.1851 -0.7364  3.1532
  467TMC3    H2 7010   3.643   1.558  14.199 -0.2937 -1.3666  1.8175
  467TMC3    C7 7011   3.689   1.311  14.081  0.2257 -0.3582 -0.2932
  467TMC3    C8 7012   3.810   1.715  14.317  0.1859 -0.0703  0.5523
  467TMC3    O1 7013   3.747   1.234  14.002 -0.5083  0.7463  0.1520
  467TMC3    O2 7014   3.738   1.757  14.226 -0.3791  0.2979  0.2994
  468MPD2     C 7015   2.731   4.455  10.781 -0.2113 -0.4318 -0.4882
  468MPD2    C1 7016   2.830   4.399  10.850  0.7493  0.1333  0.1447
  468MPD2    C2 7017   2.836   4.264  10.868 -0.6891 -0.2531  0.0419
  468MPD2    C3 7018   2.730   4.188  10.831  0.8004 -0.3064 -0.8557
  468MPD2    C4 7019   2.618   4.248  10.777 -0.0982 -0.3127 -0.5812
  468MPD2    C5 7020   2.622   4.382  10.752 -0.1701  0.0325 -0.2753
  468MPD2     H 7021   2.921   4.231  10.926 -0.5407  1.9893  1.0828
  468MPD2    H1 7022   2.535   4.189  10.741 -2.0026  1.6417  0.6586
  468MPD2    H2 7023   2.738   4.558  10.747 -0.3172 -0.7878 -1.5582
  468MPD2    H3 7024   2.543   4.426  10.691 -1.3441 -1.6437  0.0449
  468MPD2     N 7025   2.730   4.044  10.843 -0.1174  0.6602 -0.7808
  468MPD2    H5 7026   2.644   3.992  10.831 -0.7255  2.0047 -2.2631
  468MPD2    N1 7027   2.938   4.482  10.896  0.1439 -0.0950  0.0924
  468MPD2    H7 7028   2.999   4.436  10.963 -0.1438 -0.3411  0.1810
  469TMC3    C1 7029   3.045   4.658  10.995 -0.1802  0.3274  0.6544
  469TMC3    C2 7030   3.164   4.588  10.996 -0.0952 -0.3143  0.3325
  469TMC3    C3 7031   3.235   4.600  11.111 -0.5524 -0.6853 -0.6104
  469TMC3    C4 7032   3.005   4.735  11.109  0.6955  0.5013  1.2507
  469TMC3    C5 7033   3.077   4.734  11.221 -0.4284 -0.7792 -0.0303
  469TMC3    C6 7034   3.203   4.677  11.222 -0.0599  0.1076 -0.0113
  469TMC3     C 7035   2.943   4.619  10.897 -0.5894 -0.3838 -0.2153
  469TMC3     O 7036   2.871   4.710  10.853 -0.5814 -0.2152 -0.5428
  469TMC3     H 7037   3.199   4.538  10.906  0.7081 -1.4146  1.2577
  469TMC3    H1 7038   2.910   0.050  11.104 -0.7379 -2.2644 -0.3790
  469TMC3    H2 7039   3.276   4.689  11.301  0.4394  2.7415 -0.8644
  469TMC3    C7 7040   3.004   0.045  11.340 -0.8037 -0.4878  0.8925
  469TMC3    C8 7041   3.370   4.550  11.104 -0.1240  0.2464  1.2600
  469TMC3    O1 7042   2.929   0.139  11.330 -0.0883 -0.1370 -0.1699
  469TMC3    O2 7043   3.430   4.573  11.003 -0.3138  0.7062  0.2344
  470TMC3    C1 7044   4.439   0.870   0.533  0.2632  0.6095 -0.1473
  470TMC3    C2 7045   4.396   0.930   0.650 -0.3884 -0.4445 -0.3922
  470TMC3    C3 7046   4.411   0.851   0.766  0.1704 -0.0683  0.3594
  470TMC3    C4 7047   4.481   0.738   0.528  0.4360 -0.2904  0.3606
  470TMC3    C5 7048   4.487   0.668   0.646 -0.4094 -0.0964  0.1745
  470TMC3    C6 7049   4.450   0.718   0.766 -0.9585  0.5209 -0.4884
  470TMC3     C 7050   4.464   0.945   0.412 -0.0218  1.1139  0.7779
  470TMC3     O 7051   4.508   1.061   0.430  0.2487 -0.0196  0.0535
  470TMC3     H 7052   4.380   1.037   0.641 -2.0059 -0.7284 -0.7511
  470TMC3    H1 7053   4.535   0.691   0.446 -1.1821 -1.6391  0.0773
  470TMC3    H2 7054   4.463   0.662   0.858  1.3424  0.9909 -0.5318
  470TMC3    C7 7055   4.554   0.540   0.648  0.0142  0.4246 -0.5361
  470TMC3    C8 7056   4.417   0.919   0.896  0.1270  0.3206 -1.0140
  470TMC3    O1 7057   4.553   0.472   0.542  0.0630 -0.1220 -0.0628
  470TMC3    O2 7058   4.464   0.867   0.994 -0.1465 -0.2300  0.0126
  471MPD2     C 7059   0.628   1.719  16.572  0.0306 -0.6564 -0.2523
  471MPD2    C1 7060   0.707   1.624  16.502 -0.4719  0.0439  0.3776
  471MPD2    C2 7061   0.837   1.594  16.550 -0.0890  0.3536 -0.2681
  471MPD2    C3 7062   0.888   1.632  16.674  0.0090  0.0376  0.0070
  471MPD2    C4 7063   0.810   1.717  16.743  0.1983  0.0283 -0.1288
  471MPD2    C5 7064   0.688   1.768  16.693  0.2421 -0.1868  0.4137
  471MPD2     H 7065   0.898   1.533  16.484 -2.2877 -1.0024 -1.0657
  471MPD2    H1 7066   0.847   1.764  16.834 -0.4086  0.5808 -0.1674
  471MPD2    H2 7067   0.534   1.764  16.541  0.1329 -0.1104  0.2255
  471MPD2    H3 7068   0.634   1.850  16.738  1.1496  0.1359  0.9092
  471MPD2     N 7069   1.006   1.585  16.731  0.5863  0.3432 -0.5099
  471MPD2    H5 7070   1.026   1.607  16.829  1.7659  1.6530 -1.0422
  471MPD2    N1 7071   0.660   1.546  16.397  0.3885  0.2140  0.4575
  471MPD2    H7 7072   0.726   1.493  16.341 -0.0584  0.5289 -0.3667
  472TMC3    C1 7073   0.494   1.425  16.263  0.0229  0.3250  0.0511
  472TMC3    C2 7074   0.379   1.435  16.194 -0.1882 -0.5218  0.7469
  472TMC3    C3 7075   0.352   1.359  16.090  0.0692  0.3178 -0.3134
  472TMC3    C4 7076   0.582   1.333  16.234  0.8930 -0.6371  0.3897
  472TMC3    C5 7077   0.549   1.240  16.136  0.1254 -0.3863  0.5363
  472TMC3    C6 7078   0.437   1.256  16.063  0.4779 -0.7408 -0.1239
  472TMC3     C 7079   0.528   1.525  16.364 -0.8213  0.0819 -0.0004
  472TMC3     O 7080   0.430   1.582  16.405 -0.3112  0.7743 -0.2330
  472TMC3     H 7081   0.310   1.516  16.212 -2.5375 -2.0149 -1.4174
  472TMC3    H1 7082   0.670   1.333  16.297 -0.7374 -1.9962  2.6721
  472TMC3    H2 7083   0.402   1.181  15.993 -0.1083 -0.4925 -0.0997
  472TMC3    C7 7084   0.556   1.110  16.202  0.2634 -0.2839  0.5641
  472TMC3    C8 7085   0.215   1.332  16.062 -0.1549 -0.0912  0.8239
  472TMC3    O1 7086   0.617   1.106  16.304 -0.4529 -0.2119 -0.9164
  472TMC3    O2 7087   0.183   1.352  15.945 -0.6599  0.1484 -0.2563
  473MPD2     C 7088   0.848   3.104  13.835 -0.4908  0.5511 -0.0525
  473MPD2    C1 7089   0.748   3.193  13.791 -0.3156 -0.1819 -0.0261
  473MPD2    C2 7090   0.724   3.313  13.859  0.2176  0.0986 -0.7500
  473MPD2    C3 7091   0.794   3.344  13.976 -0.3690 -0.2376  0.4501
  473MPD2    C4 7092   0.897   3.257  14.015  0.3085 -0.5275 -0.4728
  473MPD2    C5 7093   0.924   3.136  13.946 -0.0873  0.0042 -0.3430
  473MPD2     H 7094   0.642   3.371  13.817 -1.1447 -2.4285 -1.5765
  473MPD2    H1 7095   0.963   3.272  14.100  0.4469  1.4707 -0.9286
  473MPD2    H2 7096   0.874   3.007  13.794 -0.2595 -0.0338  1.4836
  473MPD2    H3 7097   1.018   3.087  13.971  0.6745  0.9017 -1.4534
  473MPD2     N 7098   0.771   3.455  14.057 -0.6505 -0.1883  0.1231
  473MPD2    H5 7099   0.820   3.450  14.146 -1.0172  0.2945  0.3508
  473MPD2    N1 7100   0.668   3.171  13.672 -0.3294  0.4258  0.2945
  473MPD2    H7 7101   0.606   3.243  13.637 -1.4117  0.1337  1.6546
  474TMC3    C1 7102   0.675   3.662  14.139 -0.5343  0.3372 -0.6100
  474TMC3    C2 7103   0.580   3.757  14.128 -0.1612  0.3925  0.0593
  474TMC3    C3 7104   0.582   3.865  14.225 -0.0332  0.2223 -0.0625
  474TMC3    C4 7105   0.775   3.680  14.221  0.2533 -0.5121  0.3855
  474TMC3    C5 7106   0.780   3.793  14.303 -0.2371  0.4322 -0.2592
  474TMC3    C6 7107   0.676   3.883  14.314 -0.7647 -0.1886  0.3890
  474TMC3     C 7108   0.681   3.556  14.037 -0.4180 -0.5306  0.1995
  474TMC3     O 7109   0.586   3.569  13.959 -0.2951 -0.1488  0.3429
  474TMC3     H 7110   0.495   3.742  14.064 -1.0775 -1.9104  1.8429
  474TMC3    H1 7111   0.859   3.612  14.232 -1.4086 -2.6848 -0.2674
  474TMC3    H2 7112   0.673   3.962  14.388  1.6894  0.1463  0.1115
  474TMC3    C7 7113   0.903   3.825  14.369  0.2689  0.0057 -0.3532
  474TMC3    C8 7114   0.479   3.972  14.205 -0.9913  0.5765 -0.1105
  474TMC3    O1 7115   1.010   3.814  14.310  0.0572 -1.0175 -0.7513
  474TMC3    O2 7116   0.376   3.944  14.144  0.2334  0.2724  0.6024
  475MPD2     C 7117   4.196   2.068  10.007 -0.4059  0.3199  0.4000
  475MPD2    C1 7118   4.173   2.198  10.033 -0.3614 -0.2396  0.2427
  475MPD2    C2 7119   4.052   2.230  10.096 -0.2711  0.4888  0.4988
  475MPD2    C3 7120   3.960   2.130  10.139  0.4693  0.8782 -0.3568
  475MPD2    C4 7121   3.994   1.996  10.114 -0.0073  0.2919 -0.3525
  475MPD2    C5 7122   4.102   1.969  10.036 -0.5028 -0.0934  0.1478
  475MPD2     H 7123   4.029   2.335  10.110  0.3115  0.5953  0.6483
  475MPD2    H1 7124   3.927   1.913  10.136  3.3121 -1.9626  1.2372
  475MPD2    H2 7125   4.286   2.035   9.955  0.7846 -0.5516  2.9937
  475MPD2    H3 7126   4.129   1.866  10.015 -1.6390 -0.2740 -0.4505
  475MPD2     N 7127   3.835   2.171  10.199 -0.2903 -0.0310  0.1033
  475MPD2    H5 7128   3.820   2.271  10.189  1.0514  0.0894 -0.5833
  475MPD2    N1 7129   4.259   2.312  10.023  0.0537 -0.1010 -0.7565
  475MPD2    H7 7130   4.237   2.395  10.076  0.0553 -0.6789  0.1409
  476TMC3    C1 7131   4.435   2.448   9.959 -0.5857 -0.5077  0.1198
  476TMC3    C2 7132   4.420   2.507   9.836  0.4049 -0.2711 -0.3586
  476TMC3    C3 7133   4.346   2.625   9.828  0.0315 -0.1257 -0.8955
  476TMC3    C4 7134   4.402   2.517  10.069  0.7784 -0.0599 -0.2563
  476TMC3    C5 7135   4.324   2.633  10.063  0.2880  0.4950  0.6199
  476TMC3    C6 7136   4.297   2.684   9.936  0.2797 -0.3487  0.2477
  476TMC3     C 7137   4.384   2.311   9.951 -0.3676  0.1725  0.0458
  476TMC3     O 7138   4.423   2.236   9.866  1.0643  0.1842  0.0975
  476TMC3     H 7139   4.446   2.462   9.741  2.4978 -0.1416  0.1480
  476TMC3    H1 7140   4.409   2.471  10.167 -0.0553 -0.1446 -0.2351
  476TMC3    H2 7141   4.202   2.735   9.930  0.5985  0.2077 -0.0888
  476TMC3    C7 7142   4.205   2.612  10.139 -0.1380  0.4166  0.2656
  476TMC3    C8 7143   4.236   2.611   9.740  0.2942 -0.4775  0.7604
  476TMC3    O1 7144   4.109   2.566  10.080 -0.6429 -0.3119 -0.4494
  476TMC3    O2 7145   4.222   2.698   9.654  0.2755  0.0033 -0.1572
  477MPD2     C 7146   1.404   3.544  11.687  0.4023 -0.3642  0.2159
  477MPD2    C1 7147   1.499   3.461  11.636 -0.7719  0.3839 -0.2077
  477MPD2    C2 7148   1.546   3.347  11.699  0.0333 -0.3860 -0.9616
  477MPD2    C3 7149   1.493   3.322  11.823 -0.2246 -0.6690 -0.1488
  477MPD2    C4 7150   1.396   3.400  11.877 -0.4123 -0.0096  0.7190
  477MPD2    C5 7151   1.347   3.508  11.807 -0.3587  0.9740  0.2583
  477MPD2     H 7152   1.630   3.286  11.668  0.8221 -0.9677  2.2681
  477MPD2    H1 7153   1.353   3.390  11.976 -1.6383  1.0167  0.2808
  477MPD2    H2 7154   1.360   3.634  11.647 -0.3535  0.4197  2.8240
  477MPD2    H3 7155   1.265   3.570  11.840  1.5719  2.8963  1.4443
  477MPD2     N 7156   1.552   3.218  11.897 -0.3157  0.6201 -0.0279
  477MPD2    H5 7157   1.615   3.157  11.846  0.0178  1.1978 -0.3074
  477MPD2    N1 7158   1.544   3.486  11.506  0.3191 -0.0704  0.1559
  477MPD2    H7 7159   1.493   3.553  11.450  0.0370 -0.7396 -0.3916
  478TMC3    C1 7160   1.692   3.490  11.332 -0.0547  0.3090 -0.6261
  478TMC3    C2 7161   1.663   3.624  11.318  0.1564 -0.0944  0.5854
  478TMC3    C3 7162   1.697   3.680  11.199 -0.9844 -0.7056 -0.1312
  478TMC3    C4 7163   1.773   3.415  11.242  0.6401 -0.7124 -0.0992
  478TMC3    C5 7164   1.802   3.481  11.127 -0.1543 -0.6842  0.2210
  478TMC3    C6 7165   1.767   3.611  11.101  0.4559 -0.3092  1.0749
  478TMC3     C 7166   1.649   3.420  11.443  0.4505  0.6065 -0.1857
  478TMC3     O 7167   1.716   3.321  11.475  0.3831  0.1491 -0.2827
  478TMC3     H 7168   1.617   3.687  11.394 -0.2436  2.0836 -1.4524
  478TMC3    H1 7169   1.795   3.311  11.264  1.1660 -0.0165  2.7407
  478TMC3    H2 7170   1.811   3.664  11.017 -0.3335 -0.6947  0.4128
  478TMC3    C7 7171   1.834   3.399  11.012  0.0809 -0.6265  0.2136
  478TMC3    C8 7172   1.654   3.812  11.163 -0.2523 -0.5548 -1.0815
  478TMC3    O1 7173   1.912   3.309  11.022 -0.1045 -0.6943 -0.2965
  478TMC3    O2 7174   1.735   3.895  11.122  0.8886  0.8948  0.3998
  479MPD2     C 7175   0.335   0.922  15.251 -0.4538  0.3163  0.0234
  479MPD2    C1 7176   0.277   0.842  15.347  0.3572 -0.3965 -0.0108
  479MPD2    C2 7177   0.283   0.865  15.485  0.0541 -0.2610 -0.3758
  479MPD2    C3 7178   0.336   0.987  15.525 -0.4516  0.2718 -0.0938
  479MPD2    C4 7179   0.398   1.073  15.434  1.1218 -0.0570  0.3420
  479MPD2    C5 7180   0.395   1.039  15.302 -0.1548  0.3697  0.1754
  479MPD2     H 7181   0.247   0.795  15.559 -2.6824 -1.2584 -2.6319
  479MPD2    H1 7182   0.448   1.165  15.463  1.5154  0.3352 -1.5985
  479MPD2    H2 7183   0.346   0.892  15.147  1.0229  2.9090 -0.5796
  479MPD2    H3 7184   0.451   1.091  15.225  0.7711 -2.3708 -0.9788
  479MPD2     N 7185   0.348   1.022  15.661  0.5000 -0.4674 -0.1015
  479MPD2    H5 7186   0.413   1.099  15.676 -0.0669  0.3376 -1.6914
  479MPD2    N1 7187   0.221   0.724  15.295 -0.2556  0.1603  0.4993
  479MPD2    H7 7188   0.183   0.730  15.200  2.2796 -0.4222 -0.5425
  480TMC3    C1 7189   0.010   0.757  15.833  0.4567  0.3015 -0.2570
  480TMC3    C2 7190   4.652   0.821  15.756 -0.3983 -0.5749 -0.4846
  480TMC3    C3 7191   4.692   0.923  15.675 -0.0705  0.2966  0.7514
  480TMC3    C4 7192   0.137   0.793  15.833  0.3881 -0.6785  0.2918
  480TMC3    C5 7193   0.167   0.900  15.752  0.5181  0.7957 -1.2971
  480TMC3    C6 7194   0.077   0.972  15.676 -0.5445  1.0512  0.1853
  480TMC3     C 7195   4.719   0.665  15.937 -1.0952 -0.0035 -0.5493
  480TMC3     O 7196   0.082   0.597  15.970 -0.5776  0.2700 -0.1457
  480TMC3     H 7197   4.556   0.773  15.740  0.0657 -1.6074 -0.1790
  480TMC3    H1 7198   0.215   0.753  15.896  1.5626  1.2473  0.0688
  480TMC3    H2 7199   0.103   1.069  15.634 -0.7658  1.8521  1.9017
  480TMC3    C7 7200   0.295   0.964  15.770 -0.1317  0.7041  0.6007
  480TMC3    C8 7201   4.610   0.941  15.559 -0.3516  1.2684 -0.1916
  480TMC3    O1 7202   0.328   0.975  15.885  1.1284  0.1455 -0.0137
  480TMC3    O2 7203   4.491   0.921  15.577 -0.5432 -0.3442 -0.5754
  481MPD2     C 7204   2.061   0.470  14.177  0.0036  0.0594 -0.3514
  481MPD2    C1 7205   1.939   0.407  14.145  0.0443  0.0943  0.8717
  481MPD2    C2 7206   1.887   0.325  14.241 -0.7562  0.3064 -1.6565
  481MPD2    C3 7207   1.967   0.289  14.351  0.3321 -0.3089 -0.4942
  481MPD2    C4 7208   2.090   0.341  14.377 -0.9963  0.1153  0.1396
  481MPD2    C5 7209   2.135   0.427  14.285  0.1324 -0.4884  0.1739
  481MPD2     H 7210   1.788   0.283  14.233 -1.3376  0.7514  3.2518
  481MPD2    H1 7211   2.148   0.316  14.465  0.6481 -3.8435 -2.0707
  481MPD2    H2 7212   2.109   0.542  14.112  0.7233 -0.3633 -0.2772
  481MPD2    H3 7213   2.226   0.481  14.311 -0.0485 -0.4756  0.7925
  481MPD2     N 7214   1.924   0.187  14.441  0.5385 -0.4061 -0.1445
  481MPD2    H5 7215   1.996   0.171  14.510  0.9240  2.7275  0.1495
  481MPD2    N1 7216   1.879   0.441  14.028  0.4459  0.5063  0.4038
  481MPD2    H7 7217   1.935   0.507  13.975  0.0608  0.0229 -0.6247
  482TMC3    C1 7218   1.712   0.466  13.865  0.3312 -0.6815 -0.5158
  482TMC3    C2 7219   1.631   0.383  13.794 -0.3799 -0.2286 -0.2474
  482TMC3    C3 7220   1.602   0.430  13.668 -0.1639 -0.3218 -0.2220
  482TMC3    C4 7221   1.771   0.583  13.821  0.8283  0.4076  0.5630
  482TMC3    C5 7222   1.738   0.621  13.692  0.4500  0.3657 -0.3091
  482TMC3    C6 7223   1.656   0.545  13.609  0.0807 -0.5448 -0.0447
  482TMC3     C 7224   1.755   0.397  13.987  0.6309  0.9364  0.3862
  482TMC3     O 7225   1.679   0.314  14.035 -0.2194 -0.3220  0.0419
  482TMC3     H 7226   1.590   0.291  13.835  0.0743  0.4368  1.6707
  482TMC3    H1 7227   1.830   0.648  13.885 -1.0559  2.6168  0.0463
  482TMC3    H2 7228   1.653   0.566  13.503 -3.1632 -0.0582  0.1289
  482TMC3    C7 7229   1.848   0.691  13.619  0.2563 -0.3310  0.0524
  482TMC3    C8 7230   1.529   0.334  13.593  0.0489 -0.0410 -0.7673
  482TMC3    O1 7231   1.964   0.676  13.658 -0.3779  0.0017 -0.5527
  482TMC3    O2 7232   1.524   0.221  13.634  0.1468 -0.4197  0.5980
  483TMC3    C1 7233   4.729   4.114   1.152  0.6818 -0.0327 -0.9780
  483TMC3    C2 7234   0.070   4.214   1.091 -0.0438 -0.6045 -0.2010
  483TMC3    C3 7235   0.209   4.212   1.110  0.3044 -0.3852 -0.9352
  483TMC3    C4 7236   0.048   4.021   1.231 -0.1694  0.2003  0.0601
  483TMC3    C5 7237   0.185   4.025   1.258 -0.6177 -0.5075  0.1952
  483TMC3    C6 7238   0.269   4.112   1.186  0.0883  0.5398 -1.1767
  483TMC3     C 7239   4.615   4.068   1.072 -0.3685 -0.0205 -0.1318
  483TMC3     O 7240   4.542   4.156   1.025  0.1080 -0.2315  0.3613
  483TMC3     H 7241   0.019   4.276   1.018 -0.3789  1.5945  1.9000
  483TMC3    H1 7242   4.728   3.944   1.284  0.9396 -1.0263 -0.5376
  483TMC3    H2 7243   0.375   4.090   1.183 -0.7004 -3.1303 -1.4963
  483TMC3    C7 7244   0.243   3.903   1.289  0.2212 -0.9690 -0.0786
  483TMC3    C8 7245   0.264   4.237   0.977 -0.7065  0.1926 -0.5319
  483TMC3    O1 7246   0.177   3.802   1.261  0.0883 -0.7911  0.8621
  483TMC3    O2 7247   0.198   4.303   0.896 -0.2551  0.1508  0.0545
  484MPD2     C 7248   2.047   2.357  12.552 -0.4395  0.3203  0.2679
  484MPD2    C1 7249   2.097   2.234  12.599 -0.8650 -0.2891  0.5401
  484MPD2    C2 7250   2.233   2.210  12.586  0.4997  0.6533 -0.5760
  484MPD2    C3 7251   2.321   2.304  12.527 -0.9358  0.6855 -0.1849
  484MPD2    C4 7252   2.273   2.429  12.494 -0.1572 -0.1095 -0.7704
  484MPD2    C5 7253   2.138   2.450  12.508 -0.3591  0.1187  0.6620
  484MPD2     H 7254   2.263   2.106  12.592  1.6819  1.0326 -0.0196
  484MPD2    H1 7255   2.340   2.507  12.460 -2.1475  1.6207 -0.7228
  484MPD2    H2 7256   1.945   2.388  12.575 -0.7231 -0.0695 -0.4653
  484MPD2    H3 7257   2.110   2.554  12.499 -0.1079  0.1454  0.1377
  484MPD2     N 7258   2.461   2.276  12.504 -0.1105 -0.6406  0.4252
  484MPD2    H5 7259   2.513   2.348  12.455 -1.0139 -0.1933  0.1431
  484MPD2    N1 7260   2.008   2.127  12.631 -0.2989 -0.5539 -0.1441
  484MPD2    H7 7261   1.910   2.151  12.620 -0.3320  0.8852  3.2412
  485TMC3    C1 7262   2.647   2.154  12.462 -0.3405  0.2395  0.0552
  485TMC3    C2 7263   2.749   2.071  12.510  0.3008 -0.2712 -0.8301
  485TMC3    C3 7264   2.870   2.055  12.449 -0.1648 -0.2684  0.6825
  485TMC3    C4 7265   2.662   2.224  12.345  0.5310 -0.2890  0.0345
  485TMC3    C5 7266   2.776   2.191  12.272  0.2659 -0.9962 -0.6221
  485TMC3    C6 7267   2.887   2.124  12.334  0.4649  0.7681 -0.0114
  485TMC3     C 7268   2.529   2.166  12.544  0.4419  0.4002  0.4577
  485TMC3     O 7269   2.495   2.075  12.621  0.1622 -0.9680  0.2436
  485TMC3     H 7270   2.737   2.018  12.604 -0.7532 -2.1878 -2.0533
  485TMC3    H1 7271   2.585   2.286  12.302  2.2268  2.0866  0.4050
  485TMC3    H2 7272   2.979   2.118  12.278  0.7716 -0.4233  0.6235
  485TMC3    C7 7273   2.759   2.162  12.129 -0.0812  0.3376  0.2995
  485TMC3    C8 7274   2.909   1.918  12.419 -0.4588 -0.2664 -0.3589
  485TMC3    O1 7275   2.679   2.227  12.064 -0.0397  0.6450  0.0055
  485TMC3    O2 7276   2.921   1.890  12.301  0.6082  0.0580  0.2199
  486MPD2     C 7277   4.286   0.686  12.462 -0.1739 -0.5705  0.4750
  486MPD2    C1 7278   4.355   0.749  12.358 -0.8640 -0.4798 -0.4659
  486MPD2    C2 7279   4.299   0.856  12.287 -0.1952 -0.5206 -0.1823
  486MPD2    C3 7280   4.185   0.910  12.336 -0.3949  0.2926  0.1907
  486MPD2    C4 7281   4.121   0.841  12.441 -0.7348  0.1366  0.1960
  486MPD2    C5 7282   4.166   0.735  12.500 -0.4481 -0.1794  0.8740
  486MPD2     H 7283   4.359   0.904  12.210  0.9908 -2.1924 -0.2996
  486MPD2    H1 7284   4.022   0.865  12.480 -0.6855  2.5071 -1.0647
  486MPD2    H2 7285   4.328   0.598  12.510 -0.3012  0.6788  2.9117
  486MPD2    H3 7286   4.099   0.692  12.573 -0.9932 -0.3346  0.2773
  486MPD2     N 7287   4.155   1.038  12.288  0.6712 -0.0974  0.0279
  486MPD2    H5 7288   4.225   1.079  12.228  1.4738  0.7770  1.5661
  486MPD2    N1 7289   4.483   0.703  12.342  0.1172 -0.6416 -0.6322
  486MPD2    H7 7290   4.512   0.622  12.396 -1.5063  0.1592  1.4607
  487TMC3    C1 7291   4.705   0.722  12.288  0.4664  0.4676 -0.7498
  487TMC3    C2 7292   4.726   0.601  12.340  0.5377  0.0308 -0.3491
  487TMC3    C3 7293   0.090   0.591  12.437  0.0229 -1.1421  0.1708
  487TMC3    C4 7294   0.020   0.829  12.343 -0.2238  0.1569 -0.8034
  487TMC3    C5 7295   0.110   0.820  12.443  0.0649 -0.0333 -0.2186
  487TMC3    C6 7296   0.166   0.694  12.474  0.6427  1.0455  0.0562
  487TMC3     C 7297   4.572   0.757  12.247 -0.0499 -0.4010 -0.1169
  487TMC3     O 7298   4.566   0.822  12.146  0.1025  0.0610  0.0966
  487TMC3     H 7299   4.677   0.512  12.302  0.2120 -0.3888  1.0534
  487TMC3    H1 7300   4.708   0.924  12.321 -0.6397  0.7253  2.5278
  487TMC3    H2 7301   0.228   0.686  12.563  0.9422 -0.2479 -0.2673
  487TMC3    C7 7302   0.065   0.881  12.565  0.9753  0.3257  0.1096
  487TMC3    C8 7303   0.034   0.520  12.542  0.4410  0.6466  0.2449
  487TMC3    O1 7304   0.136   0.881  12.666 -0.2105  0.1597  0.5686
  487TMC3    O2 7305   4.652   0.497  12.534  0.0909  0.3796  0.1501
  488MPD2     C 7306   4.478   2.448  16.540 -0.0601  0.2844 -0.4896
  488MPD2    C1 7307   4.531   2.535  16.633  0.0342  0.2447 -0.2392
  488MPD2    C2 7308   4.529   2.506  16.766 -0.3052  0.3015  0.5267
  488MPD2    C3 7309   4.471   2.392  16.815 -0.1763  0.0729 -0.4362
  488MPD2    C4 7310   4.399   2.321  16.720 -0.0823  0.3113  0.1849
  488MPD2    C5 7311   4.408   2.346  16.588  0.0177  0.5541  0.5569
  488MPD2     H 7312   4.571   2.574  16.839 -0.7165 -1.0023  1.9701
  488MPD2    H1 7313   4.336   2.234  16.735 -0.5409  0.8606  1.4458
  488MPD2    H2 7314   4.496   2.452  16.433 -2.4546  1.1244 -0.8534
  488MPD2    H3 7315   4.359   2.283  16.515  0.7326 -0.7813  1.2174
  488MPD2     N 7316   4.472   2.360  16.955  0.2186 -0.4567  0.3451
  488MPD2    H5 7317   4.533   2.410  17.018  2.2760 -1.1854 -1.0730
  488MPD2    N1 7318   4.617   2.641  16.600  0.7129 -0.5153 -0.3455
  488MPD2    H7 7319   4.648   2.696  16.680 -1.4255  1.8033 -1.1055
  489TMC3    C1 7320   4.439   2.244  17.151  0.1739 -0.5526  0.2913
  489TMC3    C2 7321   4.535   2.324  17.197 -0.1530  0.1857  0.2742
  489TMC3    C3 7322   4.519   2.390  17.317  0.7318  0.2321 -0.2829
  489TMC3    C4 7323   4.326   2.210  17.222  0.1237  0.1813  0.4984
  489TMC3    C5 7324   4.308   2.279  17.338  0.8069  0.3851  0.9761
  489TMC3    C6 7325   4.399   2.371  17.384 -0.0129 -0.4349 -0.2779
  489TMC3     C 7326   4.406   2.255  17.013  0.6511 -0.8577  0.1256
  489TMC3     O 7327   4.319   2.188  16.960 -0.5056 -0.5668 -0.2807
  489TMC3     H 7328   4.633   2.337  17.152 -1.7178 -3.7241 -4.2635
  489TMC3    H1 7329   4.258   2.142  17.173  2.6749 -1.2490 -1.0716
  489TMC3    H2 7330   4.383   2.422  17.479  0.9485 -1.2887  0.3515
  489TMC3    C7 7331   4.217   2.219  17.437 -0.4242  0.2392 -0.5114
  489TMC3    C8 7332   4.580   2.511  17.319  0.1670  0.2506  0.7893
  489TMC3    O1 7333   4.249   2.236  17.556  0.0908 -0.5080  0.0112
  489TMC3    O2 7334   4.614   2.549  17.208  1.0517 -0.2271 -0.1215
  490MPD2     C 7335   0.542   1.872   0.170  0.1175  0.9450 -0.3049
  490MPD2    C1 7336   0.613   1.852   0.049 -0.3866 -0.0294 -0.0828
  490MPD2    C2 7337   0.672   1.953  17.726 -0.0943 -0.1618 -0.0088
  490MPD2    C3 7338   0.668   2.078   0.042 -0.6775  0.4632  1.2143
  490MPD2    C4 7339   0.609   2.099   0.163  0.2167 -0.3454  0.5189
  490MPD2    C5 7340   0.543   1.995   0.229  0.4958  0.1715  0.2149
  490MPD2     H 7341   0.714   1.934  17.628  0.2598 -3.6909  0.8630
  490MPD2    H1 7342   0.598   2.197   0.208  0.8874 -0.5298  1.0875
  490MPD2    H2 7343   0.478   1.797   0.217 -1.8750  1.9378 -1.4506
  490MPD2    H3 7344   0.501   2.006   0.329 -3.7631 -0.4848 -1.5162
  490MPD2     N 7345   0.736   2.186  17.732  0.6118  0.0848 -0.3835
  490MPD2    H5 7346   0.768   2.253   0.059  0.0280 -0.1051  0.0724
  490MPD2    N1 7347   0.614   1.728  17.726  0.2045  0.2021 -0.4144
  490MPD2    H7 7348   0.645   1.723  17.629  0.6111 -0.4000 -0.2541
  491TMC3    C1 7349   0.586   1.493  17.710 -0.3803  0.3873  0.2842
  491TMC3    C2 7350   0.571   1.367   0.023 -0.2674 -0.2913 -0.3652
  491TMC3    C3 7351   0.523   1.263  17.687  0.4707 -0.6971  0.3091
  491TMC3    C4 7352   0.542   1.516  17.581  0.3980 -0.4212  0.1279
  491TMC3    C5 7353   0.496   1.407  17.508 -0.1402  0.0135 -0.8814
  491TMC3    C6 7354   0.483   1.281  17.559  0.4739 -0.6396  0.0190
  491TMC3     C 7355   0.605   1.609   0.053 -0.1432  0.0550 -0.6839
  491TMC3     O 7356   0.616   1.587   0.172  0.1102 -0.1801  0.4307
  491TMC3     H 7357   0.590   1.334   0.125  2.1159  0.3602 -0.5876
  491TMC3    H1 7358   0.533   1.615  17.538 -1.4605 -1.4849 -1.8989
  491TMC3    H2 7359   0.458   1.200  17.491  0.3121  0.6374 -1.4574
  491TMC3    C7 7360   0.437   1.434  17.379 -0.5107 -0.2815 -0.2542
  491TMC3    C8 7361   0.430   1.176   0.013  0.7333 -0.5392  0.7942
  491TMC3    O1 7362   0.340   1.363  17.354 -0.2974 -0.1744 -0.2074
  491TMC3    O2 7363   0.456   1.056   0.020 -0.7433 -0.1976  0.2118
  492MPD2     C 7364   1.038   2.101  11.294 -0.1169 -0.4607 -0.5822
  492MPD2    C1 7365   0.952   2.029  11.204  0.2809  0.6032 -0.0111
  492MPD2    C2 7366   0.874   1.934  11.256 -0.5082 -0.6221  0.2814
  492MPD2    C3 7367   0.872   1.910  11.395 -0.6772 -0.4728  0.7589
  492MPD2    C4 7368   0.959   1.976  11.479  0.3609 -0.0274 -0.0766
  492MPD2    C5 7369   1.042   2.070  11.424 -0.4114 -0.3121 -0.0735
  492MPD2     H 7370   0.796   1.892  11.193  2.9172 -4.5916 -1.2553
  492MPD2    H1 7371   0.974   1.941  11.581  0.6607 -0.1578 -0.1635
  492MPD2    H2 7372   1.113   2.170  11.256 -1.3577  0.9329 -0.4779
  492MPD2    H3 7373   1.121   2.118  11.480 -0.6719  0.1858 -0.1325
  492MPD2     N 7374   0.791   1.809  11.463 -0.5737 -0.2924  0.0063
  492MPD2    H5 7375   0.804   1.812  11.564 -1.0944 -1.0028  0.0948
  492MPD2    N1 7376   0.958   2.067  11.071 -0.5334  0.3201 -0.6653
  492MPD2    H7 7377   1.021   2.145  11.054  1.0586 -0.9119 -0.4063
  493TMC3    C1 7378   0.951   2.078  10.847  1.0810 -0.4975 -1.0765
  493TMC3    C2 7379   1.071   2.135  10.874  0.0115 -0.3143  0.3338
  493TMC3    C3 7380   1.112   2.238  10.791  0.0355  0.0750  0.1265
  493TMC3    C4 7381   0.874   2.122  10.737 -0.4173  0.4059  0.5839
  493TMC3    C5 7382   0.928   2.223  10.658  0.1407 -0.0199  0.0038
  493TMC3    C6 7383   1.038   2.285  10.688  0.3199  0.5192  0.1476
  493TMC3     C 7384   0.890   2.028  10.965  0.5155 -0.1057 -0.3549
  493TMC3     O 7385   0.785   1.963  10.964 -0.0480 -0.6101 -0.8445
  493TMC3     H 7386   1.150   2.094  10.935  2.0248  1.8134 -0.8369
  493TMC3    H1 7387   0.778   2.073  10.719 -0.2554  0.1783  0.3436
  493TMC3    H2 7388   1.076   2.368  10.630  1.2156 -0.5127 -0.7191
  493TMC3    C7 7389   0.847   2.269  10.541 -0.3909  0.4945 -0.3840
  493TMC3    C8 7390   1.238   2.303  10.824 -0.4433  0.0129 -0.2454
  493TMC3    O1 7391   0.734   2.220  10.534 -0.0106 -0.5796  0.2911
  493TMC3    O2 7392   1.286   2.262  10.925  0.1808 -0.4782  0.0398
  494TMC3    C1 7393   1.368   3.647   0.757  0.7600 -0.1149  0.0181
  494TMC3    C2 7394   1.363   3.509   0.771 -0.6092 -0.5455  0.2347
  494TMC3    C3 7395   1.344   3.435   0.657  1.4639 -0.0352  0.3493
  494TMC3    C4 7396   1.357   3.712   0.638  0.4020 -0.2967 -0.2378
  494TMC3    C5 7397   1.339   3.635   0.526 -0.0179 -0.4358  0.5559
  494TMC3    C6 7398   1.346   3.499   0.530  0.7636 -0.0739  0.3087
  494TMC3     C 7399   1.389   3.727   0.875 -0.2113 -0.2245  0.2733
  494TMC3     O 7400   1.337   3.836   0.887 -0.3027 -0.1593  0.0595
  494TMC3     H 7401   1.369   3.462   0.869 -0.4690  0.4400  0.6927
  494TMC3    H1 7402   1.359   3.820   0.635  0.2071 -0.3553 -2.8839
  494TMC3    H2 7403   1.351   3.441   0.439  0.3197  0.7909 -0.2624
  494TMC3    C7 7404   1.358   3.689   0.391  0.2485  0.9923 -0.4012
  494TMC3    C8 7405   1.323   3.295   0.667 -0.0732  0.2033  0.1302
  494TMC3    O1 7406   1.388   3.619   0.292 -0.6951 -0.6012 -0.1813
  494TMC3    O2 7407   1.324   3.252   0.780  0.1121  0.2532 -0.2997
  495TMC3    C1 7408   0.298   0.787  14.689  0.4226 -0.4485  1.5927
  495TMC3    C2 7409   0.325   0.896  14.612  0.4494  0.3464 -0.2579
  495TMC3    C3 7410   0.242   1.000  14.637  0.6915 -0.4131 -0.0340
  495TMC3    C4 7411   0.208   0.786  14.797 -0.5694  0.0497  0.4066
  495TMC3    C5 7412   0.153   0.906  14.831 -0.2318 -0.1963  0.1497
  495TMC3    C6 7413   0.166   1.017  14.749 -0.2023  0.0582  0.1078
  495TMC3     C 7414   0.285   0.664  14.612 -0.4990 -0.0803  0.7497
  495TMC3     O 7415   0.193   0.586  14.631 -0.7515 -0.0560  0.3336
  495TMC3     H 7416   0.380   0.891  14.519  0.7712  1.3030 -0.1186
  495TMC3    H1 7417   0.184   0.695  14.850 -0.0813 -0.2399  0.1212
  495TMC3    H2 7418   0.114   1.110  14.768  0.1053  0.6926 -2.1485
  495TMC3    C7 7419   0.110   0.925  14.965 -0.1028  0.0539  0.6827
  495TMC3    C8 7420   0.180   1.064  14.523  0.1964 -0.1719 -0.0977
  495TMC3    O1 7421   0.132   0.836  15.041 -0.5259 -0.1758 -0.1915
  495TMC3    O2 7422   0.118   1.170  14.542  0.1401 -0.3132 -0.6404
  496MPD2     C 7423   1.919   0.754  15.139  0.6457 -0.8229 -0.3617
  496MPD2    C1 7424   1.976   0.658  15.216 -1.0179 -0.1380  0.8373
  496MPD2    C2 7425   1.914   0.617  15.338  0.3031 -0.3752  0.0935
  496MPD2    C3 7426   1.780   0.662  15.360 -0.3081  0.1814  0.2218
  496MPD2    C4 7427   1.727   0.757  15.277  0.7099  0.1716  0.0101
  496MPD2    C5 7428   1.794   0.800  15.168 -0.3022  0.0134 -0.1679
  496MPD2     H 7429   1.963   0.553  15.410 -2.7655 -0.1175  2.3729
  496MPD2    H1 7430   1.625   0.791  15.293  0.1657 -1.2810 -0.3523
  496MPD2    H2 7431   1.963   0.778  15.043 -0.0962 -0.6670 -0.6558
  496MPD2    H3 7432   1.749   0.873  15.102  0.2381 -2.3751 -3.1942
  496MPD2     N 7433   1.693   0.616  15.461 -0.5218  0.3517 -0.3058
  496MPD2    H5 7434   1.600   0.655  15.471 -0.5188  0.9844 -2.7391
  496MPD2    N1 7435   2.112   0.614  15.181 -0.1451 -1.0421 -0.5040
  496MPD2    H7 7436   2.162   0.668  15.111 -0.8331 -0.2039 -0.3514
  497TMC3    C1 7437   1.608   0.471  15.616 -0.4494  0.2607 -0.0496
  497TMC3    C2 7438   1.478   0.490  15.568  0.0259  0.4046  0.0216
  497TMC3    C3 7439   1.373   0.488  15.657 -0.1571  0.6911 -0.1930
  497TMC3    C4 7440   1.627   0.413  15.737 -0.0968 -0.0117 -0.4465
  497TMC3    C5 7441   1.523   0.424  15.826 -0.1929  0.0444 -1.3878
  497TMC3    C6 7442   1.391   0.453  15.787  0.2608 -0.4406 -0.8803
  497TMC3     C 7443   1.723   0.512  15.544  0.1257  0.2021 -0.3027
  497TMC3     O 7444   1.827   0.449  15.557 -0.0468 -0.2435 -0.3310
  497TMC3     H 7445   1.465   0.529  15.467  1.6741  3.2990  0.9289
  497TMC3    H1 7446   1.726   0.383  15.767  0.4002 -0.0963 -2.1941
  497TMC3    H2 7447   1.327   0.489  15.867  0.8376 -0.7665 -0.2729
  497TMC3    C7 7448   1.538   0.382  15.963  0.1502 -0.1323  0.4828
  497TMC3    C8 7449   1.261   0.576  15.638  0.8133  0.1597 -0.8114
  497TMC3    O1 7450   1.445   0.347  16.033 -0.2109  0.8059  0.0052
  497TMC3    O2 7451   1.223   0.574  15.524 -0.3121  0.4838  0.3340
  498MPD2     C 7452   2.834   2.429   9.752  0.0081 -0.0227 -0.1109
  498MPD2    C1 7453   2.885   2.324   9.674  0.3589 -0.0055  0.5354
  498MPD2    C2 7454   2.829   2.197   9.686 -0.3388 -0.2223  0.0175
  498MPD2    C3 7455   2.716   2.184   9.767  0.0089  0.4553 -0.2843
  498MPD2    C4 7456   2.672   2.291   9.848 -0.1160  0.2917 -0.1181
  498MPD2    C5 7457   2.734   2.407   9.842 -0.0413 -0.2526 -0.3769
  498MPD2     H 7458   2.861   2.114   9.624  0.5111 -0.4669  0.7830
  498MPD2    H1 7459   2.593   2.283   9.922  0.6013  1.0433  0.7336
  498MPD2    H2 7460   2.878   2.527   9.742 -0.5147  0.3885  1.6657
  498MPD2    H3 7461   2.705   2.487   9.910 -0.7506 -0.4070 -0.4974
  498MPD2     N 7462   2.644   2.065   9.761  0.1124  0.3227 -0.4200
  498MPD2    H5 7463   2.692   1.998   9.703  0.4550  1.0672 -0.9904
  498MPD2    N1 7464   2.985   2.353   9.575 -0.0263 -0.3333  0.0227
  498MPD2    H7 7465   3.003   2.273   9.514 -0.0577 -0.5104  0.2450
  499TMC3    C1 7466   3.180   2.420   9.478  1.3944 -0.5990 -1.2494
  499TMC3    C2 7467   3.222   2.292   9.454  0.2983  0.4117 -0.2231
  499TMC3    C3 7468   3.346   2.277   9.383 -0.4240  0.6001 -0.1832
  499TMC3    C4 7469   3.264   2.526   9.444 -0.1646  0.2112 -0.0163
  499TMC3    C5 7470   3.375   2.509   9.374 -0.5291 -0.1800 -0.0307
  499TMC3    C6 7471   3.418   2.384   9.338  0.1965 -0.0083  0.2182
  499TMC3     C 7472   3.073   2.456   9.567 -0.7223 -0.0481  0.6559
  499TMC3     O 7473   3.053   2.570   9.591 -0.8371  0.5927 -0.1989
  499TMC3     H 7474   3.175   2.204   9.496  0.5403  0.3739 -0.0292
  499TMC3    H1 7475   3.238   2.629   9.464  2.5073  0.8456  0.1343
  499TMC3    H2 7476   3.517   2.365   9.297 -0.0204  0.2674 -0.4425
  499TMC3    C7 7477   3.478   2.612   9.371  0.9683 -0.5867 -0.6237
  499TMC3    C8 7478   3.407   2.151   9.371 -0.7649  0.3433 -0.0453
  499TMC3    O1 7479   3.489   2.685   9.466 -0.2046  0.2058  0.2114
  499TMC3    O2 7480   3.487   2.133   9.279  0.4319 -0.3859 -0.1262
  500MPD2     C 7481   0.418   3.263  10.496  0.0361 -0.4785  0.2067
  500MPD2    C1 7482   0.291   3.218  10.529  0.4751  0.6290  0.0398
  500MPD2    C2 7483   0.182   3.283  10.480 -0.6343 -0.2829 -0.3165
  500MPD2    C3 7484   0.197   3.404  10.411  0.2993  0.0628  0.2532
  500MPD2    C4 7485   0.322   3.449  10.380 -0.2743  0.4856  0.3498
  500MPD2    C5 7486   0.428   3.376  10.416 -0.5803  0.4508  0.5408
  500MPD2     H 7487   0.082   3.250  10.504 -0.6303  0.9955  1.4013
  500MPD2    H1 7488   0.345   3.541  10.327  0.9919 -0.3553 -0.5613
  500MPD2    H2 7489   0.511   3.216  10.525 -0.6080 -2.1043 -0.3806
  500MPD2    H3 7490   0.524   3.394  10.370 -1.5632  0.9154 -1.3162
  500MPD2     N 7491   0.090   3.491  10.365 -0.4366 -0.0131 -0.1323
  500MPD2    H5 7492   0.117   3.581  10.327 -0.3704  0.1584  0.3233
  500MPD2    N1 7493   0.272   3.106  10.615  0.1905 -0.3208  0.2969
  500MPD2    H7 7494   0.179   3.067  10.614 -0.2117  0.6873 -1.0789
  501TMC3    C1 7495   0.335   2.951  10.790 -0.2644 -0.2809 -0.2363
  501TMC3    C2 7496   0.343   2.835  10.720  0.7415 -0.1344 -0.1375
  501TMC3    C3 7497   0.413   2.731  10.769  0.5420  0.1388 -0.1982
  501TMC3    C4 7498   0.385   2.967  10.914  0.1327  0.1789  0.0788
  501TMC3    C5 7499   0.453   2.859  10.967  0.3219  1.0001  0.7084
  501TMC3    C6 7500   0.463   2.741  10.894  0.2972  0.3217  0.0209
  501TMC3     C 7501   0.371   3.062  10.709 -0.4171 -0.3627 -0.3152
  501TMC3     O 7502   0.480   3.108  10.742  0.2440 -0.8979 -0.3742
  501TMC3     H 7503   0.308   2.846  10.617  0.1969  0.5969  0.1202
  501TMC3    H1 7504   0.375   3.058  10.973 -1.0833 -0.0047  0.1476
  501TMC3    H2 7505   0.535   2.665  10.922 -0.3792 -1.4394 -2.9976
  501TMC3    C7 7506   0.594   2.891  11.001  1.1564 -0.1329 -0.3985
  501TMC3    C8 7507   0.526   2.698  10.680  0.4731 -0.5096 -0.3437
  501TMC3    O1 7508   0.664   2.806  11.057  0.3825 -0.2605  0.6181
  501TMC3    O2 7509   0.553   2.583  10.662 -0.0957 -0.2792 -0.3537
  502TMC3    C1 7510   4.410   1.752  14.940 -0.3390 -0.3110 -0.7543
  502TMC3    C2 7511   4.391   1.865  14.880 -0.0596 -0.6751  0.2812
  502TMC3    C3 7512   4.269   1.928  14.870  0.4216  0.1557  0.6805
  502TMC3    C4 7513   4.301   1.688  14.989 -0.1835  0.4792 -0.6272
  502TMC3    C5 7514   4.182   1.745  14.995 -0.2027 -0.3444 -0.1279
  502TMC3    C6 7515   4.163   1.870  14.941 -1.5199 -0.1718 -0.2102
  502TMC3     C 7516   4.528   1.741  15.020 -0.1354  0.1140  0.0387
  502TMC3     O 7517   4.642   1.756  14.973  0.7074  0.3196  0.2937
  502TMC3     H 7518   4.480   1.916  14.844  0.8094 -2.5514 -0.2466
  502TMC3    H1 7519   4.315   1.588  15.030  1.6682  0.3043 -1.6741
  502TMC3    H2 7520   4.070   1.925  14.935 -0.9212  1.0459  1.4745
  502TMC3    C7 7521   4.123   1.742  15.126 -0.3645  0.2132 -0.9980
  502TMC3    C8 7522   4.258   2.062  14.816 -0.0629 -0.2123  0.4721
  502TMC3    O1 7523   4.192   1.698  15.215 -0.2018 -0.3764  0.4099
  502TMC3    O2 7524   4.168   2.136  14.855 -0.2237  0.9427 -0.3326
  503MPD2     C 7525   1.408   2.287  17.143  0.0082  0.5034 -0.6037
  503MPD2    C1 7526   1.504   2.363  17.218  0.6163  0.0187  0.2657
  503MPD2    C2 7527   1.601   2.292  17.286  0.3716 -0.5224  0.1532
  503MPD2    C3 7528   1.620   2.153  17.266 -0.7634  0.1848  0.2591
  503MPD2    C4 7529   1.542   2.087  17.171  0.7731 -0.2103  0.4456
  503MPD2    C5 7530   1.437   2.157  17.115  0.4552  0.9976 -0.3913
  503MPD2     H 7531   1.652   2.342  17.367 -0.1561  0.9868 -0.4432
  503MPD2    H1 7532   1.552   1.982  17.150 -1.0623 -0.5885  1.5189
  503MPD2    H2 7533   1.318   2.333  17.104  0.3340 -0.0074 -1.9620
  503MPD2    H3 7534   1.385   2.102  17.037  0.4678 -1.1328  1.1049
  503MPD2     N 7535   1.720   2.083  17.344  0.1427 -0.7571 -0.5166
  503MPD2    H5 7536   1.779   2.130  17.413 -0.0173  0.1607 -0.9949
  503MPD2    N1 7537   1.484   2.503  17.244  0.4653  0.0777  0.2885
  503MPD2    H7 7538   1.535   2.539  17.324  0.0833  1.8115 -0.2575
  504TMC3    C1 7539   1.893   1.932  17.384  0.5346  0.7349 -0.4406
  504TMC3    C2 7540   1.874   1.952  17.516 -0.7241 -0.1510  0.4450
  504TMC3    C3 7541   1.977   2.018  17.584 -0.5359  0.9609 -0.4274
  504TMC3    C4 7542   2.010   1.945  17.322 -0.1377  0.3825  0.3545
  504TMC3    C5 7543   2.109   1.997  17.393 -0.2085  0.5362  0.2647
  504TMC3    C6 7544   2.102   2.031  17.522 -0.0996  0.4181  0.4176
  504TMC3     C 7545   1.780   1.967  17.300  0.3662 -0.1983  0.0561
  504TMC3     O 7546   1.761   1.894  17.202 -0.1629 -0.1898  0.0613
  504TMC3     H 7547   1.777   1.939  17.561 -0.6489 -1.6415  0.1741
  504TMC3    H1 7548   2.019   1.923  17.217 -1.8027  0.0786  0.2638
  504TMC3    H2 7549   2.182   2.088  17.568  0.5064  2.0177 -2.6180
  504TMC3    C7 7550   2.242   1.983  17.332 -0.1761  0.8477  0.1788
  504TMC3    C8 7551   1.923   2.122  17.664 -0.0093  0.5677  0.1114
  504TMC3    O1 7552   2.254   1.953  17.214 -0.0758 -0.3028 -0.5015
  504TMC3    O2 7553   1.875   2.218  17.607 -0.4536  0.1138  0.8999
  505MPD2     C 7554   2.245   1.340  10.450  0.4214 -0.0166 -0.2291
  505MPD2    C1 7555   2.234   1.214  10.395  0.2555  0.0383  0.8100
  505MPD2    C2 7556   2.351   1.152  10.366 -0.3285  0.1822  0.1477
  505MPD2    C3 7557   2.473   1.219  10.360 -1.0586 -0.2341  0.6346
  505MPD2    C4 7558   2.483   1.344  10.423  0.4838  0.3970  0.1472
  505MPD2    C5 7559   2.366   1.395  10.470  0.1004  0.3850 -0.2109
  505MPD2     H 7560   2.344   1.051  10.327 -2.1622 -0.0113  0.9428
  505MPD2    H1 7561   2.577   1.397  10.433 -0.0575  1.1138  1.3724
  505MPD2    H2 7562   2.159   1.396  10.485  0.4604  0.0099 -0.1762
  505MPD2    H3 7563   2.379   1.488  10.526  0.1924  0.4994 -0.4242
  505MPD2     N 7564   2.582   1.147  10.312  0.0883  0.0641  0.3110
  505MPD2    H5 7565   2.565   1.048  10.303 -0.6839  0.1954  0.3245
  505MPD2    N1 7566   2.099   1.169  10.371 -0.0253 -0.0892 -0.3185
  505MPD2    H7 7567   2.027   1.239  10.388  1.5113  1.4305 -0.0609
  506TMC3    C1 7568   1.934   1.042  10.278  0.1335  0.2721  0.7057
  506TMC3    C2 7569   1.894   1.140  10.193 -0.0679  0.2592  0.2762
  506TMC3    C3 7570   1.813   1.106  10.088 -0.0342 -0.0191  0.3365
  506TMC3    C4 7571   1.903   0.911  10.237 -0.0845 -0.1389  0.1335
  506TMC3    C5 7572   1.840   0.885  10.119 -0.3464  0.0025  0.1708
  506TMC3    C6 7573   1.774   0.985  10.051 -0.0175 -0.6071  0.1030
  506TMC3     C 7574   2.070   1.049  10.316 -0.1245 -0.0180  0.3986
  506TMC3     O 7575   2.142   0.948  10.301  0.1238 -0.0530  0.0215
  506TMC3     H 7576   1.915   1.240  10.230  1.3991 -0.1595  0.5729
  506TMC3    H1 7577   1.943   0.826  10.291  0.6049 -0.9259 -1.6205
  506TMC3    H2 7578   1.730   0.968   9.953  1.3832  0.1413 -0.6581
  506TMC3    C7 7579   1.920   0.803  10.030 -0.1468  0.3444  0.1825
  506TMC3    C8 7580   1.758   1.216  10.005 -0.1447 -0.0389 -0.5045
  506TMC3    O1 7581   1.864   0.763   9.929 -0.5563  0.6879 -0.2752
  506TMC3    O2 7582   1.641   1.203   9.958  0.4007  0.5743  0.0197
  507TMC3    C1 7583   2.705   1.173  15.229  0.6900 -0.7644 -0.3121
  507TMC3    C2 7584   2.638   1.159  15.108  0.2546 -0.1990 -0.3910
  507TMC3    C3 7585   2.687   1.236  15.010  0.2603 -0.4000 -0.7504
  507TMC3    C4 7586   2.819   1.250  15.242 -0.0906  0.6681  0.5773
  507TMC3    C5 7587   2.873   1.309  15.128 -0.0795  0.6380 -0.5828
  507TMC3    C6 7588   2.806   1.292  15.009  0.1871 -0.4043 -0.8853
  507TMC3     C 7589   2.664   1.084  15.341 -0.0660 -0.3002 -0.3822
  507TMC3     O 7590   2.731   1.099  15.440 -0.0915 -0.1151  0.3533
  507TMC3     H 7591   2.547   1.102  15.098  1.0841 -1.5236 -0.3583
  507TMC3    H1 7592   2.858   1.260  15.343 -0.0089  0.3247  0.5793
  507TMC3    H2 7593   2.830   1.349  14.920  0.9386  1.5377  0.5737
  507TMC3    C7 7594   2.912   1.444  15.142 -0.2071 -0.4411  0.2967
  507TMC3    C8 7595   2.583   1.306  14.939  0.1259 -0.5119 -0.5577
  507TMC3    O1 7596   2.871   1.521  15.052 -0.6417 -0.2025  0.0256
  507TMC3    O2 7597   2.483   1.244  14.907 -0.1467 -0.0213  0.1532
  508MPD2     C 7598   3.312   4.521  16.296  0.1648 -0.5016  0.3364
  508MPD2    C1 7599   3.450   4.541  16.293  0.9442  0.7623  0.1485
  508MPD2    C2 7600   3.495   4.612  16.177  0.4814  0.0405  0.4796
  508MPD2    C3 7601   3.412   4.638  16.071 -0.1431  0.1325 -0.1984
  508MPD2    C4 7602   3.274   4.614  16.078 -1.6392 -0.0892 -0.3636
  508MPD2    C5 7603   3.228   4.565  16.197  0.4663  0.4406  0.1035
  508MPD2     H 7604   3.601   4.633  16.165 -0.0263  2.2147 -0.2866
  508MPD2    H1 7605   3.201   4.644  16.003 -0.6908 -0.9871 -1.6407
  508MPD2    H2 7606   3.272   4.472  16.384 -1.4416 -1.3346 -0.8537
  508MPD2    H3 7607   3.121   4.566  16.213  0.4718 -0.4283  0.2154
  508MPD2     N 7608   3.471   4.698  15.957 -0.5071 -0.1673  0.3406
  508MPD2    H5 7609   3.572   4.708  15.950 -0.5744 -0.0305 -0.4259
  508MPD2    N1 7610   3.535   4.493  16.399 -0.0307  0.3521  0.0578
  508MPD2    H7 7611   3.495   4.449  16.481  0.0336 -1.4419 -0.8903
  509TMC3    C1 7612   3.489   0.315  15.654 -0.4007  0.3034  0.5859
  509TMC3    C2 7613   3.618   0.350  15.681  0.2433  0.1449 -0.5848
  509TMC3    C3 7614   3.687   0.259  15.762 -0.3753  0.6314  0.3432
  509TMC3    C4 7615   3.436   0.198  15.700 -0.2521 -0.1305  0.0456
  509TMC3    C5 7616   3.500   0.111  15.776  0.6050 -0.3796  0.0533
  509TMC3    C6 7617   3.629   0.147  15.815  0.6932 -0.2943 -0.2144
  509TMC3     C 7618   3.395   0.401  15.593  0.0417  0.1578  0.1111
  509TMC3     O 7619   3.284   0.358  15.565  0.4404  0.3254  0.2238
  509TMC3     H 7620   3.668   0.426  15.621 -2.1812  2.6570  0.5813
  509TMC3    H1 7621   3.332   0.173  15.682  0.6237 -1.5125 -3.0436
  509TMC3    H2 7622   3.687   0.097  15.891  1.7994 -0.4515 -1.1535
  509TMC3    C7 7623   3.407   0.025  15.852 -0.6087  0.4335  0.0855
  509TMC3    C8 7624   3.823   0.283  15.792 -0.2152  0.1157 -0.0427
  509TMC3    O1 7625   3.288   0.010  15.819 -0.1120  0.3367 -0.6297
  509TMC3    O2 7626   3.886   0.194  15.841  0.6516  0.5363  0.5490
  510MPD2     C 7627   1.189   1.310  14.507  0.2188 -1.0318  0.0815
  510MPD2    C1 7628   1.265   1.231  14.588 -0.2970  0.5051 -0.7095
  510MPD2    C2 7629   1.400   1.229  14.578 -0.5131  0.0446 -0.2022
  510MPD2    C3 7630   1.464   1.309  14.489 -0.0300 -0.4443  0.0332
  510MPD2    C4 7631   1.389   1.390  14.399 -0.4818  0.2404 -0.8982
  510MPD2    C5 7632   1.254   1.391  14.418 -0.3448 -0.3489  0.2723
  510MPD2     H 7633   1.459   1.158  14.634  1.4544 -0.6484 -3.1495
  510MPD2    H1 7634   1.433   1.471  14.341  2.1763 -0.5150  0.0599
  510MPD2    H2 7635   1.085   1.335  14.524  0.5930  0.9037 -0.4992
  510MPD2    H3 7636   1.189   1.449  14.353 -1.8004 -1.5756  0.6458
  510MPD2     N 7637   1.605   1.303  14.484  0.4175  0.1504  0.1254
  510MPD2    H5 7638   1.655   1.263  14.563  2.3276  2.4623  0.0967
  510MPD2    N1 7639   1.191   1.157  14.686 -0.8255 -0.5985  0.1942
  510MPD2    H7 7640   1.091   1.178  14.690 -0.8584 -0.6319 -0.4922
  511TMC3    C1 7641   1.147   0.980  14.837  0.0811 -0.4175 -0.9429
  511TMC3    C2 7642   1.066   1.049  14.922  0.5064  0.0956  0.0519
  511TMC3    C3 7643   0.975   0.973  14.994 -0.0444  0.4173 -0.4185
  511TMC3    C4 7644   1.159   0.843  14.824  0.0004 -0.1132  0.4271
  511TMC3    C5 7645   1.060   0.778  14.893 -0.3295 -0.6639 -0.0795
  511TMC3    C6 7646   0.965   0.841  14.970  0.2598 -0.7924 -0.0948
  511TMC3     C 7647   1.249   1.056  14.766 -1.1541 -0.1600  0.3335
  511TMC3     O 7648   1.366   1.011  14.767  0.1733  1.0222 -0.3060
  511TMC3     H 7649   1.081   1.155  14.936 -2.3405  0.4523  0.3126
  511TMC3    H1 7650   1.228   0.796  14.754 -1.1105  3.1852 -2.8440
  511TMC3    H2 7651   0.872   0.792  14.998 -0.3710 -0.5086 -1.6880
  511TMC3    C7 7652   1.044   0.646  14.846 -0.0664 -0.5194  0.1722
  511TMC3    C8 7653   0.921   1.031  15.116 -0.8266 -0.3365  0.0722
  511TMC3    O1 7654   1.088   0.612  14.737 -0.4564  0.2902  0.2730
  511TMC3    O2 7655   0.907   1.152  15.112 -0.5801  0.5336  0.3861
  512TMC3    C1 7656   0.594   0.740  12.569 -0.2142 -0.0605 -0.2783
  512TMC3    C2 7657   0.636   0.757  12.705  0.0047 -0.0180 -0.1402
  512TMC3    C3 7658   0.637   0.642  12.777  0.2903 -0.0777 -0.1025
  512TMC3    C4 7659   0.570   0.620  12.510 -0.3716  0.2764  0.0885
  512TMC3    C5 7660   0.569   0.510  12.590  0.1068 -0.5667  0.4004
  512TMC3    C6 7661   0.604   0.517  12.724 -0.0786 -0.7069 -0.4460
  512TMC3     C 7662   0.573   0.847  12.484  0.3761  0.6762  0.0450
  512TMC3     O 7663   0.600   0.839  12.364 -0.2374  0.0658 -0.5097
  512TMC3     H 7664   0.658   0.854  12.748 -0.9611 -0.2495  0.8496
  512TMC3    H1 7665   0.529   0.615  12.410  0.5713  0.6734 -0.3193
  512TMC3    H2 7666   0.609   0.435  12.795 -1.0434 -0.0519  0.3941
  512TMC3    C7 7667   0.463   0.408  12.563  0.0044 -0.6205  0.5745
  512TMC3    C8 7668   0.603   0.652  12.916 -0.0791 -0.3911  0.0932
  512TMC3    O1 7669   0.369   0.458  12.501 -0.7190  0.1883 -0.2422
  512TMC3    O2 7670   0.509   0.584  12.957 -0.1331  0.1852 -0.5360
  513MPD2     C 7671   2.936   0.942  13.098  0.4265 -0.4552 -0.2815
  513MPD2    C1 7672   2.876   0.819  13.117  0.1506 -0.3846  0.8603
  513MPD2    C2 7673   2.953   0.712  13.163  0.6418 -0.6023 -0.7202
  513MPD2    C3 7674   3.087   0.729  13.194  0.2445 -0.7431  0.5341
  513MPD2    C4 7675   3.140   0.856  13.195 -0.8500  0.3446 -0.3879
  513MPD2    C5 7676   3.066   0.964  13.144 -0.4143  0.9578  0.8726
  513MPD2     H 7677   2.915   0.611  13.167 -1.9607  0.4438  0.6060
  513MPD2    H1 7678   3.239   0.879  13.232 -0.1990  2.0956 -3.2258
  513MPD2    H2 7679   2.892   1.035  13.063  0.6330 -0.2280  0.0654
  513MPD2    H3 7680   3.093   1.069  13.147  0.7021  0.6288  2.3255
  513MPD2     N 7681   3.149   0.617  13.245  0.3665  0.1696 -0.1237
  513MPD2    H5 7682   3.090   0.535  13.244  0.0429  0.4042 -0.8934
  513MPD2    N1 7683   2.737   0.814  13.094  0.6197 -0.0188 -0.2944
  513MPD2    H7 7684   2.686   0.896  13.063 -1.0906 -0.5951  0.9681
  514TMC3    C1 7685   2.530   0.720  13.105  0.1313 -0.8997 -0.9759
  514TMC3    C2 7686   2.500   0.744  12.976  0.5214 -0.8032  0.4116
  514TMC3    C3 7687   2.393   0.671  12.927 -0.2447 -0.5214 -0.1716
  514TMC3    C4 7688   2.462   0.629  13.187 -0.3241  0.1318 -0.2077
  514TMC3    C5 7689   2.376   0.547  13.120 -0.6344 -0.3702  0.3884
  514TMC3    C6 7690   2.326   0.572  12.992  0.1351  0.5559 -0.7379
  514TMC3     C 7691   2.669   0.710  13.140  0.2040  0.0269  0.5255
  514TMC3     O 7692   2.693   0.618  13.220 -0.4538 -0.5654 -0.2064
  514TMC3     H 7693   2.559   0.809  12.912 -0.7984  1.4068  1.4316
  514TMC3    H1 7694   2.474   0.620  13.294 -1.2519 -2.2705 -0.2954
  514TMC3    H2 7695   2.234   0.524  12.959  1.0582 -1.6642 -0.0568
  514TMC3    C7 7696   2.405   0.407  13.139 -0.3739  0.0126  0.4612
  514TMC3    C8 7697   2.318   0.728  12.814  0.2645 -0.4154  0.5718
  514TMC3    O1 7698   2.334   0.323  13.099 -0.5586 -0.4427  0.5610
  514TMC3    O2 7699   2.338   0.851  12.800  0.1772  0.5147  0.1466
  515MPD2     C 7700   0.443   2.494  14.090 -0.3199 -0.4115  0.4236
  515MPD2    C1 7701   0.368   2.455  14.198 -0.0217 -0.6106 -0.2671
  515MPD2    C2 7702   0.414   2.485  14.321  0.1484  0.1018 -0.5998
  515MPD2    C3 7703   0.533   2.557  14.343  0.9122 -0.1119 -0.1883
  515MPD2    C4 7704   0.609   2.583  14.232 -0.5261  0.0362  0.2417
  515MPD2    C5 7705   0.566   2.550  14.104  0.6677  0.4140 -0.4329
  515MPD2     H 7706   0.350   2.454  14.403  0.2349  1.5736  0.0198
  515MPD2    H1 7707   0.700   2.643  14.236 -0.0925 -0.5192 -1.2534
  515MPD2    H2 7708   0.406   2.496  13.988  1.3150 -2.0759 -0.1965
  515MPD2    H3 7709   0.624   2.578  14.017  1.0134  0.4560 -0.1915
  515MPD2     N 7710   0.572   2.594  14.470  0.3163 -0.6626  0.2858
  515MPD2    H5 7711   0.633   2.675  14.477 -0.2092 -0.4374  2.2588
  515MPD2    N1 7712   0.238   2.400  14.187 -0.4463  0.2280  0.9079
  515MPD2    H7 7713   0.192   2.415  14.276  2.3807  1.5594  2.1415
  516TMC3    C1 7714   0.039   2.318  14.116  0.3623  1.4108  0.3226
  516TMC3    C2 7715   4.695   2.425  14.157  0.5033 -0.2315  0.2337
  516TMC3    C3 7716   4.584   2.395  14.234 -0.2464 -0.1628 -0.6554
  516TMC3    C4 7717   0.004   2.187  14.142  0.9719 -0.1115  0.3745
  516TMC3    C5 7718   4.622   2.169  14.214  0.5957  0.3096  0.3842
  516TMC3    C6 7719   4.541   2.267  14.251  0.7775  0.8197 -0.4761
  516TMC3     C 7720   0.178   2.347  14.080  0.0574  0.3705 -0.4973
  516TMC3     O 7721   0.230   2.314  13.972 -0.1983  0.1703 -0.0634
  516TMC3     H 7722   4.734   2.525  14.139 -1.8323  1.0951  2.4043
  516TMC3    H1 7723   0.078   2.114  14.111  2.5707  0.9036  1.7395
  516TMC3    H2 7724   4.454   2.246  14.311  0.9201  1.7176  0.0322
  516TMC3    C7 7725   4.614   2.042  14.291 -0.0787 -0.0910  0.0865
  516TMC3    C8 7726   4.513   2.505  14.294  0.2392 -0.6430  0.3107
  516TMC3    O1 7727   4.723   1.986  14.311  0.3794 -0.0215  0.1937
  516TMC3    O2 7728   4.391   2.494  14.308  0.9333 -0.1999 -0.5547
  517MPD2     C 7729   0.109   4.040  17.144  0.4241 -0.4640 -0.1478
  517MPD2    C1 7730   0.197   3.972  17.224 -0.2249  0.8405  0.4875
  517MPD2    C2 7731   0.204   3.998  17.357  0.0326  0.3089  0.6878
  517MPD2    C3 7732   0.135   4.100  17.415  0.7793  0.3498  1.0987
  517MPD2    C4 7733   0.051   4.174  17.336 -0.7303  0.1761 -0.2554
  517MPD2    C5 7734   0.041   4.146  17.200 -0.2141  0.3517 -0.1375
  517MPD2     H 7735   0.268   3.934  17.417 -2.0431 -1.3241  1.1512
  517MPD2    H1 7736   4.726   4.256  17.374 -0.2900  0.5620 -0.3721
  517MPD2    H2 7737   0.110   4.035  17.036 -2.1736  2.4283 -0.3105
  517MPD2    H3 7738   4.701   4.202  17.147  0.4794  0.5717 -0.9014
  517MPD2     N 7739   0.144   4.132  17.549 -0.8824 -0.0536  0.2902
  517MPD2    H5 7740   0.076   4.202  17.575 -0.0420  1.2784 -1.0974
  517MPD2    N1 7741   0.270   3.856  17.177  0.8681  0.1897 -0.5557
  517MPD2    H7 7742   0.327   3.802  17.241  1.3548  0.5983 -0.6475
  518TMC3    C1 7743   0.389   3.716  17.043  0.1708  0.4167 -0.6718
  518TMC3    C2 7744   0.398   3.627  17.149  0.2002  0.1301  0.4445
  518TMC3    C3 7745   0.492   3.529  17.144 -0.1210 -0.2521 -0.1689
  518TMC3    C4 7746   0.473   3.700  16.935 -0.1117  0.6730  0.1646
  518TMC3    C5 7747   0.562   3.595  16.934  0.2918 -0.0395 -0.4516
  518TMC3    C6 7748   0.567   3.508  17.036  0.4231 -0.8209 -0.3232
  518TMC3     C 7749   0.303   3.825  17.050 -0.1019  0.5884  0.4265
  518TMC3     O 7750   0.264   3.876  16.944  0.8161 -0.0579  0.0629
  518TMC3     H 7751   0.325   3.638  17.228 -0.1974 -1.6469  0.3133
  518TMC3    H1 7752   0.455   3.760  16.846 -1.4355 -2.0552 -1.4485
  518TMC3    H2 7753   0.637   3.426  17.041  0.3960 -0.8364 -0.1988
  518TMC3    C7 7754   0.599   3.542  16.803 -0.4359  0.4643  0.6416
  518TMC3    C8 7755   0.473   3.404  17.221  0.0607 -0.0853  0.3476
  518TMC3    O1 7756   0.588   3.611  16.703 -0.3645 -0.3652  0.0246
  518TMC3    O2 7757   0.512   3.310  17.157 -0.3988 -0.3934  0.3828
  519MPD2     C 7758   1.956   2.607  14.164  0.2389 -0.0030  0.1745
  519MPD2    C1 7759   1.847   2.523  14.126 -0.2070  0.1733 -0.0480
  519MPD2    C2 7760   1.873   2.386  14.104  0.3395 -0.3963  0.6715
  519MPD2    C3 7761   1.997   2.338  14.124  0.0279 -0.1967  0.1182
  519MPD2    C4 7762   2.101   2.420  14.155 -0.1698 -0.1760  0.4350
  519MPD2    C5 7763   2.081   2.552  14.179  0.5871  0.0620  0.3542
  519MPD2     H 7764   1.786   2.328  14.075  1.3808 -0.8968 -1.4352
  519MPD2    H1 7765   2.192   2.368  14.182 -0.1073  0.7687  2.0878
  519MPD2    H2 7766   1.940   2.708  14.198  2.6695  0.7779 -1.0517
  519MPD2    H3 7767   2.157   2.614  14.224  1.7125 -1.3176  0.3520
  519MPD2     N 7768   2.020   2.206  14.098  0.0681  0.2507 -0.1861
  519MPD2    H5 7769   2.118   2.182  14.106 -0.2644 -1.1856 -0.4616
  519MPD2    N1 7770   1.717   2.580  14.105  0.1886 -0.3538 -0.3621
  519MPD2    H7 7771   1.718   2.680  14.086 -0.3996 -0.5322 -1.3305
  520TMC3    C1 7772   2.008   1.999  13.982 -0.2171 -0.3978  0.5738
  520TMC3    C2 7773   1.936   1.926  13.891 -0.0126  0.6801 -0.3005
  520TMC3    C3 7774   1.997   1.819  13.836  0.0231 -0.2807 -0.4730
  520TMC3    C4 7775   2.131   1.960  14.032  0.6011  0.1933  0.5357
  520TMC3    C5 7776   2.188   1.850  13.981  0.3949  0.3092 -0.0217
  520TMC3    C6 7777   2.121   1.776  13.885 -0.1202 -0.9047 -0.0470
  520TMC3     C 7778   1.943   2.113  14.042 -0.6984 -0.3696 -0.7426
  520TMC3     O 7779   1.829   2.116  14.007 -0.0234 -0.2953 -0.5138
  520TMC3     H 7780   1.837   1.957  13.860 -1.1455 -1.9469  0.6564
  520TMC3    H1 7781   2.172   2.022  14.112 -1.0500  0.8304  0.8878
  520TMC3    H2 7782   2.160   1.687  13.838 -2.6257 -0.8255 -2.2519
  520TMC3    C7 7783   2.321   1.818  14.024 -0.2887  0.0801  0.3817
  520TMC3    C8 7784   1.925   1.730  13.738 -0.2371 -0.2082 -0.2005
  520TMC3    O1 7785   2.368   1.874  14.123  0.1642 -0.3374  0.2669
  520TMC3    O2 7786   1.974   1.616  13.716 -0.0789 -0.1613  0.4488
  521MPD2     C 7787   2.283   0.361  17.181  0.1588 -0.0673 -1.1566
  521MPD2    C1 7788   2.302   0.240  17.243 -0.1704  0.4465 -0.4058
  521MPD2    C2 7789   2.430   0.200  17.249 -0.2665  0.5825 -0.9077
  521MPD2    C3 7790   2.535   0.278  17.204 -0.1790 -0.7813  0.6534
  521MPD2    C4 7791   2.514   0.402  17.150  0.1264  0.4359  0.0200
  521MPD2    C5 7792   2.383   0.444  17.141  0.1328 -0.2023 -0.4841
  521MPD2     H 7793   2.458   0.099  17.278 -1.1814  0.5687 -0.0896
  521MPD2    H1 7794   2.598   0.462  17.116  1.2783 -2.1792 -1.7602
  521MPD2    H2 7795   2.181   0.397  17.171  1.2298  3.3121  0.0469
  521MPD2    H3 7796   2.349   0.535  17.093 -0.0264 -1.0942 -2.0621
  521MPD2     N 7797   2.661   0.221  17.207 -0.2048 -0.0114 -0.5843
  521MPD2    H5 7798   2.667   0.129  17.249  0.2185 -0.3535 -1.3905
  521MPD2    N1 7799   2.193   0.166  17.302 -0.1103  0.2327 -0.3523
  521MPD2    H7 7800   2.097   0.184  17.274 -0.1655  2.0835  1.0442
  522TMC3    C1 7801   2.868   0.164  17.140  0.4826  0.6798 -0.2763
  522TMC3    C2 7802   2.980   0.162  17.222  0.5669 -0.6119 -0.2067
  522TMC3    C3 7803   3.045   0.042  17.235 -0.5937 -0.2938 -0.6501
  522TMC3    C4 7804   2.807   0.048  17.093 -0.0134 -0.1337 -0.1911
  522TMC3    C5 7805   2.873   4.663  17.119  0.1506  0.3981  0.0968
  522TMC3    C6 7806   2.998   4.659  17.188  0.8080 -1.1991 -0.8040
  522TMC3     C 7807   2.780   0.277  17.166  0.6441 -0.1395  0.9697
  522TMC3     O 7808   2.814   0.392  17.159 -0.7447  0.1644 -0.1930
  522TMC3     H 7809   3.028   0.257  17.243 -0.6756 -0.4259  1.7790
  522TMC3    H1 7810   2.713   0.065  17.042  0.0026  1.6577  0.3515
  522TMC3    H2 7811   3.046   4.562  17.188 -3.0464 -3.0965  1.3549
  522TMC3    C7 7812   2.820   4.543  17.062 -0.3404 -0.2535 -0.2179
  522TMC3    C8 7813   3.186   0.058  17.262  0.5204 -0.5585 -0.2624
  522TMC3    O1 7814   2.831   4.442  17.136  0.6246  0.3965  0.4226
  522TMC3    O2 7815   3.220   0.138  17.349  0.3129  0.2356 -0.2598
  523MPD2     C 7816   0.991   4.415   9.459  0.1289 -0.1255  0.0308
  523MPD2    C1 7817   0.932   4.502   9.546  0.3939  0.2072 -0.1753
  523MPD2    C2 7818   0.920   4.634   9.501 -0.7485 -0.7137  0.7166
  523MPD2    C3 7819   0.964   4.674   9.375 -0.9952 -0.2080  0.3690
  523MPD2    C4 7820   1.019   4.575   9.288 -0.1098  0.2199  0.5816
  523MPD2    C5 7821   1.038   4.449   9.338  0.2208 -0.5670 -0.2242
  523MPD2     H 7822   0.873   4.713   9.558 -0.7127 -0.1268 -0.0612
  523MPD2    H1 7823   1.044   4.604   9.186 -1.6181  2.0330  0.7266
  523MPD2    H2 7824   1.004   4.313   9.493 -0.9475  0.3840  1.9895
  523MPD2    H3 7825   1.086   4.376   9.273 -0.8354 -1.8051  0.3888
  523MPD2     N 7826   0.958   0.067   9.316  0.4629 -0.5258 -0.6592
  523MPD2    H5 7827   0.988   0.071   9.219  0.5133  0.1013 -0.6202
  523MPD2    N1 7828   0.891   4.449   9.675  0.5787  0.2035 -0.4840
  523MPD2    H7 7829   0.903   4.351   9.696 -0.6896  0.4995  1.6355
  524TMC3    C1 7830   0.877   0.291   9.308 -0.2681  0.5652  0.2818
  524TMC3    C2 7831   0.851   0.279   9.175 -0.1953  0.0774 -0.0138
  524TMC3    C3 7832   0.795   0.384   9.114 -0.4324 -0.0618 -0.0240
  524TMC3    C4 7833   0.865   0.406   9.376 -0.3315  0.0896 -0.3105
  524TMC3    C5 7834   0.828   0.518   9.304  0.4490  0.4433  0.2842
  524TMC3    C6 7835   0.777   0.506   9.178  0.7975  0.2288 -0.1143
  524TMC3     C 7836   0.903   0.174   9.387 -0.2625  0.2328 -0.4468
  524TMC3     O 7837   0.887   0.190   9.507 -0.2069 -0.0830  0.6037
  524TMC3     H 7838   0.833   0.186   9.121 -0.1907  0.7784 -1.2114
  524TMC3    H1 7839   0.913   0.412   9.473 -1.4103 -2.7409  0.3954
  524TMC3    H2 7840   0.752   0.599   9.130  0.3174  1.0273  1.6919
  524TMC3    C7 7841   0.769   0.620   9.382 -0.2729 -0.2098 -0.1793
  524TMC3    C8 7842   0.721   0.372   8.989  0.4959  0.1104 -0.7413
  524TMC3    O1 7843   0.736   0.725   9.328  0.9174  0.0822  0.2175
  524TMC3    O2 7844   0.616   0.434   8.996  0.1539 -0.5308  0.5191
  525MPD2     C 7845   3.156   1.848  14.624  0.5126  0.1148  0.1566
  525MPD2    C1 7846   3.253   1.898  14.709 -0.3776 -0.5959  0.3293
  525MPD2    C2 7847   3.280   2.035  14.708 -0.3519  0.1578  0.0100
  525MPD2    C3 7848   3.203   2.113  14.627 -0.0000  0.3705  0.9404
  525MPD2    C4 7849   3.093   2.062  14.556 -0.0397 -0.5851  0.1973
  525MPD2    C5 7850   3.066   1.931  14.566  0.3734 -0.0110  0.7191
  525MPD2     H 7851   3.342   2.082  14.783 -0.4848 -1.0875  0.8959
  525MPD2    H1 7852   3.027   2.127  14.500 -0.3748 -2.1858 -1.2381
  525MPD2    H2 7853   3.135   1.743  14.643 -2.9093  0.8746  0.5466
  525MPD2    H3 7854   2.979   1.890  14.516  1.1728 -0.1630 -0.5565
  525MPD2     N 7855   3.229   2.249  14.610  0.2147  0.5141  0.2963
  525MPD2    H5 7856   3.156   2.303  14.565 -0.0957 -2.5252 -2.8405
  525MPD2    N1 7857   3.320   1.825  14.801  0.3808 -0.4001 -0.5252
  525MPD2    H7 7858   3.380   1.879  14.862  0.1108  1.2874 -1.7460
  526TMC3    C1 7859   3.379   1.659  14.944 -0.1084 -0.3501  0.1303
  526TMC3    C2 7860   3.331   1.626  15.065  0.4806  0.2972  0.1391
  526TMC3    C3 7861   3.412   1.630  15.181 -0.2119 -0.1144 -0.0008
  526TMC3    C4 7862   3.512   1.678  14.925 -0.0518 -0.0813 -0.0107
  526TMC3    C5 7863   3.591   1.664  15.033  0.0261  0.6256  0.6172
  526TMC3    C6 7864   3.547   1.649  15.166  0.1156 -0.0016 -0.3860
  526TMC3     C 7865   3.289   1.696  14.839 -0.4693  0.8057  0.2302
  526TMC3     O 7866   3.190   1.622  14.824  0.3514  0.3424  0.1507
  526TMC3     H 7867   3.223   1.632  15.071  0.6420  1.6922  1.8319
  526TMC3    H1 7868   3.543   1.698  14.823 -0.6863  2.2979  0.2485
  526TMC3    H2 7869   3.619   1.644  15.247 -1.1015 -0.5456  0.6631
  526TMC3    C7 7870   3.725   1.616  14.998 -0.5708  0.4414 -0.6345
  526TMC3    C8 7871   3.370   1.552  15.295  0.0537  0.4082  0.0897
  526TMC3    O1 7872   3.758   1.640  14.881  0.4492  0.7748  0.1688
  526TMC3    O2 7873   3.418   1.592  15.399 -0.0129 -0.6103  0.1307
  527MPD2     C 7874   1.126   4.455   1.561 -0.2212  0.3739 -0.4884
  527MPD2    C1 7875   1.089   4.428   1.426  0.1446 -0.2051 -0.6953
  527MPD2    C2 7876   1.188   4.378   1.345  0.3142  0.1763  0.1365
  527MPD2    C3 7877   1.328   4.364   1.388  0.0508 -0.8116 -0.0277
  527MPD2    C4 7878   1.348   4.376   1.521  0.3870 -0.2611 -0.7353
  527MPD2    C5 7879   1.252   4.435   1.601  0.3217  0.1065  0.2326
  527MPD2     H 7880   1.161   4.351   1.244  0.7907 -0.0830  0.0757
  527MPD2    H1 7881   1.446   4.368   1.568 -0.7101 -0.0925  1.6050
  527MPD2    H2 7882   1.057   4.492   1.636  1.2837 -0.6804  1.4443
  527MPD2    H3 7883   1.278   4.460   1.703 -0.1693  1.6264 -0.0122
  527MPD2     N 7884   1.429   4.301   1.301 -0.1118  0.1977 -0.0177
  527MPD2    H5 7885   1.413   4.307   1.201 -1.4398 -1.0528  0.1211
  527MPD2    N1 7886   0.964   4.447   1.366 -0.4882 -0.9617 -0.1976
  527MPD2    H7 7887   0.951   4.428   1.267  0.1980 -2.3843 -0.0261
  528TMC3    C1 7888   0.743   4.515   1.357 -0.8506  0.1276  0.2277
  528TMC3    C2 7889   0.755   4.501   1.225 -0.0706  0.3635  0.9553
  528TMC3    C3 7890   0.634   4.494   1.151 -0.0625 -0.1852 -0.2173
  528TMC3    C4 7891   0.626   4.506   1.422  0.2131  0.5336 -0.1736
  528TMC3    C5 7892   0.513   4.491   1.346 -0.3742 -0.6658 -0.3747
  528TMC3    C6 7893   0.512   4.483   1.209 -0.5796  0.6233 -0.1287
  528TMC3     C 7894   0.860   4.492   1.434  0.3915  0.4775 -0.3300
  528TMC3     O 7895   0.840   4.520   1.552 -0.2141  0.0115 -0.0187
  528TMC3     H 7896   0.849   4.522   1.175  0.6289 -2.0500  1.2284
  528TMC3    H1 7897   0.614   4.528   1.527  1.2808 -2.3460  0.5303
  528TMC3    H2 7898   0.422   4.465   1.152  0.5169 -1.1961 -1.2702
  528TMC3    C7 7899   0.395   4.451   1.409  0.1514  0.0087 -0.6006
  528TMC3    C8 7900   0.651   4.496   1.007 -0.3381 -0.5484  0.1061
  528TMC3    O1 7901   0.401   4.392   1.513 -0.2523  0.1742 -0.3135
  528TMC3    O2 7902   0.762   4.497   0.956  0.0527 -0.1797 -0.1644
  529MPD2     C 7903   4.000   2.964   0.576 -0.2875  0.4844  0.3238
  529MPD2    C1 7904   3.895   2.877   0.598  0.3295  0.4212  0.6790
  529MPD2    C2 7905   3.794   2.876   0.505  0.1057  0.4749 -0.2481
  529MPD2    C3 7906   3.778   2.970   0.407 -0.7298 -0.2374 -0.7728
  529MPD2    C4 7907   3.886   3.052   0.389  0.5706 -0.4278  0.1546
  529MPD2    C5 7908   3.995   3.048   0.469 -0.1609 -0.2731 -0.0403
  529MPD2     H 7909   3.719   2.799   0.518 -1.0953  1.7882  0.5937
  529MPD2    H1 7910   3.897   3.131   0.316  2.7531  1.1621  2.2072
  529MPD2    H2 7911   4.082   2.969   0.647  0.2200  1.4839 -0.3409
  529MPD2    H3 7912   4.072   3.123   0.453  0.6470 -1.0586  0.1423
  529MPD2     N 7913   3.663   2.998   0.334  0.8857  0.4124 -0.1147
  529MPD2    H5 7914   3.674   3.069   0.262  0.4408  0.7274  0.1281
  529MPD2    N1 7915   3.908   2.782   0.701 -0.3351 -0.6942  0.6754
  529MPD2    H7 7916   3.823   2.727   0.713  0.1370 -1.1229  2.1891
  530TMC3    C1 7917   4.004   2.643   0.871  0.4008 -0.2076  0.2984
  530TMC3    C2 7918   4.101   2.628   0.968 -0.1775 -0.2834  0.0225
  530TMC3    C3 7919   4.062   2.559   1.082 -0.5246  0.1727 -0.1077
  530TMC3    C4 7920   3.881   2.587   0.886  0.1614 -0.2148 -0.6305
  530TMC3    C5 7921   3.857   2.508   0.995  0.0833  0.4844 -0.4446
  530TMC3    C6 7922   3.947   2.497   1.097  0.5198 -0.1896  0.2161
  530TMC3     C 7923   4.020   2.754   0.784  0.4620  0.4074  0.7130
  530TMC3     O 7924   4.134   2.800   0.791 -0.7313 -0.2447 -0.2504
  530TMC3     H 7925   4.192   2.687   0.961 -0.0693 -0.2592  1.5857
  530TMC3    H1 7926   3.801   2.595   0.814  1.0395 -1.9862 -1.7966
  530TMC3    H2 7927   3.923   2.441   1.187  0.6169  3.0007  2.2019
  530TMC3    C7 7928   3.719   2.478   1.027  0.1990 -0.4773 -0.3507
  530TMC3    C8 7929   4.153   2.572   1.194 -0.1751 -0.4378  0.8491
  530TMC3    O1 7930   3.635   2.538   0.964  0.7220 -0.7554  0.2382
  530TMC3    O2 7931   4.229   2.666   1.205  0.1560  0.2608 -0.2615
  531MPD2     C 7932   2.720   0.076  13.355 -0.2870 -0.0763 -0.6824
  531MPD2    C1 7933   2.797   0.184  13.309 -0.0741  0.1599  0.0183
  531MPD2    C2 7934   2.731   0.293  13.255 -0.0766  0.1676 -0.5896
  531MPD2    C3 7935   2.594   0.280  13.234 -0.0138 -0.2300  0.2837
  531MPD2    C4 7936   2.520   0.164  13.266  0.1709 -0.5309  0.7883
  531MPD2    C5 7937   2.584   0.063  13.330  0.5187 -0.3272  0.5776
  531MPD2     H 7938   2.779   0.382  13.217 -0.5331 -0.1239 -1.8428
  531MPD2    H1 7939   2.412   0.156  13.256  0.3679 -2.4105  0.3189
  531MPD2    H2 7940   2.773   4.729  13.401  0.1774  0.2186 -0.6818
  531MPD2    H3 7941   2.527   4.712  13.360  0.0785  0.0946  0.9635
  531MPD2     N 7942   2.535   0.394  13.183 -0.2197 -0.3242 -0.1189
  531MPD2    H5 7943   2.597   0.474  13.186  0.6914 -1.0331 -0.1877
  531MPD2    N1 7944   2.938   0.188  13.335 -0.1747  0.0707 -0.0224
  531MPD2    H7 7945   2.973   0.102  13.377  0.5801  0.5527  0.3242
  532TMC3    C1 7946   3.159   0.274  13.325  0.2715 -0.0401 -1.0580
  532TMC3    C2 7947   3.235   0.368  13.261 -0.1253  0.3597 -0.3590
  532TMC3    C3 7948   3.300   0.463  13.332 -0.2870 -0.0503 -0.2424
  532TMC3    C4 7949   3.174   0.255  13.460 -0.0182  0.5035  0.1197
  532TMC3    C5 7950   3.242   0.350  13.529  0.4208 -0.0716  0.0287
  532TMC3    C6 7951   3.306   0.452  13.468  0.1579  0.6187  0.3562
  532TMC3     C 7952   3.020   0.286  13.293 -0.2763 -0.5254  0.2412
  532TMC3     O 7953   2.997   0.380  13.221  0.0626  0.3358 -0.4749
  532TMC3     H 7954   3.214   0.371  13.155  0.1459 -0.3759 -0.4303
  532TMC3    H1 7955   3.113   0.180  13.509 -1.0733  0.5044 -1.1800
  532TMC3    H2 7956   3.340   0.533  13.532 -3.1650 -0.5942  3.6385
  532TMC3    C7 7957   3.268   0.343  13.671 -0.1827  0.6525  1.0521
  532TMC3    C8 7958   3.276   0.601  13.293 -0.1395  0.3021 -0.2438
  532TMC3    O1 7959   3.364   0.408  13.717  0.1961  0.0756  0.4613
  532TMC3    O2 7960   3.360   0.687  13.312 -0.1031 -0.2547  0.1434
  533TMC3    C1 7961   3.352   2.457  14.605  0.0614 -0.0406 -0.4339
  533TMC3    C2 7962   3.468   2.526  14.635  0.3359 -0.3016  0.5645
  533TMC3    C3 7963   3.462   2.655  14.677  0.2711  0.7244  0.6373
  533TMC3    C4 7964   3.230   2.525  14.608 -0.6417  0.5727  0.0191
  533TMC3    C5 7965   3.227   2.655  14.652 -0.3427  0.2659  0.9310
  533TMC3    C6 7966   3.339   2.723  14.682  0.6173  0.1288 -0.4583
  533TMC3     C 7967   3.345   2.312  14.644 -0.3212  0.2475 -0.0327
  533TMC3     O 7968   3.457   2.261  14.673  0.2694 -0.2161 -0.7927
  533TMC3     H 7969   3.558   2.466  14.638 -0.0450 -0.8311  1.5757
  533TMC3    H1 7970   3.140   2.482  14.565 -0.3614 -0.3674  0.3746
  533TMC3    H2 7971   3.323   2.823  14.719  0.1200 -0.2040  0.2319
  533TMC3    C7 7972   3.124   2.654  14.756 -0.9754  0.0796 -0.1209
  533TMC3    C8 7973   3.583   2.702  14.741  0.1809 -0.3132 -0.5215
  533TMC3    O1 7974   3.070   2.542  14.769  0.1811 -0.1681 -0.1503
  533TMC3    O2 7975   3.667   2.614  14.760 -0.1943 -0.4136  0.0465
  534MPD2     C 7976   1.488   2.873   1.988  0.1901 -0.6427  0.1671
  534MPD2    C1 7977   1.480   3.002   1.934  0.8860  0.0023 -0.3160
  534MPD2    C2 7978   1.378   3.020   1.840 -0.4425  0.0473 -0.0722
  534MPD2    C3 7979   1.306   2.910   1.794  0.4040 -0.7085  0.0123
  534MPD2    C4 7980   1.341   2.779   1.833  0.0700  0.0660  0.3142
  534MPD2    C5 7981   1.428   2.761   1.938 -0.3160  0.0386 -0.4821
  534MPD2     H 7982   1.354   3.119   1.803  1.1230  0.2971 -0.4550
  534MPD2    H1 7983   1.287   2.698   1.786 -1.2695 -0.2009  2.3186
  534MPD2    H2 7984   1.551   2.858   2.075 -1.0639  1.6845  1.4988
  534MPD2    H3 7985   1.444   2.666   1.988 -1.6438  0.6200  1.0572
  534MPD2     N 7986   1.200   2.915   1.694 -0.3923  0.4076  0.3836
  534MPD2    H5 7987   1.149   2.829   1.675 -0.9197  0.9027 -0.3923
  534MPD2    N1 7988   1.551   3.120   1.991 -0.8320  0.0494 -0.1958
  534MPD2    H7 7989   1.531   3.206   1.941 -1.1597  0.7457  1.1224
  535TMC3    C1 7990   1.053   3.000   1.522 -0.5084 -0.2680 -0.3029
  535TMC3    C2 7991   0.956   2.915   1.558  0.2447 -0.7147 -0.0049
  535TMC3    C3 7992   0.846   2.901   1.472  0.1360  0.8556 -0.3631
  535TMC3    C4 7993   1.050   3.085   1.412 -0.1373 -0.6664 -0.2063
  535TMC3    C5 7994   0.934   3.077   1.341  0.2875  0.3655  0.0676
  535TMC3    C6 7995   0.844   2.981   1.364  0.4511  0.8744  0.8531
  535TMC3     C 7996   1.178   3.017   1.603 -0.5414  0.0103  0.0195
  535TMC3     O 7997   1.252   3.115   1.589  0.1050  0.3504 -0.7131
  535TMC3     H 7998   0.958   2.881   1.661 -1.7828 -1.1869 -0.1192
  535TMC3    H1 7999   1.135   3.146   1.385 -0.6272  1.2369  2.5411
  535TMC3    H2 8000   0.752   2.986   1.308  0.8264  2.3511  0.3816
  535TMC3    C7 8001   0.923   3.140   1.209  0.1305  0.3955  0.1130
  535TMC3    C8 8002   0.738   2.805   1.503 -0.4506 -0.5263  0.2938
  535TMC3    O1 8003   0.868   3.083   1.123 -0.4132  0.0628  0.0771
  535TMC3    O2 8004   0.631   2.807   1.439  0.1038  0.1255 -0.1886
  536MPD2     C 8005   0.100   1.595  16.394 -0.0323 -0.0646 -0.6383
  536MPD2    C1 8006   0.029   1.478  16.400  0.6246 -0.8152 -0.0867
  536MPD2    C2 8007   4.677   1.441  16.299  0.3028 -0.1425  0.1908
  536MPD2    C3 8008   4.659   1.523  16.188  0.0796 -0.4685  0.4303
  536MPD2    C4 8009   0.009   1.635  16.172 -0.0274  0.4806  0.4763
  536MPD2    C5 8010   0.097   1.663  16.273  0.0638  0.1310  0.5538
  536MPD2     H 8011   4.615   1.353  16.311  0.2935  0.2199  2.6972
  536MPD2    H1 8012   0.009   1.695  16.081 -1.2362 -1.6533 -0.9237
  536MPD2    H2 8013   0.165   1.633  16.473 -1.5174  0.7201  0.2107
  536MPD2    H3 8014   0.166   1.747  16.271  2.3389 -1.8100 -1.5124
  536MPD2     N 8015   4.558   1.506  16.092 -0.3739 -0.3474 -0.6321
  536MPD2    H5 8016   4.559   1.563  16.008  1.1658 -0.4088 -0.6511
  536MPD2    N1 8017   0.041   1.409  16.522 -0.4018 -0.3059  0.1857
  536MPD2    H7 8018   0.124   1.434  16.574 -0.2155 -0.1226 -0.1997
  537TMC3    C1 8019   4.717   1.294  16.719  0.8760  0.4717  0.1562
  537TMC3    C2 8020   0.016   1.407  16.792 -0.1134  1.4706  0.1163
  537TMC3    C3 8021   0.027   1.396  16.926 -0.4112  0.3291  0.1691
  537TMC3    C4 8022   4.664   1.174  16.768 -0.2591 -0.0667 -0.3312
  537TMC3    C5 8023   4.666   1.176  16.907 -0.2752  0.3084  0.6078
  537TMC3    C6 8024   4.715   1.284  16.987  0.7974  0.1066 -0.1772
  537TMC3     C 8025   4.694   1.310  16.573  0.9250  0.1484 -0.2866
  537TMC3     O 8026   4.585   1.279  16.527  0.5804  0.0155  0.3309
  537TMC3     H 8027   0.027   1.504  16.744 -0.1704  1.3630 -0.1151
  537TMC3    H1 8028   4.614   1.109  16.698  0.4372 -0.2158 -0.6809
  537TMC3    H2 8029   4.728   1.287  17.094  2.1615  2.5524 -0.3886
  537TMC3    C7 8030   4.641   1.055  16.975  0.7358  0.1398  0.9541
  537TMC3    C8 8031   0.092   1.500  17.002  0.6071  0.0419 -0.4905
  537TMC3    O1 8032   4.564   0.984  16.916  0.3114 -0.0385  0.3294
  537TMC3    O2 8033   0.056   1.504  17.121 -0.0123 -0.6073  0.4413
  538TMC3    C1 8034   1.600   4.495  11.046 -0.0082  0.3735  0.0215
  538TMC3    C2 8035   1.723   4.444  11.029 -0.2670  1.3672 -0.1498
  538TMC3    C3 8036   1.783   4.472  10.911  0.1094 -0.8176 -0.3635
  538TMC3    C4 8037   1.528   4.554  10.936  0.5568 -0.3270 -0.6806
  538TMC3    C5 8038   1.596   4.576  10.821 -0.1637 -0.8165 -1.1044
  538TMC3    C6 8039   1.727   4.538  10.804 -0.4593 -0.5200 -0.6892
  538TMC3     C 8040   1.505   4.437  11.143  0.4530 -0.4068 -0.6073
  538TMC3     O 8041   1.386   4.433  11.119 -0.1725 -0.0095  0.1095
  538TMC3     H 8042   1.771   4.378  11.101  0.4518 -2.0896 -3.8172
  538TMC3    H1 8043   1.429   4.593  10.957  0.2088 -1.2164 -0.6664
  538TMC3    H2 8044   1.772   4.560  10.707  0.1212 -1.2726 -0.5831
  538TMC3    C7 8045   1.525   4.666  10.724 -0.1740  1.1351  0.1923
  538TMC3    C8 8046   1.919   4.421  10.897  0.2008 -0.7710 -0.5518
  538TMC3    O1 8047   1.423   4.721  10.761 -0.5075  0.2068  0.3293
  538TMC3    O2 8048   1.968   4.362  10.991  0.2559  0.1547  0.1343
  539MPD2     C 8049   1.497   4.026  11.032 -0.2960 -0.6280 -0.4952
  539MPD2    C1 8050   1.440   3.922  11.109 -0.6604 -0.4668 -0.4082
  539MPD2    C2 8051   1.308   3.935  11.137 -0.0278  0.0700 -0.0447
  539MPD2    C3 8052   1.229   4.037  11.076  0.5162  0.3558  0.1706
  539MPD2    C4 8053   1.290   4.137  11.003  0.5328  0.3308  0.4854
  539MPD2    C5 8054   1.425   4.128  10.982  0.3044  0.3403  0.0087
  539MPD2     H 8055   1.259   3.863  11.202 -0.5571  0.1882 -0.3182
  539MPD2    H1 8056   1.235   4.226  10.977  1.6463  0.1562 -2.4489
  539MPD2    H2 8057   1.603   4.029  11.011  0.2282 -2.2752  1.8686
  539MPD2    H3 8058   1.481   4.211  10.941  0.3721  0.0669 -0.4573
  539MPD2     N 8059   1.091   4.050  11.089 -0.1077 -0.2251 -0.3368
  539MPD2    H5 8060   1.042   4.126  11.044  1.6985  0.8365 -0.5012
  539MPD2    N1 8061   1.514   3.820  11.168  0.0950 -0.0036  0.2295
  539MPD2    H7 8062   1.459   3.750  11.217  1.8979 -0.3494  1.7656
  540TMC3    C1 8063   0.872   3.970  11.151  0.4166 -1.2318 -0.1121
  540TMC3    C2 8064   0.822   3.991  11.026  0.3411 -0.6830  0.0586
  540TMC3    C3 8065   0.686   3.980  11.008  0.0935  0.1095  0.4616
  540TMC3    C4 8066   0.795   3.940  11.257  0.1207  1.3456 -0.0970
  540TMC3    C5 8067   0.660   3.914  11.230  0.5228  0.3256 -0.3847
  540TMC3    C6 8068   0.602   3.945  11.109 -0.8047  0.1851 -0.2489
  540TMC3     C 8069   1.015   3.976  11.178 -0.2767 -0.1026 -0.4195
  540TMC3     O 8070   1.052   3.913  11.277  0.2903 -0.3401  0.2537
  540TMC3     H 8071   0.882   4.018  10.940  0.4469  1.2082  0.7324
  540TMC3    H1 8072   0.829   3.923  11.359  2.1477  0.4240 -0.9296
  540TMC3    H2 8073   0.496   3.934  11.089 -1.0994 -1.4382  2.1939
  540TMC3    C7 8074   0.567   3.946  11.336  0.5724  0.2377  0.6880
  540TMC3    C8 8075   0.625   3.969  10.876 -0.7537 -0.0824 -0.1219
  540TMC3    O1 8076   0.451   3.975  11.300 -0.2704 -0.4492  0.2670
  540TMC3    O2 8077   0.506   3.970  10.863 -0.7026  0.1262  0.6060
  541MPD2     C 8078   3.869   1.018  13.025  0.3761 -0.4786  0.6908
  541MPD2    C1 8079   3.930   0.904  12.972  0.3294 -0.2334 -0.4269
  541MPD2    C2 8080   3.875   0.848  12.855  0.3608  0.3833 -0.2355
  541MPD2    C3 8081   3.776   0.914  12.788  0.1196  0.4380  0.2448
  541MPD2    C4 8082   3.725   1.035  12.833 -0.5313  0.2192 -0.5107
  541MPD2    C5 8083   3.777   1.081  12.953  0.3867 -0.1137  0.2932
  541MPD2     H 8084   3.911   0.750  12.825  0.9293  0.0392  1.6100
  541MPD2    H1 8085   3.660   1.101  12.777 -1.5414 -1.3981 -1.2403
  541MPD2    H2 8086   3.909   1.066  13.113 -0.8315  0.6917  0.6014
  541MPD2    H3 8087   3.749   1.173  13.003  1.4911 -0.0154  0.7218
  541MPD2     N 8088   3.724   0.863  12.660 -0.5152 -0.3128  0.3495
  541MPD2    H5 8089   3.663   0.931  12.617 -1.2400  0.3747  2.4704
  541MPD2    N1 8090   4.019   0.830  13.054 -0.7659 -0.4121 -0.2146
  541MPD2    H7 8091   4.055   0.872  13.139 -3.3081 -0.2601  0.7756
  542TMC3    C1 8092   3.731   0.752  12.456 -1.0088 -1.0037  0.1019
  542TMC3    C2 8093   3.813   0.697  12.366 -0.1265  0.1934  0.4649
  542TMC3    C3 8094   3.776   0.713  12.231 -0.2684  0.2816 -0.0882
  542TMC3    C4 8095   3.607   0.805  12.418 -0.0282 -0.4594  0.3756
  542TMC3    C5 8096   3.567   0.796  12.290 -0.0837 -0.0429 -0.2560
  542TMC3    C6 8097   3.651   0.750  12.192  0.7046 -0.1806  0.1703
  542TMC3     C 8098   3.774   0.751  12.592  0.4003  0.3853  0.1409
  542TMC3     O 8099   3.860   0.666  12.616 -0.3546 -0.1199 -0.0118
  542TMC3     H 8100   3.911   0.663  12.395 -0.6336 -1.5049  0.1750
  542TMC3    H1 8101   3.531   0.839  12.488 -1.1120 -0.3362 -0.8557
  542TMC3    H2 8102   3.617   0.755  12.089  0.5086 -0.6694  0.2076
  542TMC3    C7 8103   3.431   0.829  12.252  0.0536 -0.0340 -0.5921
  542TMC3    C8 8104   3.870   0.693  12.121 -0.0988 -0.1593  1.1006
  542TMC3    O1 8105   3.375   0.900  12.338  0.1229  0.4512  0.3690
  542TMC3    O2 8106   3.824   0.707  12.005  0.3495  0.2250  0.4907
  543TMC3    C1 8107   3.281   2.234  17.294 -0.9652 -0.1986 -0.4343
  543TMC3    C2 8108   3.300   2.113  17.350  0.9311 -0.1746  0.4445
  543TMC3    C3 8109   3.238   2.098  17.474 -0.7886  1.1534 -0.7362
  543TMC3    C4 8110   3.204   2.332  17.349  0.1332 -0.6419  0.0456
  543TMC3    C5 8111   3.134   2.300  17.458  0.0421  0.0479  0.2301
  543TMC3    C6 8112   3.148   2.185  17.525  0.3882 -0.4563  0.0261
  543TMC3     C 8113   3.328   2.238  17.157 -0.1213  0.9950 -0.4961
  543TMC3     O 8114   3.440   2.199  17.123 -0.0673  0.5580  0.0425
  543TMC3     H 8115   3.360   2.039  17.298  1.1406  0.0155  0.4148
  543TMC3    H1 8116   3.177   2.417  17.287  1.6493 -1.4975 -1.7884
  543TMC3    H2 8117   3.087   2.182  17.615  0.6606 -1.0985  0.1904
  543TMC3    C7 8118   3.052   2.401  17.515 -0.8099 -0.1424 -0.2666
  543TMC3    C8 8119   3.213   1.955  17.499 -0.0222 -0.0166  0.1021
  543TMC3    O1 8120   3.030   2.405  17.635  0.7279  0.4628 -0.2507
  543TMC3    O2 8121   3.262   1.870  17.431 -0.2650 -0.0151  0.5353
  544MPD2     C 8122   2.966   1.594   0.024  0.3204  0.4048  0.7071
  544MPD2    C1 8123   3.009   1.592  17.639  0.4441  0.8854 -0.2230
  544MPD2    C2 8124   3.067   1.704  17.580 -0.2068 -0.1718  0.3738
  544MPD2    C3 8125   3.070   1.825  17.651  0.4244 -0.3468  0.7448
  544MPD2    C4 8126   3.019   1.824   0.035  0.5436  0.0301  0.0427
  544MPD2    C5 8127   2.967   1.710   0.092 -0.0824 -0.1671  0.6049
  544MPD2     H 8128   3.116   1.704  17.484  0.4999  2.1503  0.7475
  544MPD2    H1 8129   3.034   1.915   0.093 -2.6300  0.0305  0.8365
  544MPD2    H2 8130   2.918   1.514   0.079 -1.8318  0.7321 -0.6875
  544MPD2    H3 8131   2.923   1.700   0.191 -0.3985 -2.3627  0.2627
  544MPD2     N 8132   3.135   1.944  17.609  0.6637  0.4364  0.0510
  544MPD2    H5 8133   3.136   2.020  17.676 -0.6188  0.2120  0.3404
  544MPD2    N1 8134   2.990   1.471  17.573  0.8335 -0.4717  0.7430
  544MPD2    H7 8135   2.922   1.411  17.618 -1.1169  1.2698  0.1179
  545TMC3    C1 8136   3.051   1.291  17.415  0.1364 -0.1922  0.8567
  545TMC3    C2 8137   3.139   1.250  17.316  0.6881 -0.5067 -0.1577
  545TMC3    C3 8138   3.123   1.119  17.273 -0.2573 -0.0428  0.1128
  545TMC3    C4 8139   2.958   1.208  17.467 -0.1247  0.4502  0.0516
  545TMC3    C5 8140   2.944   1.084  17.415  0.0287 -0.0981  0.6430
  545TMC3    C6 8141   3.026   1.034  17.319  0.0913 -0.0657 -0.2111
  545TMC3     C 8142   3.058   1.430  17.453 -0.2196  0.3838 -0.3274
  545TMC3     O 8143   3.141   1.493  17.390  0.4633  0.3516  0.6255
  545TMC3     H 8144   3.208   1.321  17.273  1.2330 -1.8277 -1.4635
  545TMC3    H1 8145   2.894   1.232  17.551 -0.1548  0.7965 -0.0698
  545TMC3    H2 8146   3.000   0.933  17.287  1.7313 -1.0703  1.6370
  545TMC3    C7 8147   2.852   0.996  17.480 -0.8196 -0.2092  0.1600
  545TMC3    C8 8148   3.216   1.072  17.168 -0.2073  0.0394 -0.3536
  545TMC3    O1 8149   2.743   1.047  17.504 -0.0476 -0.0280 -0.2362
  545TMC3    O2 8150   3.326   1.128  17.164  0.0645  0.0066  0.3028
  546MPD2     C 8151   4.554   2.216  17.724 -0.1063 -0.3261 -0.1589
  546MPD2    C1 8152   4.601   2.158  17.612 -0.0395 -0.2023 -0.3423
  546MPD2    C2 8153   4.705   2.220  17.545  0.4936 -0.2230  0.6937
  546MPD2    C3 8154   0.013   2.344  17.587  0.0370  0.0583  0.2521
  546MPD2    C4 8155   4.698   2.399  17.704 -0.1932 -0.1159  1.0789
  546MPD2    C5 8156   4.602   2.335   0.027 -1.0251 -0.1939 -0.0599
  546MPD2     H 8157   0.011   2.167  17.461  1.6318  0.7732  0.6199
  546MPD2    H1 8158   4.724   2.494   0.006 -0.8593  1.2577 -1.4667
  546MPD2    H2 8159   4.472   2.168   0.035  0.9023 -1.0278  0.7585
  546MPD2    H3 8160   4.561   2.381   0.116  0.2332 -0.1045  0.4699
  546MPD2     N 8161   0.103   2.423  17.513 -0.5192 -0.8124  0.2214
  546MPD2    H5 8162   0.123   2.513  17.555 -0.3458 -0.7010 -0.1033
  546MPD2    N1 8163   4.532   2.042  17.571 -0.4133  0.6733  0.0560
  546MPD2    H7 8164   4.461   2.018  17.640 -1.3579  0.2508 -1.0739
  547TMC3    C1 8165   4.430   1.884  17.429  0.1944  0.5846 -0.2144
  547TMC3    C2 8166   4.383   1.876  17.300  0.0567  0.4991 -0.0705
  547TMC3    C3 8167   4.281   1.785  17.269  0.6257 -0.4702  0.5459
  547TMC3    C4 8168   4.379   1.813  17.540 -0.0889 -0.5342 -0.1934
  547TMC3    C5 8169   4.282   1.724  17.497 -0.4615  0.0835 -0.4708
  547TMC3    C6 8170   4.228   1.714  17.368 -0.2449 -0.2337 -0.3340
  547TMC3     C 8171   4.539   1.983  17.454 -0.2159  0.2189  0.3291
  547TMC3     O 8172   4.603   2.011  17.352  0.4039 -0.2392  0.0295
  547TMC3     H 8173   4.444   1.934  17.232 -0.6997  0.9182 -0.3863
  547TMC3    H1 8174   4.424   1.837  17.636 -3.8593  0.4312  1.3603
  547TMC3    H2 8175   4.142   1.653  17.342 -0.3825 -0.9172  1.7299
  547TMC3    C7 8176   4.211   1.649  17.604 -0.0010  0.0370  0.6370
  547TMC3    C8 8177   4.221   1.774  17.137  0.0858 -0.1063  0.1086
  547TMC3    O1 8178   4.234   1.671  17.724  0.4159  0.0989  0.3278
  547TMC3    O2 8179   4.124   1.702  17.126 -0.1999  0.4090  0.2727
  548MPD2     C 8180   4.658   2.523  12.407  0.4167 -0.1714  0.2222
  548MPD2    C1 8181   4.598   2.406  12.427 -0.3540  0.1304  0.2852
  548MPD2    C2 8182   4.667   2.289  12.405 -0.3341 -0.9741  0.2802
  548MPD2    C3 8183   0.062   2.291  12.358 -0.5020  0.3884 -0.1597
  548MPD2    C4 8184   0.126   2.409  12.337 -0.1631  0.3395 -0.4360
  548MPD2    C5 8185   0.052   2.520  12.357 -0.1364  0.5809 -0.0074
  548MPD2     H 8186   4.628   2.190  12.428 -0.6785 -0.5133  1.6789
  548MPD2    H1 8187   0.229   2.417  12.304 -0.1631  0.0548 -0.5101
  548MPD2    H2 8188   4.604   2.614  12.432  1.0842  0.0285  0.9310
  548MPD2    H3 8189   0.098   2.617  12.344 -1.0910  0.9218 -0.7971
  548MPD2     N 8190   0.123   2.174  12.324 -0.1481  0.1025 -0.7377
  548MPD2    H5 8191   0.082   2.083  12.342 -1.0487  0.1802 -2.4708
  548MPD2    N1 8192   4.465   2.418  12.479 -0.6898  0.4181 -0.0818
  548MPD2    H7 8193   4.428   2.512  12.492  2.2171  0.9933  3.7978
  549TMC3    C1 8194   4.248   2.356  12.534 -0.7409  0.7096 -0.4600
  549TMC3    C2 8195   4.209   2.487  12.509  0.0016 -0.6490  0.0901
  549TMC3    C3 8196   4.075   2.519  12.529 -0.4273  0.0856 -0.1511
  549TMC3    C4 8197   4.166   2.257  12.571 -0.5547  0.0991 -0.3923
  549TMC3    C5 8198   4.035   2.292  12.596 -0.2773 -0.0269  0.3920
  549TMC3    C6 8199   3.995   2.420  12.578 -0.1632  0.1514 -0.1461
  549TMC3     C 8200   4.386   2.311  12.507 -0.2292  0.3541 -0.0839
  549TMC3     O 8201   4.412   2.191  12.515  0.1549 -0.2510 -0.1866
  549TMC3     H 8202   4.275   2.565  12.471  0.0757 -0.8488 -0.1900
  549TMC3    H1 8203   4.209   2.160  12.593  0.6195  0.2321 -2.0637
  549TMC3    H2 8204   3.892   2.441  12.605  0.4198  2.0508  0.5674
  549TMC3    C7 8205   3.945   2.181  12.628 -0.4520  0.8078 -0.4575
  549TMC3    C8 8206   4.039   2.654  12.506 -0.1276 -0.2158 -0.1071
  549TMC3    O1 8207   3.840   2.209  12.690 -0.0965  0.5463 -0.2490
  549TMC3    O2 8208   3.920   2.676  12.476 -0.2291 -0.9157  0.1535
  550TMC3    C1 8209   2.948   0.552  12.479  0.0232  0.0394  0.4447
  550TMC3    C2 8210   2.957   0.677  12.422  0.4772 -0.0718  0.2221
  550TMC3    C3 8211   2.866   0.712  12.335  0.1033 -0.0434  0.3935
  550TMC3    C4 8212   2.850   0.460  12.458  0.4689 -0.4044 -0.0725
  550TMC3    C5 8213   2.759   0.498  12.362  0.4549 -0.0889 -0.8155
  550TMC3    C6 8214   2.755   0.624  12.302 -0.6077 -0.0814 -0.6727
  550TMC3     C 8215   3.070   0.504  12.537  0.3704  0.5816  0.7615
  550TMC3     O 8216   3.073   0.473  12.653 -0.3014  0.0784  0.0578
  550TMC3     H 8217   3.041   0.742  12.443  0.3238 -0.8909  3.3953
  550TMC3    H1 8218   2.832   0.366  12.508 -0.7866  0.9653  2.1148
  550TMC3    H2 8219   2.675   0.650  12.234 -0.4677  2.9401  0.3271
  550TMC3    C7 8220   2.682   0.393  12.307 -0.4989  0.7529  0.2568
  550TMC3    C8 8221   2.856   0.845  12.302 -0.5715 -1.0256 -0.1433
  550TMC3    O1 8222   2.652   0.299  12.376  0.5048  0.0835 -0.3714
  550TMC3    O2 8223   2.910   0.923  12.377  0.7496 -0.5404  0.0313
  551TMC3    C1 8224   0.926   3.254  13.326 -0.7059 -0.3337 -0.1955
  551TMC3    C2 8225   1.043   3.189  13.284 -0.4294 -0.2187  0.1208
  551TMC3    C3 8226   1.147   3.192  13.366 -0.2566  0.7372  0.7817
  551TMC3    C4 8227   0.911   3.323  13.441 -0.2364  1.1795 -0.5665
  551TMC3    C5 8228   1.021   3.319  13.524  0.6488  0.6251  0.3209
  551TMC3    C6 8229   1.143   3.257  13.486 -0.3337 -0.0999 -0.3887
  551TMC3     C 8230   0.811   3.238  13.238  0.7091 -0.3982 -0.6759
  551TMC3     O 8231   0.808   3.130  13.175 -0.4243  0.0413  0.1794
  551TMC3     H 8232   1.044   3.122  13.198 -1.3703  1.7935 -1.4489
  551TMC3    H1 8233   0.812   3.351  13.476 -1.1437 -0.7594 -1.5313
  551TMC3    H2 8234   1.223   3.249  13.558  0.0576 -3.5098 -1.1997
  551TMC3    C7 8235   1.023   3.379  13.659  0.0662 -0.2818 -0.8283
  551TMC3    C8 8236   1.268   3.182  13.294 -0.1384 -0.2258 -0.5913
  551TMC3    O1 8237   1.124   3.359  13.723 -0.1169  0.3228 -0.2328
  551TMC3    O2 8238   1.281   3.082  13.224 -0.3998 -0.3333 -0.1746
  552MPD2     C 8239   2.372   0.719  14.109  0.0578 -0.4816  0.2445
  552MPD2    C1 8240   2.502   0.714  14.058 -0.6801  0.5580  0.4390
  552MPD2    C2 8241   2.611   0.711  14.144  0.4992 -0.4429 -0.2106
  552MPD2    C3 8242   2.602   0.714  14.280  0.5904 -0.3726 -0.4837
  552MPD2    C4 8243   2.472   0.712  14.331 -0.4755 -0.0306  0.1804
  552MPD2    C5 8244   2.360   0.705  14.248  0.5229 -0.0763  0.1456
  552MPD2     H 8245   2.705   0.732  14.095  0.8361  1.3300  1.2104
  552MPD2    H1 8246   2.456   0.722  14.438  0.3386  4.4303 -0.1314
  552MPD2    H2 8247   2.283   0.716  14.048  1.7333 -3.6278 -2.0161
  552MPD2    H3 8248   2.263   0.697  14.295  1.0831 -0.7922  1.1776
  552MPD2     N 8249   2.718   0.712  14.365  0.2725 -0.4566 -0.3774
  552MPD2    H5 8250   2.701   0.711  14.465 -1.4974  2.0703 -0.6641
  552MPD2    N1 8251   2.529   0.722  13.917 -0.3013 -0.5510  0.3787
  552MPD2    H7 8252   2.626   0.729  13.888 -0.7591 -0.3652 -1.0989
  553TMC3    C1 8253   2.505   0.663  13.693  1.1086  0.4063 -0.0110
  553TMC3    C2 8254   2.465   0.539  13.653 -0.0258 -0.8677 -0.4766
  553TMC3    C3 8255   2.539   0.463  13.569  0.1715  0.3551 -0.1193
  553TMC3    C4 8256   2.634   0.705  13.665 -0.2237 -0.7244  0.2618
  553TMC3    C5 8257   2.710   0.622  13.586  0.2724  0.6823  0.3351
  553TMC3    C6 8258   2.663   0.505  13.526 -0.1976  0.0998 -0.1213
  553TMC3     C 8259   2.439   0.713  13.813 -0.1311  0.5949 -0.2222
  553TMC3     O 8260   2.317   0.715  13.817  0.0473 -0.2483  0.1089
  553TMC3     H 8261   2.377   0.498  13.701 -0.2011 -0.0037 -0.0434
  553TMC3    H1 8262   2.683   0.794  13.702  1.7948 -2.2709  1.3190
  553TMC3    H2 8263   2.726   0.432  13.476 -0.3663  0.6271 -1.1011
  553TMC3    C7 8264   2.854   0.636  13.593 -0.1778 -0.2455  0.0949
  553TMC3    C8 8265   2.551   0.328  13.615  0.6495  0.7630  0.0202
  553TMC3    O1 8266   2.913   0.529  13.605  0.2969  0.2453 -0.4360
  553TMC3    O2 8267   2.638   0.310  13.701 -0.2317 -0.5934 -0.6055
  554TMC3    C1 8268   0.041   4.156  10.905 -0.6441 -0.1240  0.8883
  554TMC3    C2 8269   4.708   4.173  10.787 -0.0764  0.3345 -0.3501
  554TMC3    C3 8270   0.044   4.193  10.676 -0.0914  0.4672 -0.0597
  554TMC3    C4 8271   0.177   4.166  10.911 -0.6194 -0.0366 -0.3313
  554TMC3    C5 8272   0.246   4.193  10.795 -0.2881  0.2027  0.1713
  554TMC3    C6 8273   0.180   4.188  10.682  0.6318 -0.4335  0.2411
  554TMC3     C 8274   4.704   4.087  11.008 -0.2975  0.3467  0.3141
  554TMC3     O 8275   4.580   4.080  10.992 -0.4327 -0.5156 -0.1085
  554TMC3     H 8276   4.600   4.166  10.793 -0.0260 -0.3293 -0.1945
  554TMC3    H1 8277   0.228   4.156  11.006 -0.1576  2.9074 -0.2853
  554TMC3    H2 8278   0.245   4.190  10.595  0.1999  0.1537 -0.0641
  554TMC3    C7 8279   0.356   4.288  10.788  0.4824 -1.1972 -0.4197
  554TMC3    C8 8280   4.725   4.269  10.566  0.3356  0.1168  0.0539
  554TMC3    O1 8281   0.377   4.344  10.681  0.1186  0.2702  0.0299
  554TMC3    O2 8282   0.079   4.327  10.505  0.1730 -0.1724  0.7035
  555TMC3    C1 8283   3.174   3.527  15.463 -0.6536 -0.6926  1.1564
  555TMC3    C2 8284   3.260   3.627  15.484 -1.1543 -0.0142  0.0917
  555TMC3    C3 8285   3.350   3.604  15.582 -0.1762  0.4207 -0.6279
  555TMC3    C4 8286   3.174   3.412  15.534  0.0801 -0.1033  0.5140
  555TMC3    C5 8287   3.260   3.389  15.641  0.6930  0.1218 -0.5180
  555TMC3    C6 8288   3.349   3.491  15.667 -0.5914 -0.1239  0.2792
  555TMC3     C 8289   3.068   3.554  15.361 -0.0120 -0.0959  0.5141
  555TMC3     O 8290   2.956   3.505  15.376 -0.2012  0.0540 -0.2915
  555TMC3     H 8291   3.247   3.720  15.429 -0.3458  0.3685  0.5454
  555TMC3    H1 8292   3.114   3.336  15.483  3.8334 -1.9151 -1.1914
  555TMC3    H2 8293   3.410   3.486  15.757 -0.9363  1.1742  0.5793
  555TMC3    C7 8294   3.272   3.255  15.696 -0.3729  0.1553  0.5490
  555TMC3    C8 8295   3.467   3.687  15.571  0.6777 -0.5186  0.3145
  555TMC3    O1 8296   3.174   3.183  15.699  0.3373  0.0594  0.9126
  555TMC3    O2 8297   3.483   3.763  15.476 -0.2081  0.3029 -0.1603
  556MPD2     C 8298   2.016   0.443  10.170 -0.2755  0.0522  0.3355
  556MPD2    C1 8299   2.032   0.365  10.283  0.6737 -0.2564 -0.4297
  556MPD2    C2 8300   2.088   0.241  10.265 -0.0766 -0.5866 -0.3012
  556MPD2    C3 8301   2.123   0.196  10.140 -0.5734  0.3328  0.0493
  556MPD2    C4 8302   2.108   0.283  10.033  0.6414 -0.1107 -0.0551
  556MPD2    C5 8303   2.050   0.398  10.044  0.1452  0.4281 -0.2369
  556MPD2     H 8304   2.099   0.174  10.349 -2.6720  0.0100  0.5380
  556MPD2    H1 8305   2.125   0.252   9.931  2.2341  0.8875 -0.1060
  556MPD2    H2 8306   1.976   0.544  10.164 -0.9318 -0.1969  0.5371
  556MPD2    H3 8307   2.040   0.467   9.961 -0.5323  3.9304  2.7579
  556MPD2     N 8308   2.147   0.063  10.129  0.3526 -0.4863 -0.1447
  556MPD2    H5 8309   2.184   0.018  10.212  2.7003 -0.9622 -1.4643
  556MPD2    N1 8310   1.993   0.407  10.411  0.1754  0.1804 -0.1265
  556MPD2    H7 8311   2.029   0.344  10.482  0.4071 -0.9702 -1.2873
  557TMC3    C1 8312   2.213   4.599  10.016 -0.4339  0.0132 -0.7908
  557TMC3    C2 8313   2.175   4.503   9.920 -0.1713 -0.8704  0.2430
  557TMC3    C3 8314   2.177   4.370   9.954 -0.1910 -0.0789 -0.8779
  557TMC3    C4 8315   2.257   4.559  10.140  0.6284  0.8522 -0.6217
  557TMC3    C5 8316   2.270   4.423  10.166 -0.2095  0.0936 -0.3451
  557TMC3    C6 8317   2.242   4.326  10.073  0.1006  0.1045 -0.4543
  557TMC3     C 8318   2.153   4.736  10.011 -0.2986  0.1289 -0.6038
  557TMC3     O 8319   2.106   0.035   9.902 -0.4594 -0.0042 -0.0427
  557TMC3     H 8320   2.115   4.542   9.838  0.6454  2.0855  1.0292
  557TMC3    H1 8321   2.304   4.624  10.213 -0.9243 -0.4643  1.5287
  557TMC3    H2 8322   2.239   4.223  10.107  1.3454  0.1253 -0.2772
  557TMC3    C7 8323   2.302   4.372  10.297 -0.0114  0.0922  0.3979
  557TMC3    C8 8324   2.102   4.277   9.872 -0.5045  0.0072  0.1702
  557TMC3    O1 8325   2.341   4.261  10.306 -0.3065  0.4241 -0.0584
  557TMC3    O2 8326   2.009   4.329   9.807 -0.1751 -0.3201 -0.1615
  558TMC3    C1 8327   4.616   3.583  10.345 -0.1485 -0.5191  0.5762
  558TMC3    C2 8328   4.493   3.593  10.403 -0.7581 -0.1335  0.2047
  558TMC3    C3 8329   4.406   3.669  10.328 -0.5298  0.5351 -0.5797
  558TMC3    C4 8330   4.658   3.651  10.238 -0.0471 -0.3553 -0.4281
  558TMC3    C5 8331   4.564   3.717  10.170  0.4226  0.7797  0.1978
  558TMC3    C6 8332   4.435   3.729  10.213 -0.1683 -0.5010  0.4962
  558TMC3     C 8333   4.696   3.471  10.394  0.2601 -0.5544  0.1628
  558TMC3     O 8334   4.642   3.385  10.467 -0.9716  0.2494 -0.1626
  558TMC3     H 8335   4.475   3.528  10.488  2.6097 -0.4304  0.6787
  558TMC3    H1 8336   0.007   3.624  10.177  2.1977  0.5680  2.2761
  558TMC3    H2 8337   4.357   3.776  10.154 -0.0439 -0.4463  0.3771
  558TMC3    C7 8338   4.591   3.727  10.037  0.0047 -0.1668 -0.5189
  558TMC3    C8 8339   4.266   3.661  10.359  0.2455  0.4756  0.3553
  558TMC3    O1 8340   4.699   3.767   9.999 -0.2921 -0.2425 -0.4210
  558TMC3    O2 8341   4.187   3.702  10.273 -0.3057  0.1745  0.1942
  559MPD2     C 8342   4.443   3.956  10.519  0.1220 -0.8875  0.3826
  559MPD2    C1 8343   4.409   3.866  10.614 -0.1694 -0.2647 -0.7002
  559MPD2    C2 8344   4.509   3.781  10.667 -0.6114  0.3689 -0.5504
  559MPD2    C3 8345   4.640   3.798  10.622  0.4094 -0.1978 -0.4904
  559MPD2    C4 8346   4.670   3.895  10.532 -0.2711  0.1190 -1.0008
  559MPD2    C5 8347   4.571   3.966  10.472  0.2781  0.1774 -0.2002
  559MPD2     H 8348   4.481   3.693  10.724  1.1076  0.1946  0.0036
  559MPD2    H1 8349   0.034   3.913  10.493  0.3671  2.0434  1.5095
  559MPD2    H2 8350   4.370   4.023  10.475  0.4418 -0.2493  0.8212
  559MPD2    H3 8351   4.601   4.044  10.403 -0.5402 -0.3521 -1.1494
  559MPD2     N 8352   4.734   3.712  10.670  0.3980  0.4832  0.1452
  559MPD2    H5 8353   4.700   3.667  10.754 -0.9863  0.6526 -0.3343
  559MPD2    N1 8354   4.271   3.857  10.653 -0.0007  0.4750  0.8968
  559MPD2    H7 8355   4.199   3.904  10.597  1.5245  2.2520  0.4184
  560TMC3    C1 8356   0.189   3.588  10.706 -0.7438 -0.0955 -1.1284
  560TMC3    C2 8357   0.105   3.488  10.753  0.0188  0.3505 -0.6651
  560TMC3    C3 8358   0.158   3.394  10.828  0.2454  0.7698 -0.5100
  560TMC3    C4 8359   0.326   3.578  10.719 -0.4201  0.6194  1.0510
  560TMC3    C5 8360   0.372   3.482  10.800 -0.1930  0.0524 -0.0564
  560TMC3    C6 8361   0.290   3.390  10.865  0.1442 -0.1546 -0.6401
  560TMC3     C 8362   0.133   3.704  10.637  0.3676 -0.4310  0.1521
  560TMC3     O 8363   0.202   3.777  10.565  1.2447  0.4582  0.0246
  560TMC3     H 8364   4.734   3.477  10.739 -0.5872  4.5779  0.7378
  560TMC3    H1 8365   0.390   3.644  10.662 -2.0588 -0.6615 -2.2332
  560TMC3    H2 8366   0.326   3.299  10.912 -0.4377  0.0086  0.1397
  560TMC3    C7 8367   0.518   3.466  10.811 -0.3785  0.2457  0.0462
  560TMC3    C8 8368   0.068   3.288  10.874 -0.0659  0.1542  0.7715
  560TMC3    O1 8369   0.585   3.493  10.712  0.0887  0.0185  0.1015
  560TMC3    O2 8370   4.709   3.266  10.805  0.2419 -0.3411  0.2011
  561TMC3    C1 8371   2.523   2.880  11.329 -0.7469  0.3723  0.6815
  561TMC3    C2 8372   2.453   2.762  11.347 -0.0159 -0.5097  0.1423
  561TMC3    C3 8373   2.316   2.767  11.356  0.6016 -0.3210  0.6002
  561TMC3    C4 8374   2.465   2.998  11.302  0.2997  0.2307 -0.6922
  561TMC3    C5 8375   2.332   3.002  11.299 -0.2099  0.0345  0.7912
  561TMC3    C6 8376   2.257   2.891  11.325 -0.9230 -0.5619  0.1481
  561TMC3     C 8377   2.667   2.870  11.349  0.2458  0.9570 -0.0591
  561TMC3     O 8378   2.707   2.755  11.362 -0.1649  0.1108 -0.2980
  561TMC3     H 8379   2.492   2.666  11.379 -0.3267 -0.6031  0.2489
  561TMC3    H1 8380   2.525   3.088  11.306 -2.7748  2.2502  0.3818
  561TMC3    H2 8381   2.149   2.895  11.312 -0.9438 -2.3638 -0.3362
  561TMC3    C7 8382   2.258   3.122  11.260  0.2012 -0.1975  0.9188
  561TMC3    C8 8383   2.260   2.677  11.454  0.3862 -0.5205  0.1945
  561TMC3    O1 8384   2.140   3.131  11.302 -0.3503  0.1299  0.4486
  561TMC3    O2 8385   2.314   2.570  11.476 -0.0732  0.0742 -0.6015
  562TMC3    C1 8386   3.306   4.246  16.056  0.3460  0.5300 -0.3247
  562TMC3    C2 8387   3.174   4.249  16.007 -0.0245 -0.4776 -0.2480
  562TMC3    C3 8388   3.157   4.294  15.881  0.5780 -0.6237  0.0011
  562TMC3    C4 8389   3.409   4.284  15.978 -0.2520  0.4059 -0.2417
  562TMC3    C5 8390   3.386   4.332  15.849 -0.1516 -0.1991  0.4866
  562TMC3    C6 8391   3.260   4.333  15.801  0.3831  0.3011  0.8288
  562TMC3     C 8392   3.333   4.156  16.166  0.0975  1.0792  0.2360
  562TMC3     O 8393   3.236   4.102  16.217  0.1355  0.2780  0.2477
  562TMC3     H 8394   3.099   4.201  16.069  0.7620 -0.9826  0.3139
  562TMC3    H1 8395   3.506   4.288  16.026 -0.2752 -0.7026 -0.0913
  562TMC3    H2 8396   3.246   4.371  15.700 -1.0810  0.1627  0.9776
  562TMC3    C7 8397   3.490   4.333  15.747  0.4502  0.6790 -0.2178
  562TMC3    C8 8398   3.037   4.249  15.827  0.5054 -0.2282 -0.1487
  562TMC3    O1 8399   3.456   4.348  15.630  0.0953 -0.1327 -0.0499
  562TMC3    O2 8400   2.973   4.162  15.886  0.1755  0.2290  0.4625
  563MPD2     C 8401   0.771   0.519  15.614  0.5421  0.5424  0.0610
  563MPD2    C1 8402   0.789   0.554  15.745  0.2522  0.1748 -0.6948
  563MPD2    C2 8403   0.895   0.503  15.820  1.2538 -0.3419  0.0575
  563MPD2    C3 8404   0.972   0.402  15.760  0.3717 -0.0115 -0.2231
  563MPD2    C4 8405   0.958   0.375  15.630 -0.0001 -0.3081  0.5438
  563MPD2    C5 8406   0.858   0.431  15.561  0.0339  0.0180  0.0599
  563MPD2     H 8407   0.915   0.522  15.924 -1.8530  3.8335 -0.1459
  563MPD2    H1 8408   1.002   0.291  15.578  0.7708  0.6866 -0.4139
  563MPD2    H2 8409   0.688   0.559  15.558  0.2281 -0.0422  0.1090
  563MPD2    H3 8410   0.851   0.392  15.460 -1.9193 -0.3620  0.3473
  563MPD2     N 8411   1.065   0.342  15.849  0.2137 -0.7451 -0.0361
  563MPD2    H5 8412   1.065   0.371  15.947  2.8173  2.8415 -1.1148
  563MPD2    N1 8413   0.687   0.630  15.809 -0.1873  0.1699 -0.0590
  563MPD2    H7 8414   0.595   0.636  15.767 -1.1140  2.5816  2.2685
  564TMC3    C1 8415   0.587   0.683  16.021  0.2804 -0.5514 -0.4992
  564TMC3    C2 8416   0.471   0.637  15.969  0.8235 -0.2317  0.1397
  564TMC3    C3 8417   0.390   0.560  16.044 -0.1966 -0.7815 -0.7664
  564TMC3    C4 8418   0.624   0.646  16.152  0.5460 -0.2620  0.3865
  564TMC3    C5 8419   0.551   0.549  16.217 -0.4252 -0.0834  0.1233
  564TMC3    C6 8420   0.424   0.516  16.174 -0.5586  0.3085  0.1419
  564TMC3     C 8421   0.702   0.694  15.926 -0.2734 -0.2632 -0.2076
  564TMC3     O 8422   0.807   0.729  15.980 -0.5166 -0.0567  0.6144
  564TMC3     H 8423   0.440   0.693  15.882 -1.0989  2.1731  2.3956
  564TMC3    H1 8424   0.726   0.667  16.183  0.6445 -0.3389  0.1209
  564TMC3    H2 8425   0.362   0.445  16.227 -0.7777  0.4908  0.1316
  564TMC3    C7 8426   0.626   0.432  16.254  0.0486 -0.6571  0.7570
  564TMC3    C8 8427   0.340   0.443  15.968  0.3283  0.3265 -0.4062
  564TMC3    O1 8428   0.588   0.363  16.349  0.5180 -0.2529  0.1182
  564TMC3    O2 8429   0.267   0.364  16.026  0.6776  0.2131 -0.1247
  565TMC3    C1 8430   2.035   2.138   9.983  0.4616 -0.6721 -1.1190
  565TMC3    C2 8431   2.124   2.042  10.030  0.0387  0.9154  0.0169
  565TMC3    C3 8432   2.060   1.926  10.075  0.4174 -0.5753  0.4114
  565TMC3    C4 8433   1.905   2.109   9.961 -0.3247  0.2126  0.4727
  565TMC3    C5 8434   1.852   1.994  10.014 -0.1117  0.4333  0.1374
  565TMC3    C6 8435   1.926   1.903  10.084 -0.1413  0.4286  0.4177
  565TMC3     C 8436   2.080   2.256   9.917 -0.7823 -0.2752  0.6482
  565TMC3     O 8437   2.001   2.314   9.839  0.7510 -0.3201  0.0346
  565TMC3     H 8438   2.230   2.060  10.040  0.2799  0.7208 -2.0902
  565TMC3    H1 8439   1.845   2.174   9.899 -3.1807 -1.1460  1.8263
  565TMC3    H2 8440   1.890   1.801  10.077  2.5608 -0.6773  2.6065
  565TMC3    C7 8441   1.717   1.976  10.000 -0.2659  0.5217  0.3107
  565TMC3    C8 8442   2.148   1.850  10.156 -0.1504 -0.4405  0.6058
  565TMC3    O1 8443   1.654   2.038   9.920  0.2336  0.5866  0.6325
  565TMC3    O2 8444   2.271   1.860  10.136  0.6110  0.1768 -0.3713
  566MPD2     C 8445   2.572   3.368  14.298  0.4604  0.5986 -0.1308
  566MPD2    C1 8446   2.638   3.479  14.253 -0.4356 -0.7316  0.0904
  566MPD2    C2 8447   2.549   3.586  14.205  0.1336 -0.0545 -0.2712
  566MPD2    C3 8448   2.415   3.565  14.187 -0.2406 -0.4760 -0.6384
  566MPD2    C4 8449   2.350   3.452  14.239 -0.7242 -0.1182 -0.5470
  566MPD2    C5 8450   2.436   3.357  14.298 -0.3391  0.8514 -0.0382
  566MPD2     H 8451   2.587   3.683  14.175 -1.4341  0.1737 -1.5116
  566MPD2    H1 8452   2.246   3.423  14.227 -1.0018 -0.2011  2.2002
  566MPD2    H2 8453   2.631   3.280  14.321 -0.1505  0.1289 -0.3728
  566MPD2    H3 8454   2.397   3.262  14.333  0.5541  0.6346  0.3635
  566MPD2     N 8455   2.323   3.652  14.127  0.1453  0.2801 -0.5323
  566MPD2    H5 8456   2.222   3.648  14.140  0.3922 -2.8066  0.4113
  566MPD2    N1 8457   2.777   3.480  14.251 -0.1777 -0.1917  0.5741
  566MPD2    H7 8458   2.823   3.394  14.279 -0.8660 -1.0165 -0.8447
  567TMC3    C1 8459   2.991   3.553  14.208  0.3711 -0.5085 -0.0516
  567TMC3    C2 8460   3.057   3.622  14.115 -0.4269  0.2192 -0.7552
  567TMC3    C3 8461   3.190   3.621  14.122 -0.0520 -0.4289  0.9256
  567TMC3    C4 8462   3.042   3.490  14.317  0.0512 -0.5873 -0.2028
  567TMC3    C5 8463   3.180   3.504  14.320 -0.4556  0.2255 -0.2116
  567TMC3    C6 8464   3.256   3.565  14.223  0.3615  0.0368 -0.3464
  567TMC3     C 8465   2.852   3.585  14.205  0.3270  0.0969 -0.1495
  567TMC3     O 8466   2.814   3.690  14.156  0.4951  0.9743 -0.1052
  567TMC3     H 8467   3.008   3.659  14.026  0.2109 -0.8160 -1.5406
  567TMC3    H1 8468   2.984   3.442  14.395  2.1835 -1.6128  0.7541
  567TMC3    H2 8469   3.364   3.564  14.228  0.4654 -0.0908 -2.6590
  567TMC3    C7 8470   3.258   3.476  14.437 -0.2054  0.2353 -0.0742
  567TMC3    C8 8471   3.257   3.720  14.036 -0.3580  0.3174 -0.3204
  567TMC3    O1 8472   3.378   3.498  14.439  0.0433 -0.0527 -0.7550
  567TMC3    O2 8473   3.179   3.802  13.980  0.0434 -0.7876  0.2002
  568MPD2     C 8474   1.015   3.954  16.331  0.6795  0.4815  0.6107
  568MPD2    C1 8475   0.932   3.991  16.434 -0.2068  0.1010  0.2744
  568MPD2    C2 8476   0.824   4.067  16.396 -0.0816  0.8314 -0.8564
  568MPD2    C3 8477   0.805   4.117  16.267 -0.5704 -0.9470  0.2347
  568MPD2    C4 8478   0.891   4.073  16.172 -0.0685 -0.1254  0.0497
  568MPD2    C5 8479   1.001   3.999  16.203 -0.4767 -0.7832  0.3076
  568MPD2     H 8480   0.744   4.083  16.468  0.3355 -0.8691 -0.0056
  568MPD2    H1 8481   0.883   4.095  16.066 -1.5908  1.4456  0.4892
  568MPD2    H2 8482   1.101   3.893  16.354 -0.7694 -1.3861  1.1148
  568MPD2    H3 8483   1.067   3.967  16.123  0.9763  2.7329  0.1230
  568MPD2     N 8484   0.690   4.187  16.235 -0.0174 -0.0647  0.2446
  568MPD2    H5 8485   0.616   4.203  16.303  1.0762  0.1224  1.3872
  568MPD2    N1 8486   0.944   3.918  16.555 -0.9507  0.2276  1.0533
  568MPD2    H7 8487   1.020   3.853  16.566 -1.0974 -0.1403 -0.1140
  569TMC3    C1 8488   0.559   4.316  16.089  0.2880 -0.1127 -0.2036
  569TMC3    C2 8489   0.488   4.363  16.200 -0.5021  0.0921 -0.0382
  569TMC3    C3 8490   0.411   4.472  16.184 -0.1858  0.5263  0.6146
  569TMC3    C4 8491   0.543   4.369  15.970  0.6984  0.1541 -0.1920
  569TMC3    C5 8492   0.478   4.488  15.961 -0.3229 -0.0555 -0.2519
  569TMC3    C6 8493   0.401   4.534  16.063 -0.4217 -0.0217 -0.3141
  569TMC3     C 8494   0.688   4.259  16.118  0.4015  0.4874 -0.5286
  569TMC3     O 8495   0.777   4.292  16.039 -0.6153  0.1494 -0.3922
  569TMC3     H 8496   0.487   4.314  16.296 -2.6617  0.3290  0.0566
  569TMC3    H1 8497   0.618   4.340  15.897 -0.0540  0.7779 -1.2210
  569TMC3    H2 8498   0.338   4.622  16.059 -1.3377 -0.6413  0.6168
  569TMC3    C7 8499   0.500   4.573  15.849  0.8756  0.0445 -0.6177
  569TMC3    C8 8500   0.451   4.578  16.276 -0.1819 -0.6898 -0.2991
  569TMC3    O1 8501   0.550   4.524  15.752 -0.5309  0.1646 -0.6484
  569TMC3    O2 8502   0.486   4.678  16.219  0.6390 -0.1209 -0.2786
  570TMC3    C1 8503   4.732   2.795  16.484  0.6070  0.1212  0.1053
  570TMC3    C2 8504   0.084   2.817  16.382 -0.1226  0.5076  0.4102
  570TMC3    C3 8505   0.159   2.936  16.374  0.0262  0.6184 -0.4651
  570TMC3    C4 8506   4.711   2.894  16.577  0.2712 -0.3954 -0.3291
  570TMC3    C5 8507   0.049   3.011  16.567 -0.6216  0.3284 -0.7843
  570TMC3    C6 8508   0.139   3.032  16.465  0.2243 -0.3813 -0.6713
  570TMC3     C 8509   4.646   2.680  16.471 -0.0370 -0.5704  0.8736
  570TMC3     O 8510   4.647   2.607  16.372  0.2659 -0.3767 -0.1391
  570TMC3     H 8511   0.077   2.743  16.303 -1.6741 -0.2975  1.3076
  570TMC3    H1 8512   4.631   2.888  16.650  1.4188 -2.5283  0.7681
  570TMC3    H2 8513   0.189   3.127  16.449 -1.7101  0.6189 -0.8315
  570TMC3    C7 8514   0.020   3.117  16.658 -0.8552  0.6860 -0.5774
  570TMC3    C8 8515   0.278   2.943  16.285 -0.1986 -0.7134  0.4313
  570TMC3    O1 8516   4.701   3.096  16.767 -0.3859  0.1584  0.2430
  570TMC3    O2 8517   0.337   3.051  16.272 -0.1294 -0.2433 -0.3009
  571MPD2     C 8518   2.617   4.233   0.484 -0.3601  0.0281 -0.1408
  571MPD2    C1 8519   2.592   4.311   0.375  0.3104 -0.4715 -1.2286
  571MPD2    C2 8520   2.669   4.422   0.346  0.6725  1.1237  0.0015
  571MPD2    C3 8521   2.772   4.451   0.430  0.7925  0.4046 -0.0586
  571MPD2    C4 8522   2.797   4.371   0.536 -0.3161 -0.0969 -0.1712
  571MPD2    C5 8523   2.721   4.268   0.569  0.2074 -0.3118  0.2251
  571MPD2     H 8524   2.649   4.490   0.264  0.5705  1.6760  0.4906
  571MPD2    H1 8525   2.880   4.397   0.601 -0.8051  0.9710  0.0231
  571MPD2    H2 8526   2.567   4.138   0.501  0.7568 -0.8418 -1.6912
  571MPD2    H3 8527   2.738   4.205   0.655 -2.1874 -1.5595 -0.2009
  571MPD2     N 8528   2.862   4.559   0.406  0.2968  0.4956 -0.0858
  571MPD2    H5 8529   2.950   4.569   0.455 -0.1896  1.8996  0.5078
  571MPD2    N1 8530   2.479   4.273   0.298  0.0660  0.6807 -0.3686
  571MPD2    H7 8531   2.445   4.179   0.318  1.0733  0.2416 -0.6994
  572TMC3    C1 8532   2.948   0.025   0.326 -0.0750  0.6786 -0.4842
  572TMC3    C2 8533   3.051   0.014   0.413 -0.1101 -0.3386  0.0286
  572TMC3    C3 8534   3.143   0.113   0.406 -0.4283 -0.3638 -0.0678
  572TMC3    C4 8535   2.911   0.141   0.270 -0.0794  0.0867 -0.1549
  572TMC3    C5 8536   2.994   0.248   0.286 -0.0498  0.0483  0.3922
  572TMC3    C6 8537   3.114   0.232   0.344 -0.7750  0.0065 -0.0931
  572TMC3     C 8538   2.846   4.660   0.316  0.0365  0.7748 -0.2733
  572TMC3     O 8539   2.774   4.674   0.219 -0.0899  0.0712 -0.4239
  572TMC3     H 8540   3.099   4.654   0.432  2.4609  0.9096 -0.1680
  572TMC3    H1 8541   2.818   0.150   0.215 -0.7152  0.1917  0.9414
  572TMC3    H2 8542   3.182   0.316   0.354 -0.1625 -0.2950 -1.7308
  572TMC3    C7 8543   2.954   0.368   0.221  0.1071 -0.0574  0.8410
  572TMC3    C8 8544   3.246   0.120   0.509 -1.0199 -0.7340  0.0589
  572TMC3    O1 8545   2.836   0.389   0.213 -0.7640 -0.0402  0.5133
  572TMC3    O2 8546   3.333   0.203   0.481  0.7220 -0.7525  0.3267
  573MPD2     C 8547   3.195   4.360   0.357 -0.6566  0.7911  0.5453
  573MPD2    C1 8548   3.257   4.480   0.322 -0.1149 -0.0268 -0.2041
  573MPD2    C2 8549   3.209   4.547   0.212 -0.2234 -0.1303 -0.0148
  573MPD2    C3 8550   3.102   4.494   0.141 -0.0423 -0.0108  0.0472
  573MPD2    C4 8551   3.051   4.367   0.172 -0.0993  0.1526  0.2975
  573MPD2    C5 8552   3.094   4.301   0.281 -0.5087 -0.7014 -0.3791
  573MPD2     H 8553   3.254   4.642   0.187  1.4069 -0.8354  0.2311
  573MPD2    H1 8554   2.979   4.306   0.117  0.6860  1.0884 -1.7576
  573MPD2    H2 8555   3.229   4.308   0.446 -0.5552  0.4168  0.2896
  573MPD2    H3 8556   3.062   4.201   0.307  1.2754 -1.3984 -0.8099
  573MPD2     N 8557   3.039   4.563   0.038  0.2877  0.0293 -0.3512
  573MPD2    H5 8558   2.976   4.509  17.723  1.9393 -1.1980 -1.0325
  573MPD2    N1 8559   3.363   4.519   0.405  0.4504 -0.1645 -0.1832
  573MPD2    H7 8560   3.366   4.475   0.496 -2.8100 -2.1867 -1.0541
  574TMC3    C1 8561   2.976   4.731  17.632 -0.4881 -0.1373  0.2190
  574TMC3    C2 8562   2.938   0.125  17.633  0.0787 -0.2541 -0.3559
  574TMC3    C3 8563   2.823   0.164  17.568 -0.7305 -0.5373  0.2173
  574TMC3    C4 8564   2.897   4.638  17.570  0.0252  0.6957  0.0950
  574TMC3    C5 8565   2.781   4.679  17.508 -0.3265 -0.7666  0.3871
  574TMC3    C6 8566   2.744   0.073  17.504  0.3808  0.3760 -0.9254
  574TMC3     C 8567   3.065   4.694   0.003 -0.3652 -0.0321  0.0827
  574TMC3     O 8568   3.129   0.047   0.059 -0.3603 -0.1379  0.0401
  574TMC3     H 8569   2.997   0.199  17.686 -0.3906  1.7335 -2.6303
  574TMC3    H1 8570   2.925   4.535  17.554  0.5842  0.5929  1.7676
  574TMC3    H2 8571   2.642   0.095  17.477  0.5719  0.4164 -1.6004
  574TMC3    C7 8572   2.681   4.592  17.447 -0.1614 -0.2171 -0.1390
  574TMC3    C8 8573   2.765   0.282  17.613  0.1897  0.1751 -1.0068
  574TMC3    O1 8574   2.613   4.641  17.362  0.2311  0.1561 -0.2323
  574TMC3    O2 8575   2.650   0.262  17.649  0.1997 -0.0695 -0.3521
  575TMC3    C1 8576   2.774   2.116  10.539 -0.4809 -0.3942  0.2537
  575TMC3    C2 8577   2.723   2.215  10.618 -0.5532 -0.3021  0.1630
  575TMC3    C3 8578   2.608   2.179  10.690 -0.5803 -0.3475 -0.6333
  575TMC3    C4 8579   2.723   1.990  10.530 -0.0160  0.3962 -0.1189
  575TMC3    C5 8580   2.612   1.964  10.608 -0.2126 -0.2124 -0.1197
  575TMC3    C6 8581   2.545   2.059  10.679  0.4084  0.0748 -0.4815
  575TMC3     C 8582   2.888   2.138  10.458 -0.5120  0.1139 -0.1965
  575TMC3     O 8583   2.919   2.046  10.384  0.0828 -0.5605 -0.0268
  575TMC3     H 8584   2.747   2.320  10.623 -1.2075 -0.0770 -1.5014
  575TMC3    H1 8585   2.762   1.904  10.476  0.1976 -0.6574  1.6928
  575TMC3    H2 8586   2.445   2.038  10.715  0.8992 -0.0426  0.8179
  575TMC3    C7 8587   2.522   1.889  10.523 -0.9166 -0.3635 -0.1905
  575TMC3    C8 8588   2.540   2.282  10.765 -0.6255  0.2534 -0.6501
  575TMC3    O1 8589   2.541   1.892  10.401  0.1608  0.4743 -0.2211
  575TMC3    O2 8590   2.575   2.401  10.754  0.7744 -0.4420  0.4239
  576MPD2     C 8591   1.427   2.858  12.647 -0.0524  0.6650  0.0932
  576MPD2    C1 8592   1.426   2.963  12.563  0.7337 -0.3120 -0.5643
  576MPD2    C2 8593   1.386   3.082  12.611 -0.6983  0.1307  0.0763
  576MPD2    C3 8594   1.332   3.095  12.742 -0.4109  0.2433 -0.3449
  576MPD2    C4 8595   1.327   2.985  12.823 -0.2763  0.7145 -0.5141
  576MPD2    C5 8596   1.368   2.868  12.770  0.7167  0.7393 -0.5569
  576MPD2     H 8597   1.397   3.168  12.547  0.7530  1.6980  2.4493
  576MPD2    H1 8598   1.289   2.990  12.924 -0.0205 -1.5557 -0.3271
  576MPD2    H2 8599   1.476   2.767  12.614 -1.9102 -0.4416  0.3921
  576MPD2    H3 8600   1.363   2.770  12.816 -0.3821  1.0721  0.0394
  576MPD2     N 8601   1.290   3.223  12.785 -0.6992 -0.2202 -0.3171
  576MPD2    H5 8602   1.303   3.299  12.720 -2.5987 -0.2537 -0.7130
  576MPD2    N1 8603   1.480   2.961  12.434  0.1249 -0.4183  0.0696
  576MPD2    H7 8604   1.448   3.029  12.366  2.8349  0.7438 -0.0340
  577TMC3    C1 8605   1.601   2.908  12.244  0.3157 -0.2164 -0.4204
  577TMC3    C2 8606   1.653   2.808  12.165 -0.2105  0.7178 -0.2388
  577TMC3    C3 8607   1.665   2.844  12.035 -0.6577  0.4831  0.1790
  577TMC3    C4 8608   1.556   3.034  12.200 -0.9481 -0.0498 -0.0267
  577TMC3    C5 8609   1.579   3.055  12.065  0.7878 -0.0009 -1.0029
  577TMC3    C6 8610   1.625   2.964  11.980  0.9900 -0.3379 -0.4993
  577TMC3     C 8611   1.554   2.866  12.368  0.6406  0.2109  0.2042
  577TMC3     O 8612   1.577   2.753  12.400 -0.0433 -0.2974  0.0457
  577TMC3     H 8613   1.681   2.708  12.198 -0.2722  1.0100  0.7030
  577TMC3    H1 8614   1.527   3.116  12.264 -0.4804  0.3815 -0.3688
  577TMC3    H2 8615   1.637   2.988  11.875 -0.6992 -0.3267 -0.6894
  577TMC3    C7 8616   1.525   3.183  12.020 -0.7045 -0.2348  0.3959
  577TMC3    C8 8617   1.713   2.737  11.946 -0.2947  0.4513 -0.0753
  577TMC3    O1 8618   1.472   3.249  12.112 -0.3949  0.1409 -0.3911
  577TMC3    O2 8619   1.708   2.624  11.992  0.3759 -0.2826  0.3719
  578MPD2     C 8620   0.039   3.281   1.252  0.4878 -0.3803  0.1654
  578MPD2    C1 8621   0.025   3.170   1.170 -0.3534 -0.5620  0.1745
  578MPD2    C2 8622   0.005   3.049   1.237 -0.3793  1.0630  0.1173
  578MPD2    C3 8623   0.015   3.036   1.378  0.4200  0.1008 -0.7538
  578MPD2    C4 8624   0.036   3.150   1.454 -0.4992 -0.0101 -0.2392
  578MPD2    C5 8625   0.036   3.271   1.395  0.1776 -0.3177  0.1930
  578MPD2     H 8626   4.718   2.960   1.179 -2.0575  1.1669  0.6403
  578MPD2    H1 8627   0.051   3.139   1.561 -0.7129 -1.2893 -0.3375
  578MPD2    H2 8628   0.057   3.378   1.207  0.9791 -1.3600 -1.7759
  578MPD2    H3 8629   0.053   3.362   1.452  0.6324 -0.3052  0.0415
  578MPD2     N 8630   0.001   2.907   1.435 -0.0172  0.8396  0.5145
  578MPD2    H5 8631   4.732   2.825   1.375  1.7493  0.7315  0.5251
  578MPD2    N1 8632   0.023   3.192   1.033 -0.1695 -0.2542  0.1403
  578MPD2    H7 8633   0.043   3.288   1.006  0.3405 -0.7517 -1.2850
  579TMC3    C1 8634   0.017   2.721   1.592  0.2501 -0.4175 -0.3026
  579TMC3    C2 8635   0.102   2.682   1.693  0.3656  0.0768  0.8517
  579TMC3    C3 8636   0.110   2.551   1.718 -0.5234  0.0730  0.2020
  579TMC3    C4 8637   4.677   2.628   1.515  0.2241  0.8585  0.2997
  579TMC3    C5 8638   4.706   2.496   1.543  0.6243  0.0650 -0.5790
  579TMC3    C6 8639   0.034   2.453   1.655 -0.0762 -0.4322  0.2062
  579TMC3     C 8640   0.005   2.869   1.574  0.0708  0.2076 -0.3018
  579TMC3     O 8641   0.047   2.935   1.670 -0.1092 -0.4361 -0.1396
  579TMC3     H 8642   0.158   2.755   1.749  1.2163  0.3380 -0.3401
  579TMC3    H1 8643   4.616   2.669   1.436  0.1761  1.5020  0.6736
  579TMC3    H2 8644   0.046   2.345   1.660  2.0063 -0.1970  0.2555
  579TMC3    C7 8645   4.654   2.394   1.454 -0.1896  0.4681  0.3462
  579TMC3    C8 8646   0.227   2.509   1.786 -0.6797  0.3104  0.3551
  579TMC3    O1 8647   4.628   2.287   1.505 -0.5804 -0.5701  0.2021
  579TMC3    O2 8648   0.236   2.401   1.847 -0.2178 -0.0769  0.2927
  580TMC3    C1 8649   4.702   2.203  11.937 -0.7999 -0.4180  0.1669
  580TMC3    C2 8650   0.081   2.256  11.877 -0.0704 -0.6198 -0.2403
  580TMC3    C3 8651   0.134   2.187  11.767  0.4687  0.1905 -1.0676
  580TMC3    C4 8652   4.650   2.081  11.910  0.2981 -0.6709 -0.4511
  580TMC3    C5 8653   4.714   2.011  11.812  0.2592 -0.1994 -0.2650
  580TMC3    C6 8654   0.089   2.062  11.740 -0.1479 -0.0525 -0.0333
  580TMC3     C 8655   4.625   2.298  12.007  0.1319 -0.4063 -0.6336
  580TMC3     O 8656   4.657   2.415  11.996  0.4259 -0.3604 -0.1650
  580TMC3     H 8657   0.114   2.354  11.907 -0.2154 -0.0819 -1.8049
  580TMC3    H1 8658   4.554   2.053  11.952 -0.7795  2.0653 -1.0909
  580TMC3    H2 8659   0.136   2.001  11.664 -0.2861 -0.1806 -0.0160
  580TMC3    C7 8660   4.633   1.916  11.745 -0.3953 -0.9006 -0.0202
  580TMC3    C8 8661   0.210   2.268  11.677 -0.2018  0.3456  0.2485
  580TMC3    O1 8662   4.650   1.897  11.624 -0.0088  0.2115 -0.3334
  580TMC3    O2 8663   0.268   2.367  11.722  0.2813 -0.5040  0.9160
  581MPD2     C 8664   1.431   1.575  14.740  0.4329 -0.2340  0.2889
  581MPD2    C1 8665   1.298   1.597  14.775  0.0930 -0.7253  0.1907
  581MPD2    C2 8666   1.225   1.704  14.708 -0.5714 -0.2286 -0.1340
  581MPD2    C3 8667   1.295   1.791  14.623  0.2582 -0.2118 -0.1643
  581MPD2    C4 8668   1.428   1.766  14.592 -0.9091  0.5348 -0.8826
  581MPD2    C5 8669   1.487   1.657  14.648 -0.4140  0.0296  0.4328
  581MPD2     H 8670   1.120   1.719  14.730 -0.4985 -0.7872  0.6112
  581MPD2    H1 8671   1.500   1.820  14.533  0.2101 -1.0371 -0.9743
  581MPD2    H2 8672   1.496   1.494  14.772 -0.9756 -1.9465 -1.1870
  581MPD2    H3 8673   1.590   1.634  14.624 -0.5642  1.1812 -1.2899
  581MPD2     N 8674   1.224   1.903  14.565 -0.1313  0.3879 -0.7227
  581MPD2    H5 8675   1.123   1.899  14.576  0.0666 -1.0009  0.5247
  581MPD2    N1 8676   1.245   1.509  14.877  0.6151 -0.0294  0.0912
  581MPD2    H7 8677   1.311   1.444  14.918  1.3833  0.2575 -0.7018
  582TMC3    C1 8678   1.088   1.463  15.050  0.7948  0.5604  0.0338
  582TMC3    C2 8679   1.190   1.422  15.139 -0.1659  0.7171  0.2075
  582TMC3    C3 8680   1.155   1.380  15.264  0.3360 -0.3999  0.0891
  582TMC3    C4 8681   0.962   1.483  15.109  0.8649 -0.6665 -0.5382
  582TMC3    C5 8682   0.933   1.448  15.241  0.3839 -0.0030 -0.1962
  582TMC3    C6 8683   1.031   1.394  15.319  0.5205  0.0382 -0.1002
  582TMC3     C 8684   1.116   1.527  14.925 -0.4202  0.0474 -1.4174
  582TMC3     O 8685   1.030   1.609  14.897 -0.0726 -0.1270 -0.2527
  582TMC3     H 8686   1.291   1.410  15.103 -0.1216  1.3378  0.1310
  582TMC3    H1 8687   0.881   1.521  15.048  2.4629  0.7778 -1.7580
  582TMC3    H2 8688   1.010   1.372  15.423 -1.8934  1.8164 -0.2167
  582TMC3    C7 8689   0.849   1.539  15.315 -0.3749  0.1270 -0.3825
  582TMC3    C8 8690   1.264   1.391  15.356 -0.2479 -0.6689  0.4234
  582TMC3    O1 8691   0.790   1.494  15.411 -0.3149 -0.5595 -0.8961
  582TMC3    O2 8692   1.235   1.461  15.452 -0.1809  0.2816 -0.4836
  583MPD2     C 8693   1.519   3.306  16.818  0.1212 -0.1032  0.8781
  583MPD2    C1 8694   1.501   3.437  16.764  0.1428 -0.3011  0.1884
  583MPD2    C2 8695   1.441   3.530  16.848 -0.4952 -0.5627 -0.2961
  583MPD2    C3 8696   1.413   3.507  16.975 -0.6171  0.2593 -0.1418
  583MPD2    C4 8697   1.444   3.388  17.038 -0.9434  0.2603  0.5014
  583MPD2    C5 8698   1.498   3.293  16.956 -0.6399  0.6419 -1.1820
  583MPD2     H 8699   1.422   3.630  16.810 -1.3758 -0.6788 -0.1538
  583MPD2    H1 8700   1.426   3.358  17.140  2.4904 -0.2046  0.9782
  583MPD2    H2 8701   1.559   3.221  16.765  0.8528  0.3643  0.6867
  583MPD2    H3 8702   1.522   3.199  17.003 -1.4379  0.2828 -1.4914
  583MPD2     N 8703   1.357   3.613  17.047 -0.2221  0.2084 -0.2601
  583MPD2    H5 8704   1.341   3.701  16.998 -1.9617 -0.9024 -1.6586
  583MPD2    N1 8705   1.552   3.464  16.634 -0.0672 -0.4339 -0.6344
  583MPD2    H7 8706   1.528   3.550  16.585 -3.5312 -1.3093 -0.4449
  584TMC3    C1 8707   1.324   3.733  17.250  0.1589  0.0562 -0.0917
  584TMC3    C2 8708   1.297   3.849  17.183  0.2578  0.1546 -0.5055
  584TMC3    C3 8709   1.289   3.962  17.254  0.7624  0.3686 -0.6819
  584TMC3    C4 8710   1.330   3.731  17.388  0.0621  0.0408  0.1583
  584TMC3    C5 8711   1.330   3.844  17.460  0.0273 -0.0098  0.5714
  584TMC3    C6 8712   1.307   3.966  17.395  0.8049  0.1751  0.4085
  584TMC3     C 8713   1.335   3.608  17.185 -0.1452  0.0621 -0.3334
  584TMC3     O 8714   1.317   3.507  17.251  0.0795  0.0742  0.2510
  584TMC3     H 8715   1.310   3.858  17.075 -1.4732 -0.2722 -0.7480
  584TMC3    H1 8716   1.333   3.631  17.432  0.2817  0.5053  1.1951
  584TMC3    H2 8717   1.277   4.051  17.455  3.0900  1.8524 -0.8268
  584TMC3    C7 8718   1.317   3.829  17.607 -0.4275 -0.7124  0.4537
  584TMC3    C8 8719   1.320   4.080  17.173 -0.0564 -0.3032  0.5107
  584TMC3    O1 8720   1.281   3.722  17.652 -0.4757  0.6009  0.1835
  584TMC3    O2 8721   1.274   4.096  17.060  0.1756 -0.4263  0.4710
  585MPD2     C 8722   0.854   2.802   0.530  1.0125  0.0620  0.1683
  585MPD2    C1 8723   0.834   2.880   0.421 -0.8360  0.3806  0.4029
  585MPD2    C2 8724   0.832   2.813   0.294  0.7792  0.3712 -0.3888
  585MPD2    C3 8725   0.855   2.673   0.288  0.3119  0.2200 -1.0423
  585MPD2    C4 8726   0.887   2.608   0.402 -0.4219 -0.4686  0.7422
  585MPD2    C5 8727   0.890   2.671   0.526  0.5597  0.7566  0.1065
  585MPD2     H 8728   0.805   2.859   0.200  1.8157  2.8067  0.5135
  585MPD2    H1 8729   0.919   2.504   0.401 -0.0333 -0.3526  1.5432
  585MPD2    H2 8730   0.863   2.853   0.626 -0.3728  1.9469 -0.6958
  585MPD2    H3 8731   0.919   2.621   0.618  0.3237 -0.9698 -0.7468
  585MPD2     N 8732   0.849   2.603   0.168  0.7617  0.6732 -0.0008
  585MPD2    H5 8733   0.878   2.506   0.178 -0.1319  0.4613  0.5611
  585MPD2    N1 8734   0.817   3.020   0.436 -0.1083 -0.0107 -0.7115
  585MPD2    H7 8735   0.839   3.047   0.531  0.0957  1.3122 -1.1372
  586TMC3    C1 8736   0.882   2.555  17.683  0.0682 -0.5663  0.7605
  586TMC3    C2 8737   0.963   2.576  17.574 -0.2637  0.0708 -0.0919
  586TMC3    C3 8738   0.968   2.486  17.473 -0.8728 -0.0598 -0.1861
  586TMC3    C4 8739   0.812   2.440  17.698 -0.3782 -0.9027 -0.5414
  586TMC3    C5 8740   0.823   2.347  17.596 -0.4696 -0.4910 -0.3090
  586TMC3    C6 8741   0.888   2.370  17.478  0.5018 -0.0417 -0.3724
  586TMC3     C 8742   0.867   2.657   0.043 -0.2373  0.1447  0.5328
  586TMC3     O 8743   0.863   2.774   0.002  0.3433  0.4512 -0.0103
  586TMC3     H 8744   1.014   2.672  17.573 -1.7703  0.8503 -1.6877
  586TMC3    H1 8745   0.744   2.419   0.037 -2.5325  0.1786 -2.0660
  586TMC3    H2 8746   0.894   2.292  17.403 -0.0897 -0.4488  0.0077
  586TMC3    C7 8747   0.760   2.214  17.603  0.1403  0.1467  0.0387
  586TMC3    C8 8748   1.097   2.455  17.416 -0.4344  0.4461  0.2469
  586TMC3    O1 8749   0.735   2.152  17.499  0.1061  0.0289 -0.1427
  586TMC3    O2 8750   1.101   2.371  17.327 -0.5093  0.2556 -0.2793
  587TMC3    C1 8751   3.206   1.053  16.219  0.5486 -0.0112 -0.3590
  587TMC3    C2 8752   3.243   1.173  16.278 -0.5305 -0.3318 -0.2676
  587TMC3    C3 8753   3.369   1.180  16.327  0.0915 -1.1028 -0.5329
  587TMC3    C4 8754   3.295   0.949  16.199 -0.7373 -0.5181  0.1596
  587TMC3    C5 8755   3.422   0.978  16.215  0.6722 -0.1129  0.1994
  587TMC3    C6 8756   3.461   1.088  16.284  0.0638 -0.2559  0.0339
  587TMC3     C 8757   3.075   1.052  16.148 -0.4719  0.1596 -1.0141
  587TMC3     O 8758   3.034   1.165  16.131  0.2305  0.1590 -0.0289
  587TMC3     H 8759   3.169   1.250  16.296 -2.9140 -3.2712  2.3589
  587TMC3    H1 8760   3.271   0.855  16.150  0.1450 -1.0768  0.7975
  587TMC3    H2 8761   3.561   1.129  16.297 -0.2110 -0.2840  2.2857
  587TMC3    C7 8762   3.513   0.871  16.173 -0.0269 -0.2385 -0.0005
  587TMC3    C8 8763   3.413   1.283  16.425  0.7684 -0.1512 -0.2236
  587TMC3    O1 8764   3.473   0.810  16.074  0.1576  0.8431  0.0641
  587TMC3    O2 8765   3.528   1.277  16.465  0.4658  0.2998  1.1457
  588TMC3    C1 8766   1.382   4.057   9.820 -0.5361 -0.1881 -0.2230
  588TMC3    C2 8767   1.291   3.965   9.873  0.1024  1.0282 -0.0836
  588TMC3    C3 8768   1.349   3.859   9.938  0.9449  0.0011  0.1981
  588TMC3    C4 8769   1.521   4.044   9.822 -0.2300 -0.3463 -0.2063
  588TMC3    C5 8770   1.570   3.942   9.900  0.5100 -0.3811 -0.2018
  588TMC3    C6 8771   1.487   3.845   9.957 -0.1893 -0.1198  0.1284
  588TMC3     C 8772   1.332   4.187   9.777  0.5585 -0.5010 -0.0417
  588TMC3     O 8773   1.210   4.198   9.758 -0.2311 -1.2858 -0.0647
  588TMC3     H 8774   1.185   3.987   9.881  0.5363  3.0656  0.0707
  588TMC3    H1 8775   1.581   4.115   9.765  0.3220 -0.1975  0.5666
  588TMC3    H2 8776   1.529   3.758  10.007  0.9576 -0.1240 -0.8486
  588TMC3    C7 8777   1.695   3.961   9.974  0.1473 -0.4596 -0.2852
  588TMC3    C8 8778   1.263   3.739   9.944 -0.3059 -0.7149 -0.1782
  588TMC3    O1 8779   1.741   3.866  10.040 -0.1416  0.3158 -0.3999
  588TMC3    O2 8780   1.159   3.747   9.884 -0.5083  0.1438  0.3479
  589TMC3    C1 8781   4.483   1.297   1.729 -0.1804  0.4594  0.3468
  589TMC3    C2 8782   4.596   1.241   1.784 -0.1512  0.5195 -0.0652
  589TMC3    C3 8783   4.670   1.164   1.695 -0.8813 -1.0055 -0.3478
  589TMC3    C4 8784   4.452   1.288   1.598  0.2206  0.6472 -0.8976
  589TMC3    C5 8785   4.521   1.197   1.524 -0.3202 -0.3637  0.4957
  589TMC3    C6 8786   4.634   1.136   1.567  0.1004 -0.7278 -0.3810
  589TMC3     C 8787   4.388   1.367   1.809 -0.4842  0.2857  0.3038
  589TMC3     O 8788   4.274   1.368   1.766  0.1813  0.6458 -0.3649
  589TMC3     H 8789   4.603   1.238   1.892 -0.6821 -0.1446 -0.0448
  589TMC3    H1 8790   4.364   1.342   1.563 -0.3700  0.7749  0.7352
  589TMC3    H2 8791   4.683   1.064   1.502  0.2999 -0.5139 -0.4653
  589TMC3    C7 8792   4.476   1.148   1.390  0.3405 -0.7956  0.2672
  589TMC3    C8 8793   0.065   1.128   1.737  0.0234  0.5164 -0.3861
  589TMC3    O1 8794   4.530   1.049   1.337  0.1027 -0.1410 -0.9517
  589TMC3    O2 8795   0.094   1.133   1.855  0.7301 -0.5036  0.5738
  590MPD2     C 8796   4.262   4.389  16.981  0.3757  0.2993  0.3300
  590MPD2    C1 8797   4.209   4.460  16.871 -0.2856 -0.2391 -0.2044
  590MPD2    C2 8798   4.289   4.549  16.799 -0.0741 -0.2487 -0.4643
  590MPD2    C3 8799   4.425   4.557  16.818  0.2436  0.1423  0.4416
  590MPD2    C4 8800   4.474   4.474  16.920 -0.9794  0.0312 -0.1317
  590MPD2    C5 8801   4.393   4.400  17.003 -0.2930 -0.1275 -0.4069
  590MPD2     H 8802   4.250   4.611  16.719  0.6657  3.4403  2.0697
  590MPD2    H1 8803   4.580   4.471  16.944 -1.0878 -0.6097  0.2420
  590MPD2    H2 8804   4.197   4.322  17.036  0.3019  0.2181  0.1437
  590MPD2    H3 8805   4.440   4.349  17.086 -1.4351  0.9507  0.8939
  590MPD2     N 8806   4.505   4.633  16.729 -0.4171 -0.0378 -0.4337
  590MPD2    H5 8807   4.454   4.695  16.667 -0.8502 -0.3124 -0.3544
  590MPD2    N1 8808   4.080   4.434  16.827 -0.2948 -0.3582 -0.5296
  590MPD2    H7 8809   4.033   4.363  16.883  2.3618 -0.6034  1.3809
  591TMC3    C1 8810   4.683   4.682  16.593  0.2980  0.3993  0.4083
  591TMC3    C2 8811   4.727   4.615  16.484 -0.0581  0.1885 -0.5310
  591TMC3    C3 8812   4.717   4.681  16.366 -0.7184 -0.0056 -0.8755
  591TMC3    C4 8813   4.635   0.080  16.583  0.3752  0.6003  0.1488
  591TMC3    C5 8814   4.639   0.137  16.463  0.4969  0.3493 -0.2728
  591TMC3    C6 8815   4.676   0.071  16.352  0.7117  0.1604  0.3419
  591TMC3     C 8816   4.631   4.601  16.694  0.7109 -0.0678  0.2833
  591TMC3     O 8817   4.693   4.501  16.725  0.3492  0.2465 -0.8679
  591TMC3     H 8818   0.025   4.514  16.500 -1.1724 -0.7350 -3.9403
  591TMC3    H1 8819   4.593   0.125  16.672  0.5680  1.4708 -0.1969
  591TMC3    H2 8820   4.650   0.112  16.255 -0.3336  0.7513  0.8732
  591TMC3    C7 8821   4.571   0.267  16.453  0.4320  0.0958  0.4808
  591TMC3    C8 8822   0.007   4.610  16.243 -0.6433 -0.1300 -0.2795
  591TMC3    O1 8823   4.505   0.311  16.547 -0.2386 -0.4270  0.1562
  591TMC3    O2 8824   0.008   4.489  16.244  0.0052  0.1601  0.7220
  592MPD2     C 8825   0.313   1.772  11.184 -0.4804 -0.1989 -0.7494
  592MPD2    C1 8826   0.307   1.797  11.319  0.5837 -0.3009 -0.0172
  592MPD2    C2 8827   0.219   1.716  11.395 -0.9129 -0.6506  0.6129
  592MPD2    C3 8828   0.151   1.614  11.343  0.1495 -0.7468 -0.4114
  592MPD2    C4 8829   0.162   1.595  11.199  0.0000  0.8720 -0.9395
  592MPD2    C5 8830   0.240   1.677  11.129 -0.1727  0.1401  0.4366
  592MPD2     H 8831   0.209   1.742  11.499 -1.8903  0.9677  0.1167
  592MPD2    H1 8832   0.110   1.519  11.142  0.4224  0.4969 -0.8234
  592MPD2    H2 8833   0.364   1.835  11.113  0.3833  1.8885  1.7079
  592MPD2    H3 8834   0.249   1.670  11.022  0.4294  1.6298  0.4023
  592MPD2     N 8835   0.069   1.540  11.431  0.5273 -0.0788  0.3969
  592MPD2    H5 8836   0.056   1.568  11.528 -0.9822  0.2853  0.0810
  592MPD2    N1 8837   0.390   1.902  11.369  0.3164  0.3988  0.3092
  592MPD2    H7 8838   0.466   1.913  11.304  1.4387 -0.8303  1.4170
  593TMC3    C1 8839   0.516   2.023  11.527  0.7137  0.3212  0.8741
  593TMC3    C2 8840   0.533   2.067  11.656 -0.1727  0.7446 -0.3481
  593TMC3    C3 8841   0.610   2.172  11.690  0.5899  0.3391 -0.2638
  593TMC3    C4 8842   0.587   2.091  11.428  0.9591 -0.3621 -0.2147
  593TMC3    C5 8843   0.664   2.204  11.464  0.6853 -0.2872 -0.6141
  593TMC3    C6 8844   0.674   2.244  11.595  0.2412  1.5264  0.1096
  593TMC3     C 8845   0.411   1.927  11.506  0.0695 -0.1843  0.9908
  593TMC3     O 8846   0.353   1.877  11.601  0.4154  0.0815  0.3881
  593TMC3     H 8847   0.477   2.017  11.734  1.3082  0.5216  0.5551
  593TMC3    H1 8848   0.586   2.046  11.329  3.9757  0.2201 -0.5020
  593TMC3    H2 8849   0.725   2.337  11.620 -0.6775  1.8357  0.8193
  593TMC3    C7 8850   0.753   2.271  11.369 -0.0758  0.0626  1.2475
  593TMC3    C8 8851   0.578   2.233  11.817  0.6142 -0.2050 -0.0913
  593TMC3    O1 8852   0.854   2.324  11.416 -0.3630  0.4412  0.6152
  593TMC3    O2 8853   0.482   2.183  11.876  0.2606  0.1602 -0.2586
  594MPD2     C 8854   3.460   0.880  14.179  0.1192 -0.0270  0.0774
  594MPD2    C1 8855   3.457   0.890  14.318  0.4012 -0.3532  0.7226
  594MPD2    C2 8856   3.571   0.934  14.388  0.4230  0.1775 -0.4069
  594MPD2    C3 8857   3.691   0.955  14.317 -0.0843  0.3325 -0.3758
  594MPD2    C4 8858   3.688   0.950  14.183  0.1838 -0.4435 -0.0645
  594MPD2    C5 8859   3.577   0.917  14.115  0.4482  0.3962 -0.2549
  594MPD2     H 8860   3.576   0.960  14.493  1.0442  0.2063 -0.4413
  594MPD2    H1 8861   3.777   0.958  14.121  0.0313 -1.3825 -0.4174
  594MPD2    H2 8862   3.367   0.854  14.129 -0.8982 -1.0925  2.5304
  594MPD2    H3 8863   3.583   0.912  14.007 -1.4660 -0.3620 -0.3175
  594MPD2     N 8864   3.812   0.990  14.392  0.4680  0.1260  0.2453
  594MPD2    H5 8865   3.819   0.977  14.492 -1.9480  1.2168  0.5573
  594MPD2    N1 8866   3.329   0.870  14.377 -0.5232 -0.3048 -0.4788
  594MPD2    H7 8867   3.264   0.830  14.310 -0.5651 -1.1597  0.0666
  595TMC3    C1 8868   4.252   1.086  14.478  0.7344 -0.4277  0.6471
  595TMC3    C2 8869   4.158   1.011  14.408 -0.3307 -0.2925  0.1874
  595TMC3    C3 8870   4.031   1.034  14.443 -0.2023 -0.1198  0.0226
  595TMC3    C4 8871   4.222   1.177  14.571 -0.0175 -0.8800 -0.8984
  595TMC3    C5 8872   4.093   1.209  14.600 -0.1476 -0.0367 -0.3946
  595TMC3    C6 8873   3.996   1.136  14.536  0.3888  0.7089  0.8168
  595TMC3     C 8874   4.396   1.074  14.454 -0.4005 -0.2976  0.0290
  595TMC3     O 8875   4.467   1.163  14.498  0.1056  0.6262 -0.2698
  595TMC3     H 8876   4.190   0.942  14.330  0.7179  2.4050 -1.7621
  595TMC3    H1 8877   4.298   1.253  14.591  0.4056 -1.4528 -0.3052
  595TMC3    H2 8878   3.892   1.165  14.547  0.6692  2.5893 -1.5381
  595TMC3    C7 8879   4.050   1.308  14.693 -0.1127 -0.0237 -0.2353
  595TMC3    C8 8880   3.935   1.015  14.336 -0.1724  0.1734 -0.1432
  595TMC3    O1 8881   3.939   1.356  14.678 -0.1844  0.1501 -0.3778
  595TMC3    O2 8882   3.986   1.013  14.226 -0.6756  0.3192  0.2572
  596MPD2     C 8883   2.337   3.112  16.708  0.8617 -0.5360 -0.2886
  596MPD2    C1 8884   2.336   3.229  16.643 -0.0354 -0.6623 -0.7458
  596MPD2    C2 8885   2.362   3.238  16.507  0.5934  0.5419 -0.4542
  596MPD2    C3 8886   2.366   3.126  16.423 -0.9435 -0.0787 -0.5838
  596MPD2    C4 8887   2.362   3.008  16.497 -0.1753 -0.3673  0.0872
  596MPD2    C5 8888   2.356   2.998  16.638  0.2914  0.1156 -0.5070
  596MPD2     H 8889   2.369   3.342  16.476 -1.0288  0.1960 -1.9891
  596MPD2    H1 8890   2.369   2.911  16.450  2.5914 -1.8560  3.4878
  596MPD2    H2 8891   2.324   3.111  16.816  0.3755  0.5169 -0.3444
  596MPD2    H3 8892   2.352   2.904  16.692 -1.0770 -0.3345 -1.4096
  596MPD2     N 8893   2.391   3.128  16.277  0.6575 -0.1125  0.4141
  596MPD2    H5 8894   2.383   3.038  16.230  0.4534 -0.2010  0.6160
  596MPD2    N1 8895   2.321   3.357  16.696 -0.0817  0.0404 -0.1436
  596MPD2    H7 8896   2.326   3.437  16.635  0.4855 -0.0753 -0.2508
  597TMC3    C1 8897   2.268   3.528  16.846 -0.4133  0.3064 -0.1381
  597TMC3    C2 8898   2.313   3.621  16.757  0.0067 -0.2973 -0.1926
  597TMC3    C3 8899   2.270   3.749  16.761 -0.4126 -0.5646 -0.3214
  597TMC3    C4 8900   2.181   3.556  16.943 -0.5114 -0.4711 -0.1359
  597TMC3    C5 8901   2.145   3.691  16.952  0.3228  1.0186 -0.2484
  597TMC3    C6 8902   2.182   3.785  16.860  0.3832 -0.2562  0.3010
  597TMC3     C 8903   2.287   3.381  16.827 -0.1843 -0.0910 -0.5375
  597TMC3     O 8904   2.257   3.303  16.917  0.0499 -0.1380  0.5861
  597TMC3     H 8905   2.375   3.581  16.678 -2.6430  0.2073 -2.5194
  597TMC3    H1 8906   2.135   3.480  17.005 -1.9738  1.3964  1.0560
  597TMC3    H2 8907   2.159   3.889  16.875  0.3839 -0.1554 -0.4218
  597TMC3    C7 8908   2.069   3.718  17.071  0.0885 -0.0760  0.6385
  597TMC3    C8 8909   2.362   3.851  16.716 -0.0245  0.7073  0.3951
  597TMC3    O1 8910   2.100   3.658  17.171 -0.0791  0.3566 -0.1708
  597TMC3    O2 8911   2.367   3.949  16.793 -0.1270  0.5959 -0.1932
  598TMC3    C1 8912   0.723   4.695  15.422 -0.1749 -0.1478  0.3787
  598TMC3    C2 8913   0.644   4.581  15.422 -0.2313 -0.1916  0.5291
  598TMC3    C3 8914   0.537   4.573  15.338  0.3762  0.1691  0.3127
  598TMC3    C4 8915   0.708   0.062  15.334  0.2855 -0.2224  0.4703
  598TMC3    C5 8916   0.591   0.056  15.251 -0.3094  0.3876  0.0531
  598TMC3    C6 8917   0.506   4.683  15.250  0.4846  0.0318  0.3731
  598TMC3     C 8918   0.851   4.703  15.496 -0.2944 -0.8434  0.5195
  598TMC3     O 8919   0.930   0.052  15.462 -0.2518 -0.0869  0.1496
  598TMC3     H 8920   0.675   4.491  15.474  0.7737 -0.1158  0.0719
  598TMC3    H1 8921   0.773   0.148  15.333 -0.1029  0.0526 -0.6406
  598TMC3    H2 8922   0.411   4.690  15.198  0.1308  0.1743  1.0318
  598TMC3    C7 8923   0.619   0.096  15.115 -0.4613 -0.3834 -0.0934
  598TMC3    C8 8924   0.483   4.441  15.309 -0.4692 -0.6827  0.1634
  598TMC3    O1 8925   0.572   0.025  15.028 -0.1239 -0.0140 -0.3232
  598TMC3    O2 8926   0.416   4.428  15.209 -0.0437 -0.0153  0.1043
  599MPD2     C 8927   0.990   2.317  15.988  0.0191  0.6846 -0.0253
  599MPD2    C1 8928   0.901   2.222  15.983  0.1088 -0.0923  0.1520
  599MPD2    C2 8929   0.774   2.242  16.039 -0.1027  0.5521  0.0314
  599MPD2    C3 8930   0.745   2.360  16.113  0.2488 -0.3176 -0.6917
  599MPD2    C4 8931   0.829   2.461  16.108  0.2232  0.2149  0.3283
  599MPD2    C5 8932   0.949   2.442  16.041  0.0784 -0.8249  0.7005
  599MPD2     H 8933   0.705   2.161  16.020  0.3176  0.6301 -1.8202
  599MPD2    H1 8934   0.808   2.556  16.155 -1.0172  0.2167 -0.2340
  599MPD2    H2 8935   1.089   2.306  15.944  0.7502 -0.4837  1.9433
  599MPD2    H3 8936   1.015   2.527  16.025  0.1288 -1.1091 -0.5913
  599MPD2     N 8937   0.621   2.382  16.179 -0.3352 -0.2723 -0.1504
  599MPD2    H5 8938   0.625   2.473  16.224 -2.3797  0.4902 -1.4945
  599MPD2    N1 8939   0.930   2.104  15.901 -0.2570 -0.1594  0.2248
  599MPD2    H7 8940   1.026   2.105  15.867 -0.5429  1.5661 -0.5228
  600TMC3    C1 8941   0.420   2.333  16.297 -0.2694 -0.7867  0.2220
  600TMC3    C2 8942   0.359   2.228  16.361 -0.1291 -0.4027 -0.1691
  600TMC3    C3 8943   0.323   2.247  16.493  0.3470  0.0391  0.0770
  600TMC3    C4 8944   0.437   2.456  16.352 -0.8012  0.7366  0.1052
  600TMC3    C5 8945   0.391   2.465  16.481 -0.0062 -0.0200 -0.1551
  600TMC3    C6 8946   0.340   2.368  16.557  0.1876 -0.5428  0.6848
  600TMC3     C 8947   0.513   2.294  16.194  0.2155 -0.2523  0.0478
  600TMC3     O 8948   0.483   2.189  16.133 -0.4305  0.2060  0.1661
  600TMC3     H 8949   0.348   2.133  16.310 -0.6129 -1.2950  1.6309
  600TMC3    H1 8950   0.469   2.540  16.292 -0.0963 -0.4386 -1.1529
  600TMC3    H2 8951   0.322   2.386  16.662  0.6610 -1.8302  0.9909
  600TMC3    C7 8952   0.372   2.599  16.535 -0.7937  0.0173 -0.0007
  600TMC3    C8 8953   0.262   2.133  16.570 -0.0662 -1.1036 -0.1341
  600TMC3    O1 8954   0.272   2.617  16.600 -0.1908  0.1305 -0.0995
  600TMC3    O2 8955   0.274   2.124  16.689 -0.2277  0.2735 -0.2858
  601MPD2     C 8956   3.087   0.834   0.062 -0.3417  0.5949  0.4661
  601MPD2    C1 8957   2.972   0.790   0.120  0.1917 -0.0136  0.3318
  601MPD2    C2 8958   2.964   0.662   0.174  0.1751  0.5618 -1.0475
  601MPD2    C3 8959   3.070   0.578   0.143  0.0206 -0.3129  0.2798
  601MPD2    C4 8960   3.184   0.624   0.078 -0.9285  0.1581  0.3318
  601MPD2    C5 8961   3.192   0.753   0.044  0.1432 -0.6942 -0.5858
  601MPD2     H 8962   2.873   0.626   0.221  0.8428  0.3803  0.0927
  601MPD2    H1 8963   3.269   0.561   0.054 -0.4359  1.4419 -1.3477
  601MPD2    H2 8964   3.091   0.932   0.016 -0.1390  0.2581 -0.2284
  601MPD2    H3 8965   3.279   0.796  17.738 -0.1107 -0.3404 -0.7213
  601MPD2     N 8966   3.062   0.447   0.194 -0.3978  0.6731  0.2640
  601MPD2    H5 8967   3.149   0.396   0.185 -0.1752  0.8394  1.5918
  601MPD2    N1 8968   2.857   0.869   0.146  0.2596 -0.4527 -0.0203
  601MPD2    H7 8969   2.769   0.826   0.174  0.0571 -0.8996 -1.3313
  602TMC3    C1 8970   2.721   1.067   0.127 -0.1911 -0.9737 -0.3420
  602TMC3    C2 8971   2.726   1.203   0.092 -0.3494  1.0274  0.2921
  602TMC3    C3 8972   2.605   1.271   0.076 -0.0849  0.7243  0.0708
  602TMC3    C4 8973   2.600   1.002   0.145  0.1240 -0.2731 -0.7273
  602TMC3    C5 8974   2.489   1.073   0.129  0.1292 -0.9464 -0.7596
  602TMC3    C6 8975   2.486   1.203   0.092 -0.8983  0.0673  0.2352
  602TMC3     C 8976   2.851   1.002   0.128 -0.1490 -0.1283 -0.8758
  602TMC3     O 8977   2.948   1.077   0.112 -0.1645 -0.3452  0.2493
  602TMC3     H 8978   2.816   1.263   0.091 -1.0798  2.1058 -0.5605
  602TMC3    H1 8979   2.591   0.894   0.155 -1.9333 -0.1561 -1.4179
  602TMC3    H2 8980   2.396   1.262   0.108 -1.9242 -1.8929  1.5404
  602TMC3    C7 8981   2.368   0.996   0.095  0.8658  0.9347  0.1547
  602TMC3    C8 8982   2.621   1.378  17.719  0.4825 -0.0493 -0.3662
  602TMC3    O1 8983   2.364   0.874   0.122  0.1309  0.3808 -0.4811
  602TMC3    O2 8984   2.737   1.396  17.676  0.1574 -0.0388 -0.3992
  603TMC3    C1 8985   0.797   1.496  11.125 -0.3812 -0.1959  0.5226
  603TMC3    C2 8986   0.854   1.382  11.185 -0.0255 -0.0870  0.4607
  603TMC3    C3 8987   0.977   1.381  11.237  0.4437  0.6031  0.4984
  603TMC3    C4 8988   0.878   1.603  11.090  0.6115  0.3008 -0.3501
  603TMC3    C5 8989   1.013   1.590  11.130  0.4690  0.0164 -0.2446
  603TMC3    C6 8990   1.068   1.478  11.199 -0.3963  0.5481  0.1744
  603TMC3     C 8991   0.688   1.487  11.035  0.3222 -0.3219 -0.4350
  603TMC3     O 8992   0.664   1.369  11.006  0.3228  0.4559 -0.2685
  603TMC3     H 8993   0.797   1.290  11.195  2.0883 -1.4124  0.1294
  603TMC3    H1 8994   0.843   1.694  11.043  1.0040  1.1453  1.0055
  603TMC3    H2 8995   1.173   1.476  11.223 -0.1184  0.8535 -1.0261
  603TMC3    C7 8996   1.116   1.669  11.063  0.3626 -0.0194  0.8072
  603TMC3    C8 8997   1.031   1.259  11.287 -0.4015 -0.4017 -0.0642
  603TMC3    O1 8998   1.229   1.664  11.103  0.0842 -0.3017  0.4313
  603TMC3    O2 8999   0.954   1.167  11.282  0.0351  0.2005  0.9530
  604MPD2     C 9000   1.348   4.061  16.198  0.3084  0.5481  0.8494
  604MPD2    C1 9001   1.309   4.190  16.192 -0.2357 -0.1137 -0.0698
  604MPD2    C2 9002   1.346   4.263  16.082  0.6496 -0.0470 -0.5134
  604MPD2    C3 9003   1.437   4.218  15.991  0.5814 -0.2143 -0.1674
  604MPD2    C4 9004   1.463   4.078  15.992 -0.1125  0.1824 -0.3949
  604MPD2    C5 9005   1.416   4.009  16.097  0.4235  0.2590  0.7367
  604MPD2     H 9006   1.310   4.364  16.065  2.4994  0.4914 -1.2916
  604MPD2    H1 9007   1.522   4.024  15.919 -0.1583 -0.3546 -0.0360
  604MPD2    H2 9008   1.322   4.006  16.288 -0.9344 -0.6948 -0.2777
  604MPD2    H3 9009   1.440   3.905  16.112  3.0803  0.4955 -1.8198
  604MPD2     N 9010   1.482   4.310  15.890 -0.4794  0.0412 -0.2969
  604MPD2    H5 9011   1.469   4.408  15.909  2.1163  0.3627 -0.1746
  604MPD2    N1 9012   1.225   4.235  16.297  0.1998  0.4157  0.3772
  604MPD2    H7 9013   1.216   4.173  16.377  0.3267 -0.8859 -0.6232
  605TMC3    C1 9014   1.072   4.380  16.408 -0.0953 -0.0609 -0.1375
  605TMC3    C2 9015   1.160   4.385  16.517  0.9529 -0.0597  0.2258
  605TMC3    C3 9016   1.167   4.500  16.590  0.0040  0.0784 -0.0737
  605TMC3    C4 9017   0.991   4.479  16.386 -0.3415 -0.4485 -0.0532
  605TMC3    C5 9018   0.990   4.593  16.469  0.4431 -0.2261 -0.8253
  605TMC3    C6 9019   1.092   4.610  16.563 -0.3215 -0.0715 -0.0593
  605TMC3     C 9020   1.140   4.346  16.284 -0.4664  0.3140  0.3370
  605TMC3     O 9021   1.104   4.418  16.187 -0.3385 -0.1728  0.0995
  605TMC3     H 9022   1.224   4.306  16.552  1.9035  0.0014 -1.3686
  605TMC3    H1 9023   0.908   4.464  16.317  0.9645  0.2834 -1.7956
  605TMC3    H2 9024   1.093   4.697  16.628 -0.7155 -1.1087  1.3205
  605TMC3    C7 9025   0.915   4.716  16.419 -0.5739 -0.2303  0.1041
  605TMC3    C8 9026   1.306   4.523  16.626 -0.2156  0.4026  0.2647
  605TMC3    O1 9027   0.895   0.068  16.505 -0.6652  0.1869 -0.9240
  605TMC3    O2 9028   1.393   4.469  16.563 -0.3942 -0.3199  0.3129
  606TMC3    C1 9029   2.437   3.729   0.342  0.0008  0.4380  0.0685
  606TMC3    C2 9030   2.546   3.643   0.371  0.5469 -0.1458 -0.3265
  606TMC3    C3 9031   2.565   3.535   0.300 -0.1990 -0.2527  0.2584
  606TMC3    C4 9032   2.373   3.709   0.221 -0.3349 -0.3492 -0.3260
  606TMC3    C5 9033   2.392   3.592   0.159 -0.1495  0.1685  0.2661
  606TMC3    C6 9034   2.484   3.499   0.194  0.3631 -0.0846 -0.3361
  606TMC3     C 9035   2.454   3.862   0.405  0.3315 -0.9947 -0.7447
  606TMC3     O 9036   2.431   3.963   0.340 -0.7278  0.2399 -0.5719
  606TMC3     H 9037   2.615   3.665   0.451 -0.2185 -1.1512  0.6204
  606TMC3    H1 9038   2.299   3.782   0.190  1.6152  0.8384 -2.1107
  606TMC3    H2 9039   2.497   3.407   0.139  0.6505  0.3164 -0.9377
  606TMC3    C7 9040   2.334   3.576   0.026 -0.4235 -0.1530 -0.4078
  606TMC3    C8 9041   2.669   3.440   0.328  0.1140 -0.8882  0.2692
  606TMC3    O1 9042   2.315   3.680  17.704  0.1594 -0.1619  0.2350
  606TMC3    O2 9043   2.693   3.375   0.229 -0.3757  0.1237 -0.6645
  607MPD2     C 9044   0.213   1.138  11.468 -0.6330  0.0205  0.1652
  607MPD2    C1 9045   0.323   1.142  11.557  0.3323  0.0108  0.4633
  607MPD2    C2 9046   0.319   1.065  11.666  0.7341 -0.4562 -1.0311
  607MPD2    C3 9047   0.208   0.987  11.696 -0.5910 -0.2239 -0.8594
  607MPD2    C4 9048   0.104   0.979  11.611  1.0881  0.1163  0.7576
  607MPD2    C5 9049   0.108   1.058  11.496  0.5371  0.0046  0.1083
  607MPD2     H 9050   0.401   1.073  11.737  1.8749  1.0073 -2.5201
  607MPD2    H1 9051   0.022   0.917  11.645  0.5974  0.3239 -0.0523
  607MPD2    H2 9052   0.211   1.202  11.381 -2.7168 -1.5988 -0.9832
  607MPD2    H3 9053   0.023   1.066  11.429 -0.3608 -1.0080  1.1140
  607MPD2     N 9054   0.212   0.910  11.812 -0.6490 -0.0942  0.5355
  607MPD2    H5 9055   0.276   0.943  11.884  0.5359  0.4362 -0.7696
  607MPD2    N1 9056   0.441   1.211  11.531  0.0237  0.1786  0.1350
  607MPD2    H7 9057   0.515   1.201  11.600  0.3305 -3.4459 -0.7281
  608TMC3    C1 9058   0.579   1.379  11.462  0.4698 -0.1880 -0.3529
  608TMC3    C2 9059   0.650   1.338  11.568 -0.4254  0.0407  0.2798
  608TMC3    C3 9060   0.736   1.433  11.627 -1.0924 -0.2440  0.6284
  608TMC3    C4 9061   0.585   1.505  11.414  0.2562  0.2521 -0.9497
  608TMC3    C5 9062   0.665   1.600  11.476  0.4537  0.2724  0.5784
  608TMC3    C6 9063   0.744   1.569  11.588  0.4865 -0.4187  0.0877
  608TMC3     C 9064   0.456   1.303  11.436  0.6427 -0.2147 -0.0405
  608TMC3     O 9065   0.385   1.348  11.349  0.4296  0.6427  0.0871
  608TMC3     H 9066   0.681   1.237  11.590 -0.9464  0.4831  3.0159
  608TMC3    H1 9067   0.532   1.528  11.322 -0.4849  1.8596 -0.1245
  608TMC3    H2 9068   0.802   1.633  11.654  1.9051 -1.8371  0.2220
  608TMC3    C7 9069   0.713   1.717  11.397 -0.3248 -0.3923  0.2466
  608TMC3    C8 9070   0.804   1.395  11.754  0.3967  0.1111  0.4666
  608TMC3    O1 9071   0.662   1.727  11.292  0.1390 -0.1593  0.2740
  608TMC3    O2 9072   0.893   1.471  11.783  1.0789  0.2588  0.8790
  609TMC3    C1 9073   4.702   1.385   8.787 -0.5909 -0.6121  0.2062
  609TMC3    C2 9074   0.031   1.465   8.697 -1.0978 -0.6937  0.3072
  609TMC3    C3 9075   0.132   1.406   8.623  1.0666 -0.1995  0.1651
  609TMC3    C4 9076   0.017   1.261   8.820  0.4210 -0.5601  0.1445
  609TMC3    C5 9077   0.113   1.206   8.739 -0.2327  0.3446  0.2349
  609TMC3    C6 9078   0.161   1.267   8.628 -0.0241  0.4071 -0.1382
  609TMC3     C 9079   4.600   1.456   8.874  0.2105  0.3341  0.2493
  609TMC3     O 9080   4.590   1.575   8.857 -0.2122  0.0552 -0.8479
  609TMC3     H 9081   0.030   1.573   8.705 -0.8450 -0.8000  1.7149
  609TMC3    H1 9082   4.713   1.205   8.903 -0.6832  0.1075  0.0522
  609TMC3    H2 9083   0.245   1.237   8.566  0.2287 -0.2909  0.5548
  609TMC3    C7 9084   0.192   1.089   8.792 -0.1309  0.5147 -0.0127
  609TMC3    C8 9085   0.214   1.501   8.541  0.5694  0.4053  0.3748
  609TMC3    O1 9086   0.182   1.088   8.911  0.4023 -0.4566  0.3120
  609TMC3    O2 9087   0.318   1.456   8.496 -0.0739  0.6462  0.6080
  610TMC3    C1 9088   0.797   0.522  12.166  0.0595  0.0113 -0.1918
  610TMC3    C2 9089   0.829   0.580  12.051 -0.3311  0.1061  0.4233
  610TMC3    C3 9090   0.903   0.700  12.060 -0.6642  0.2068 -0.0259
  610TMC3    C4 9091   0.833   0.572  12.288  0.3389  0.0003  0.6554
  610TMC3    C5 9092   0.911   0.679  12.298  0.1034  1.0001  0.3571
  610TMC3    C6 9093   0.944   0.753  12.182  0.5989  0.1699  0.0297
  610TMC3     C 9094   0.718   0.412  12.178  0.4010  0.1014  0.3383
  610TMC3     O 9095   0.604   0.433  12.220 -0.2060  0.4379  0.0813
  610TMC3     H 9096   0.821   0.534  11.953  1.0334 -0.3288  0.5135
  610TMC3    H1 9097   0.797   0.518  12.376 -1.3306  0.6557  0.3853
  610TMC3    H2 9098   1.020   0.830  12.187  1.5496 -0.8436  1.4639
  610TMC3    C7 9099   0.985   0.716  12.423 -0.4301  0.2130 -0.8508
  610TMC3    C8 9100   0.899   0.798  11.951 -0.2823 -0.2320  0.5852
  610TMC3    O1 9101   1.048   0.819  12.412 -0.3974 -0.4278  0.3180
  610TMC3    O2 9102   0.977   0.891  11.967 -0.4142  0.3650 -0.1747
  611MPD2     C 9103   0.114   1.901  10.380  0.3304  0.3772  0.1434
  611MPD2    C1 9104   0.203   1.803  10.372  0.4296  0.2195  0.3826
  611MPD2    C2 9105   0.340   1.833  10.357  0.2931  0.3968  0.5023
  611MPD2    C3 9106   0.385   1.962  10.349 -0.0253 -0.1699  0.5206
  611MPD2    C4 9107   0.286   2.059  10.366  0.2565 -0.0401 -0.0447
  611MPD2    C5 9108   0.155   2.030  10.380 -0.3416  0.6106 -0.8524
  611MPD2     H 9109   0.411   1.753  10.341  0.0065  0.1988  0.2166
  611MPD2    H1 9110   0.324   2.160  10.355 -2.4437  1.0684  0.8861
  611MPD2    H2 9111   0.007   1.885  10.378  0.3211  0.5168 -0.7003
  611MPD2    H3 9112   0.079   2.105  10.399 -0.5312 -0.0713  1.1268
  611MPD2     N 9113   0.516   2.001  10.316  0.0289  0.1538 -0.1437
  611MPD2    H5 9114   0.530   2.098  10.291  0.0230  0.2612  0.2789
  611MPD2    N1 9115   0.148   1.674  10.361 -0.0789  0.1251  0.0090
  611MPD2    H7 9116   0.047   1.671  10.350 -0.0962  1.1043 -0.1785
  612TMC3    C1 9117   0.734   1.988  10.269 -0.1430 -0.7645 -0.5391
  612TMC3    C2 9118   0.842   1.961  10.340 -0.4066  0.1983 -0.5250
  612TMC3    C3 9119   0.959   2.008  10.301  0.0241  1.1492 -0.2515
  612TMC3    C4 9120   0.738   2.048  10.142 -0.2009  0.5259 -0.0662
  612TMC3    C5 9121   0.865   2.076  10.099  0.0406  0.0520 -0.1519
  612TMC3    C6 9122   0.977   2.064  10.177 -0.5177 -0.4706  0.0157
  612TMC3     C 9123   0.618   1.913  10.304  0.4774  0.3185  0.2811
  612TMC3     O 9124   0.631   1.802  10.357  0.0895  0.6498  0.6071
  612TMC3     H 9125   0.829   1.927  10.443  0.2985  3.7837  0.7528
  612TMC3    H1 9126   0.654   2.083  10.084  0.0200  1.4233  0.1516
  612TMC3    H2 9127   1.081   2.086  10.156 -1.0855  1.1242 -1.0950
  612TMC3    C7 9128   0.879   2.159   9.972  0.5041 -0.1485  0.7715
  612TMC3    C8 9129   1.072   2.010  10.401  0.4204 -0.8384  0.3996
  612TMC3    O1 9130   0.780   2.202   9.916 -0.3305 -0.2681  0.0575
  612TMC3    O2 9131   1.168   2.088  10.390  0.8537  0.0163  0.2526
  613MPD2     C 9132   4.736   3.641  16.203  0.0426  0.1693  0.4554
  613MPD2    C1 9133   4.649   3.678  16.103 -0.5458  0.3533  0.0288
  613MPD2    C2 9134   4.646   3.808  16.060 -0.3427 -0.0099  0.0398
  613MPD2    C3 9135   4.714   3.906  16.129 -0.9613 -0.1466 -0.0995
  613MPD2    C4 9136   0.064   3.872  16.229  0.0360  0.1218  0.6373
  613MPD2    C5 9137   0.083   3.741  16.262 -0.7824 -0.3954  0.4535
  613MPD2     H 9138   4.573   3.833  15.983  1.7102 -1.8715 -2.5430
  613MPD2    H1 9139   0.113   3.952  16.284 -1.1962  2.0810 -1.1042
  613MPD2    H2 9140   0.002   3.542  16.247 -0.4374 -0.0846 -0.1019
  613MPD2    H3 9141   0.153   3.718  16.342 -0.4092 -0.5907  0.0745
  613MPD2     N 9142   4.699   4.045  16.107 -0.5018 -0.0177  0.4542
  613MPD2    H5 9143   0.049   4.095  16.127 -0.7548  1.1285 -1.4012
  613MPD2    N1 9144   4.551   3.593  16.057 -0.7139  0.5419 -0.0297
  613MPD2    H7 9145   4.478   3.627  15.995 -1.3453 -0.2881  0.2654
  614TMC3    C1 9146   4.408   3.411  16.039 -0.8638 -0.1636 -0.6852
  614TMC3    C2 9147   4.334   3.334  16.130 -0.4828 -0.5244 -0.0779
  614TMC3    C3 9148   4.198   3.332  16.118 -0.3615  0.2412 -0.2416
  614TMC3    C4 9149   4.349   3.486  15.943  0.3100 -0.4212  0.5469
  614TMC3    C5 9150   4.211   3.482  15.938  0.2603  0.3725  0.0439
  614TMC3    C6 9151   4.134   3.413  16.025  0.4950  0.5041 -0.4297
  614TMC3     C 9152   4.533   3.463  16.093  0.3692  0.2123  0.3276
  614TMC3     O 9153   4.577   3.388  16.178  0.1882  0.3614  0.0949
  614TMC3     H 9154   4.378   3.275  16.209  0.7131  0.6329  0.1223
  614TMC3    H1 9155   4.403   3.529  15.860  0.5790 -1.9394 -0.0602
  614TMC3    H2 9156   4.027   3.404  16.013  0.5833  0.0922 -0.8944
  614TMC3    C7 9157   4.152   3.591  15.856  0.6086  0.0556 -0.6563
  614TMC3    C8 9158   4.130   3.283  16.241 -0.4838 -0.1405 -0.3823
  614TMC3    O1 9159   4.222   3.669  15.791 -0.0865  0.2898  0.1504
  614TMC3    O2 9160   4.031   3.211  16.231 -0.0781 -0.2138  0.6042
  615MPD2     C 9161   3.825   0.221  16.285  0.4181 -0.1825  0.5188
  615MPD2    C1 9162   3.717   0.167  16.355 -0.2191  0.1763  0.2203
  615MPD2    C2 9163   3.587   0.165  16.300 -0.5272 -0.2623 -0.9104
  615MPD2    C3 9164   3.565   0.245  16.182  0.8096  0.1777  0.0282
  615MPD2    C4 9165   3.676   0.307  16.120 -0.0983  0.3164 -0.1127
  615MPD2    C5 9166   3.801   0.280  16.164 -0.2625 -0.6968  0.2141
  615MPD2     H 9167   3.505   0.115  16.351  1.0597 -2.5275 -0.6302
  615MPD2    H1 9168   3.666   0.351  16.022 -2.3162  2.2088  0.9728
  615MPD2    H2 9169   3.928   0.219  16.317  0.7659  0.2194 -0.5824
  615MPD2    H3 9170   3.881   0.309  16.097 -1.9108  3.2043 -0.1066
  615MPD2     N 9171   3.441   0.289  16.139 -0.6556  0.5019  0.2490
  615MPD2    H5 9172   3.437   0.357  16.064  0.9599 -0.5588 -0.7770
  615MPD2    N1 9173   3.726   0.111  16.483 -0.2715  0.4115 -0.2134
  615MPD2    H7 9174   3.643   0.085  16.535  0.9157  2.0570  2.5345
  616TMC3    C1 9175   3.829   0.088  16.692  0.2395 -0.4721 -0.6734
  616TMC3    C2 9176   3.956   0.090  16.755 -0.0334 -0.4303  0.2260
  616TMC3    C3 9177   3.954   0.108  16.888 -0.0623 -0.5126 -0.0860
  616TMC3    C4 9178   3.718   0.125  16.763  0.1425  0.4184  0.7289
  616TMC3    C5 9179   3.728   0.124  16.891 -0.4022 -0.1738 -0.1905
  616TMC3    C6 9180   3.842   0.110  16.963 -0.6275  0.8089 -0.1689
  616TMC3     C 9181   3.841   0.099  16.548  0.8892  0.4947 -0.3120
  616TMC3     O 9182   3.954   0.078  16.508  0.4131  0.7327 -0.7897
  616TMC3     H 9183   4.053   0.073  16.710  0.0135 -1.4183  0.7157
  616TMC3    H1 9184   3.631   0.156  16.706 -0.0455  0.4832  1.0542
  616TMC3    H2 9185   3.847   0.129  17.069 -1.5322  0.2208 -0.0219
  616TMC3    C7 9186   3.614   0.177  16.964 -0.2138 -0.1919 -0.0823
  616TMC3    C8 9187   4.078   0.105  16.955  0.3769 -0.4004 -0.5552
  616TMC3    O1 9188   3.636   0.216  17.077 -0.0849  0.8533  0.1458
  616TMC3    O2 9189   4.086   0.051  17.062  0.8118 -0.4194 -0.6505
  617MPD2     C 9190   1.915   3.193  13.348  0.5157 -0.1557  0.0373
  617MPD2    C1 9191   1.859   3.216  13.475  0.3222 -0.4055  0.1829
  617MPD2    C2 9192   1.736   3.154  13.506 -0.6362  0.3255 -0.0967
  617MPD2    C3 9193   1.668   3.075  13.418  0.1576  0.0249 -0.4205
  617MPD2    C4 9194   1.728   3.051  13.298  0.0983 -0.2632 -0.0214
  617MPD2    C5 9195   1.840   3.120  13.257  0.2443 -0.3897  0.4584
  617MPD2     H 9196   1.692   3.173  13.603  0.0372 -2.3068  0.7211
  617MPD2    H1 9197   1.678   2.986  13.227  0.3882 -1.0473  0.4962
  617MPD2    H2 9198   2.008   3.240  13.319 -0.7678  2.8343  0.8204
  617MPD2    H3 9199   1.879   3.110  13.156  1.0885 -1.1523  0.8590
  617MPD2     N 9200   1.542   3.019  13.444 -0.3044 -0.3290 -0.9349
  617MPD2    H5 9201   1.510   2.957  13.371  0.7870 -1.9461 -0.0554
  617MPD2    N1 9202   1.937   3.272  13.571  0.8378  0.1775  0.3928
  617MPD2    H7 9203   2.021   3.324  13.546  0.5312 -0.0403 -1.0988
  618TMC3    C1 9204   2.020   3.349  13.772 -0.0796  0.3013  0.8341
  618TMC3    C2 9205   2.123   3.296  13.836  0.1929  0.3824  0.1543
  618TMC3    C3 9206   2.236   3.379  13.866  0.0252 -0.7342  0.4778
  618TMC3    C4 9207   2.025   3.476  13.740 -0.2715  0.2359  0.1735
  618TMC3    C5 9208   2.132   3.557  13.766  0.6310 -0.1036  0.1358
  618TMC3    C6 9209   2.238   3.506  13.835  0.2770 -0.2549 -0.5289
  618TMC3     C 9210   1.924   3.263  13.706 -0.1226  0.1303 -0.3640
  618TMC3     O 9211   1.870   3.181  13.774 -0.3491 -0.3696  0.1816
  618TMC3     H 9212   2.116   3.196  13.877  0.0699 -0.2978 -1.5683
  618TMC3    H1 9213   1.952   3.523  13.675 -1.4427  0.5509  1.7298
  618TMC3    H2 9214   2.328   3.566  13.848 -0.1433 -0.3298  2.8616
  618TMC3    C7 9215   2.116   3.703  13.741 -0.4704  0.2491  0.2783
  618TMC3    C8 9216   2.364   3.321  13.823 -0.9400  0.1016  0.3836
  618TMC3    O1 9217   2.008   3.754  13.760 -0.2761 -0.2583  0.3908
  618TMC3    O2 9218   2.465   3.391  13.815 -0.8405 -0.5496 -0.0027
  619MPD2     C 9219   2.441   0.305  14.150  0.0218  0.3679  0.7468
  619MPD2    C1 9220   2.365   0.192  14.171 -0.0723 -0.0422 -0.1373
  619MPD2    C2 9221   2.267   0.158  14.077  0.1092  0.2995 -0.1818
  619MPD2    C3 9222   2.244   0.229  13.966  0.1104  0.5621 -0.2848
  619MPD2    C4 9223   2.324   0.335  13.944 -0.3431 -0.0396  0.6844
  619MPD2    C5 9224   2.425   0.374  14.035  0.3863 -0.5340  0.2132
  619MPD2     H 9225   2.226   0.059  14.097 -0.8659  1.1225  1.9801
  619MPD2    H1 9226   2.322   0.397  13.856 -0.0306 -1.4127 -0.2863
  619MPD2    H2 9227   2.525   0.332  14.214 -0.5455  1.5309  0.9927
  619MPD2    H3 9228   2.489   0.457  14.010 -1.3996  0.7392 -0.1476
  619MPD2     N 9229   2.144   0.208  13.868 -0.3237 -0.0273  0.0060
  619MPD2    H5 9230   2.153   0.260  13.781 -2.4960 -0.3614 -0.4159
  619MPD2    N1 9231   2.392   0.085  14.257  0.1307  0.7636 -0.5758
  619MPD2    H7 9232   2.333   0.003  14.250 -2.9659  2.9696 -0.0893
  620TMC3    C1 9233   2.582   4.687  14.304 -0.0735 -0.1347 -0.5596
  620TMC3    C2 9234   2.529   4.618  14.195 -0.1365  0.6584 -0.0256
  620TMC3    C3 9235   2.612   4.585  14.092  0.6068 -0.3673  0.0398
  620TMC3    C4 9236   2.717   4.709  14.312 -0.3281  0.1526 -0.2002
  620TMC3    C5 9237   2.797   4.660  14.214  0.4269  0.5799  0.7265
  620TMC3    C6 9238   2.743   4.594  14.111 -1.2837  0.5005  0.6277
  620TMC3     C 9239   2.508   0.077  14.334 -0.2907 -0.0817  0.1960
  620TMC3     O 9240   2.573   0.165  14.391  0.5385  0.7596 -0.3523
  620TMC3     H 9241   2.426   4.584  14.187  0.0274 -0.2067  1.4985
  620TMC3    H1 9242   2.758   0.038  14.389 -0.4503  0.6432 -0.5509
  620TMC3    H2 9243   2.815   4.555  14.040 -2.8678  0.8553 -1.1723
  620TMC3    C7 9244   2.931   4.710  14.206  0.1200  0.7373 -0.3915
  620TMC3    C8 9245   2.579   4.670  13.980 -0.2705 -0.3291  0.6691
  620TMC3    O1 9246   3.001   4.703  14.304 -0.6112  0.6319  0.6693
  620TMC3    O2 9247   2.668   0.006  13.945 -0.3144 -0.0122  0.4278
  621MPD2     C 9248   0.156   0.342   8.903  0.1978  0.0450  0.8606
  621MPD2    C1 9249   0.109   0.247   8.993  0.0958  0.0717 -0.1022
  621MPD2    C2 9250   0.071   0.299   9.120 -0.0524 -0.5445 -0.5254
  621MPD2    C3 9251   0.070   0.434   9.151  0.1957 -0.2550  0.0535
  621MPD2    C4 9252   0.122   0.523   9.063  0.2582  0.9624 -0.3130
  621MPD2    C5 9253   0.165   0.473   8.942  0.7463  0.1316  0.2343
  621MPD2     H 9254   0.043   0.222   9.192 -1.3443  2.3302  2.0570
  621MPD2    H1 9255   0.143   0.626   9.089  3.2654  0.3732 -0.3145
  621MPD2    H2 9256   0.193   0.310   8.806  0.2820 -0.5149  1.0779
  621MPD2    H3 9257   0.207   0.538   8.866  1.1291  1.0092  1.2055
  621MPD2     N 9258   0.016   0.467   9.274 -0.2302  0.1625  0.0977
  621MPD2    H5 9259   4.721   0.383   9.322  1.1306  0.2078  1.0697
  621MPD2    N1 9260   0.078   0.112   8.969 -0.0709  0.4145  0.3900
  621MPD2    H7 9261   0.061   0.057   9.052  0.6405  0.8996  0.8537
  622TMC3    C1 9262   4.726   4.652   8.850 -0.1346 -0.7887  0.6463
  622TMC3    C2 9263   4.646   4.621   8.961  0.7098  0.0085  0.5342
  622TMC3    C3 9264   4.551   4.522   8.941  0.3166  0.1018 -0.0174
  622TMC3    C4 9265   4.699   4.592   8.728  0.1472  0.9890  0.1660
  622TMC3    C5 9266   4.617   4.481   8.722 -0.5281  0.0193 -0.4251
  622TMC3    C6 9267   4.545   4.442   8.827 -0.4895 -0.2436  0.4910
  622TMC3     C 9268   0.058   0.054   8.848  0.6259  0.0241  0.5044
  622TMC3     O 9269   0.107   0.083   8.740  0.1912  0.2449  0.5896
  622TMC3     H 9270   4.646   4.683   9.049  0.3774  0.9304 -0.1139
  622TMC3    H1 9271   0.025   4.615   8.641 -0.6121 -0.1831 -0.6901
  622TMC3    H2 9272   4.478   4.357   8.831 -0.3167 -0.4329 -0.4815
  622TMC3    C7 9273   4.628   4.395   8.604  0.1710  0.0500 -1.5774
  622TMC3    C8 9274   4.449   4.510   9.047  0.5380 -0.6816 -0.5566
  622TMC3    O1 9275   4.728   4.410   8.538  0.4241  0.1993 -0.1704
  622TMC3    O2 9276   4.494   4.505   9.160 -0.2765  0.3934  0.1628
  623MPD2     C 9277   1.789   0.126  15.784 -0.0867 -0.3023 -0.6434
  623MPD2    C1 9278   1.719   0.060  15.886 -0.1506  0.2578 -0.1503
  623MPD2    C2 9279   1.779   0.034  16.006  0.2760 -0.2703  0.0882
  623MPD2    C3 9280   1.913   0.064  16.033 -0.4614  0.2724  0.0059
  623MPD2    C4 9281   1.984   0.126  15.933 -0.1151  0.0233  0.4804
  623MPD2    C5 9282   1.920   0.157  15.819 -0.0490  0.2694  0.7491
  623MPD2     H 9283   1.722   4.719  16.082  1.2747  0.4333  1.2998
  623MPD2    H1 9284   2.090   0.146  15.942 -0.2690  0.9709  0.1483
  623MPD2    H2 9285   1.746   0.153  15.689 -1.1746 -3.1270 -0.9607
  623MPD2    H3 9286   1.973   0.213  15.743 -0.8968  0.0857  0.0314
  623MPD2     N 9287   1.959   0.028  16.161 -0.2541  0.2127  0.4297
  623MPD2    H5 9288   1.893   4.709  16.215  1.2936 -1.2110  0.8597
  623MPD2    N1 9289   1.577   0.034  15.866 -0.0094 -0.7086  0.4830
  623MPD2    H7 9290   1.534   0.070  15.781 -1.2490 -4.0718 -0.2881
  624TMC3    C1 9291   2.223   4.664  16.538 -0.4519  0.8025  0.3993
  624TMC3    C2 9292   2.108   4.610  16.596 -0.6735  0.5182  0.3731
  624TMC3    C3 9293   1.990   4.632  16.526  0.3318  0.0444 -0.5984
  624TMC3    C4 9294   2.213   0.003  16.417  0.3522  0.5207 -0.1328
  624TMC3    C5 9295   2.091   0.019  16.356  0.1821 -0.4898  0.3117
  624TMC3    C6 9296   1.978   4.698  16.407  0.4407 -1.0828 -0.4922
  624TMC3     C 9297   2.348   4.631  16.600  0.0696  0.2865 -0.1067
  624TMC3     O 9298   2.440   4.702  16.576 -0.1688  0.3255 -0.5897
  624TMC3     H 9299   2.112   4.548  16.685 -1.2961  0.9806  0.7269
  624TMC3    H1 9300   2.297   0.021  16.350  0.8332 -1.6388 -0.0876
  624TMC3    H2 9301   1.877   4.719  16.373 -0.1296 -1.8951  0.6672
  624TMC3    C7 9302   2.080   0.062  16.221  0.4993  0.6069  0.1428
  624TMC3    C8 9303   1.863   4.598  16.585 -0.3229 -0.2071 -0.8249
  624TMC3    O1 9304   2.173   0.133  16.186  0.1049  0.3171 -0.2817
  624TMC3    O2 9305   1.798   4.512  16.530  0.3229 -0.4857  0.2735
  625MPD2     C 9306   2.374   1.519   0.782  0.1984 -0.7836  0.3537
  625MPD2    C1 9307   2.393   1.651   0.816  0.2082 -0.7058 -0.3354
  625MPD2    C2 9308   2.524   1.693   0.834  0.1557 -0.0042 -0.3470
  625MPD2    C3 9309   2.631   1.613   0.806  0.8215 -0.2118  0.0022
  625MPD2    C4 9310   2.604   1.486   0.768  0.5316 -0.2528  0.2528
  625MPD2    C5 9311   2.478   1.438   0.762  0.9652 -0.2290 -0.1386
  625MPD2     H 9312   2.546   1.796   0.859 -0.9941  0.5591 -1.6410
  625MPD2    H1 9313   2.686   1.422   0.735 -0.3776 -0.9529 -0.6473
  625MPD2    H2 9314   2.276   1.472   0.772 -0.0634  0.2004 -1.6883
  625MPD2    H3 9315   2.454   1.339   0.726  0.6937 -0.1860 -0.0761
  625MPD2     N 9316   2.761   1.668   0.817  0.4742 -0.7815  0.1061
  625MPD2    H5 9317   2.768   1.769   0.823  3.3501 -0.8272 -2.4076
  625MPD2    N1 9318   2.280   1.731   0.816  0.4096  0.3694  0.3395
  625MPD2    H7 9319   2.197   1.680   0.789 -1.0829  2.2107  1.4367
  626TMC3    C1 9320   2.154   1.929   0.849 -0.0299 -0.4630 -0.4984
  626TMC3    C2 9321   2.092   1.923   0.731  0.1413  0.5443  0.6744
  626TMC3    C3 9322   1.978   1.997   0.710 -0.2438 -0.4131  0.5292
  626TMC3    C4 9323   2.108   2.015   0.944 -0.6167  0.1782 -0.0402
  626TMC3    C5 9324   1.986   2.074   0.929 -0.8424 -0.0963 -0.1948
  626TMC3    C6 9325   1.922   2.069   0.806  0.0482  0.3448  0.0995
  626TMC3     C 9326   2.282   1.860   0.870  0.0438  0.3447 -0.2484
  626TMC3     O 9327   2.363   1.902   0.953  0.1295 -0.0615 -0.4677
  626TMC3     H 9328   2.136   1.872   0.647 -2.0220 -0.2418 -0.0010
  626TMC3    H1 9329   2.159   2.007   1.040  0.7284 -0.5626 -0.7991
  626TMC3    H2 9330   1.835   2.131   0.788  0.5059  0.5419 -1.3975
  626TMC3    C7 9331   1.943   2.153   1.042  0.9688  0.3133  0.5522
  626TMC3    C8 9332   1.943   2.012   0.571  0.8020 -0.1464  0.3343
  626TMC3    O1 9333   2.023   2.165   1.132  0.0867  0.4968  0.6372
  626TMC3    O2 9334   1.965   1.905   0.510 -0.7109  0.3673 -0.2814
  627MPD2     C 9335   0.932   1.904  13.932  0.6021 -0.7899 -0.8213
  627MPD2    C1 9336   0.983   1.861  14.053  0.8126 -0.5910  0.3177
  627MPD2    C2 9337   0.976   1.719  14.083  0.0149  0.0615  0.1343
  627MPD2    C3 9338   0.916   1.623  13.999 -0.0879 -0.0776 -0.2914
  627MPD2    C4 9339   0.874   1.674  13.877 -0.4762 -0.1515 -0.0826
  627MPD2    C5 9340   0.880   1.812  13.850 -0.2073 -0.2376  1.0044
  627MPD2     H 9341   1.010   1.676  14.176  0.8541 -1.3409 -0.8192
  627MPD2    H1 9342   0.842   1.599  13.805 -0.5829  0.2918 -0.4974
  627MPD2    H2 9343   0.920   2.009  13.906  1.0167 -0.3420  0.8213
  627MPD2    H3 9344   0.848   1.848  13.752  0.1723 -0.7759  0.6845
  627MPD2     N 9345   0.886   1.493  14.040 -0.3102 -0.3078  0.7013
  627MPD2    H5 9346   0.900   1.473  14.139  1.7880 -0.0720  0.4590
  627MPD2    N1 9347   1.029   1.955  14.149  0.9075 -0.1363  0.5549
  627MPD2    H7 9348   1.066   1.913  14.234 -2.0001 -1.4412  1.1593
  628TMC3    C1 9349   1.081   2.141  14.261  0.1154  0.0485  0.4849
  628TMC3    C2 9350   1.099   2.068  14.379 -0.0473 -0.0105  0.0627
  628TMC3    C3 9351   1.197   2.120  14.469  0.2098  0.1692  0.3266
  628TMC3    C4 9352   1.121   2.273  14.244 -1.0512  0.2862  0.3524
  628TMC3    C5 9353   1.208   2.322  14.341  0.5918  0.3565  0.5389
  628TMC3    C6 9354   1.237   2.246  14.457 -0.1559 -0.7065 -0.0339
  628TMC3     C 9355   1.014   2.089  14.145 -0.1584  0.1694 -0.0578
  628TMC3     O 9356   0.972   2.166  14.062  0.4984 -0.4464 -0.0075
  628TMC3     H 9357   1.064   1.966  14.391 -0.9216  0.2363 -0.3874
  628TMC3    H1 9358   1.115   2.322  14.148  0.4316  0.8662  0.5432
  628TMC3    H2 9359   1.315   2.283  14.523 -1.2243  0.2700  0.6973
  628TMC3    C7 9360   1.255   2.461  14.336 -0.3637 -0.3429  0.2778
  628TMC3    C8 9361   1.288   2.009  14.507  0.6226 -0.4156  0.0325
  628TMC3    O1 9362   1.326   2.487  14.435  0.6503 -0.5936 -0.1002
  628TMC3    O2 9363   1.409   2.030  14.503 -0.3682 -0.0120 -0.4667
  629MPD2     C 9364   4.552   0.298  17.024 -0.3583 -0.4277 -0.5776
  629MPD2    C1 9365   4.483   0.368  16.929  0.1970  0.0169 -0.1493
  629MPD2    C2 9366   4.360   0.333  16.886  0.7613  0.6762  0.0865
  629MPD2    C3 9367   4.293   0.228  16.943  0.5432 -0.2669  0.8148
  629MPD2    C4 9368   4.361   0.151  17.036 -0.0289 -0.2806 -0.8376
  629MPD2    C5 9369   4.485   0.190  17.080 -0.0112  0.4837 -0.1333
  629MPD2     H 9370   4.308   0.404  16.824 -1.4827 -1.5621 -0.6021
  629MPD2    H1 9371   4.314   0.061  17.076  0.2246  0.1705  0.4770
  629MPD2    H2 9372   4.653   0.321  17.055 -0.7641  1.3235 -0.5502
  629MPD2    H3 9373   4.541   0.131  17.152 -0.9992  0.1339  0.3467
  629MPD2     N 9374   4.165   0.193  16.896  0.6836 -0.2016  0.4465
  629MPD2    H5 9375   4.124   0.246  16.819 -0.0234 -0.9429  0.3220
  629MPD2    N1 9376   4.550   0.485  16.887 -0.3690 -0.4124 -0.3073
  629MPD2    H7 9377   4.641   0.506  16.925 -0.3030  0.8260 -1.1349
  630TMC3    C1 9378   4.605   0.674  16.766 -0.0880 -0.5016 -0.1498
  630TMC3    C2 9379   4.634   0.730  16.641  0.4580 -1.0901 -0.0474
  630TMC3    C3 9380   0.006   0.822  16.642 -0.0176 -0.1496  0.2066
  630TMC3    C4 9381   4.704   0.673  16.864 -0.3854  0.4185 -0.4165
  630TMC3    C5 9382   0.081   0.741  16.849  0.3263 -0.8614  0.1290
  630TMC3    C6 9383   0.097   0.828  16.746 -0.6520  0.0756 -0.5343
  630TMC3     C 9384   4.504   0.574  16.788  0.1589 -0.1901 -0.0809
  630TMC3     O 9385   4.407   0.568  16.713 -0.2480 -0.1468 -0.3968
  630TMC3     H 9386   4.586   0.700  16.548  0.6689  1.6201 -1.0418
  630TMC3    H1 9387   4.676   0.657  16.968 -1.1291 -1.7154 -0.9567
  630TMC3    H2 9388   0.175   0.903  16.744 -0.7167  0.1648  0.4550
  630TMC3    C7 9389   0.175   0.747  16.963  0.1647 -0.6226 -0.9984
  630TMC3    C8 9390   0.046   0.899  16.526 -0.1041  0.4663 -0.4971
  630TMC3    O1 9391   0.156   0.657  17.046  0.7181 -0.0547  0.1304
  630TMC3    O2 9392   0.165   0.925  16.516 -0.0753 -0.1218  0.1580
  631MPD2     C 9393   2.555   0.088  15.591  0.4597 -0.6446 -0.2928
  631MPD2    C1 9394   2.592   0.216  15.575 -0.2322 -0.2415 -0.5207
  631MPD2    C2 9395   2.717   0.256  15.623 -0.3449 -0.0457  0.6258
  631MPD2    C3 9396   2.802   0.170  15.688  0.7413  0.7907 -0.3792
  631MPD2    C4 9397   2.749   0.039  15.714  0.0257 -0.3528 -0.0870
  631MPD2    C5 9398   2.631   4.732  15.654 -0.4988  0.0705 -0.0735
  631MPD2     H 9399   2.760   0.354  15.606 -0.7266  0.0657  0.2853
  631MPD2    H1 9400   2.806   4.692  15.754 -3.1449 -1.6250  1.7367
  631MPD2    H2 9401   2.458   0.059  15.551 -0.8182  2.5922  0.4408
  631MPD2    H3 9402   2.595   4.630  15.666 -1.2748  0.1010 -2.2061
  631MPD2     N 9403   2.927   0.214  15.746 -0.7129  0.3606 -0.0640
  631MPD2    H5 9404   2.951   0.311  15.726  0.1205  0.1390 -0.1474
  631MPD2    N1 9405   2.503   0.297  15.503  0.2786  0.3281  0.2099
  631MPD2    H7 9406   2.416   0.257  15.468  0.6395 -0.9266  0.7404
  632TMC3    C1 9407   2.468   0.493  15.368 -0.6201  0.5053  0.3887
  632TMC3    C2 9408   2.362   0.429  15.310 -0.2484 -0.0614  0.0629
  632TMC3    C3 9409   2.307   0.483  15.201  0.0975  0.1109 -0.1636
  632TMC3    C4 9410   2.541   0.595  15.300 -0.3334  0.0202  0.1947
  632TMC3    C5 9411   2.489   0.634  15.183 -0.0426  0.2159  0.4636
  632TMC3    C6 9412   2.367   0.583  15.128 -0.1071  0.0855  0.3264
  632TMC3     C 9413   2.531   0.426  15.480  0.2224  0.7491 -0.6703
  632TMC3     O 9414   2.622   0.495  15.522 -0.0563  0.1966  0.0991
  632TMC3     H 9415   2.299   0.363  15.368 -1.3956  1.0162  0.0551
  632TMC3    H1 9416   2.624   0.641  15.352  1.7287 -1.4510 -1.8147
  632TMC3    H2 9417   2.327   0.609  15.030 -1.5705 -1.2525  0.5723
  632TMC3    C7 9418   2.565   0.719  15.099  0.3083  0.4814 -0.5156
  632TMC3    C8 9419   2.161   0.498  15.222 -0.7779 -0.5933  0.1437
  632TMC3    O1 9420   2.496   0.776  15.013  0.8986 -0.1556  0.3373
  632TMC3    O2 9421   2.115   0.405  15.287  0.3660  0.0284 -0.6377
  633MPD2     C 9422   1.899   3.370  17.439 -0.2673  0.1648  0.1119
  633MPD2    C1 9423   1.872   3.267  17.347  0.2295  0.7969 -0.5307
  633MPD2    C2 9424   1.907   3.134  17.374 -0.0457 -0.3841  0.0020
  633MPD2    C3 9425   1.949   3.099  17.502  0.0981 -0.1017 -0.1582
  633MPD2    C4 9426   1.973   3.202  17.590 -0.3353 -0.4712 -0.6776
  633MPD2    C5 9427   1.955   3.331  17.558  0.0936  0.5636 -1.0150
  633MPD2     H 9428   1.905   3.059  17.296 -0.1465  0.4373 -0.7816
  633MPD2    H1 9429   2.012   3.194  17.691  1.0303  1.5279 -1.0548
  633MPD2    H2 9430   1.894   3.476  17.421  0.9160  0.4870  1.6450
  633MPD2    H3 9431   1.964   3.407  17.636 -1.3012 -1.5946  1.2387
  633MPD2     N 9432   1.981   2.970  17.545  0.0695  0.5317  0.0443
  633MPD2    H5 9433   2.038   2.965  17.629 -0.2408 -1.3917  0.1356
  633MPD2    N1 9434   1.834   3.294  17.212 -0.0544  0.0861 -0.4883
  633MPD2    H7 9435   1.835   3.214  17.150  0.8668  0.4116 -0.8896
  634TMC3    C1 9436   1.804   3.421  17.008 -0.5363  1.3440  0.4265
  634TMC3    C2 9437   1.875   3.319  16.944 -0.1209 -0.3232  0.6231
  634TMC3    C3 9438   1.897   3.327  16.807 -0.9593  0.0225 -0.0770
  634TMC3    C4 9439   1.774   3.539  16.949 -0.5273 -0.1925  0.2800
  634TMC3    C5 9440   1.805   3.550  16.818 -0.4616 -0.5891 -0.5236
  634TMC3    C6 9441   1.867   3.445  16.754 -0.0180 -0.5690  0.6351
  634TMC3     C 9442   1.789   3.412  17.156 -0.2345  0.5408  0.6797
  634TMC3     O 9443   1.746   3.509  17.219 -0.1202 -0.1119  0.1856
  634TMC3     H 9444   1.886   3.220  16.987  1.3361 -0.4225 -0.0074
  634TMC3    H1 9445   1.733   3.618  17.011 -0.6095 -1.4914  1.8616
  634TMC3    H2 9446   1.882   3.460  16.647 -1.7711 -0.4472  0.3965
  634TMC3    C7 9447   1.787   3.675  16.749  0.8363  0.5344 -0.0775
  634TMC3    C8 9448   1.941   3.217  16.733 -0.3908  0.1426  0.6712
  634TMC3    O1 9449   1.851   3.690  16.647  0.2867 -0.3652  0.0994
  634TMC3    O2 9450   1.927   3.103  16.781 -0.2793 -0.4286  0.2688
  635TMC3    C1 9451   2.334   4.243   0.113 -0.8522  0.2238  0.0419
  635TMC3    C2 9452   2.239   4.172   0.187  0.0125  0.9554  0.2591
  635TMC3    C3 9453   2.149   4.095   0.120  0.1966  0.1931 -0.1146
  635TMC3    C4 9454   2.333   4.249  17.715 -0.6705 -0.1873  0.2022
  635TMC3    C5 9455   2.237   4.170  17.657 -0.8478 -0.0753 -0.1684
  635TMC3    C6 9456   2.156   4.085  17.726  0.6739  0.4760 -0.0026
  635TMC3     C 9457   2.438   4.323   0.178  0.0231  0.2823 -0.7389
  635TMC3     O 9458   2.495   4.406   0.113 -0.5457 -0.3593  0.1981
  635TMC3     H 9459   2.243   4.162   0.294 -1.2089  0.0237  0.2141
  635TMC3    H1 9460   2.408   4.315  17.673 -1.6918  1.0573  0.3068
  635TMC3    H2 9461   2.075   4.039  17.671  1.2116 -1.2728  0.6706
  635TMC3    C7 9462   2.182   4.222  17.532 -0.2752 -0.4732 -0.3206
  635TMC3    C8 9463   2.070   3.982   0.177  0.2450  0.1497  0.2565
  635TMC3    O1 9464   2.070   4.179  17.503  0.8370 -0.2881  0.2756
  635TMC3    O2 9465   2.058   3.888   0.106 -0.2061  0.3660  0.1956
  636MPD2     C 9466   3.751   4.284  15.606  0.1045 -0.5070  0.2309
  636MPD2    C1 9467   3.733   4.278  15.742  0.5524  0.6254 -0.0102
  636MPD2    C2 9468   3.840   4.235  15.820  0.2928  0.3425 -0.8128
  636MPD2    C3 9469   3.957   4.195  15.760 -0.0214  0.0523 -0.1330
  636MPD2    C4 9470   3.966   4.201  15.622  0.4074  0.5490 -0.2185
  636MPD2    C5 9471   3.865   4.253  15.547  0.2373  0.3941  0.5618
  636MPD2     H 9472   3.829   4.229  15.927  1.8626 -1.7159 -0.7707
  636MPD2    H1 9473   4.059   4.171  15.575  0.1025  0.8073 -0.9790
  636MPD2    H2 9474   3.670   4.314  15.540 -0.4465 -0.9073  0.7222
  636MPD2    H3 9475   3.862   4.262  15.439 -0.7124  0.7969  0.6150
  636MPD2     N 9476   4.058   4.142  15.845 -0.4467 -0.5011  0.2775
  636MPD2    H5 9477   4.040   4.150  15.944 -0.2447  2.2532  0.1078
  636MPD2    N1 9478   3.614   4.314  15.811  0.0197 -0.0234 -0.2483
  636MPD2    H7 9479   3.616   4.281  15.906 -0.2878 -2.1169 -0.9746
  637TMC3    C1 9480   4.269   4.078  15.917  0.0232 -0.2638  0.7009
  637TMC3    C2 9481   4.403   4.113  15.918  0.6283  0.3443  0.3643
  637TMC3    C3 9482   4.469   4.070  16.032 -0.3124  0.2568 -0.1841
  637TMC3    C4 9483   4.214   3.988  16.005  0.1466 -1.0144 -0.3467
  637TMC3    C5 9484   4.294   3.950  16.107 -0.6085 -0.5133 -0.9636
  637TMC3    C6 9485   4.421   3.997  16.138 -0.4514 -0.1759  0.2994
  637TMC3     C 9486   4.189   4.117  15.804 -0.6261  0.5945  0.5393
  637TMC3     O 9487   4.243   4.133  15.694 -0.4629  0.2004  0.5710
  637TMC3     H 9488   4.448   4.156  15.830  1.1784  0.9198  0.9209
  637TMC3    H1 9489   4.116   3.949  15.981 -0.1573 -0.1001 -0.5901
  637TMC3    H2 9490   4.483   3.968  16.222  0.5678 -1.0384 -0.7398
  637TMC3    C7 9491   4.254   3.825  16.168  0.3746 -0.1496 -0.2656
  637TMC3    C8 9492   4.612   4.103  16.021 -0.2810 -0.0957  0.1444
  637TMC3    O1 9493   4.179   3.762  16.104 -0.3688  0.0328  0.5111
  637TMC3    O2 9494   4.630   4.209  15.966 -0.1705 -0.1194 -0.0265
  638MPD2     C 9495   3.118   2.835  15.081 -0.3864  0.3077  0.6816
  638MPD2    C1 9496   3.130   2.727  14.988  0.2037  0.1550 -0.0346
  638MPD2    C2 9497   3.152   2.601  15.037 -0.5862  0.9877  0.5157
  638MPD2    C3 9498   3.171   2.579  15.169 -1.0105 -0.5158 -0.1818
  638MPD2    C4 9499   3.167   2.680  15.259  0.2533  0.3061  0.1117
  638MPD2    C5 9500   3.143   2.812  15.215 -0.1684 -0.2469 -0.0590
  638MPD2     H 9501   3.196   2.522  14.976 -2.4448 -0.2446  0.7626
  638MPD2    H1 9502   3.181   2.657  15.364 -1.2533  0.7622  0.4026
  638MPD2    H2 9503   3.098   2.938  15.054 -0.4745  0.2788  0.6371
  638MPD2    H3 9504   3.163   2.902  15.272 -1.2625 -0.5919  0.8723
  638MPD2     N 9505   3.206   2.442  15.200 -0.1822 -0.3201  0.1369
  638MPD2    H5 9506   3.195   2.381  15.120 -0.3261  0.5457 -0.4976
  638MPD2    N1 9507   3.143   2.751  14.855 -0.0317  0.0267 -0.0810
  638MPD2    H7 9508   3.166   2.845  14.824 -1.3460  0.1856 -0.5668
  639TMC3    C1 9509   3.250   2.243  15.313  0.6392  0.9183  0.2588
  639TMC3    C2 9510   3.181   2.176  15.220 -0.8819 -0.2890  0.6816
  639TMC3    C3 9511   3.213   2.047  15.198 -0.1078 -0.0657  0.3372
  639TMC3    C4 9512   3.346   2.191  15.397  0.0897  0.4019  0.6537
  639TMC3    C5 9513   3.383   2.063  15.362 -0.1223 -0.0447 -0.3740
  639TMC3    C6 9514   3.316   1.988  15.258 -0.1822 -0.2810  0.1017
  639TMC3     C 9515   3.237   2.386  15.324 -0.0286 -0.4743 -0.1320
  639TMC3     O 9516   3.265   2.437  15.435  0.8203  0.2267  0.4563
  639TMC3     H 9517   3.093   2.223  15.177 -0.5196  0.2486  0.5354
  639TMC3    H1 9518   3.399   2.238  15.479  0.2409 -1.5470  1.6645
  639TMC3    H2 9519   3.328   1.881  15.245  1.8932 -0.1928  1.2449
  639TMC3    C7 9520   3.513   2.016  15.421  0.6095  0.0125  0.0151
  639TMC3    C8 9521   3.135   1.961  15.107 -0.3891 -0.1379 -0.3215
  639TMC3    O1 9522   3.550   2.055  15.526  0.8775  0.4749  0.1201
  639TMC3    O2 9523   3.152   1.840  15.105 -0.3790  0.2009  0.0300
  640MPD2     C 9524   4.151   1.364  10.060 -0.0257  0.3066 -0.1899
  640MPD2    C1 9525   4.148   1.445   9.947 -0.2291  0.1590  0.6271
  640MPD2    C2 9526   4.042   1.532   9.927  0.0329 -0.5001  0.3185
  640MPD2    C3 9527   3.942   1.555  10.025 -0.9646  0.6377  0.1968
  640MPD2    C4 9528   3.954   1.488  10.139  0.5308 -0.1941  0.3783
  640MPD2    C5 9529   4.047   1.386  10.155 -0.2843  0.2269 -0.7497
  640MPD2     H 9530   4.032   1.576   9.828 -1.6902 -2.0163 -0.1898
  640MPD2    H1 9531   3.875   1.511  10.210 -2.1518  1.5492 -3.2126
  640MPD2    H2 9532   4.234   1.298  10.079 -0.9849 -0.9229 -0.2455
  640MPD2    H3 9533   4.058   1.341  10.252 -0.2943  0.9244 -0.4211
  640MPD2     N 9534   3.834   1.644  10.012 -0.3650  0.0725 -0.2527
  640MPD2    H5 9535   3.769   1.651  10.090  0.8139  0.7034  0.6680
  640MPD2    N1 9536   4.261   1.439   9.859  0.5472  0.3918  0.0208
  640MPD2    H7 9537   4.327   1.367   9.890  0.5468  0.0542 -0.7504
  641TMC3    C1 9538   4.397   1.483   9.677  0.1300  0.4998  0.2551
  641TMC3    C2 9539   4.465   1.364   9.688  0.1669 -0.4335  0.3346
  641TMC3    C3 9540   4.581   1.357   9.618 -1.0250  0.2574 -0.8366
  641TMC3    C4 9541   4.441   1.591   9.604 -0.1220  0.0117  0.0093
  641TMC3    C5 9542   4.565   1.574   9.544 -0.1704 -0.0064 -0.4822
  641TMC3    C6 9543   4.641   1.469   9.556  1.0670  0.6705  0.2313
  641TMC3     C 9544   4.276   1.507   9.746  0.2768  0.2424 -0.4605
  641TMC3     O 9545   4.206   1.603   9.703  0.2392  0.0060 -0.2839
  641TMC3     H 9546   4.416   1.280   9.737 -0.1227 -0.0500  0.6942
  641TMC3    H1 9547   4.394   1.688   9.616  2.4581  1.2491  0.0292
  641TMC3    H2 9548   0.002   1.462   9.508  1.6619  0.7818  1.4368
  641TMC3    C7 9549   4.610   1.689   9.476  0.3944  0.1587 -0.3192
  641TMC3    C8 9550   4.651   1.233   9.591 -0.9504 -0.5324 -0.2691
  641TMC3    O1 9551   4.730   1.710   9.468 -0.2979 -0.4983 -0.0189
  641TMC3    O2 9552   4.730   1.231   9.499  0.1964  0.0951  0.0483
  642TMC3    C1 9553   0.286   2.010  12.289 -0.4749  0.7088  0.3898
  642TMC3    C2 9554   0.401   1.966  12.341 -0.9959  0.0342 -0.5793
  642TMC3    C3 9555   0.428   1.833  12.338 -0.0712 -0.1757  0.0146
  642TMC3    C4 9556   0.194   1.927  12.232  0.2826 -0.1479  1.0180
  642TMC3    C5 9557   0.227   1.792  12.240 -0.5777  0.0640 -0.0919
  642TMC3    C6 9558   0.343   1.744  12.285  0.1518  0.2599 -0.3355
  642TMC3     C 9559   0.258   2.150  12.307  0.0738  0.1311  0.8045
  642TMC3     O 9560   0.355   2.222  12.333  0.5146  0.1904  0.0292
  642TMC3     H 9561   0.464   2.030  12.403 -0.9640 -0.8409  0.2986
  642TMC3    H1 9562   0.106   1.971  12.186  0.4418  0.3703  1.2068
  642TMC3    H2 9563   0.376   1.641  12.284  0.0575  0.2580 -2.2114
  642TMC3    C7 9564   0.140   1.695  12.177 -0.1239  0.2720  0.8134
  642TMC3    C8 9565   0.562   1.786  12.377  0.4634  0.1161  0.1992
  642TMC3    O1 9566   0.056   1.746  12.102  0.5762 -0.4027  0.5312
  642TMC3    O2 9567   0.579   1.664  12.391 -0.4462 -0.7010  0.3456
  643TMC3    C1 9568   3.733   1.555   0.593 -0.0963  0.2702  0.2221
  643TMC3    C2 9569   3.634   1.651   0.592 -0.2608 -0.1228 -0.0331
  643TMC3    C3 9570   3.619   1.725   0.481  0.0612 -0.2684 -0.1243
  643TMC3    C4 9571   3.795   1.512   0.475  0.5882  0.5546  0.0768
  643TMC3    C5 9572   3.751   1.579   0.362  0.6858 -0.0405  0.3142
  643TMC3    C6 9573   3.671   1.686   0.362  0.7209  0.5051 -0.1918
  643TMC3     C 9574   3.809   1.566   0.715  0.1093  0.7524 -0.0063
  643TMC3     O 9575   3.749   1.625   0.805 -0.6989  0.3819  0.0666
  643TMC3     H 9576   3.577   1.681   0.679 -2.9034 -0.4981 -1.6092
  643TMC3    H1 9577   3.869   1.434   0.461  0.6885  0.8819 -1.1529
  643TMC3    H2 9578   3.663   1.730   0.263 -1.2558  1.3328  0.3283
  643TMC3    C7 9579   3.837   1.578   0.244 -0.6250 -0.3832  0.1992
  643TMC3    C8 9580   3.585   1.865   0.493  0.3050  0.0709 -0.3566
  643TMC3    O1 9581   3.870   1.686   0.193  0.2644  0.1380 -0.4391
  643TMC3    O2 9582   3.486   1.893   0.553  0.2274 -0.0204 -0.1509
  644MPD2     C 9583   4.668   1.517   9.937 -0.6314  0.2647  0.2901
  644MPD2    C1 9584   0.032   1.569   9.859  0.1314 -0.0005  0.0991
  644MPD2    C2 9585   0.014   1.698   9.811 -0.3118 -0.6240 -0.0343
  644MPD2    C3 9586   4.637   1.769   9.844 -0.2383  0.3580  0.3156
  644MPD2    C4 9587   4.542   1.722   9.931  0.1235 -0.2147  0.2121
  644MPD2    C5 9588   4.562   1.591   9.976  0.5036 -0.0744  0.0104
  644MPD2     H 9589   0.088   1.747   9.749 -0.7334 -0.1648 -0.1758
  644MPD2    H1 9590   4.463   1.787   9.967  2.5476  1.1042  3.1342
  644MPD2    H2 9591   4.678   1.416   9.975 -0.9089 -0.0360 -0.4387
  644MPD2    H3 9592   4.492   1.551  10.048 -0.6620 -0.5344 -1.3746
  644MPD2     N 9593   4.616   1.882   9.765  0.6177 -0.0997  0.1012
  644MPD2    H5 9594   4.702   1.923   9.729 -0.7002  0.1299 -2.7089
  644MPD2    N1 9595   0.148   1.492   9.833  0.6687  0.1034 -0.0115
  644MPD2    H7 9596   0.141   1.401   9.878  0.4413  0.4821  0.7198
  645TMC3    C1 9597   4.510   2.057   9.659  0.4129  0.3430 -0.3127
  645TMC3    C2 9598   4.628   2.125   9.667  0.3591  1.1301 -0.5384
  645TMC3    C3 9599   4.628   2.248   9.605  0.4279  0.1079 -0.1592
  645TMC3    C4 9600   4.396   2.101   9.588  0.2520  0.3600  0.0381
  645TMC3    C5 9601   4.410   2.217   9.528  0.5602  0.2402  0.2318
  645TMC3    C6 9602   4.523   2.291   9.529  0.9583  0.0594 -0.4466
  645TMC3     C 9603   4.497   1.943   9.748  0.0098 -0.0304  0.2943
  645TMC3     O 9604   4.386   1.888   9.754  0.1665  0.5578 -0.5451
  645TMC3     H 9605   4.696   2.099   9.747 -0.7922 -1.0365 -0.2552
  645TMC3    H1 9606   4.324   2.022   9.575  0.1376  0.4838 -0.0858
  645TMC3    H2 9607   4.523   2.377   9.462 -0.9676 -0.5976 -1.3021
  645TMC3    C7 9608   4.295   2.281   9.468 -0.8019  0.1749 -0.0801
  645TMC3    C8 9609   0.016   2.332   9.606 -0.0863 -0.4877 -0.1881
  645TMC3    O1 9610   4.310   2.398   9.429  0.9864  0.5373 -0.5102
  645TMC3    O2 9611   0.001   2.452   9.614  0.2545  0.1510 -0.1250
  646MPD2     C 9612   3.649   1.262  14.683 -0.6599 -0.0781 -0.8537
  646MPD2    C1 9613   3.582   1.298  14.797  0.3089  0.4991 -0.4513
  646MPD2    C2 9614   3.456   1.350  14.777  0.3039  0.5469 -0.5626
  646MPD2    C3 9615   3.387   1.344  14.653 -0.1732  0.6242  0.0927
  646MPD2    C4 9616   3.465   1.311  14.542 -0.6634 -0.1562  0.4427
  646MPD2    C5 9617   3.602   1.288  14.556  0.1129 -0.0461 -0.4180
  646MPD2     H 9618   3.398   1.370  14.866 -0.7209 -1.0919 -0.8669
  646MPD2    H1 9619   3.426   1.316  14.441  2.9192 -3.1910 -1.0906
  646MPD2    H2 9620   3.748   1.220  14.697 -1.5168 -0.3799  4.2690
  646MPD2    H3 9621   3.661   1.269  14.467  0.7911 -1.5020  0.3288
  646MPD2     N 9622   3.253   1.395  14.645 -0.4889  0.1372  0.2970
  646MPD2    H5 9623   3.226   1.462  14.717  0.5061 -0.3745  1.1501
  646MPD2    N1 9624   3.641   1.252  14.923 -0.6103 -0.6097  0.6406
  646MPD2    H7 9625   3.729   1.201  14.923 -0.8106 -0.9483  1.0731
  647TMC3    C1 9626   3.644   1.191  15.149 -0.4458 -0.1309  0.7281
  647TMC3    C2 9627   3.569   1.172  15.263  0.3232  0.3157 -0.3305
  647TMC3    C3 9628   3.640   1.127  15.372 -0.0945  0.0962 -0.0299
  647TMC3    C4 9629   3.775   1.168  15.133  0.2397 -0.3012  0.3634
  647TMC3    C5 9630   3.846   1.144  15.245 -0.5084  0.0199 -0.2673
  647TMC3    C6 9631   3.779   1.116  15.360  0.0106 -0.3593 -0.1193
  647TMC3     C 9632   3.566   1.252  15.040  0.4935 -0.0582  0.4225
  647TMC3     O 9633   3.463   1.309  15.082 -0.6699 -0.1698 -0.5054
  647TMC3     H 9634   3.465   1.200  15.277 -0.0435 -1.1539 -0.1137
  647TMC3    H1 9635   3.838   1.195  15.049 -3.7886  4.3852 -1.1388
  647TMC3    H2 9636   3.830   1.062  15.439 -1.8090  0.6418  1.7424
  647TMC3    C7 9637   3.967   1.053  15.223  0.1458  0.8033  0.1107
  647TMC3    C8 9638   3.575   1.026  15.449 -0.6428  0.5610  0.6766
  647TMC3    O1 9639   4.039   1.042  15.317  0.2280 -0.2615  0.4345
  647TMC3    O2 9640   3.629   0.990  15.549 -0.3459  0.1267  0.0917
  648TMC3    C1 9641   2.412   3.229  16.067  0.2732  0.2230  0.9536
  648TMC3    C2 9642   2.454   3.108  16.016 -0.0444 -0.3423 -0.0508
  648TMC3    C3 9643   2.460   3.101  15.880 -0.0488  0.1098 -0.1352
  648TMC3    C4 9644   2.400   3.345  15.992 -0.1205 -0.3326  0.6369
  648TMC3    C5 9645   2.412   3.326  15.857 -0.0123  0.0381 -0.2930
  648TMC3    C6 9646   2.430   3.205  15.803 -0.2112 -0.4045 -0.7419
  648TMC3     C 9647   2.406   3.247  16.208 -0.1739  0.9188  0.0766
  648TMC3     O 9648   2.416   3.364  16.248  0.1144 -0.2367 -0.2743
  648TMC3     H 9649   2.473   3.023  16.080 -0.9469 -0.4525  0.0739
  648TMC3    H1 9650   2.373   3.436  16.044  1.0811 -0.1698  0.9587
  648TMC3    H2 9651   2.427   3.198  15.695  0.2864 -1.6579 -0.6719
  648TMC3    C7 9652   2.350   3.423  15.769  0.5173  0.2044 -0.3328
  648TMC3    C8 9653   2.488   2.982  15.817  0.1546  0.3238  0.0292
  648TMC3    O1 9654   2.370   3.427  15.648 -0.2766  0.1100  0.3029
  648TMC3    O2 9655   2.422   2.962  15.714 -0.7617  0.0061 -0.3252
  649TMC3    C1 9656   1.777   4.618  12.491 -0.5577  0.0093 -0.2573
  649TMC3    C2 9657   1.775   0.011  12.500 -0.7081 -0.4023  0.2491
  649TMC3    C3 9658   1.799   0.070  12.618  0.1530 -0.1229 -0.1192
  649TMC3    C4 9659   1.808   4.530  12.593  0.1662  0.0305  0.4150
  649TMC3    C5 9660   1.821   4.592  12.718  0.2814  0.5626 -0.3261
  649TMC3    C6 9661   1.809   4.730  12.731  0.1915  0.4028 -0.4684
  649TMC3     C 9662   1.745   4.562  12.362 -0.2215 -0.0267 -0.2998
  649TMC3     O 9663   1.715   4.635  12.269 -0.0146 -0.1416  0.2898
  649TMC3     H 9664   1.760   0.071  12.410 -0.3739  1.1867  1.2579
  649TMC3    H1 9665   1.836   4.425  12.583 -1.0865 -0.3264  0.6393
  649TMC3    H2 9666   1.796   0.032  12.832 -0.5700 -2.2608  0.4257
  649TMC3    C7 9667   1.779   4.522  12.838  0.2756  0.8440  0.6585
  649TMC3    C8 9668   1.804   0.218  12.616  0.7496 -0.3524  0.8375
  649TMC3    O1 9669   1.804   4.567  12.948  0.3916  0.3220 -0.0833
  649TMC3    O2 9670   1.757   0.278  12.517  0.6967 -0.8862 -0.5588
  650TMC3    C1 9671   4.033   1.234  12.245 -0.0441 -0.3062  0.5634
  650TMC3    C2 9672   3.997   1.348  12.313  0.0832 -0.4083 -0.7333
  650TMC3    C3 9673   4.022   1.473  12.265  0.3365  0.8936  0.4141
  650TMC3    C4 9674   4.086   1.243  12.119  0.0124 -0.2328  0.2814
  650TMC3    C5 9675   4.105   1.366  12.070  0.4746  0.3073  0.4254
  650TMC3    C6 9676   4.072   1.484  12.136 -0.4675 -0.6008  0.6579
  650TMC3     C 9677   4.041   1.114  12.327  0.2931  0.4463  0.5132
  650TMC3     O 9678   3.972   1.107  12.429 -0.5396  0.3763  0.2293
  650TMC3     H 9679   3.950   1.337  12.410  1.4847 -0.5228 -0.0641
  650TMC3    H1 9680   4.122   1.157  12.064  2.2751  0.0615  1.3234
  650TMC3    H2 9681   4.089   1.585  12.101 -0.6137 -0.0323  2.2431
  650TMC3    C7 9682   4.185   1.379  11.953 -0.2987  0.4872 -0.2543
  650TMC3    C8 9683   4.028   1.589  12.348 -0.0047  0.1081  0.8798
  650TMC3    O1 9684   4.180   1.298  11.861 -0.1506 -0.0767  0.4691
  650TMC3    O2 9685   4.095   1.682  12.305 -0.5181 -0.5194 -0.3878
  651MPD2     C 9686   3.342   3.413  10.887 -0.3694 -0.6927  1.0972
  651MPD2    C1 9687   3.306   3.546  10.886 -0.1563 -0.2693 -0.1857
  651MPD2    C2 9688   3.413   3.630  10.883 -0.6985  0.0496 -0.2798
  651MPD2    C3 9689   3.548   3.589  10.874  0.7306  0.4843  0.3849
  651MPD2    C4 9690   3.582   3.454  10.889 -0.1567 -0.5079  0.2866
  651MPD2    C5 9691   3.477   3.372  10.889 -0.2213 -0.1207  0.1171
  651MPD2     H 9692   3.400   3.737  10.893 -1.5012 -0.3062  2.5037
  651MPD2    H1 9693   3.681   3.418  10.865  0.1097  0.0041  0.5931
  651MPD2    H2 9694   3.263   3.338  10.885 -1.0214  0.0388 -0.6652
  651MPD2    H3 9695   3.493   3.265  10.886 -1.3120 -0.3416  1.8087
  651MPD2     N 9696   3.647   3.687  10.871 -0.0286  0.3106  0.0206
  651MPD2    H5 9697   3.609   3.779  10.849 -0.8968 -0.0502  0.0231
  651MPD2    N1 9698   3.180   3.609  10.881  0.0780  0.9893 -0.1844
  651MPD2    H7 9699   3.170   3.709  10.894  1.8633  1.1778 -0.3091
  652TMC3    C1 9700   4.086   3.834  10.787 -0.2385 -0.6459  0.3700
  652TMC3    C2 9701   4.000   3.734  10.820 -0.0298 -0.1267  0.1428
  652TMC3    C3 9702   3.873   3.775  10.847  0.7283 -0.3258  0.7222
  652TMC3    C4 9703   4.060   3.967  10.792  0.4926  0.6230  0.6532
  652TMC3    C5 9704   3.932   4.005  10.815  0.2564 -0.4462 -0.4189
  652TMC3    C6 9705   3.838   3.906  10.843 -0.2647 -0.6732  0.7278
  652TMC3     C 9706   4.219   3.786  10.755 -0.3405  0.0626  0.7015
  652TMC3     O 9707   4.270   3.688  10.811  0.5038 -0.0092 -0.4503
  652TMC3     H 9708   4.040   3.633  10.815  0.0304 -0.0856 -0.2541
  652TMC3    H1 9709   4.128   4.041  10.751  0.0692  1.0456  0.7021
  652TMC3    H2 9710   3.733   3.934  10.847 -0.0007  1.1529 -4.2221
  652TMC3    C7 9711   3.878   4.111  10.737 -0.2830 -0.3801 -0.6866
  652TMC3    C8 9712   3.783   3.670  10.887 -0.4855 -0.0626  0.1775
  652TMC3    O1 9713   3.760   4.120  10.712 -0.1263 -0.1646  0.4135
  652TMC3    O2 9714   3.841   3.568  10.921 -0.3516  0.1206  0.5984
  653MPD2     C 9715   1.764   3.184   0.109 -0.3559  0.0168  0.9467
  653MPD2    C1 9716   1.688   3.268   0.032 -0.2844  0.5704  0.4365
  653MPD2    C2 9717   1.607   3.204  17.690  0.7993  0.2780 -0.9071
  653MPD2    C3 9718   1.603   3.063  17.684  1.4876 -1.1321  0.0831
  653MPD2    C4 9719   1.679   2.979   0.023 -0.7725  0.2831  0.1050
  653MPD2    C5 9720   1.757   3.045   0.116 -0.0599  0.0529 -0.0738
  653MPD2     H 9721   1.554   3.259  17.613 -2.6173 -0.7484  0.7344
  653MPD2    H1 9722   1.677   2.870   0.024  3.0092  0.2240  0.5553
  653MPD2    H2 9723   1.833   3.227   0.181  0.1576 -1.6902  1.4779
  653MPD2    H3 9724   1.831   2.992   0.174  0.1201  0.7021  0.2789
  653MPD2     N 9725   1.515   3.009  17.589  0.8597  0.6736  0.9393
  653MPD2    H5 9726   1.465   3.079  17.535 -0.6713  0.9564  2.7355
  653MPD2    N1 9727   1.699   3.409   0.032 -0.5663 -0.1877 -0.0249
  653MPD2    H7 9728   1.633   3.468  17.724 -0.2794 -1.2177 -1.6010
  654TMC3    C1 9729   1.405   2.849  17.443  0.2681  0.2055 -0.9181
  654TMC3    C2 9730   1.334   2.944  17.382 -0.3467  1.0334 -0.1626
  654TMC3    C3 9731   1.284   2.914  17.259  0.9576 -0.2277 -0.4294
  654TMC3    C4 9732   1.411   2.717  17.390  0.9154  0.4976  0.1155
  654TMC3    C5 9733   1.344   2.693  17.272  0.6313 -0.1327  0.2033
  654TMC3    C6 9734   1.288   2.789  17.195  0.1306  0.5649  0.5398
  654TMC3     C 9735   1.505   2.874  17.545 -0.0832  0.2797 -0.4734
  654TMC3     O 9736   1.537   2.766  17.596  0.1144 -0.1483 -0.4132
  654TMC3     H 9737   1.331   3.043  17.425  0.1383  0.9172  0.1315
  654TMC3    H1 9738   1.447   2.632  17.448  1.9487 -0.1395 -1.4433
  654TMC3    H2 9739   1.254   2.769  17.094  0.3387  1.4177  0.3055
  654TMC3    C7 9740   1.376   2.574  17.201 -0.8413  0.7075  0.2883
  654TMC3    C8 9741   1.228   3.022  17.179  1.1190 -0.5592 -0.4819
  654TMC3    O1 9742   1.312   2.550  17.099 -0.2561 -0.0703 -0.6679
  654TMC3    O2 9743   1.193   3.124  17.234  0.6234 -0.0022 -0.6472
  655MPD2     C 9744   2.771   3.270  15.846  0.0059  0.1861  0.6009
  655MPD2    C1 9745   2.766   3.373  15.750 -0.7500  0.4826 -0.7050
  655MPD2    C2 9746   2.821   3.342  15.627 -0.0200 -0.7947  0.0098
  655MPD2    C3 9747   2.852   3.210  15.590 -0.2149 -0.0270  0.5208
  655MPD2    C4 9748   2.848   3.113  15.688  0.9871  0.0305  0.9088
  655MPD2    C5 9749   2.809   3.140  15.815  0.0449 -0.4453 -0.4504
  655MPD2     H 9750   2.816   3.420  15.552  2.5475 -0.6191  0.0183
  655MPD2    H1 9751   2.883   3.011  15.673 -1.3878 -0.6840  0.2217
  655MPD2    H2 9752   2.744   3.280  15.950 -0.4370 -0.6471  0.5609
  655MPD2    H3 9753   2.814   3.068  15.895  1.9707  1.0417  0.7615
  655MPD2     N 9754   2.872   3.179  15.452 -0.1766  0.1757  0.0730
  655MPD2    H5 9755   2.862   3.253  15.384  1.3006 -0.6486 -1.0398
  655MPD2    N1 9756   2.719   3.503  15.771 -0.4611  1.1951  0.7440
  655MPD2    H7 9757   2.710   3.564  15.690  1.5861  2.9860  1.8829
  656TMC3    C1 9758   2.612   3.672  15.903 -0.0514  0.1628 -0.0096
  656TMC3    C2 9759   2.522   3.678  16.011  0.0379  0.4923 -0.6744
  656TMC3    C3 9760   2.442   3.788  16.025  0.6271 -0.1322 -0.1416
  656TMC3    C4 9761   2.613   3.765  15.808  0.0179  0.5237 -0.2808
  656TMC3    C5 9762   2.524   3.867  15.826  0.3565 -0.2947  0.2444
  656TMC3    C6 9763   2.445   3.894  15.935  0.2930 -0.2001 -0.3361
  656TMC3     C 9764   2.681   3.546  15.895 -0.9778 -0.5171  0.0319
  656TMC3     O 9765   2.711   3.498  16.003  0.2156 -0.1761 -0.4938
  656TMC3     H 9766   2.511   3.599  16.084 -0.1378 -0.4691 -1.7347
  656TMC3    H1 9767   2.685   3.762  15.727  1.0037 -0.5719  0.6384
  656TMC3    H2 9768   2.384   3.983  15.937  1.1335  0.2837  3.2112
  656TMC3    C7 9769   2.488   3.923  15.699  0.2736 -0.7554 -0.1447
  656TMC3    C8 9770   2.345   3.786  16.134  0.2619 -0.2306 -0.1670
  656TMC3    O1 9771   2.547   3.885  15.599  0.0620  0.0670 -0.2879
  656TMC3    O2 9772   2.323   3.671  16.179  0.2527  0.0232  0.4692
  657TMC3    C1 9773   1.958   2.160  15.262 -0.0423  0.6893  0.1651
  657TMC3    C2 9774   1.995   2.140  15.386  0.4628 -0.4343  0.2532
  657TMC3    C3 9775   1.982   2.248  15.477 -0.0428 -0.0669  0.2689
  657TMC3    C4 9776   1.886   2.271  15.222 -0.7846 -0.1182 -0.2112
  657TMC3    C5 9777   1.870   2.373  15.304  0.0929 -0.0161 -0.2214
  657TMC3    C6 9778   1.908   2.354  15.433 -0.6332  0.4312  0.0027
  657TMC3     C 9779   1.979   2.048  15.164  0.4702  0.2930  0.7946
  657TMC3     O 9780   1.895   2.042  15.078  0.0575  0.6231  0.2191
  657TMC3     H 9781   2.072   2.069  15.414  2.6057  1.3938 -1.0058
  657TMC3    H1 9782   1.864   2.280  15.116 -1.5712 -0.8285 -0.1101
  657TMC3    H2 9783   1.907   2.429  15.510 -1.0924  1.0138 -0.5742
  657TMC3    C7 9784   1.838   2.505  15.256  0.1762 -0.9828  0.6370
  657TMC3    C8 9785   2.066   2.258  15.602  0.3755  0.4825 -0.2961
  657TMC3    O1 9786   1.850   2.592  15.340 -0.3671  0.1977 -0.7020
  657TMC3    O2 9787   2.112   2.368  15.635  0.1803  0.3764 -0.0103
  658MPD2     C 9788   3.302   3.280  14.921 -0.3409 -0.0526 -0.8268
  658MPD2    C1 9789   3.169   3.297  14.884 -0.1989 -0.1590 -0.2884
  658MPD2    C2 9790   3.138   3.340  14.756 -0.2787  0.3636 -0.5218
  658MPD2    C3 9791   3.233   3.377  14.665  0.1831  0.6921  0.6875
  658MPD2    C4 9792   3.366   3.382  14.713 -0.4561  0.3693  0.4748
  658MPD2    C5 9793   3.401   3.338  14.840  1.2839  0.3040  0.3484
  658MPD2     H 9794   3.034   3.337  14.725  0.1252  0.0464 -1.8362
  658MPD2    H1 9795   3.444   3.419  14.647  1.4342 -0.2167  2.3977
  658MPD2    H2 9796   3.338   3.231  15.010 -0.6133 -0.3079 -0.8566
  658MPD2    H3 9797   3.502   3.317  14.874  1.6706  0.3662 -0.7750
  658MPD2     N 9798   3.186   3.424  14.542  0.2161  0.1297 -0.2583
  658MPD2    H5 9799   3.086   3.414  14.523  0.1916  0.5574 -0.3420
  658MPD2    N1 9800   3.071   3.239  14.973  0.8525 -0.0552  0.7442
  658MPD2    H7 9801   3.096   3.243  15.071 -0.5724  1.9241  1.0355
  659TMC3    C1 9802   2.896   3.102  15.035 -0.5982  0.2868  0.0523
  659TMC3    C2 9803   2.930   3.126  15.165 -0.0476  0.3448  0.4519
  659TMC3    C3 9804   2.853   3.050  15.255  0.4788  0.2067 -0.6159
  659TMC3    C4 9805   2.804   3.005  14.990 -0.4125  0.2405  0.1546
  659TMC3    C5 9806   2.734   2.937  15.085 -0.5343  0.5089 -0.1828
  659TMC3    C6 9807   2.766   2.950  15.217 -0.0235  0.5187  0.0239
  659TMC3     C 9808   2.962   3.173  14.929 -0.0102  0.2531  0.2932
  659TMC3     O 9809   2.943   3.134  14.815  0.1565  0.0954  0.9298
  659TMC3     H 9810   3.012   3.189  15.199  1.2367 -0.5845 -0.9129
  659TMC3    H1 9811   2.789   2.987  14.884  1.5212  1.0103 -0.2557
  659TMC3    H2 9812   2.725   2.891  15.298  1.1252  0.0794  0.2766
  659TMC3    C7 9813   2.603   2.882  15.060  0.1829  0.8376 -0.2553
  659TMC3    C8 9814   2.885   3.054  15.402 -0.1694  0.0600  0.0557
  659TMC3    O1 9815   2.553   2.813  15.145 -0.3956 -0.3642  0.1592
  659TMC3    O2 9816   2.891   2.945  15.454  1.0361 -0.0540 -0.0401
  660MPD2     C 9817   1.340   2.306  12.439  0.2571 -0.7684  0.0485
  660MPD2    C1 9818   1.237   2.374  12.500 -0.5724 -1.2899 -0.2627
  660MPD2    C2 9819   1.151   2.310  12.596  0.1704 -0.3315  0.0302
  660MPD2    C3 9820   1.180   2.177  12.632 -0.0176 -0.0986 -0.2723
  660MPD2    C4 9821   1.297   2.120  12.578 -0.6452  0.4404  0.3021
  660MPD2    C5 9822   1.371   2.182  12.481 -0.1356 -0.1540 -0.5195
  660MPD2     H 9823   1.060   2.360  12.626 -0.7880 -0.3071 -2.9391
  660MPD2    H1 9824   1.326   2.026  12.625  1.1114  1.4014  1.1403
  660MPD2    H2 9825   1.410   2.355  12.373  2.4354  0.0112  2.9687
  660MPD2    H3 9826   1.450   2.121  12.440  0.1484  0.0105 -0.2086
  660MPD2     N 9827   1.096   2.093  12.713 -0.0527  0.3486 -0.2938
  660MPD2    H5 9828   1.132   1.999  12.722  0.3253  0.5991  0.8171
  660MPD2    N1 9829   1.216   2.506  12.465  0.3626  0.1206 -0.4423
  660MPD2    H7 9830   1.277   2.547  12.395  4.4603 -4.8132  0.2128
  661TMC3    C1 9831   1.104   2.712  12.444 -0.2546  0.0864 -0.4753
  661TMC3    C2 9832   1.191   2.737  12.339  0.1480 -0.3778  0.0185
  661TMC3    C3 9833   1.142   2.811  12.231  0.6527 -0.0318 -0.4788
  661TMC3    C4 9834   0.975   2.750  12.439  0.3852 -0.4144 -0.3475
  661TMC3    C5 9835   0.931   2.803  12.325  0.5183 -0.7146  0.4983
  661TMC3    C6 9836   1.011   2.822  12.214  1.4426  0.3099  0.4526
  661TMC3     C 9837   1.125   2.598  12.519  0.0986 -0.2367  0.4473
  661TMC3     O 9838   1.066   2.593  12.624  0.3881  0.3362 -0.6582
  661TMC3     H 9839   1.298   2.721  12.344  0.1331 -0.3588  0.3871
  661TMC3    H1 9840   0.900   2.737  12.516  1.1227 -0.8735  0.3018
  661TMC3    H2 9841   0.958   2.871  12.133 -0.3475 -3.0897 -0.4448
  661TMC3    C7 9842   0.795   2.754  12.294  0.6388  0.3521  0.1588
  661TMC3    C8 9843   1.226   2.825  12.115  0.0798  0.2613 -0.3611
  661TMC3    O1 9844   0.711   2.748  12.380 -0.0482 -0.4198  0.2473
  661TMC3    O2 9845   1.324   2.749  12.109  0.3925 -0.2688 -0.0095
  662MPD2     C 9846   1.505   2.268  17.660  0.3215  0.1266 -1.0843
  662MPD2    C1 9847   1.416   2.210  17.572 -0.3331 -0.3421 -0.0307
  662MPD2    C2 9848   1.325   2.287  17.509  0.2947 -0.1308 -0.2008
  662MPD2    C3 9849   1.314   2.420  17.541  0.1108 -0.0255  0.5344
  662MPD2    C4 9850   1.393   2.477  17.635  0.1239 -0.0810 -0.3018
  662MPD2    C5 9851   1.493   2.405  17.696 -0.1708 -0.9396  0.2119
  662MPD2     H 9852   1.244   2.245  17.449  0.4660  2.8584 -2.5209
  662MPD2    H1 9853   1.384   2.583  17.655  1.3239  0.3837 -2.2550
  662MPD2    H2 9854   1.593   2.221  17.702  0.3976  0.0374 -1.3432
  662MPD2    H3 9855   1.570   2.458   0.009 -1.3773 -0.7278  1.7047
  662MPD2     N 9856   1.194   2.490  17.508 -0.4224  0.1494 -0.4338
  662MPD2    H5 9857   1.177   2.561  17.579 -0.4948 -0.1553 -0.1505
  662MPD2    N1 9858   1.422   2.078  17.535 -0.3870  0.2420 -0.6485
  662MPD2    H7 9859   1.364   2.041  17.460  0.0806  0.5825 -1.1858
  663TMC3    C1 9860   1.495   1.854  17.542 -0.0914 -0.7891  0.2645
  663TMC3    C2 9861   1.509   1.750  17.629  0.0484 -0.6416 -0.5497
  663TMC3    C3 9862   1.514   1.618  17.593  0.2341 -0.6271  0.2343
  663TMC3    C4 9863   1.448   1.825  17.418  0.2045 -0.1659  0.2502
  663TMC3    C5 9864   1.414   1.693  17.389 -0.2496  0.0123 -0.0079
  663TMC3    C6 9865   1.468   1.591  17.468 -0.9122  0.5122  0.0013
  663TMC3     C 9866   1.508   1.989  17.590  0.2594  0.7010 -0.0346
  663TMC3     O 9867   1.587   2.003  17.679  0.1542 -0.6136  0.3359
  663TMC3     H 9868   1.555   1.780  17.722 -1.8054  4.7572 -1.3564
  663TMC3    H1 9869   1.417   1.902  17.348  1.4051 -0.6184 -0.7766
  663TMC3    H2 9870   1.437   1.489  17.450  1.8643  0.1930 -2.9901
  663TMC3    C7 9871   1.415   1.672  17.245  0.2961 -0.4034 -1.1585
  663TMC3    C8 9872   1.432   1.542  17.680  0.0774 -0.5020 -0.4814
  663TMC3    O1 9873   1.463   1.764  17.180  0.3962  0.4827  0.3885
  663TMC3    O2 9874   1.461   1.427  17.677  0.7960 -0.1429  0.7187
  664MPD2     C 9875   4.628   0.296  17.720 -0.3488  0.0597 -0.0674
  664MPD2    C1 9876   4.662   0.386   0.079 -0.0928  0.6224  0.4371
  664MPD2    C2 9877   4.583   0.388   0.193 -0.1824 -0.5378 -0.3096
  664MPD2    C3 9878   4.492   0.284   0.221 -0.0075  0.0988  0.5519
  664MPD2    C4 9879   4.480   0.184   0.131 -0.6878  0.1950 -0.1127
  664MPD2    C5 9880   4.539   0.194   0.006  0.7277 -0.5117 -0.1398
  664MPD2     H 9881   4.594   0.464   0.269  0.8381 -0.0124 -0.9825
  664MPD2    H1 9882   4.415   0.098   0.145 -0.8199  0.2481 -0.3845
  664MPD2    H2 9883   4.681   0.295  17.625 -1.3629 -0.8601 -0.6301
  664MPD2    H3 9884   4.518   0.113  17.679 -1.3935 -0.3122  0.2682
  664MPD2     N 9885   4.421   0.289   0.343 -0.1491 -0.0654 -0.0806
  664MPD2    H5 9886   4.426   0.374   0.397  1.0062 -0.8579  1.0702
  664MPD2    N1 9887   0.029   0.483   0.058  0.1638  0.3638  0.3871
  664MPD2    H7 9888   0.049   0.548   0.134  1.3232 -0.5830  0.9060
  665TMC3    C1 9889   4.272   0.235   0.511  0.3785  0.5509 -0.3268
  665TMC3    C2 9890   4.244   0.148   0.613 -0.3176 -0.1883 -0.0097
  665TMC3    C3 9891   4.147   0.200   0.706 -0.0199 -0.5825  0.7438
  665TMC3    C4 9892   4.217   0.358   0.504  0.4361 -0.3871  0.4996
  665TMC3    C5 9893   4.150   0.410   0.610 -1.1322  0.1353  0.2334
  665TMC3    C6 9894   4.108   0.327   0.709  0.0729 -0.2382  0.1561
  665TMC3     C 9895   4.347   0.184   0.397 -0.1227 -0.6567  0.4996
  665TMC3     O 9896   4.330   0.069   0.359 -0.2237 -0.7720  0.1281
  665TMC3     H 9897   4.272   0.044   0.599 -2.2723 -0.8715  1.1406
  665TMC3    H1 9898   4.234   0.427   0.422 -0.8641  1.0712  1.4651
  665TMC3    H2 9899   4.037   0.364   0.783  1.8621 -0.0932  1.7858
  665TMC3    C7 9900   4.131   0.551   0.616  0.0542  0.1114 -0.5108
  665TMC3    C8 9901   4.136   0.125   0.830  0.4367  0.0989 -0.3253
  665TMC3    O1 9902   4.132   0.611   0.508 -0.1860 -0.1448 -0.3818
  665TMC3    O2 9903   4.112   0.184   0.936  0.4942 -1.0129 -0.0069
  666TMC3    C1 9904   4.660   0.602   9.439 -0.2929 -0.1066 -0.3111
  666TMC3    C2 9905   4.687   0.503   9.531 -0.0690 -0.2097  0.0513
  666TMC3    C3 9906   4.635   0.522   9.651 -0.4506 -0.2483  0.1722
  666TMC3    C4 9907   4.594   0.717   9.467 -0.3559  0.2103  0.7131
  666TMC3    C5 9908   4.538   0.726   9.592 -0.0392  0.0256 -0.4659
  666TMC3    C6 9909   4.556   0.627   9.686 -0.1801  0.0159 -0.1901
  666TMC3     C 9910   4.719   0.591   9.311 -1.0867 -0.3083  0.1481
  666TMC3     O 9911   4.721   0.690   9.244 -0.5884  0.3981  0.2110
  666TMC3     H 9912   0.008   0.413   9.509  2.3628  0.7823  2.2525
  666TMC3    H1 9913   4.567   0.787   9.389 -0.4245 -0.5124  0.0868
  666TMC3    H2 9914   4.499   0.625   9.778  1.9845 -2.3246  1.0800
  666TMC3    C7 9915   4.436   0.823   9.622 -0.4836  0.7545  0.5110
  666TMC3    C8 9916   4.649   0.417   9.749  0.2839  0.7787 -0.1589
  666TMC3    O1 9917   4.375   0.795   9.721  0.0263 -0.4752  0.1703
  666TMC3    O2 9918   4.551   0.373   9.803 -0.1000  0.1897 -0.8420
  667MPD2     C 9919   0.220   0.094  14.429  0.4976  0.0817  0.1889
  667MPD2    C1 9920   0.160   0.113  14.546 -0.3603  0.9422  0.0442
  667MPD2    C2 9921   0.057   0.025  14.578  0.8510  0.7222  0.5902
  667MPD2    C3 9922   0.005   4.666  14.487  0.9900  0.2319 -0.9645
  667MPD2    C4 9923   0.073   4.653  14.370  0.9229 -0.5800  0.0728
  667MPD2    C5 9924   0.182   4.730  14.351  0.3195  0.1427  0.0091
  667MPD2     H 9925   0.025   0.043  14.680 -1.4894  0.4409 -0.0882
  667MPD2    H1 9926   0.042   4.572  14.305  1.0331  0.1874 -0.9397
  667MPD2    H2 9927   0.304   0.158  14.403  1.4155 -1.5991 -0.9455
  667MPD2    H3 9928   0.239   4.710  14.261  0.4364 -1.2279  0.3781
  667MPD2     N 9929   4.627   4.583  14.510 -0.1818  0.3397  0.5075
  667MPD2    H5 9930   4.604   4.512  14.442  1.4036 -0.4037  0.7562
  667MPD2    N1 9931   0.192   0.198  14.649  0.4611 -0.0791 -0.0985
  667MPD2    H7 9932   0.132   0.182  14.729  0.9088 -0.3284  0.1857
  668TMC3    C1 9933   0.328   0.347  14.772  0.3923  0.1319 -0.0164
  668TMC3    C2 9934   0.452   0.402  14.780 -0.0961 -0.6681 -1.0464
  668TMC3    C3 9935   0.498   0.437  14.905 -0.3967 -0.0060  0.4763
  668TMC3    C4 9936   0.258   0.318  14.891  0.1811  0.3861 -0.1109
  668TMC3    C5 9937   0.319   0.335  15.005  0.4170  0.4294  0.2140
  668TMC3    C6 9938   0.437   0.392  15.021 -0.0290  0.1752 -0.2298
  668TMC3     C 9939   0.298   0.281  14.650  0.1019  0.2851 -0.5883
  668TMC3     O 9940   0.380   0.294  14.560 -0.2712 -0.1185 -0.8114
  668TMC3     H 9941   0.498   0.434  14.687  1.3943 -0.1627 -0.1244
  668TMC3    H1 9942   0.165   0.262  14.883  0.9650 -1.6105  4.3247
  668TMC3    H2 9943   0.479   0.429  15.113 -1.4304  0.7724  0.1664
  668TMC3    C7 9944   0.269   0.280  15.133  0.4808 -0.0946 -0.3464
  668TMC3    C8 9945   0.542   0.582  14.912 -0.4498  0.2574 -0.3450
  668TMC3    O1 9946   0.335   0.287  15.234 -0.0548  0.2887 -0.1645
  668TMC3    O2 9947   0.487   0.641  15.002  0.2209 -0.7351 -0.3360
  669TMC3    C1 9948   3.001   0.738  14.675 -0.5718 -0.3277  0.5669
  669TMC3    C2 9949   2.909   0.719  14.583 -0.3319 -0.3275  0.6034
  669TMC3    C3 9950   2.949   0.745  14.451 -0.0848 -0.1991 -0.0378
  669TMC3    C4 9951   3.126   0.797  14.655 -0.1834 -0.0330 -0.3681
  669TMC3    C5 9952   3.155   0.825  14.528  0.0103  0.3170  0.2205
  669TMC3    C6 9953   3.074   0.796  14.425  0.0765 -0.7703  0.3655
  669TMC3     C 9954   2.979   0.643  14.791  0.0348  0.6364  0.3157
  669TMC3     O 9955   2.873   0.584  14.799 -0.3558  0.0472  0.3866
  669TMC3     H 9956   2.821   0.660  14.610  0.2347 -1.4222  0.0883
  669TMC3    H1 9957   3.199   0.813  14.734 -1.7336  2.2366  0.6156
  669TMC3    H2 9958   3.093   0.826  14.322 -2.9629  3.4797  0.9920
  669TMC3    C7 9959   3.291   0.871  14.507 -0.1265 -0.6130 -0.4892
  669TMC3    C8 9960   2.848   0.720  14.337  0.1193 -0.3782  0.1968
  669TMC3    O1 9961   3.362   0.907  14.600 -0.4565  0.1287  0.3606
  669TMC3    O2 9962   2.907   0.732  14.232  0.0303 -0.2029  0.3507
  670MPD2     C 9963   1.901   2.781  13.285  0.0872  0.5194 -0.6809
  670MPD2    C1 9964   1.952   2.807  13.412 -0.1049 -0.3207 -0.4432
  670MPD2    C2 9965   1.864   2.780  13.511  0.3866 -0.5606  0.0152
  670MPD2    C3 9966   1.742   2.722  13.497  0.4985  0.1152 -0.5645
  670MPD2    C4 9967   1.702   2.674  13.375  0.0339  0.2886  1.0574
  670MPD2    C5 9968   1.787   2.699  13.272  0.5575  0.4870 -0.1054
  670MPD2     H 9969   1.910   2.793  13.608  2.2370  1.3782 -1.1256
  670MPD2    H1 9970   1.624   2.601  13.356  1.7028 -1.9448  2.8182
  670MPD2    H2 9971   1.967   2.800  13.201  0.7347  0.8130 -0.1036
  670MPD2    H3 9972   1.770   2.663  13.172  1.9829  1.0592 -0.5558
  670MPD2     N 9973   1.665   2.700  13.619 -0.2375  0.1075 -0.3715
  670MPD2    H5 9974   1.703   2.737  13.705  0.4122 -0.1716 -0.5371
  670MPD2    N1 9975   2.075   2.873  13.435  0.3622 -0.2010  0.6088
  670MPD2    H7 9976   2.088   2.920  13.525  1.0238 -0.4031  0.6213
  671TMC3    C1 9977   1.493   2.625  13.758 -0.3477 -0.5480 -0.0421
  671TMC3    C2 9978   1.574   2.641  13.871 -0.1844  0.3642  0.0112
  671TMC3    C3 9979   1.522   2.566  13.976  0.1765 -0.4901 -0.3347
  671TMC3    C4 9980   1.361   2.589  13.753 -0.0028  0.6487 -0.2734
  671TMC3    C5 9981   1.321   2.514  13.860 -0.1373 -0.5570 -1.1780
  671TMC3    C6 9982   1.399   2.505  13.974 -0.4094  0.8527  0.5093
  671TMC3     C 9983   1.543   2.638  13.621  0.2266  0.5576  0.2930
  671TMC3     O 9984   1.476   2.598  13.529 -0.0304 -1.0056 -0.2796
  671TMC3     H 9985   1.682   2.652  13.862 -0.1196 -0.7000 -0.4634
  671TMC3    H1 9986   1.302   2.584  13.662 -1.8664  0.1485  0.9622
  671TMC3    H2 9987   1.365   2.459  14.066  0.0214 -0.6739 -0.0891
  671TMC3    C7 9988   1.205   2.430  13.852 -0.2956  0.0733  0.1755
  671TMC3    C8 9989   1.604   2.505  14.077  0.3519 -0.2182  0.0913
  671TMC3    O1 9990   1.193   2.335  13.925 -0.3649  0.0971  0.1222
  671TMC3    O2 9991   1.576   2.391  14.110 -0.3468  0.6050 -0.3374
  672MPD2     C 9992   1.543   2.699   1.420 -0.3802 -0.2299  0.5027
  672MPD2    C1 9993   1.633   2.748   1.320  0.2544 -0.0390 -0.4970
  672MPD2    C2 9994   1.744   2.811   1.362  0.5111  0.0032  0.2295
  672MPD2    C3 9995   1.756   2.860   1.488  0.7584  0.0029  0.8405
  672MPD2    C4 9996   1.668   2.812   1.584  0.2991 -1.0046 -0.2718
  672MPD2    C5 9997   1.569   2.720   1.553 -0.6400  1.2349  0.2520
  672MPD2     H 9998   1.823   2.829   1.290  0.5463  1.0770  0.5402
  672MPD2    H1 9999   1.673   2.847   1.686  1.5725 -0.1972 -0.6134
  672MPD2    H210000   1.465   2.629   1.390 -0.7431  0.3524  0.0698
  672MPD2    H310001   1.502   2.680   1.627 -0.2936  0.4516  0.1367
  672MPD2     N10002   1.865   2.945   1.522 -0.5100 -0.0523  0.3094
  672MPD2    H510003   1.870   2.957   1.622  2.1369  0.8492  0.0685
  672MPD2    N110004   1.618   2.713   1.183 -0.0582  0.5691 -0.3664
  672MPD2    H710005   1.679   2.759   1.116  0.4072  0.8137  0.2231
  673TMC3    C110006   1.517   2.635   0.992  0.6314 -0.1044  0.1773
  673TMC3    C210007   1.645   2.588   0.956 -0.1012 -0.3712  0.0816
  673TMC3    C310008   1.656   2.554   0.826  0.3820  0.5081  0.4302
  673TMC3    C410009   1.408   2.637   0.909  0.9643  0.2808 -0.1789
  673TMC3    C510010   1.426   2.594   0.783  0.5934 -0.2659 -0.2479
  673TMC3    C610011   1.549   2.547   0.744 -0.2402  0.2426  0.3634
  673TMC3     C10012   1.503   2.657   1.132 -0.0462  0.0379  0.3761
  673TMC3     O10013   1.400   2.621   1.189  0.3145  0.2036  0.0997
  673TMC3     H10014   1.723   2.563   1.028  1.3568  0.0170 -1.3628
  673TMC3    H110015   1.308   2.656   0.945  0.0328 -0.0126 -2.5875
  673TMC3    H210016   1.549   2.522   0.639 -0.0972 -0.9950  0.6679
  673TMC3    C710017   1.341   2.645   0.684 -0.7444  0.4201 -0.3660
  673TMC3    C810018   1.766   2.465   0.779 -0.1630 -0.4263 -0.2877
  673TMC3    O110019   1.311   2.574   0.590  1.6194 -0.1712  0.1010
  673TMC3    O210020   1.740   2.376   0.697 -0.1623  0.4146  0.2673
  674MPD2     C10021   1.113   2.988  17.619 -0.5868 -0.3160  0.9441
  674MPD2    C110022   1.174   3.014  17.737 -0.5149  0.0705 -0.2132
  674MPD2    C210023   1.159   3.143   0.049 -0.3818 -0.1684 -0.4732
  674MPD2    C310024   1.081   3.236  17.736  0.1547 -0.6535 -1.0106
  674MPD2    C410025   1.026   3.207  17.611  0.4845  0.1284  0.3656
  674MPD2    C510026   1.046   3.085  17.548  0.3771  0.4686 -0.8065
  674MPD2     H10027   1.211   3.161   0.143  0.3291  0.3052 -0.9554
  674MPD2    H110028   0.953   3.277  17.572  0.8964  0.3724  0.0320
  674MPD2    H210029   1.118   2.889  17.575 -1.0800  0.6840 -1.3290
  674MPD2    H310030   0.987   3.054  17.462  1.3864 -4.5554  0.3175
  674MPD2     N10031   1.041   3.349   0.053  0.1514 -0.2212  0.0776
  674MPD2    H510032   0.966   3.400   0.008 -0.7631 -0.0053  1.8489
  674MPD2    N110033   1.240   2.917   0.069  0.1628 -0.3232  0.4638
  674MPD2    H710034   1.291   2.941   0.153  0.4940 -0.5028  0.3155
  675TMC3    C110035   1.301   2.695   0.153 -0.4109 -0.3834 -0.0622
  675TMC3    C210036   1.246   2.566   0.171  0.5725 -0.5596  0.6620
  675TMC3    C310037   1.307   2.496   0.266  0.6238 -0.2915 -0.0955
  675TMC3    C410038   1.397   2.754   0.231 -0.0460  0.3462 -0.3881
  675TMC3    C510039   1.462   2.666   0.313  0.1735 -0.5383 -0.3451
  675TMC3    C610040   1.422   2.542   0.331  0.2114  0.1074  0.3359
  675TMC3     C10041   1.251   2.783   0.041 -0.1284  0.1774 -0.3608
  675TMC3     O10042   1.198   2.712  17.701 -0.4937  0.2396  0.1069
  675TMC3     H10043   1.181   2.513   0.103 -0.5465  1.2136  0.3338
  675TMC3    H110044   1.447   2.838   0.185  0.6386  0.6590  0.9231
  675TMC3    H210045   1.474   2.476   0.399  1.0389  0.4651  0.0549
  675TMC3    C710046   1.575   2.704   0.401 -0.2396  0.0677 -0.1061
  675TMC3    C810047   1.252   2.375   0.314 -0.7563  0.3310 -0.3032
  675TMC3    O110048   1.643   2.617   0.450 -0.8141  0.0049 -0.7628
  675TMC3    O210049   1.171   2.326   0.235  0.5315 -0.0793  0.5036
  676MPD2     C10050   4.505   1.637  10.737  0.0987 -0.1775 -0.6547
  676MPD2    C110051   4.408   1.539  10.754  0.1416  0.1445  0.3617
  676MPD2    C210052   4.446   1.409  10.769 -0.2581  0.1992  0.5897
  676MPD2    C310053   4.579   1.373  10.760 -0.1332 -0.0906 -0.6261
  676MPD2    C410054   4.676   1.465  10.726 -0.6408 -0.1720 -0.1165
  676MPD2    C510055   4.631   1.594  10.722 -0.9605  0.1457 -0.3627
  676MPD2     H10056   4.369   1.335  10.785 -0.5765  0.5944  0.8741
  676MPD2    H110057   0.042   1.436  10.704 -1.0863 -0.6082 -1.6523
  676MPD2    H210058   4.487   1.743  10.725  2.2662  0.2201 -0.4506
  676MPD2    H310059   4.697   1.674  10.691  2.3365 -2.8732 -1.1037
  676MPD2     N10060   4.616   1.244  10.766  0.3105  0.2862  0.3767
  676MPD2    H510061   4.712   1.222  10.741  0.2143  0.3837 -0.0943
  676MPD2    N110062   4.268   1.566  10.738  0.1055  0.0566  0.1711
  676MPD2    H710063   4.209   1.484  10.737  2.1061 -1.3729  0.3588
  677TMC3    C110064   4.066   1.687  10.774 -0.1544 -0.1878  0.6334
  677TMC3    C210065   4.030   1.586  10.859 -0.1844  0.2274 -0.6661
  677TMC3    C310066   3.958   1.614  10.971 -0.4833  1.0129  0.3185
  677TMC3    C410067   4.029   1.819  10.803 -0.6801 -0.8380 -0.1949
  677TMC3    C510068   3.976   1.844  10.923  0.0409 -0.4913 -0.2894
  677TMC3    C610069   3.937   1.745  11.009 -0.5244 -0.7680  0.0697
  677TMC3     C10070   4.204   1.689  10.741  0.8267 -0.2195 -0.1515
  677TMC3     O10071   4.259   1.799  10.747  0.0002  1.0667  0.1625
  677TMC3     H10072   4.053   1.483  10.835 -1.5144  0.1013 -1.4282
  677TMC3    H110073   4.058   1.901  10.739 -1.6727 -0.1282  0.2611
  677TMC3    H210074   3.903   1.773  11.108  1.4687 -1.4254  0.9348
  677TMC3    C710075   4.024   1.961  10.989  0.0108  0.4726 -0.4075
  677TMC3    C810076   4.006   1.531  11.083  0.4594  0.1687  0.5887
  677TMC3    O110077   3.979   1.983  11.102  0.3579  0.4666  0.3089
  677TMC3    O210078   4.106   1.461  11.068 -0.0598  0.1150 -0.3813
  678MPD2     C10079   0.578   1.028   1.681 -0.0406 -0.0259 -0.0942
  678MPD2    C110080   0.518   1.066   1.562  0.2029 -0.4637  0.4291
  678MPD2    C210081   0.382   1.091   1.552 -0.1562 -0.5224  0.3664
  678MPD2    C310082   0.292   1.091   1.662  0.2605  0.1926 -0.2056
  678MPD2    C410083   0.346   1.047   1.774 -0.5296  0.2748 -0.1812
  678MPD2    C510084   0.486   1.014   1.783 -0.0037  0.0113 -0.1969
  678MPD2     H10085   0.332   1.118   1.460  1.3570  0.5232 -0.1323
  678MPD2    H110086   0.292   1.026   1.865 -0.4414  1.7357  0.2010
  678MPD2    H210087   0.684   1.014   1.698  0.0819  0.4292 -0.5017
  678MPD2    H310088   0.521   0.985   1.881  0.4630  0.6592 -0.1696
  678MPD2     N10089   0.157   1.104   1.640  0.0225 -0.1916 -0.1969
  678MPD2    H510090   0.127   1.104   1.543  2.2842 -0.6971 -0.9039
  678MPD2    N110091   0.585   1.078   1.434  0.3707 -0.0312 -0.4417
  678MPD2    H710092   0.528   1.096   1.352 -0.7394 -0.1839  0.2853
  679TMC3    C110093   0.870   0.988   1.094 -0.0697  0.0286  0.1597
  679TMC3    C210094   0.825   0.974   1.224 -0.0359 -0.4546  0.1852
  679TMC3    C310095   0.751   1.069   1.281  0.2989 -0.4686  0.2664
  679TMC3    C410096   0.834   1.104   1.025 -0.3047 -0.3903  0.0613
  679TMC3    C510097   0.751   1.192   1.079 -0.3367  0.1393 -0.0086
  679TMC3    C610098   0.705   1.176   1.209 -0.5044 -0.2915 -0.3500
  679TMC3     C10099   0.918   0.876   1.021  0.0842 -0.2469 -0.2633
  679TMC3     O10100   0.992   0.906   0.927  0.3466 -0.5365  0.4099
  679TMC3     H10101   0.861   0.891   1.283  2.2904 -1.2469 -2.3318
  679TMC3    H110102   0.867   1.120   0.923 -0.8853 -0.8936 -0.2033
  679TMC3    H210103   0.661   1.255   1.269 -0.2398  0.0733 -0.6375
  679TMC3    C710104   0.729   1.318   1.015  0.3000  0.0195 -0.0184
  679TMC3    C810105   0.715   1.044   1.412 -0.5449  0.0479 -0.4519
  679TMC3    O110106   0.795   1.348   0.914  0.8400 -0.2177  0.3831
  679TMC3    O210107   0.790   0.980   1.487 -0.1397  0.2366  0.2798
  680MPD2     C10108   1.205   0.203  13.214  0.4930  0.2039 -0.3744
  680MPD2    C110109   1.263   0.128  13.312 -0.9165  0.0301  0.1369
  680MPD2    C210110   1.348   0.183  13.397  0.4165 -0.6058 -0.0599
  680MPD2    C310111   1.368   0.320  13.392  0.1419 -0.6280  0.1705
  680MPD2    C410112   1.310   0.400  13.293  0.0747  0.9321  0.2874
  680MPD2    C510113   1.233   0.336  13.199  0.0539 -0.9005  0.8470
  680MPD2     H10114   1.395   0.115  13.468 -0.4262 -0.8913  0.2177
  680MPD2    H110115   1.328   0.507  13.283  0.5543  0.7623 -0.6549
  680MPD2    H210116   1.139   0.158  13.141  2.0359 -0.9342 -1.0706
  680MPD2    H310117   1.177   0.386  13.121  1.3650  0.2646  0.6587
  680MPD2     N10118   1.457   0.389  13.486  0.6567 -0.3314 -0.1097
  680MPD2    H510119   1.470   0.490  13.482 -0.1099 -0.2596 -0.8679
  680MPD2    N110120   1.258   4.720  13.309  0.9434 -0.4450  0.3352
  680MPD2    H710121   1.307   4.673  13.384  1.8348 -1.0865 -0.6696
  681TMC3    C110122   1.160   4.512  13.293 -0.7245 -0.8509  0.0155
  681TMC3    C210123   1.047   4.447  13.344 -0.1220 -0.6157 -0.2628
  681TMC3    C310124   1.067   4.329  13.408  0.5920 -0.6196  0.2982
  681TMC3    C410125   1.281   4.455  13.303  0.7384 -0.4648  0.6757
  681TMC3    C510126   1.287   4.327  13.349 -0.2278  0.1090  0.3531
  681TMC3    C610127   1.183   4.264  13.404 -0.0908 -0.1660 -0.2242
  681TMC3     C10128   1.150   4.649  13.252  0.5485 -0.2857  0.5248
  681TMC3     O10129   1.057   4.693  13.184 -0.2325  0.4320 -0.5027
  681TMC3     H10130   0.948   4.491  13.351  0.9988  1.4898  2.6575
  681TMC3    H110131   1.365   4.503  13.255 -0.8198  1.3243 -0.2965
  681TMC3    H210132   1.173   4.159  13.429  0.6032 -0.0083  0.7181
  681TMC3    C710133   1.371   4.235  13.274 -0.3198  0.2325 -0.2304
  681TMC3    C810134   0.967   4.282  13.489  0.1192  0.2473 -0.0659
  681TMC3    O110135   1.318   4.127  13.251 -0.2225 -0.5058 -0.7290
  681TMC3    O210136   0.851   4.303  13.449 -0.1040  0.1816 -0.1768
  682MPD2     C10137   3.479   1.357  10.386 -0.0350  0.0737 -0.2988
  682MPD2    C110138   3.564   1.245  10.396  0.2162 -0.3976 -0.1604
  682MPD2    C210139   3.566   1.181  10.519 -0.7483  0.1682  0.1378
  682MPD2    C310140   3.477   1.207  10.621  0.3112 -0.3596 -0.0542
  682MPD2    C410141   3.396   1.315  10.607 -0.2164  0.0096 -0.1113
  682MPD2    C510142   3.401   1.386  10.493  0.4850  0.1970  0.7043
  682MPD2     H10143   3.633   1.096  10.516  0.8226  1.2688  3.9935
  682MPD2    H110144   3.332   1.340  10.691 -1.6929 -2.9905 -0.3438
  682MPD2    H210145   3.473   1.421  10.298 -0.8741 -2.3442 -2.0161
  682MPD2    H310146   3.344   1.477  10.487  1.0498  0.3822 -1.8514
  682MPD2     N10147   3.478   1.143  10.744  0.4629  0.1043  0.1475
  682MPD2    H510148   3.424   1.187  10.817 -1.9634 -0.7267 -1.1713
  682MPD2    N110149   3.643   1.201  10.294 -0.3308  0.2653  0.1630
  682MPD2    H710150   3.709   1.131  10.326 -0.0990 -0.8926 -2.7628
  683TMC3    C110151   3.475   1.010  11.128  0.8168  0.0375  0.0816
  683TMC3    C210152   3.571   0.927  11.166 -0.6972 -0.0722  0.0923
  683TMC3    C310153   3.659   0.878  11.074 -0.4571  0.0349 -0.0867
  683TMC3    C410154   3.450   1.040  10.997 -0.0223  0.7107  0.1645
  683TMC3    C510155   3.534   0.986  10.907 -0.5232  0.0141 -0.1151
  683TMC3    C610156   3.639   0.903  10.943  0.1882 -0.2937 -0.4888
  683TMC3     C10157   3.378   1.042  11.235 -0.3230 -0.3176  0.8930
  683TMC3     O10158   3.313   1.144  11.226  0.3841  0.1805  0.1241
  683TMC3     H10159   3.602   0.917  11.270 -2.2822  2.5140  0.8001
  683TMC3    H110160   3.362   1.096  10.969 -0.3318 -0.3963 -1.0892
  683TMC3    H210161   3.704   0.860  10.867 -0.1250 -0.9499 -0.3869
  683TMC3    C710162   3.530   1.025  10.770 -0.4097 -0.3268 -0.4782
  683TMC3    C810163   3.778   0.797  11.104 -0.2111 -0.5951  0.7970
  683TMC3    O110164   3.594   0.955  10.694 -0.6141 -0.5896  0.3064
  683TMC3    O210165   3.842   0.758  11.007 -0.2045  0.6827  0.3074
  684MPD2     C10166   1.353   0.227  16.472 -0.1905 -0.5674  0.2006
  684MPD2    C110167   1.296   0.286  16.359  0.0892  0.0217 -0.1390
  684MPD2    C210168   1.306   0.420  16.353  0.4690  0.0566 -0.3432
  684MPD2    C310169   1.369   0.498  16.448  0.4899  0.0489  0.3976
  684MPD2    C410170   1.416   0.439  16.559 -0.4250  0.1236  0.3283
  684MPD2    C510171   1.414   0.301  16.569 -0.4326  0.1848  0.2887
  684MPD2     H10172   1.263   0.469  16.266 -1.5147  0.4270  0.8424
  684MPD2    H110173   1.465   0.500  16.635  1.3412 -1.6057  0.5816
  684MPD2    H210174   1.340   0.123  16.498  0.1917 -0.7974 -0.5088
  684MPD2    H310175   1.445   0.256  16.663 -0.0497  1.3783  0.7411
  684MPD2     N10176   1.384   0.640  16.434 -0.4596 -0.4216  0.6680
  684MPD2    H510177   1.423   0.687  16.516  1.3566  1.5667 -1.3360
  684MPD2    N110178   1.239   0.216  16.251 -0.4381 -0.3107 -0.2309
  684MPD2    H710179   1.215   0.272  16.170 -1.5498 -0.5653 -0.0751
  685TMC3    C110180   1.196   0.053  16.103 -0.5590  0.1251 -0.4846
  685TMC3    C210181   1.156   0.157  16.032 -0.5230  0.2829 -0.4660
  685TMC3    C310182   1.223   0.174  15.914 -0.2916 -0.8591  0.3854
  685TMC3    C410183   1.293   4.700  16.063  1.0737  0.5892  0.6362
  685TMC3    C510184   1.359   0.002  15.953 -0.3545  0.0532 -0.0269
  685TMC3    C610185   1.322   0.100  15.871  0.0332 -0.3416 -0.4872
  685TMC3     C10186   1.238   0.077  16.231  0.6838  0.2085  0.3037
  685TMC3     O10187   1.273   4.722  16.304  0.0316  0.0476  0.4004
  685TMC3     H10188   1.065   0.210  16.059  0.0537  0.1293  1.7410
  685TMC3    H110189   1.334   4.619  16.123 -1.1204 -0.2294  1.0167
  685TMC3    H210190   1.356   0.089  15.769  1.1484  0.8064 -0.2346
  685TMC3    C710191   1.499   4.692  15.946 -0.3586  0.0331 -0.1066
  685TMC3    C810192   1.157   0.248  15.811  0.7188  0.2116 -0.0124
  685TMC3    O110193   1.533   4.600  16.023 -0.7432  0.5197  0.3448
  685TMC3    O210194   1.197   0.222  15.699 -0.1114  0.0898 -0.4653
  686MPD2     C10195   2.812   0.680  15.657 -0.4849  0.0307 -0.2687
  686MPD2    C110196   2.836   0.610  15.774 -0.7093  0.6197 -0.0696
  686MPD2    C210197   2.961   0.599  15.829 -0.0096 -0.4555 -0.7809
  686MPD2    C310198   3.062   0.653  15.760  0.5958  0.1309  0.4046
  686MPD2    C410199   3.043   0.723  15.649  0.0884 -0.4154 -0.9655
  686MPD2    C510200   2.921   0.734  15.595 -0.3938  0.2152  0.1043
  686MPD2     H10201   2.967   0.542  15.921  1.0052  0.3702 -0.3350
  686MPD2    H110202   3.125   0.764  15.591 -0.7113 -0.3134 -2.0089
  686MPD2    H210203   2.715   0.695  15.611 -0.2975 -3.2992 -1.7888
  686MPD2    H310204   2.915   0.803  15.512  3.0952 -2.0908 -2.0729
  686MPD2     N10205   3.197   0.641  15.803 -0.2702 -0.1127 -0.1590
  686MPD2    H510206   3.259   0.697  15.746  0.5887  0.3533  1.2310
  686MPD2    N110207   2.723   0.531  15.827  0.3629  0.5340  0.2990
  686MPD2    H710208   2.643   0.536  15.764  0.3293  0.2841  0.3247
  687TMC3    C110209   3.182   0.443  15.945  0.4949 -0.3657 -1.1364
  687TMC3    C210210   3.123   0.353  15.860  0.1360  0.6621 -0.0127
  687TMC3    C310211   3.099   0.224  15.906 -0.5709 -0.5705  0.1341
  687TMC3    C410212   3.220   0.419  16.072 -0.3920  0.0832  0.2713
  687TMC3    C510213   3.199   0.292  16.113  0.2033 -0.3090  0.1779
  687TMC3    C610214   3.130   0.198  16.044  0.0715 -0.0932 -0.1608
  687TMC3     C10215   3.258   0.550  15.882 -0.6368 -0.4400  0.0311
  687TMC3     O10216   3.375   0.536  15.897  0.4927  0.6538  0.2415
  687TMC3     H10217   3.106   0.386  15.758 -1.0625 -0.9853 -0.3351
  687TMC3    H110218   3.272   0.495  16.129  1.8553  0.0125 -1.6683
  687TMC3    H210219   3.158   0.097  16.071 -2.3072 -0.5632  0.5973
  687TMC3    C710220   3.321   0.243  16.192 -0.0836  1.1238 -0.1623
  687TMC3    C810221   2.999   0.149  15.840 -0.1819  0.4071  0.3800
  687TMC3    O110222   3.293   0.158  16.277  0.7071 -0.0172  0.4767
  687TMC3    O210223   2.989   0.030  15.879  0.0479 -0.2602 -0.2111
  688MPD2     C10224   1.668   3.960  17.302  0.0628 -0.2898 -0.2490
  688MPD2    C110225   1.751   3.859  17.354 -0.0250 -0.2171  0.4935
  688MPD2    C210226   1.851   3.810  17.270 -0.4430 -0.9731 -0.1167
  688MPD2    C310227   1.869   3.850  17.139 -0.4653  0.2066  0.1432
  688MPD2    C410228   1.781   3.945  17.091 -0.5041 -0.0088  0.4816
  688MPD2    C510229   1.671   3.986  17.169 -0.1815  0.3889 -0.8322
  688MPD2     H10230   1.917   3.742  17.322 -1.1738 -2.0376 -0.5647
  688MPD2    H110231   1.789   3.977  16.987  0.3597 -1.2195  0.1736
  688MPD2    H210232   1.592   4.001  17.368 -1.2001 -3.5932  0.3655
  688MPD2    H310233   1.607   4.057  17.118 -1.7005 -0.0875  0.4021
  688MPD2     N10234   1.967   3.806  17.049  0.0028  0.2181 -0.2168
  688MPD2    H510235   1.959   3.854  16.959 -1.5510 -0.6132 -0.5130
  688MPD2    N110236   1.752   3.821  17.490  0.4592  0.0221 -0.4784
  688MPD2    H710237   1.815   3.751  17.527 -0.1086  0.1400  0.7341
  689TMC3    C110238   1.713   3.811  17.724  0.3119  0.4501 -1.0561
  689TMC3    C210239   1.678   3.886   0.090 -0.3053  0.3750 -0.3207
  689TMC3    C310240   1.715   3.821   0.198 -0.5924  0.1537  0.4074
  689TMC3    C410241   1.734   3.678  17.718  0.0363 -0.0606 -0.2214
  689TMC3    C510242   1.774   3.619   0.094 -0.4610  0.3480 -0.2584
  689TMC3    C610243   1.764   3.694   0.208 -0.1697  0.5085 -0.3120
  689TMC3     C10244   1.686   3.878  17.597 -0.1332  0.6850  0.3043
  689TMC3     O10245   1.617   3.982  17.602  0.1971  0.2942  0.5096
  689TMC3     H10246   1.639   3.986   0.080 -2.1489 -0.2061  1.2119
  689TMC3    H110247   1.726   3.618  17.629 -0.8220 -2.0166  1.1723
  689TMC3    H210248   1.800   3.660   0.304  2.7023  0.1596 -1.5237
  689TMC3    C710249   1.789   3.479   0.109 -0.6974  0.4052  0.3451
  689TMC3    C810250   1.702   3.884   0.328  1.2289 -0.0051 -0.1286
  689TMC3    O110251   1.850   3.445   0.212 -0.2565 -0.1033 -0.0219
  689TMC3    O210252   1.708   3.814   0.431 -0.8597  0.9907 -0.6807
  690MPD2     C10253   0.050   1.308  15.570 -0.5274  0.2823  0.2880
  690MPD2    C110254   4.668   1.311  15.495 -0.3749 -0.0968  0.3154
  690MPD2    C210255   4.666   1.330  15.357  0.7817  0.1026 -0.9718
  690MPD2    C310256   0.049   1.360  15.287  0.1965 -0.0880 -0.3150
  690MPD2    C410257   0.164   1.364  15.359 -0.3585  0.5377  0.3059
  690MPD2    C510258   0.161   1.329  15.495  0.1290 -0.3594  0.1585
  690MPD2     H10259   4.574   1.327  15.300 -0.8380 -0.2856  1.6624
  690MPD2    H110260   0.263   1.376  15.316 -0.0751 -0.5960  0.6570
  690MPD2    H210261   0.052   1.294  15.677 -1.8112 -1.8900  0.0276
  690MPD2    H310262   0.255   1.316  15.548  0.4664  2.4669  0.2705
  690MPD2     N10263   0.045   1.388  15.149  0.0298 -0.7640 -0.0772
  690MPD2    H510264   4.691   1.414  15.109 -0.0832  1.9121  1.9117
  690MPD2    N110265   4.538   1.283  15.559 -0.0863  0.6217  0.4270
  690MPD2    H710266   4.456   1.294  15.500 -1.6149  2.0099  2.7911
  691TMC3    C110267   4.381   1.202  15.699 -0.4076  0.2388  0.6649
  691TMC3    C210268   4.288   1.243  15.613  0.1574 -0.2483  0.5440
  691TMC3    C310269   4.168   1.175  15.613  0.1754 -0.3221  0.3855
  691TMC3    C410270   4.366   1.090  15.776 -0.1333 -0.0198  0.5129
  691TMC3    C510271   4.247   1.018  15.766  0.1066  0.3795 -0.4469
  691TMC3    C610272   4.148   1.061  15.691 -0.0966  0.1219  0.2136
  691TMC3     C10273   4.519   1.242  15.685 -0.0658  0.3521 -0.3974
  691TMC3     O10274   4.593   1.216  15.781  0.3961 -0.6541 -0.2702
  691TMC3     H10275   4.292   1.340  15.564  0.1478 -0.2541  0.5317
  691TMC3    H110276   4.451   1.044  15.826  0.4310 -0.5376 -0.9293
  691TMC3    H210277   4.058   1.002  15.678  1.1464 -1.5691 -0.7353
  691TMC3    C710278   4.253   0.876  15.813  0.6337  0.0956  0.2319
  691TMC3    C810279   4.055   1.247  15.560 -0.7310  0.1820  0.2749
  691TMC3    O110280   4.350   0.849  15.884 -0.5215  0.2023  0.0036
  691TMC3    O210281   4.082   1.326  15.471 -0.6297 -1.1879  0.1887
  692TMC3    C110282   0.898   1.892  15.804 -0.5913 -0.3802 -0.0016
  692TMC3    C210283   1.009   1.909  15.725  0.0363 -0.2378  0.2742
  692TMC3    C310284   1.042   1.793  15.650 -0.0365 -0.1317 -0.0120
  692TMC3    C410285   0.827   1.780  15.817  0.3494 -0.0162 -0.7275
  692TMC3    C510286   0.888   1.667  15.769  0.6221  0.3198  0.0573
  692TMC3    C610287   1.002   1.672  15.698  0.1346  0.3961  0.0403
  692TMC3     C10288   0.840   2.004  15.872  0.2233 -0.2912  0.5585
  692TMC3     O10289   0.718   1.997  15.885  0.0723  0.2159 -0.0306
  692TMC3     H10290   1.031   2.010  15.690 -2.2840 -0.0165 -0.5691
  692TMC3    H110291   0.726   1.778  15.857  0.9781  0.2768  0.8729
  692TMC3    H210292   1.029   1.589  15.634  1.3009  0.3067  0.6410
  692TMC3    C710293   0.838   1.539  15.823 -0.2295 -0.0203  0.1929
  692TMC3    C810294   1.183   1.794  15.606 -0.9632  0.1645 -0.1911
  692TMC3    O110295   0.717   1.533  15.840 -0.2651 -0.7779 -0.6056
  692TMC3    O210296   1.236   1.905  15.609 -0.7394 -0.1399  0.0106
  693MPD2     C10297   1.330   4.676  10.242 -0.0094 -0.1594  0.3017
  693MPD2    C110298   1.297   0.027  10.349  0.8276  0.1433 -0.8245
  693MPD2    C210299   1.377   0.018  10.465 -0.9921  0.4914 -0.2740
  693MPD2    C310300   1.491   4.677  10.476  0.8589  0.0115 -0.5376
  693MPD2    C410301   1.529   4.606  10.363 -0.0831  0.3889 -0.2157
  693MPD2    C510302   1.447   4.603  10.250 -0.8114 -0.2895 -0.2620
  693MPD2     H10303   1.335   0.070  10.550 -2.0427  1.4011 -1.3548
  693MPD2    H110304   1.619   4.546  10.359 -1.1413 -1.1676 -0.8379
  693MPD2    H210305   1.260   4.654  10.162  0.5671 -1.0377  0.0403
  693MPD2    H310306   1.475   4.541  10.166  0.0624  2.9902 -2.3698
  693MPD2     N10307   1.563   4.639  10.594  0.0514  0.2314  0.0876
  693MPD2    H510308   1.648   4.585  10.581 -0.1455 -0.0473 -0.0483
  693MPD2    N110309   1.177   0.089  10.346  0.5258 -0.7435  0.0240
  693MPD2    H710310   1.116   0.080  10.266  0.3459  1.5328 -0.1066
  694TMC3    C110311   0.998   0.171  10.450  0.4299 -0.4128  0.3125
  694TMC3    C210312   0.923   0.152  10.338  0.0297  0.6806  0.1296
  694TMC3    C310313   0.819   0.065  10.359  0.6523  0.1762  0.7357
  694TMC3    C410314   0.988   0.092  10.563 -0.3771 -0.6355 -0.4389
  694TMC3    C510315   0.880   0.012  10.581  0.4561  0.6363 -0.1724
  694TMC3    C610316   0.792   4.731  10.478 -0.2606  0.1448  0.0358
  694TMC3     C10317   1.133   0.181  10.434  0.9290  0.4285 -0.0478
  694TMC3     O10318   1.191   0.234  10.532  0.6844 -0.2035  0.0076
  694TMC3     H10319   0.934   0.211  10.248  1.3674 -0.1167 -0.2314
  694TMC3    H110320   1.064   0.095  10.640  0.8112 -1.6144 -1.5827
  694TMC3    H210321   0.701   4.673  10.487 -1.3618  1.8790  0.0428
  694TMC3    C710322   0.866   4.685  10.709  0.0535 -0.2783 -0.0172
  694TMC3    C810323   0.724   0.048  10.252 -0.0852  0.1062 -0.9556
  694TMC3    O110324   0.923   0.003  10.806  0.1939 -0.2249  0.0424
  694TMC3    O210325   0.632   4.707  10.275 -0.1793  0.0984  0.1487
  695MPD2     C10326   1.765   1.598  13.518 -0.0657  0.2349  0.3765
  695MPD2    C110327   1.720   1.704  13.597  0.8926 -0.0892 -0.0645
  695MPD2    C210328   1.592   1.750  13.574 -0.2022 -0.0633 -0.4236
  695MPD2    C310329   1.515   1.692  13.474 -0.1188 -1.0058  0.1973
  695MPD2    C410330   1.562   1.578  13.403  0.1849  0.0416  0.3143
  695MPD2    C510331   1.682   1.527  13.440  0.0206 -0.1296  0.9855
  695MPD2     H10332   1.552   1.830  13.635  0.8929  1.7655 -2.0826
  695MPD2    H110333   1.509   1.518  13.330  1.1339 -0.0961 -0.2701
  695MPD2    H210334   1.862   1.552  13.535  0.3456  0.5596 -1.0695
  695MPD2    H310335   1.721   1.434  13.400  1.4009  0.4737  0.9391
  695MPD2     N10336   1.389   1.753  13.441  0.6784  0.1820 -0.5562
  695MPD2    H510337   1.378   1.847  13.478 -1.3137 -0.1757 -0.2378
  695MPD2    N110338   1.802   1.774  13.690  0.1825 -0.5774 -0.6073
  695MPD2    H710339   1.757   1.854  13.735  1.0967  0.6750 -1.9063
  696TMC3    C110340   1.196   1.821  13.335  0.3713 -0.1288  0.7725
  696TMC3    C210341   1.126   1.863  13.448  0.2660 -0.2381 -0.7617
  696TMC3    C310342   1.032   1.961  13.439  0.4644  0.1997  0.1261
  696TMC3    C410343   1.177   1.885  13.214 -0.5608  0.6839  0.7487
  696TMC3    C510344   1.086   1.987  13.208  0.6875  0.0994 -0.1684
  696TMC3    C610345   1.013   2.018  13.316  0.6533 -0.6979 -0.9440
  696TMC3     C10346   1.302   1.716  13.336  0.0352 -0.6723  0.6348
  696TMC3     O10347   1.317   1.629  13.249 -0.2801 -0.2509 -0.2765
  696TMC3     H10348   1.133   1.811  13.543 -0.3041  2.7491  0.9534
  696TMC3    H110349   1.237   1.854  13.129 -1.6897 -1.6867  0.8066
  696TMC3    H210350   0.955   2.110  13.323 -0.2984 -1.3573 -0.0740
  696TMC3    C710351   1.124   2.091  13.116  0.4234 -1.0597  0.8436
  696TMC3    C810352   1.012   2.047  13.558  0.0218 -0.5011  0.1460
  696TMC3    O110353   1.171   2.060  13.007 -0.3216  0.0039  0.2836
  696TMC3    O210354   1.097   2.036  13.646  0.7200  0.1597 -0.3939
  697MPD2     C10355   0.779   3.833  15.862  0.2536  0.8675 -0.0356
  697MPD2    C110356   0.822   3.768  15.749  0.2813 -0.4345 -0.0147
  697MPD2    C210357   0.826   3.839  15.632 -0.0571 -0.6205  0.1106
  697MPD2    C310358   0.802   3.972  15.623  0.2931 -0.2992  1.0958
  697MPD2    C410359   0.763   4.036  15.739 -0.2986  0.6154 -0.1983
  697MPD2    C510360   0.743   3.966  15.858 -0.1857 -0.4025 -0.2219
  697MPD2     H10361   0.860   3.790  15.542  1.8002 -1.8192  1.4693
  697MPD2    H110362   0.737   4.141  15.739 -0.5075  0.5611  1.7827
  697MPD2    H210363   0.769   3.784  15.958 -0.2447  0.7361 -0.1570
  697MPD2    H310364   0.720   4.016  15.952 -2.0928  1.2648 -1.5687
  697MPD2     N10365   0.819   4.022  15.491 -0.3680  0.0995 -0.2627
  697MPD2    H510366   0.855   3.963  15.417  0.4074 -0.6503  0.7115
  697MPD2    N110367   0.851   3.628  15.742  0.7252  0.5039 -0.4604
  697MPD2    H710368   0.872   3.596  15.648  1.3791  0.6890 -0.3746
  698TMC3    C110369   0.854   4.182  15.317 -0.6699  0.1575  0.0338
  698TMC3    C210370   0.913   4.300  15.305  0.0076  0.0324  0.3532
  698TMC3    C310371   0.976   4.331  15.187 -0.0788  0.5969 -0.1531
  698TMC3    C410372   0.836   4.094  15.210  0.0482 -0.6181 -0.1316
  698TMC3    C510373   0.903   4.128  15.097 -0.0647 -0.0819 -0.0749
  698TMC3    C610374   0.971   4.243  15.082 -0.0523  0.2692  0.4911
  698TMC3     C10375   0.802   4.153  15.451  0.2503 -0.3389  0.1065
  698TMC3     O10376   0.778   4.245  15.526  0.7473  0.3095  0.1627
  698TMC3     H10377   0.920   4.369  15.389  2.5809 -0.4116  0.4983
  698TMC3    H110378   0.780   4.004  15.230 -1.6161  0.2687 -0.8419
  698TMC3    H210379   1.002   4.259  14.980 -1.5636 -1.6740 -0.2659
  698TMC3    C710380   0.897   4.040  14.987  0.0631  0.1619 -0.4704
  698TMC3    C810381   1.018   4.469  15.157  0.3089 -0.5908  0.1559
  698TMC3    O110382   0.801   3.963  14.971  0.3466 -0.6479  0.5663
  698TMC3    O210383   0.972   4.552  15.230  0.3490 -0.0239  0.1294
  699TMC3    C110384   0.905   2.030  12.841  0.2121  0.2190 -0.1307
  699TMC3    C210385   0.947   1.901  12.844  0.4244  0.2439 -0.2070
  699TMC3    C310386   0.877   1.817  12.925 -0.5862  0.6269  0.8996
  699TMC3    C410387   0.794   2.072  12.916  0.1855 -0.0237  0.0028
  699TMC3    C510388   0.729   1.987  12.999  0.5055 -0.0140  0.6433
  699TMC3    C610389   0.771   1.860  13.002 -0.1679  0.4143 -0.3015
  699TMC3     C10390   0.967   2.127  12.758  0.1832 -0.1747 -0.5180
  699TMC3     O10391   0.923   2.243  12.754  0.2128 -0.2316 -0.6260
  699TMC3     H10392   1.037   1.868  12.795  0.3632 -1.9698  1.1646
  699TMC3    H110393   0.760   2.175  12.905  0.6366  0.5079  3.7001
  699TMC3    H210394   0.732   1.796  13.080 -1.3203 -0.0882 -1.2933
  699TMC3    C710395   0.594   2.003  13.036 -1.1498  0.4028  0.5739
  699TMC3    C810396   0.954   1.710  12.990 -0.2450 -0.7388  0.3662
  699TMC3    O110397   0.524   1.902  13.034  0.2541 -0.3507 -0.5566
  699TMC3    O210398   0.917   1.682  13.101  0.7764  0.8965  0.9105
  700TMC3    C110399   0.350   4.517  17.470 -0.1005  0.1768  0.1163
  700TMC3    C210400   0.393   4.394  17.483  0.0183  0.1880  0.0117
  700TMC3    C310401   0.493   4.360  17.571 -0.5857  0.3194 -0.1552
  700TMC3    C410402   0.393   4.617  17.553 -0.0417  0.0946  0.3238
  700TMC3    C510403   0.484   4.588  17.647  0.0079  0.6259  0.3900
  700TMC3    C610404   0.537   4.463  17.663 -0.2379  0.1729 -0.6468
  700TMC3     C10405   0.263   4.545  17.361  0.5920 -0.3556  0.2886
  700TMC3     O10406   0.173   4.468  17.332 -0.3204  0.2666 -0.0197
  700TMC3     H10407   0.350   4.324  17.411  3.5143 -1.0654 -0.8315
  700TMC3    H110408   0.372   4.721  17.528  0.9440 -0.2429 -1.9452
  700TMC3    H210409   0.611   4.443  17.741  0.2103 -0.8400 -1.3283
  700TMC3    C710410   0.531   4.701  17.727 -0.0387  0.1633  0.4279
  700TMC3    C810411   0.558   4.229  17.579  0.3452 -0.7043 -0.3705
  700TMC3    O110412   0.643   4.690   0.036 -0.0066  0.5581  0.7423
  700TMC3    O210413   0.626   4.198  17.678  0.1938 -0.0662  0.1331
  701TMC3    C110414   4.728   2.960  15.987  0.4703  0.3248 -0.4061
  701TMC3    C210415   0.065   2.876  15.914 -0.0825 -0.1558  0.4208
  701TMC3    C310416   0.184   2.918  15.857  0.1605  0.5484  0.3115
  701TMC3    C410417   0.031   3.093  15.994  0.3717  0.6587  0.5093
  701TMC3    C510418   0.148   3.132  15.948 -0.0761 -0.3947  0.0424
  701TMC3    C610419   0.227   3.046  15.880 -0.0110  0.9912 -0.2295
  701TMC3     C10420   4.617   2.920  16.068  0.3524  0.8678 -0.1514
  701TMC3     O10421   4.560   2.817  16.038 -0.5328 -0.2061 -0.2473
  701TMC3     H10422   0.041   2.771  15.925 -0.2403 -0.5962 -4.4754
  701TMC3    H110423   4.698   3.172  16.023 -1.7586 -0.9222 -0.2623
  701TMC3    H210424   0.304   3.089  15.817 -0.2171  1.2074 -0.3373
  701TMC3    C710425   0.162   3.274  15.936  0.5618  0.3014  0.6082
  701TMC3    C810426   0.234   2.856  15.732  1.0116  0.0348  0.3888
  701TMC3    O110427   0.062   3.340  15.923 -0.5924  0.4657 -0.4932
  701TMC3    O210428   0.350   2.875  15.708 -0.3852 -0.0908 -0.2047
  702MPD2     C10429   0.365   0.883  10.425 -0.2772  0.7076 -0.6225
  702MPD2    C110430   0.248   0.952  10.425 -0.1886 -0.3314  0.2854
  702MPD2    C210431   0.210   1.020  10.314  0.2012  0.3254  0.0319
  702MPD2    C310432   0.297   1.023  10.207  0.4760  0.8457 -0.1311
  702MPD2    C410433   0.406   0.949  10.201  0.9264  0.4684 -0.5394
  702MPD2    C510434   0.440   0.882  10.313 -0.3341 -0.0661 -0.4893
  702MPD2     H10435   0.111   1.064  10.313 -0.2923 -0.8267 -1.3825
  702MPD2    H110436   0.475   0.961  10.118  0.5885  0.2410 -0.8526
  702MPD2    H210437   0.399   0.833  10.515 -2.1968  0.9016  0.2334
  702MPD2    H310438   0.529   0.820  10.314 -0.4365 -0.1964  0.2351
  702MPD2     N10439   0.275   1.103  10.093 -0.2287 -0.9308 -0.0460
  702MPD2    H510440   0.337   1.069  10.020  1.9599  1.9370  0.5027
  702MPD2    N110441   0.158   0.953  10.529  0.0841 -0.1752 -0.8651
  702MPD2    H710442   0.074   1.008  10.518  0.5615  0.9138  0.9823
  703TMC3    C110443   0.131   1.269  10.191 -0.3572  0.1547  0.5083
  703TMC3    C210444   4.727   1.269  10.207  0.4349  0.0715  0.6165
  703TMC3    C310445   4.669   1.342  10.301  0.3849  0.0845 -0.0281
  703TMC3    C410446   0.213   1.362  10.250 -0.2212 -0.3818  0.0635
  703TMC3    C510447   0.142   1.449  10.331 -0.6594  0.5224 -0.9244
  703TMC3    C610448   0.009   1.439  10.360  0.1478 -0.0420 -1.2039
  703TMC3     C10449   0.185   1.205  10.069 -0.7981  0.4543  0.6095
  703TMC3     O10450   0.162   1.264   9.963 -0.0777  0.5454 -0.0982
  703TMC3     H10451   4.671   1.184  10.169  0.5693 -0.6022  1.9440
  703TMC3    H110452   0.310   1.376  10.205 -0.5373  0.4053 -0.3817
  703TMC3    H210453   4.708   1.479  10.453  1.3525  0.5839 -1.0028
  703TMC3    C710454   0.216   1.561  10.360 -0.0986 -0.1966 -0.3299
  703TMC3    C810455   4.597   1.251  10.393 -0.3051 -0.5010  0.4229
  703TMC3    O110456   0.334   1.537  10.394  0.0021  0.0436  0.2637
  703TMC3    O210457   4.665   1.171  10.451 -0.3830 -0.4647 -0.6475
  704TMC3    C110458   2.790   3.686  12.473  0.1806  1.1124  0.3642
  704TMC3    C210459   2.796   3.623  12.350  0.2786 -0.3085  0.4987
  704TMC3    C310460   2.811   3.487  12.353 -0.0594 -0.0168 -0.0930
  704TMC3    C410461   2.820   3.621  12.587 -0.0201 -0.3437  0.1892
  704TMC3    C510462   2.824   3.485  12.589 -0.1495  0.6690  0.0610
  704TMC3    C610463   2.831   3.415  12.470 -0.3351 -0.1589  0.4940
  704TMC3     C10464   2.697   3.791  12.479 -0.0861 -0.0536 -0.9742
  704TMC3     O10465   2.665   3.827  12.593 -0.0968 -0.4419 -0.3072
  704TMC3     H10466   2.793   3.676  12.255 -0.4480 -0.6416  0.3353
  704TMC3    H110467   2.811   3.679  12.678  0.2022 -1.9116  1.2194
  704TMC3    H210468   2.838   3.307  12.473  2.1624 -0.0174  0.2445
  704TMC3    C710469   2.754   3.426  12.697  0.1540 -0.3113 -0.4517
  704TMC3    C810470   2.722   3.420  12.261  0.2352 -0.1952 -0.1215
  704TMC3    O110471   2.698   3.323  12.664  0.1409 -0.3261 -0.7330
  704TMC3    O210472   2.637   3.350  12.320  0.1047  0.3663  0.2186
  705MPD2     C10473   1.585   1.503  16.455 -0.3890  0.1520 -0.1795
  705MPD2    C110474   1.513   1.596  16.378 -0.1066 -0.7617 -0.6270
  705MPD2    C210475   1.424   1.678  16.441  0.3082 -0.5484  0.4967
  705MPD2    C310476   1.411   1.680  16.577  0.0019 -0.0643  0.3068
  705MPD2    C410477   1.481   1.593  16.652 -0.3022 -0.0374  0.5524
  705MPD2    C510478   1.548   1.491  16.592 -0.3795 -0.2353 -0.0085
  705MPD2     H10479   1.358   1.737  16.378  2.3367 -0.1693 -1.2963
  705MPD2    H110480   1.469   1.589  16.760  0.5930 -1.5123  0.5831
  705MPD2    H210481   1.653   1.428  16.416  1.0507  0.6958  1.2771
  705MPD2    H310482   1.605   1.425  16.656 -0.3630 -0.3464 -0.1364
  705MPD2     N10483   1.333   1.769  16.653  0.6350 -0.4613  0.5269
  705MPD2    H510484   1.346   1.763  16.754  1.4080  3.7473  0.7008
  705MPD2    N110485   1.542   1.616  16.247 -0.6426  0.4566 -0.2309
  705MPD2    H710486   1.494   1.700  16.216  0.0050  0.4437 -1.2795
  706TMC3    C110487   1.659   1.601  15.810 -0.5482 -0.1013 -0.1845
  706TMC3    C210488   1.657   1.738  15.810  0.7106  0.2625 -0.5132
  706TMC3    C310489   1.658   1.815  15.925  0.0949 -0.0361 -0.1855
  706TMC3    C410490   1.663   1.535  15.933  0.3195 -0.6175  0.4717
  706TMC3    C510491   1.651   1.615  16.041  0.4246 -0.3455 -0.3607
  706TMC3    C610492   1.651   1.751  16.043 -0.0549 -0.6111  0.1960
  706TMC3     C10493   1.629   1.537  15.683  0.5344 -0.1452 -1.1111
  706TMC3     O10494   1.597   1.612  15.591 -0.2362  0.0239 -0.0326
  706TMC3     H10495   1.652   1.798  15.720  1.4398  0.2013 -0.5939
  706TMC3    H110496   1.645   1.428  15.941 -3.3823  0.0136  0.7251
  706TMC3    H210497   1.635   1.809  16.133  0.0100 -2.9982  1.7423
  706TMC3    C710498   1.624   1.542  16.163 -0.0676 -0.1872  0.3473
  706TMC3    C810499   1.608   1.949  15.911 -0.4043  0.3147  0.4694
  706TMC3    O110500   1.677   1.431  16.180  0.2821 -0.3501 -0.3060
  706TMC3    O210501   1.613   1.996  15.799  0.0252  0.3713  0.0764
  707TMC3    C110502   3.725   0.695   0.969  0.0281 -0.1417 -0.6713
  707TMC3    C210503   3.766   0.673   1.100 -1.1020 -0.3894 -0.3866
  707TMC3    C310504   3.712   0.760   1.202 -0.1121  0.0374 -0.0075
  707TMC3    C410505   3.631   0.797   0.939 -0.4532  0.1082  0.2809
  707TMC3    C510506   3.584   0.880   1.038 -0.1791 -0.4506  0.4784
  707TMC3    C610507   3.632   0.864   1.164  0.2587 -0.0995  0.0665
  707TMC3     C10508   3.769   0.610   0.864 -0.1819  0.1230 -0.0702
  707TMC3     O10509   3.806   0.502   0.900 -0.2592 -0.0545  0.1776
  707TMC3     H10510   3.832   0.590   1.124 -2.3841 -0.8327  1.6372
  707TMC3    H110511   3.587   0.795   0.841  2.1632 -2.4669 -0.8443
  707TMC3    H210512   3.600   0.944   1.230  1.0740 -1.4265  2.0592
  707TMC3    C710513   3.480   0.988   1.011 -0.1910  0.4622  0.2006
  707TMC3    C810514   3.770   0.767   1.329  0.7427 -0.1793  0.3438
  707TMC3    O110515   3.422   1.043   1.105 -0.0901 -0.4177  0.4029
  707TMC3    O210516   3.757   0.866   1.396 -0.9052 -0.1137  0.4464
  708MPD2     C10517   0.227   0.377  13.444 -0.4334 -0.7281  0.5516
  708MPD2    C110518   0.120   0.450  13.498  1.2222  0.1049 -0.1722
  708MPD2    C210519   0.040   0.396  13.588 -0.3961 -0.4060  0.1304
  708MPD2    C310520   0.059   0.272  13.641 -0.0001 -0.4659  0.2748
  708MPD2    C410521   0.162   0.194  13.600 -0.2276  0.6115  0.1491
  708MPD2    C510522   0.241   0.250  13.494 -0.6430  0.5848 -0.1128
  708MPD2     H10523   4.703   0.461  13.636 -1.2108 -0.3244 -1.2321
  708MPD2    H110524   0.194   0.096  13.635  0.0721  0.5739 -0.2198
  708MPD2    H210525   0.278   0.396  13.350  0.8172 -2.3313  0.9118
  708MPD2    H310526   0.315   0.184  13.451 -3.5816 -1.7057 -1.7118
  708MPD2     N10527   4.707   0.240  13.743  0.2988 -0.1768  0.4762
  708MPD2    H510528   4.635   0.306  13.772  0.5478  0.9905 -1.5441
  708MPD2    N110529   0.090   0.584  13.466 -0.1587  0.1593 -0.5983
  708MPD2    H710530   0.008   0.633  13.501 -0.0513  0.5302 -0.8646
  709TMC3    C110531   0.075   0.784  13.358  0.3377  0.5852  0.3779
  709TMC3    C210532   0.002   0.800  13.243  0.1703 -0.1887 -0.2405
  709TMC3    C310533   4.617   0.855  13.264 -0.0995  0.3468  0.4046
  709TMC3    C410534   0.017   0.822  13.480 -0.3781 -0.1168  0.4516
  709TMC3    C510535   4.633   0.880  13.504 -0.0619 -0.0170  0.7525
  709TMC3    C610536   4.562   0.899  13.386 -0.7954  0.1341  0.9473
  709TMC3     C10537   0.147   0.658  13.371  1.1578  0.0615 -0.7049
  709TMC3     O10538   0.239   0.635  13.295 -1.0942  0.2658 -0.2388
  709TMC3     H10539   0.043   0.776  13.145  3.1498  1.3272  0.6249
  709TMC3    H110540   0.074   0.813  13.572 -0.5168  0.0596  0.5547
  709TMC3    H210541   4.460   0.937  13.385 -0.4699  0.9555 -0.8057
  709TMC3    C710542   4.567   0.793  13.593  0.3586 -0.6799  0.2586
  709TMC3    C810543   4.528   0.879  13.155 -0.1590 -0.5774  0.1866
  709TMC3    O110544   4.612   0.687  13.608 -0.3325 -0.2032 -0.4653
  709TMC3    O210545   4.415   0.924  13.175 -0.5401  0.0329  0.7746
  710TMC3    C110546   0.762   2.041   0.498 -0.0224  0.1610  0.0571
  710TMC3    C210547   0.833   2.001   0.383  0.2422 -0.0349 -1.0650
  710TMC3    C310548   0.846   1.869   0.352  0.3561  0.0887 -0.0432
  710TMC3    C410549   0.697   1.948   0.578  0.3577  0.3633  0.3874
  710TMC3    C510550   0.700   1.818   0.547 -0.1559  0.1181 -0.1660
  710TMC3    C610551   0.779   1.782   0.434 -1.1255 -0.5678 -0.4732
  710TMC3     C10552   0.758   2.180   0.537  0.1297  0.0322 -0.0227
  710TMC3     O10553   0.781   2.260   0.447 -0.0612  0.1829 -0.4259
  710TMC3     H10554   0.889   2.070   0.322  1.8509 -0.8994 -0.5602
  710TMC3    H110555   0.642   1.971   0.668  1.7879  2.0605  0.8190
  710TMC3    H210556   0.806   1.678   0.421  0.3375 -0.6031  2.8575
  710TMC3    C710557   0.672   1.716   0.654 -0.7216 -0.1416  0.1338
  710TMC3    C810558   0.931   1.833   0.231  0.1613 -0.2846  0.9066
  710TMC3    O110559   0.743   1.615   0.651  0.2602  0.0493  0.4386
  710TMC3    O210560   1.004   1.918   0.177  0.2583 -0.0085 -0.3890
  711TMC3    C110561   0.546   2.628  14.708 -0.8401 -0.5859  0.5541
  711TMC3    C210562   0.452   2.627  14.811  0.2947  0.0228 -0.0171
  711TMC3    C310563   0.479   2.700  14.919  0.1302  0.1117  0.7921
  711TMC3    C410564   0.657   2.705  14.711 -0.8292 -0.0215 -0.1834
  711TMC3    C510565   0.674   2.790  14.816  0.7594  0.1497 -0.0650
  711TMC3    C610566   0.585   2.789  14.917  0.3488 -0.2867  0.1422
  711TMC3     C10567   0.514   2.545  14.590 -0.1925 -0.7588  0.5237
  711TMC3     O10568   0.433   2.455  14.607  0.2681 -0.9698 -0.1052
  711TMC3     H10569   0.360   2.571  14.798  0.0452  0.4340 -0.0266
  711TMC3    H110570   0.733   2.694  14.634 -0.4807 -0.6910  0.2452
  711TMC3    H210571   0.601   2.854  15.003 -0.9099 -1.8260  1.5392
  711TMC3    C710572   0.813   2.802  14.855  0.0622 -0.5187 -0.0884
  711TMC3    C810573   0.474   2.613  15.035  0.0069  0.0182  0.2334
  711TMC3    O110574   0.827   2.817  14.976 -0.0896  0.1614  0.1611
  711TMC3    O210575   0.395   2.517  15.038  0.0283 -0.3890  0.3948
  712MPD2     C10576   1.566   4.182  13.924 -0.1555 -0.1268 -1.1431
  712MPD2    C110577   1.600   4.192  13.794 -0.5680 -0.1657  0.1667
  712MPD2    C210578   1.639   4.314  13.743 -0.5960 -0.1699  0.1456
  712MPD2    C310579   1.631   4.427  13.822 -0.0087  0.0844  0.2625
  712MPD2    C410580   1.595   4.417  13.949  0.1117 -0.2964 -0.3780
  712MPD2    C510581   1.563   4.293  13.999 -0.7932  0.1051 -0.2803
  712MPD2     H10582   1.669   4.324  13.640 -1.7407 -1.2523 -0.2975
  712MPD2    H110583   1.600   4.509  14.006  2.5796 -0.0587 -0.9859
  712MPD2    H210584   1.534   4.086  13.965  0.1551  0.1184 -0.3153
  712MPD2    H310585   1.543   4.272  14.104  0.8076  1.7412  0.3529
  712MPD2     N10586   1.673   4.556  13.786  0.4311 -0.4459  0.3799
  712MPD2    H510587   1.683   4.625  13.859 -0.0225 -0.7033  0.6854
  712MPD2    N110588   1.606   4.081  13.710 -0.3979 -0.3530  0.0579
  712MPD2    H710589   1.649   4.099  13.620 -0.2397 -2.5501 -0.3188
  713TMC3    C110590   1.796   4.711  13.653 -0.0965 -0.2012  0.0200
  713TMC3    C210591   1.858   0.005  13.774  0.5544  0.0252 -0.0388
  713TMC3    C310592   1.953   0.106  13.760 -0.1663  0.2083 -0.4424
  713TMC3    C410593   1.797   0.052  13.538 -0.1509 -0.4211  0.0202
  713TMC3    C510594   1.886   0.161  13.540 -0.1028  0.0991 -0.6174
  713TMC3    C610595   1.960   0.187  13.652  0.6497 -0.3792  0.5045
  713TMC3     C10596   1.714   4.592  13.655 -0.7497 -0.3682  0.0674
  713TMC3     O10597   1.683   4.540  13.547  0.0939  0.4896 -0.2266
  713TMC3     H10598   1.870   4.671  13.856  0.4678 -0.0673 -0.1049
  713TMC3    H110599   1.743   0.019  13.449  1.2399  2.0057 -1.7181
  713TMC3    H210600   2.035   0.264  13.635  1.1064 -0.8851  0.2243
  713TMC3    C710601   1.867   0.271  13.448 -0.7266  0.1459 -0.1946
  713TMC3    C810602   2.047   0.113  13.869 -0.1251  0.7215  0.4787
  713TMC3    O110603   1.907   0.376  13.484  0.3318 -0.0129 -0.4319
  713TMC3    O210604   2.040   0.027  13.955 -0.1565 -0.1815 -0.4080
  714MPD2     C10605   4.318   2.435   1.659  0.0942 -0.0906 -0.4404
  714MPD2    C110606   4.267   2.330   1.601  0.7824 -0.3070  0.7556
  714MPD2    C210607   4.207   2.330   1.473  0.5347  0.2694 -0.0264
  714MPD2    C310608   4.202   2.458   1.411  0.5162  0.7300 -0.0404
  714MPD2    C410609   4.262   2.568   1.474  0.4787 -0.6968 -0.2920
  714MPD2    C510610   4.320   2.553   1.596  0.2368  0.2355 -0.1014
  714MPD2     H10611   4.178   2.241   1.417 -0.5963  0.1131  0.8093
  714MPD2    H110612   4.261   2.667   1.431 -1.1040 -1.2139 -1.4471
  714MPD2    H210613   4.362   2.426   1.758  1.0415  1.6804 -0.6936
  714MPD2    H310614   4.367   2.640   1.639 -0.0027  0.6677 -0.7068
  714MPD2     N10615   4.140   2.469   1.287  0.5203  0.0795 -0.2129
  714MPD2    H510616   4.079   2.391   1.264 -0.5837  0.7397  0.4641
  714MPD2    N110617   4.282   2.208   1.676  0.2136 -0.0484 -0.0184
  714MPD2    H710618   4.329   2.224   1.765  1.4986  0.2986 -0.7586
  715TMC3    C110619   4.325   1.988   1.713  0.2170 -0.4973 -0.2029
  715TMC3    C210620   4.338   1.864   1.658 -0.9380  0.9128 -0.1005
  715TMC3    C310621   4.427   1.775   1.713  0.1474 -1.0402 -0.1420
  715TMC3    C410622   4.379   2.022   1.835  0.0901  0.0986 -0.5878
  715TMC3    C510623   4.449   1.924   1.895  0.5081 -0.5503 -0.4199
  715TMC3    C610624   4.476   1.802   1.835 -0.4738 -0.2157 -0.4422
  715TMC3     C10625   4.255   2.084   1.627  0.0698 -0.0095  0.2045
  715TMC3     O10626   4.220   2.051   1.515 -0.4425  0.3648  0.1439
  715TMC3     H10627   4.277   1.841   1.572  1.7765 -1.8603 -1.2636
  715TMC3    H110628   4.347   2.114   1.883 -0.1707 -0.4536  0.3054
  715TMC3    H210629   4.533   1.722   1.881  0.6652  0.5717 -0.4700
  715TMC3    C710630   4.550   1.965   1.988  0.1175 -0.2860  0.0364
  715TMC3    C810631   4.484   1.688   1.615  0.5786 -0.2258 -0.5044
  715TMC3    O110632   4.654   1.901   1.975  0.4249  0.0039  0.4909
  715TMC3    O210633   4.431   1.701   1.507 -0.4403 -0.0192 -0.0959
  716MPD2     C10634   4.681   0.979   9.853  0.0910  0.0092  0.5156
  716MPD2    C110635   4.717   1.035   9.730 -0.0784  0.9590  0.4955
  716MPD2    C210636   0.077   0.983   9.645 -0.0131  0.0736 -0.3239
  716MPD2    C310637   0.140   0.870   9.678 -0.0783 -0.2832 -0.4650
  716MPD2    C410638   0.101   0.808   9.797  0.7565  0.1251  0.0490
  716MPD2    C510639   0.006   0.863   9.882 -0.7974  0.0887  0.2533
  716MPD2     H10640   0.086   1.024   9.545 -3.0310  0.8229 -0.2574
  716MPD2    H110641   0.149   0.719   9.835  1.3732  1.1836  1.7180
  716MPD2    H210642   4.603   1.019   9.917 -0.1150 -0.5272  0.6014
  716MPD2    H310643   4.717   0.813   9.975 -0.4370 -0.7302 -0.0922
  716MPD2     N10644   0.216   0.800   9.580  0.0857  0.0390  0.3592
  716MPD2    H510645   0.251   0.862   9.507 -0.5530 -0.7521 -0.6107
  716MPD2    N110646   4.642   1.150   9.700  0.5064 -0.6589 -0.0145
  716MPD2    H710647   4.582   1.186   9.774 -0.7591 -0.3187 -1.2038
  717TMC3    C110648   0.340   0.628   9.478 -0.9546  0.0293  0.2128
  717TMC3    C210649   0.358   0.700   9.363  0.0618 -0.4350  0.1005
  717TMC3    C310650   0.400   0.646   9.246  0.2562  0.6376  0.3391
  717TMC3    C410651   0.349   0.491   9.470  0.7474 -0.2046  0.0001
  717TMC3    C510652   0.389   0.437   9.349 -0.2637 -1.1626 -0.3289
  717TMC3    C610653   0.418   0.508   9.236 -0.0780 -0.1447 -0.5548
  717TMC3     C10654   0.258   0.669   9.590  0.0229 -0.1827  0.1889
  717TMC3     O10655   0.204   0.576   9.649  0.7314 -0.5887  0.9362
  717TMC3     H10656   0.346   0.807   9.374  1.1773 -0.3130  0.1236
  717TMC3    H110657   0.348   0.429   9.559 -3.0174 -0.7308 -0.4052
  717TMC3    H210658   0.438   0.471   9.136  1.4498 -2.9588  0.8148
  717TMC3    C710659   0.451   0.303   9.346 -0.3493  0.0120 -0.0701
  717TMC3    C810660   0.390   0.735   9.130  0.2293 -0.1326 -0.2320
  717TMC3    O110661   0.470   0.261   9.459 -0.4442 -0.1539 -0.2943
  717TMC3    O210662   0.328   0.838   9.151 -0.0598  0.1672 -0.3967
  718MPD2     C10663   3.910   3.793  12.789 -0.2299 -0.0194 -0.0724
  718MPD2    C110664   3.863   3.914  12.752  0.0104  0.5469  0.0959
  718MPD2    C210665   3.778   3.980  12.840 -0.2173  0.7932 -0.2369
  718MPD2    C310666   3.748   3.931  12.967  0.4702  0.4729  0.1272
  718MPD2    C410667   3.807   3.809  13.001  0.0893 -0.2955  0.2704
  718MPD2    C510668   3.876   3.736  12.907 -0.2219 -0.0938  0.2073
  718MPD2     H10669   3.740   4.076  12.807  2.2238  1.9203  0.2254
  718MPD2    H110670   3.798   3.766  13.100  0.0377 -0.0209  0.3825
  718MPD2    H210671   3.977   3.737  12.724 -1.2787  1.2740 -2.2780
  718MPD2    H310672   3.906   3.634  12.931 -2.7905 -0.0699  3.5135
  718MPD2     N10673   3.673   4.019  13.051 -0.3405 -0.0473  0.2959
  718MPD2    H510674   3.629   4.101  13.009  0.0766  0.2151  0.3819
  718MPD2    N110675   3.896   3.968  12.625  0.6500  0.4006  0.2995
  718MPD2    H710676   3.858   4.059  12.605 -3.7926 -1.0759  1.9668
  719TMC3    C110677   3.977   3.998  12.422  0.1779  0.4944 -0.3761
  719TMC3    C210678   3.886   4.100  12.422 -0.5474  0.1934  0.5682
  719TMC3    C310679   3.926   4.229  12.430  1.0502  0.5129 -0.3614
  719TMC3    C410680   4.108   4.025  12.404 -0.5624  0.1394  0.1624
  719TMC3    C510681   4.153   4.159  12.414  0.6019  0.0934 -0.1698
  719TMC3    C610682   4.058   4.258  12.425  0.2081 -0.1918 -0.1381
  719TMC3     C10683   3.955   3.899  12.520 -0.0291 -0.0102 -0.9124
  719TMC3     O10684   3.987   3.780  12.505 -0.0304  0.0190  0.1111
  719TMC3     H10685   3.783   4.067  12.415 -0.3739 -0.3392  0.4723
  719TMC3    H110686   4.174   3.942  12.424  0.5769  0.8983 -0.4616
  719TMC3    H210687   4.094   4.360  12.428 -1.7798  0.4965  0.1408
  719TMC3    C710688   4.287   4.197  12.370  1.1379  0.0628 -0.1957
  719TMC3    C810689   3.847   4.291  12.534  0.0890 -0.4739  0.9826
  719TMC3    O110690   4.344   4.110  12.306 -0.2356 -0.2540  0.4952
  719TMC3    O210691   3.770   4.220  12.594  0.3339 -0.0883  0.0835
  720MPD2     C10692   2.128   1.013  14.103  0.1321 -0.7503 -0.1896
  720MPD2    C110693   2.234   1.014  14.016 -0.1065  0.8510  0.6455
  720MPD2    C210694   2.358   1.029  14.065  0.3087 -0.7387  0.1406
  720MPD2    C310695   2.382   1.058  14.199  0.4196 -0.1373 -0.0436
  720MPD2    C410696   2.276   1.078  14.280  0.3109  0.1435  0.2490
  720MPD2    C510697   2.144   1.055  14.235  1.0278 -0.4838  0.0563
  720MPD2     H10698   2.447   1.027  14.002  0.0377 -1.1055 -0.2298
  720MPD2    H110699   2.279   1.109  14.384  0.1654  0.2735  0.2141
  720MPD2    H210700   2.025   1.002  14.069  0.1250  0.2335 -0.4607
  720MPD2    H310701   2.062   1.082  14.301  1.9331  0.7613  0.6588
  720MPD2     N10702   2.515   1.056  14.242  0.1402  0.2194  0.1482
  720MPD2    H510703   2.582   1.014  14.179  0.9538  1.8141 -0.0339
  720MPD2    N110704   2.208   1.007  13.877 -0.3937 -1.4587 -0.3079
  720MPD2    H710705   2.287   0.987  13.816 -1.4655 -2.9418 -1.2184
  721TMC3    C110706   2.692   1.090  14.389 -0.6611 -0.1926 -0.3127
  721TMC3    C210707   2.730   1.108  14.519  0.2776 -0.0819  0.7824
  721TMC3    C310708   2.866   1.113  14.543 -0.7879 -0.2386 -0.8368
  721TMC3    C410709   2.771   1.090  14.284 -0.5295  0.6052 -0.2762
  721TMC3    C510710   2.902   1.109  14.311 -0.4282  0.0827  0.0838
  721TMC3    C610711   2.953   1.118  14.440  0.1108 -0.0800 -0.5946
  721TMC3     C10712   2.551   1.085  14.369 -0.0843 -0.1417  0.0304
  721TMC3     O10713   2.486   1.089  14.474  0.0420  0.2184 -0.3100
  721TMC3     H10714   2.661   1.109  14.603 -0.4215  0.0471  0.2008
  721TMC3    H110715   2.749   1.084  14.178  3.1731  0.7679 -1.0774
  721TMC3    H210716   3.059   1.120  14.460 -0.1733  0.1349  0.8698
  721TMC3    C710717   3.002   1.111  14.204  0.5342 -0.5411  0.5229
  721TMC3    C810718   2.910   1.098  14.681  0.5687  0.0882  0.2022
  721TMC3    O110719   2.956   1.061  14.102  0.1346 -0.5502  0.5008
  721TMC3    O210720   3.024   1.140  14.695  0.4971  0.4679 -0.3010
  722MPD2     C10721   1.195   4.453  12.906  0.1247  0.4319  0.2099
  722MPD2    C110722   1.109   4.563  12.894 -0.0235  0.2176 -0.2035
  722MPD2    C210723   0.977   4.537  12.915 -0.4674  0.2701  0.4927
  722MPD2    C310724   0.933   4.415  12.957 -0.2377  0.1509  0.2441
  722MPD2    C410725   1.020   4.317  12.989 -0.3865  0.1829  0.9605
  722MPD2    C510726   1.150   4.333  12.953  0.7622  0.0322 -0.0230
  722MPD2     H10727   0.905   4.618  12.910 -0.5174  0.1376 -0.8284
  722MPD2    H110728   0.981   4.218  13.011  1.1961 -0.7173 -0.2868
  722MPD2    H210729   1.298   4.464  12.875 -0.9274  1.2024 -3.0693
  722MPD2    H310730   1.229   4.259  12.968  3.0770  1.9293 -2.8397
  722MPD2     N10731   0.794   4.413  12.977  0.3342 -0.3585 -0.3814
  722MPD2    H510732   0.744   4.501  12.970  0.9512 -0.0705 -1.1704
  722MPD2    N110733   1.168   4.688  12.842  0.4105  0.2561  0.4027
  722MPD2    H710734   1.269   4.697  12.840  0.6921 -2.6410  0.5007
  723TMC3    C110735   0.582   4.346  13.061 -0.1768  0.3493  0.4673
  723TMC3    C210736   0.511   4.263  13.143  0.3307  0.5505 -0.1104
  723TMC3    C310737   0.376   4.251  13.138  0.3107  0.8300 -0.1343
  723TMC3    C410738   0.515   4.429  12.978 -0.2405  0.3825  0.8270
  723TMC3    C510739   0.378   4.421  12.968  0.0111 -0.3267 -0.2321
  723TMC3    C610740   0.310   4.329  13.045  0.3748 -0.7843  0.0683
  723TMC3     C10741   0.721   4.314  13.039 -0.1323  0.6672 -0.0325
  723TMC3     O10742   0.760   4.209  13.089  0.1352 -0.0169  0.0452
  723TMC3     H10743   0.564   4.188  13.201 -0.1914  2.1592  2.4644
  723TMC3    H110744   0.563   4.481  12.896 -0.6725  0.8026  0.8380
  723TMC3    H210745   0.204   4.330  13.022  0.7002  2.4320 -1.2905
  723TMC3    C710746   0.298   4.520  12.901  0.1732 -0.1216 -0.3152
  723TMC3    C810747   0.328   4.118  13.164 -0.6132 -0.1329  0.2820
  723TMC3    O110748   0.178   4.497  12.896  0.3221  0.1758  0.1182
  723TMC3    O210749   0.366   4.061  13.264 -0.2806  0.1330  0.1062
  724TMC3    C110750   2.013   2.611  10.196  0.5296 -0.1667 -0.1219
  724TMC3    C210751   1.961   2.630  10.070 -0.1609  0.3106 -0.5068
  724TMC3    C310752   2.032   2.707   9.978  0.0566  0.4764 -0.0736
  724TMC3    C410753   2.140   2.661  10.226 -0.7798 -0.3909 -0.2151
  724TMC3    C510754   2.206   2.744  10.133 -0.0291 -0.2827  0.2350
  724TMC3    C610755   2.151   2.764  10.012 -0.4266  0.0527  0.2055
  724TMC3     C10756   1.944   2.546  10.302  0.1208 -0.0028  0.1944
  724TMC3     O10757   2.001   2.532  10.409  0.6259  0.4253 -0.3371
  724TMC3     H10758   1.855   2.614  10.051  0.3325 -0.3587 -2.7407
  724TMC3    H110759   2.190   2.637  10.319 -0.5168  1.6551  0.1693
  724TMC3    H210760   2.215   2.797   9.932 -0.1812  0.1155  0.4290
  724TMC3    C710761   2.318   2.828  10.163 -0.5033 -0.0143  0.0931
  724TMC3    C810762   1.970   2.724   9.846 -0.1079  0.5761 -0.3486
  724TMC3    O110763   2.362   2.883  10.066  0.3189  0.1124  0.3978
  724TMC3    O210764   1.864   2.664   9.823 -0.3402 -0.1495 -0.1881
  725TMC3    C110765   2.646   1.662  12.560  0.5223  0.2429 -0.4188
  725TMC3    C210766   2.602   1.762  12.478  1.1606 -0.1551 -0.0298
  725TMC3    C310767   2.580   1.720  12.345 -0.5392  0.2482 -0.1532
  725TMC3    C410768   2.668   1.535  12.518 -0.6065 -0.4201  0.2808
  725TMC3    C510769   2.629   1.499  12.388 -0.1379  0.6539 -1.0757
  725TMC3    C610770   2.591   1.593  12.295 -0.7064  0.2518 -0.2378
  725TMC3     C10771   2.675   1.701  12.695  0.3207  0.4770 -0.2078
  725TMC3     O10772   2.645   1.814  12.720 -0.1845 -0.0212  0.0676
  725TMC3     H10773   2.587   1.866  12.504 -0.0270 -0.7977  1.9299
  725TMC3    H110774   2.708   1.464  12.589  1.2501  0.3277 -0.0213
  725TMC3    H210775   2.575   1.579  12.189 -1.7853 -1.5866  0.1721
  725TMC3    C710776   2.655   1.360  12.351 -0.6097  0.9262  0.0647
  725TMC3    C810777   2.519   1.813  12.252 -0.7131  0.1366 -0.5967
  725TMC3    O110778   2.709   1.289  12.436 -0.3227  0.8916  0.1148
  725TMC3    O210779   2.556   1.816  12.137 -0.7974  0.2975  0.0201
  726MPD2     C10780   0.721   3.392   9.982  0.1952 -0.0217 -0.3407
  726MPD2    C110781   0.644   3.481  10.049 -0.3146  0.9217  0.4528
  726MPD2    C210782   0.508   3.455  10.056  0.9525  0.1719  0.2095
  726MPD2    C310783   0.459   3.345  10.001  0.8453 -0.1309 -0.2446
  726MPD2    C410784   0.537   3.241   9.950  0.3847  0.4649 -0.3960
  726MPD2    C510785   0.671   3.268   9.941  0.3141  0.4789 -0.1547
  726MPD2     H10786   0.436   3.526  10.095  1.2730  0.2023  0.7446
  726MPD2    H110787   0.505   3.148   9.906 -2.5178  0.7121  1.2090
  726MPD2    H210788   0.827   3.404   9.966  0.5903 -2.6148  0.2046
  726MPD2    H310789   0.736   3.195   9.895 -0.2029 -0.2355  0.2547
  726MPD2     N10790   0.328   3.314  10.019  0.2020  0.2510 -0.3311
  726MPD2    H510791   0.299   3.218  10.001  3.2187 -0.7153 -0.1502
  726MPD2    N110792   0.697   3.591  10.107 -0.0583 -0.5986 -0.2354
  726MPD2    H710793   0.644   3.675  10.126 -0.8460 -1.3238  0.7273
  727TMC3    C110794   0.874   3.734  10.158  0.1573  0.3466  1.1647
  727TMC3    C210795   0.997   3.748  10.202 -0.1853 -0.4970  0.0035
  727TMC3    C310796   1.027   3.843  10.291  0.0413 -0.3286  0.0569
  727TMC3    C410797   0.780   3.829  10.187 -0.8013  1.0343 -0.1849
  727TMC3    C510798   0.817   3.932  10.269  0.1973 -0.5675 -0.1654
  727TMC3    C610799   0.946   3.943  10.320  0.1895  0.5235  0.0779
  727TMC3     C10800   0.831   3.598  10.127 -0.1856  0.5275  0.6285
  727TMC3     O10801   0.909   3.503  10.143 -0.2147  0.0065  0.8246
  727TMC3     H10802   1.075   3.675  10.185 -0.7622 -0.8461 -1.1688
  727TMC3    H110803   0.686   3.827  10.133 -0.3981 -0.1038 -0.8276
  727TMC3    H210804   0.966   4.011  10.402  0.0807  1.0953 -0.3708
  727TMC3    C710805   0.724   4.039  10.305  0.2904  0.9476 -0.5703
  727TMC3    C810806   1.170   3.862  10.313 -0.1538 -0.1291 -0.3820
  727TMC3    O110807   0.779   4.136  10.358 -0.1078 -0.3639  0.1627
  727TMC3    O210808   1.249   3.766  10.320 -0.0816  0.3456  0.0583
  728TMC3    C110809   0.129   1.418  14.927  0.2158  0.6039  0.6940
  728TMC3    C210810   0.236   1.416  14.840  0.5568  0.2930 -0.3972
  728TMC3    C310811   0.209   1.428  14.704 -0.1933 -0.4937 -0.0189
  728TMC3    C410812   4.735   1.446  14.886 -0.0652 -0.7529 -0.1651
  728TMC3    C510813   4.724   1.464  14.750  0.0203  0.4858 -0.3104
  728TMC3    C610814   0.084   1.448  14.658  0.7091  0.2782 -0.1617
  728TMC3     C10815   0.158   1.409  15.070 -0.1611 -0.1242  0.1618
  728TMC3     O10816   0.277   1.393  15.094  0.0953 -0.3160  0.7846
  728TMC3     H10817   0.335   1.399  14.880 -1.6312 -0.0184  4.9592
  728TMC3    H110818   4.653   1.460  14.956  2.0986  0.5832  2.0664
  728TMC3    H210819   0.055   1.470  14.556  3.8630 -1.8267 -1.5178
  728TMC3    C710820   4.600   1.518  14.696  0.6556  1.0085 -0.8249
  728TMC3    C810821   0.322   1.468  14.628 -0.1509 -0.6382  0.1536
  728TMC3    O110822   4.501   1.487  14.761 -0.2985 -0.3709 -0.6890
  728TMC3    O210823   0.427   1.504  14.683  0.4031  0.9898 -0.5509
  729MPD2     C10824   1.714   2.537  16.836 -1.3218 -0.0816  0.2111
  729MPD2    C110825   1.851   2.513  16.829  0.5628 -0.7047 -0.2620
  729MPD2    C210826   1.940   2.545  16.927 -0.0278 -0.6446  0.0472
  729MPD2    C310827   1.890   2.611  17.040 -0.8781  0.2663  0.1509
  729MPD2    C410828   1.751   2.609  17.063  0.5290 -0.0201 -0.2553
  729MPD2    C510829   1.666   2.570  16.957  0.1827  0.2324 -0.5509
  729MPD2     H10830   2.046   2.532  16.912  0.3092  2.3498 -0.1328
  729MPD2    H110831   1.711   2.636  17.160  1.3569 -1.0959  0.3936
  729MPD2    H210832   1.653   2.502  16.753  1.2554 -2.5213 -0.6499
  729MPD2    H310833   1.559   2.570  16.975  0.2078  0.8721 -0.4241
  729MPD2     N10834   1.974   2.656  17.142  0.4001 -0.4473  0.1202
  729MPD2    H510835   1.943   2.691  17.232 -1.7042 -0.8443 -0.4693
  729MPD2    N110836   1.902   2.453  16.710  0.4469  0.0410 -0.0731
  729MPD2    H710837   1.835   2.452  16.633  1.5642  2.9993 -1.1175
  730TMC3    C110838   2.157   2.688  17.274  0.2172  0.0248  0.0812
  730TMC3    C210839   2.269   2.769  17.277  0.0933 -0.0416  0.3058
  730TMC3    C310840   2.290   2.853  17.386  0.2664 -0.0333  0.2161
  730TMC3    C410841   2.070   2.688  17.378  0.7815  0.2671 -0.8219
  730TMC3    C510842   2.085   2.777  17.480 -0.6173  0.0302  1.1827
  730TMC3    C610843   2.201   2.853  17.490 -0.5538  0.1460  0.1483
  730TMC3     C10844   2.111   2.664  17.139  0.0365 -0.5122  0.0282
  730TMC3     O10845   2.196   2.630  17.055 -0.1791  0.5794 -0.0840
  730TMC3     H10846   2.339   2.765  17.195  1.3776  0.8874  1.3536
  730TMC3    H110847   1.984   2.622  17.377  0.6608  0.4057  1.1532
  730TMC3    H210848   2.212   2.916  17.577 -0.8952  0.3136  0.0713
  730TMC3    C710849   1.967   2.863  17.467  0.8614  0.1176  0.1264
  730TMC3    C810850   2.345   2.984  17.348 -0.4420 -0.0322  0.0856
  730TMC3    O110851   1.883   2.838  17.383 -0.5060  0.5784 -0.0473
  730TMC3    O210852   2.343   3.000  17.229  0.3922  0.4849  0.1287
  731MPD2     C10853   2.045   0.685  12.377  0.0605 -0.4497 -0.2108
  731MPD2    C110854   2.079   0.560  12.424 -0.1682  0.2778  0.1551
  731MPD2    C210855   2.141   0.545  12.548  0.7179 -0.2329  0.1978
  731MPD2    C310856   2.172   0.655  12.625 -0.1118 -0.0476  0.7628
  731MPD2    C410857   2.136   0.782  12.576  0.0734  0.6494  0.1912
  731MPD2    C510858   2.081   0.795  12.451  0.6654 -0.0404 -0.1130
  731MPD2     H10859   2.142   0.446  12.593  1.2200  0.3550  1.4528
  731MPD2    H110860   2.144   0.869  12.639 -1.5379 -0.4342  1.8963
  731MPD2    H210861   2.004   0.711  12.280  1.0553 -0.6880 -0.6906
  731MPD2    H310862   2.060   0.894  12.414  0.6269  1.0066  2.7456
  731MPD2     N10863   2.234   0.637  12.745  0.4816  0.2248 -0.5739
  731MPD2    H510864   2.242   0.542  12.780 -2.1743 -0.2165 -1.2040
  731MPD2    N110865   2.045   0.448  12.340 -0.0966 -0.2035 -0.1722
  731MPD2    H710866   2.006   0.468  12.249  0.7509 -1.8388 -0.8968
  732TMC3    C110867   2.021   0.230  12.272 -0.1908  0.5603 -0.5418
  732TMC3    C210868   1.912   0.266  12.192  0.3821  0.0123  0.1338
  732TMC3    C310869   1.885   0.170  12.094  0.4150 -0.2084  0.1336
  732TMC3    C410870   2.100   0.119  12.255  0.4297  0.3584  0.1991
  732TMC3    C510871   2.077   0.045  12.145 -0.2494  0.4227 -0.1263
  732TMC3    C610872   1.967   0.062  12.072  0.0891  0.5053 -0.1740
  732TMC3     C10873   2.064   0.316  12.375  0.0829 -0.0441  0.3506
  732TMC3     O10874   2.114   0.268  12.475  0.3832  0.0131 -0.0717
  732TMC3     H10875   1.860   0.359  12.209  0.4970 -0.4114  2.7119
  732TMC3    H110876   2.183   0.106  12.324 -1.3438 -2.9873  1.6822
  732TMC3    H210877   1.947   4.726  11.993 -0.3327  1.4144 -0.8963
  732TMC3    C710878   2.194   0.055  12.054  0.0556 -0.1101 -0.9514
  732TMC3    C810879   1.785   0.191  11.993 -0.7770  0.6399  0.9229
  732TMC3    O110880   2.170   0.041  11.934  0.0592 -0.1864 -0.3038
  732TMC3    O210881   1.784   0.127  11.892 -0.1993 -0.3572 -0.0889
  733TMC3    C110882   3.531   4.295  13.392  0.2893  0.3199  0.5277
  733TMC3    C210883   3.565   4.163  13.349 -0.6652 -0.2139  0.1924
  733TMC3    C310884   3.653   4.141  13.246 -0.0971  0.1485 -0.0956
  733TMC3    C410885   3.573   4.403  13.320 -0.1503  0.0644  0.5353
  733TMC3    C510886   3.659   4.378  13.219 -0.6206 -0.2908 -0.2200
  733TMC3    C610887   3.698   4.248  13.181  0.0912  0.5397  0.7755
  733TMC3     C10888   3.403   4.312  13.445  0.5184  0.0083 -0.2928
  733TMC3     O10889   3.357   4.426  13.440 -0.4877  0.0052 -0.0445
  733TMC3     H10890   3.533   4.073  13.400 -0.8003 -0.0002  0.4833
  733TMC3    H110891   3.543   4.505  13.343 -0.8280 -0.5182  2.2296
  733TMC3    H210892   3.778   4.247  13.108  1.4077  2.8931  2.1861
  733TMC3    C710893   3.706   4.485  13.133  0.2101  0.1560 -0.1386
  733TMC3    C810894   3.673   4.009  13.189  0.2367  0.0530  0.5245
  733TMC3    O110895   3.720   4.599  13.182  0.4994 -0.3850 -0.1864
  733TMC3    O210896   3.718   3.922  13.256 -0.1754  0.3254  0.0987
  734MPD2     C10897   0.781   1.075  12.163  0.3405  0.8599 -0.6790
  734MPD2    C110898   0.665   1.059  12.090 -0.4898 -0.0134 -1.2103
  734MPD2    C210899   0.652   1.138  11.976 -0.5271  0.0183 -0.0158
  734MPD2    C310900   0.747   1.229  11.944  0.1767  0.2122  0.0794
  734MPD2    C410901   0.863   1.248  12.015 -0.1937 -0.3949 -0.9964
  734MPD2    C510902   0.871   1.180  12.133 -0.5017 -0.5738  0.2252
  734MPD2     H10903   0.565   1.127  11.912 -1.0545  1.1524  0.5051
  734MPD2    H110904   0.934   1.323  11.983 -1.9123  1.7038  0.0979
  734MPD2    H210905   0.798   1.019  12.254  2.5248  0.2866 -1.4278
  734MPD2    H310906   0.948   1.215  12.200  0.9603  0.7925 -2.1640
  734MPD2     N10907   0.726   1.299  11.820  0.4474  0.2191 -0.3888
  734MPD2    H510908   0.641   1.271  11.773 -0.5428  1.8976  0.4078
  734MPD2    N110909   0.565   0.960  12.130 -0.0386 -0.3909 -0.2274
  734MPD2    H710910   0.578   0.896  12.208  2.6356 -1.4676 -1.5515
  735TMC3    C110911   0.362   0.840  12.110 -0.9421 -0.0152  0.0607
  735TMC3    C210912   0.237   0.845  12.051 -0.0582 -0.6382 -0.1210
  735TMC3    C310913   0.191   0.743  11.977  1.0238  0.5130 -0.3564
  735TMC3    C410914   0.441   0.725  12.092 -0.2151  0.2581  0.0026
  735TMC3    C510915   0.382   0.624  12.020 -0.2895 -0.5810 -0.1891
  735TMC3    C610916   0.254   0.622  11.976  0.7580 -0.0805  0.7020
  735TMC3     C10917   0.438   0.956  12.076  0.2933 -0.2546  0.0223
  735TMC3     O10918   0.384   1.038  12.005  0.4569  0.0156  0.5108
  735TMC3     H10919   0.177   0.935  12.049  0.5977 -0.2477 -1.7802
  735TMC3    H110920   0.543   0.719  12.128 -0.2383  2.7833  0.5294
  735TMC3    H210921   0.225   0.539  11.913  2.0767 -0.5965  0.7763
  735TMC3    C710922   0.475   0.564  11.930  0.2696  0.1771 -0.8294
  735TMC3    C810923   0.148   0.790  11.847  0.0206  0.1224  0.2369
  735TMC3    O110924   0.574   0.632  11.909  0.6628  0.3165 -0.3602
  735TMC3    O210925   0.089   0.717  11.772 -0.0094 -0.4189  0.0288
  736MPD2     C10926   0.550   0.198  11.907 -0.5133  0.3313 -0.6199
  736MPD2    C110927   0.554   0.336  11.874 -0.3489 -0.6610 -0.1676
  736MPD2    C210928   0.650   0.373  11.779  0.3798  0.3613 -0.0583
  736MPD2    C310929   0.746   0.285  11.739  0.5330  0.7970  0.0438
  736MPD2    C410930   0.747   0.154  11.781 -0.5404  0.5643  0.3235
  736MPD2    C510931   0.647   0.113  11.868  1.2544 -0.6246  0.9133
  736MPD2     H10932   0.643   0.473  11.737  1.1775  1.9432  3.5304
  736MPD2    H110933   0.818   0.079  11.750 -1.5446 -0.2820  0.0778
  736MPD2    H210934   0.481   0.166  11.985 -0.2981 -0.4078 -0.7294
  736MPD2    H310935   0.637   0.009  11.896 -0.1811 -0.9462 -0.7939
  736MPD2     N10936   0.862   0.321  11.662 -0.1049  0.8017 -0.3220
  736MPD2    H510937   0.940   0.258  11.649  1.7711  3.0833 -0.1729
  736MPD2    N110938   0.462   0.426  11.927 -0.1863  0.1173 -0.6055
  736MPD2    H710939   0.391   0.390  11.991 -1.7234 -0.9131 -2.9209
  737TMC3    C110940   1.032   0.441  11.557 -0.5391  0.1834 -0.4416
  737TMC3    C210941   1.093   0.560  11.545  0.4358 -0.3986 -0.1423
  737TMC3    C310942   1.221   0.566  11.496  0.2211 -0.0924 -0.1821
  737TMC3    C410943   1.089   0.318  11.518 -0.5189 -0.1622 -0.0149
  737TMC3    C510944   1.212   0.330  11.456 -0.2035 -0.5236  0.6117
  737TMC3    C610945   1.279   0.450  11.456  0.4954  0.3936 -0.1804
  737TMC3     C10946   0.896   0.446  11.619  0.0483  1.0243 -0.3581
  737TMC3     O10947   0.841   0.548  11.643  0.4234  0.3873  0.0932
  737TMC3     H10948   1.042   0.642  11.594  1.2616 -0.9345  1.6097
  737TMC3    H110949   1.044   0.219  11.515 -0.3578 -0.2635  0.7093
  737TMC3    H210950   1.383   0.460  11.426  1.0547 -1.1509  1.2335
  737TMC3    C710951   1.256   0.218  11.374 -0.2379 -0.4722  0.0962
  737TMC3    C810952   1.299   0.693  11.483  0.3777 -0.4709 -0.1082
  737TMC3    O110953   1.236   0.104  11.416 -1.0175  0.1340 -0.0019
  737TMC3    O210954   1.418   0.676  11.465  0.1648 -0.5834 -0.6252
  738MPD2     C10955   1.121   4.715  15.043 -0.5374  0.5081 -0.0587
  738MPD2    C110956   1.169   4.588  15.009  0.3806 -0.3065  0.9800
  738MPD2    C210957   1.275   4.578  14.925  0.0719 -0.8626 -0.0875
  738MPD2    C310958   1.341   4.690  14.872 -0.3349  0.1570  0.7609
  738MPD2    C410959   1.296   0.076  14.913  0.4683 -0.7289 -0.3557
  738MPD2    C510960   1.178   0.084  14.981  0.0578 -0.9483 -0.3278
  738MPD2     H10961   1.303   4.476  14.900 -2.0226 -2.2712  3.3789
  738MPD2    H110962   1.348   0.166  14.883  0.4263  0.3231  2.7381
  738MPD2    H210963   1.030   4.728  15.100  0.3976 -0.6420  1.6948
  738MPD2    H310964   1.145   0.181  15.016 -1.7982 -2.3788  1.9736
  738MPD2     N10965   1.459   4.687  14.789  0.3289 -0.4404  0.1116
  738MPD2    H510966   1.515   0.036  14.783  1.9956 -1.3570  2.6426
  738MPD2    N110967   1.113   4.470  15.060 -0.4754 -0.7905 -0.4679
  738MPD2    H710968   1.157   4.383  15.033  2.8646  0.5169  0.8356
  739TMC3    C110969   1.636   4.603  14.653  0.6898 -0.2529  0.3791
  739TMC3    C210970   1.659   4.719  14.587 -0.0126  0.4512 -1.2147
  739TMC3    C310971   1.782   0.018  14.538  0.4975  0.2699 -0.0404
  739TMC3    C410972   1.748   4.527  14.675 -0.0365  0.1150 -0.5305
  739TMC3    C510973   1.875   4.572  14.645 -0.0877  0.1179  0.2653
  739TMC3    C610974   1.892   4.683  14.568  0.0753 -0.3321  0.0141
  739TMC3     C10975   1.518   4.576  14.732  0.1897  0.7996  0.4681
  739TMC3     O10976   1.486   4.461  14.759 -0.2820 -0.2025 -0.0551
  739TMC3     H10977   1.579   0.056  14.579  0.2911  0.9802  0.5357
  739TMC3    H110978   1.735   4.436  14.733 -0.1554  0.5004  0.0477
  739TMC3    H210979   1.990   4.704  14.528 -0.1631  1.1035  0.1588
  739TMC3    C710980   1.991   4.480  14.651 -0.4415 -0.4725  0.1079
  739TMC3    C810981   1.793   0.129  14.442  0.3282 -0.0376 -0.1474
  739TMC3    O110982   2.101   4.534  14.641 -0.0287 -0.4472 -0.3560
  739TMC3    O210983   1.686   0.144  14.377 -0.2759  0.2863 -0.0797
  740TMC3    C110984   1.830   1.362  14.420  0.2643 -0.3524  1.2535
  740TMC3    C210985   1.862   1.343  14.552  0.3559 -0.0292 -0.0720
  740TMC3    C310986   1.995   1.351  14.574 -0.2606  0.0323  0.2263
  740TMC3    C410987   1.915   1.396  14.318 -0.6681  0.8496 -0.1557
  740TMC3    C510988   2.047   1.414  14.352 -0.4240  0.4755 -0.7188
  740TMC3    C610989   2.082   1.377  14.479 -0.2719 -0.1104 -0.1639
  740TMC3     C10990   1.686   1.343  14.379 -0.1277  0.1958  0.6460
  740TMC3     O10991   1.650   1.374  14.266  1.0485  0.0076 -0.1557
  740TMC3     H10992   1.795   1.300  14.625 -0.4013  0.9728 -0.1831
  740TMC3    H110993   1.879   1.409  14.217  3.4264  2.8723 -1.3937
  740TMC3    H210994   2.186   1.362  14.505 -0.9558 -0.8011  2.1998
  740TMC3    C710995   2.155   1.417  14.252  0.7099 -0.0451 -0.2028
  740TMC3    C810996   2.039   1.276  14.693  0.2570  0.1136  0.1823
  740TMC3    O110997   2.266   1.408  14.303  0.2399  0.6253  0.7047
  740TMC3    O210998   2.146   1.212  14.689 -0.0561  0.0105 -0.6925
  741TMC3    C110999   1.631   0.602  14.245  0.5489  0.2308 -0.6160
  741TMC3    C211000   1.524   0.510  14.230 -0.3259  0.0651  0.2690
  741TMC3    C311001   1.506   0.425  14.332 -0.2325  0.1471 -0.0032
  741TMC3    C411002   1.711   0.605  14.356 -0.0629 -0.1610  0.0140
  741TMC3    C511003   1.678   0.519  14.460  0.6514 -0.6400  0.2576
  741TMC3    C611004   1.574   0.429  14.454 -0.0296 -0.1708  0.3454
  741TMC3     C11005   1.665   0.696  14.139  0.0361 -0.6023  0.0312
  741TMC3     O11006   1.772   0.749  14.145 -0.5255  0.2714 -0.7021
  741TMC3     H11007   1.471   0.500  14.136 -0.1790 -1.0989  0.3118
  741TMC3    H111008   1.784   0.684  14.354 -0.1306 -0.1564 -3.0395
  741TMC3    H211009   1.574   0.341  14.516 -1.9388 -0.3998  0.0247
  741TMC3    C711010   1.764   0.501  14.577 -0.6313  0.3700  0.4032
  741TMC3    C811011   1.389   0.340  14.326 -0.2186  0.1309  0.1465
  741TMC3    O111012   1.721   0.429  14.672 -0.1774 -0.5527 -0.3283
  741TMC3    O211013   1.342   0.329  14.212 -0.1272 -0.1231 -0.2157
  742TMC3    C111014   1.381   3.309  15.522 -0.0773 -0.2463  0.4664
  742TMC3    C211015   1.307   3.315  15.408  0.2398  0.0630 -0.2876
  742TMC3    C311016   1.343   3.242  15.296  0.0731  0.1793 -0.1376
  742TMC3    C411017   1.490   3.226  15.526  0.0991 -0.0701  0.4299
  742TMC3    C511018   1.532   3.166  15.410 -0.1886 -0.1132 -0.1292
  742TMC3    C611019   1.464   3.178  15.293 -0.2565 -1.0845 -0.1408
  742TMC3     C11020   1.319   3.361  15.637 -0.2923 -0.1535  0.6783
  742TMC3     O11021   1.194   3.371  15.634 -0.3862 -0.1466 -0.2825
  742TMC3     H11022   1.203   3.347  15.413  0.7018  1.2398  1.7020
  742TMC3    H111023   1.518   3.187  15.623 -1.9928 -0.3278  0.9240
  742TMC3    H211024   1.494   3.119  15.207  0.0300  1.4110 -1.7614
  742TMC3    C711025   1.651   3.077  15.416  0.2528 -0.0762 -0.2550
  742TMC3    C811026   1.293   3.284  15.166 -0.1558  0.8447 -0.1067
  742TMC3    O111027   1.654   2.994  15.328 -0.3061 -0.4323 -0.1555
  742TMC3    O211028   1.323   3.212  15.072 -0.4225  0.1466  0.0400
  743MPD2     C11029   0.125   4.622   1.708 -0.0190  0.0769  0.1713
  743MPD2    C111030   0.058   4.708   1.626 -0.3838  0.0605  0.2300
  743MPD2    C211031   0.128   0.060   1.549 -0.3543 -0.1432  0.6488
  743MPD2    C311032   0.266   0.076   1.563  0.0010 -0.4168  0.1998
  743MPD2    C411033   0.332   4.727   1.652 -0.6135  0.4805 -0.1627
  743MPD2    C511034   0.259   4.632   1.723 -0.5545 -0.2486  0.0908
  743MPD2     H11035   0.072   0.123   1.481 -2.0852 -0.1463  2.0725
  743MPD2    H111036   0.440   4.736   1.663 -0.2793 -2.3148 -1.2415
  743MPD2    H211037   0.078   4.544   1.768  1.8015 -0.8595  0.3674
  743MPD2    H311038   0.312   4.575   1.798  0.3489  1.5313  0.8210
  743MPD2     N11039   0.326   0.173   1.491  0.0519  0.3639 -0.0287
  743MPD2    H511040   0.266   0.238   1.441  0.6243 -1.0645 -2.5586
  743MPD2    N111041   4.655   4.703   1.632  0.5035 -0.2488  0.5624
  743MPD2    H711042   4.609   4.632   1.687 -1.3423  0.9926  0.6367
  744TMC3    C111043   4.423   0.037   1.609 -0.0842 -0.0935 -0.0171
  744TMC3    C211044   4.344   0.149   1.598 -0.3585  0.3412  0.1047
  744TMC3    C311045   4.228   0.140   1.530  0.0360  0.0757 -0.1311
  744TMC3    C411046   4.380   4.656   1.558 -0.6170  0.8941  0.1419
  744TMC3    C511047   4.262   4.645   1.495  0.1075 -0.3916  0.5808
  744TMC3    C611048   4.188   0.020   1.476 -0.0261 -0.7129 -0.7327
  744TMC3     C11049   4.563   0.065   1.596  0.4020 -0.3992  0.4974
  744TMC3     O11050   4.590   0.172   1.553  0.1333 -0.0467  0.4127
  744TMC3     H11051   4.384   0.245   1.627  0.5938 -0.3876  1.2296
  744TMC3    H111052   4.454   4.577   1.567 -3.3874 -1.8814 -1.3720
  744TMC3    H211053   4.092   0.019   1.426 -0.2229 -0.9914 -0.3423
  744TMC3    C711054   4.262   4.553   1.386 -0.2972 -0.7078 -0.1021
  744TMC3    C811055   4.135   0.249   1.489  0.2996  0.0459 -0.5678
  744TMC3    O111056   4.299   4.437   1.392  0.0217 -0.7213  0.8154
  744TMC3    O211057   4.047   0.237   1.406 -0.1101 -0.3008  0.6259
  745TMC3    C111058   1.627   3.855  13.633  0.0375  0.0351 -0.3880
  745TMC3    C211059   1.570   3.738  13.657 -0.4890  0.5990  0.2150
  745TMC3    C311060   1.631   3.626  13.617 -0.1848 -0.3713 -0.2113
  745TMC3    C411061   1.749   3.876  13.574 -0.2946 -0.1429  0.4266
  745TMC3    C511062   1.814   3.757  13.528  0.7245  0.2566 -0.3492
  745TMC3    C611063   1.749   3.635  13.539 -1.0452 -0.2746 -0.6856
  745TMC3     C11064   1.590   3.949  13.739  0.0469 -0.1307 -0.8179
  745TMC3     O11065   1.576   3.899  13.850 -0.8909 -0.4425  0.1802
  745TMC3     H11066   1.479   3.739  13.716 -1.0099 -1.8045 -0.5496
  745TMC3    H111067   1.790   3.976  13.568  0.7084 -0.7007 -1.9745
  745TMC3    H211068   1.795   3.539  13.518 -0.9810 -0.5526  0.7948
  745TMC3    C711069   1.933   3.753  13.443 -0.2599 -0.1141 -0.7516
  745TMC3    C811070   1.650   3.538  13.728  0.1144 -0.4373  0.2652
  745TMC3    O111071   1.953   3.643  13.387 -0.0703 -0.5801  0.0783
  745TMC3    O211072   1.673   3.422  13.710 -0.4214 -0.9523  0.4033
  746TMC3    C111073   4.603   1.010  10.801 -0.7116  0.6717 -0.4271
  746TMC3    C211074   4.719   1.008  10.721  0.5603 -0.1306 -0.0985
  746TMC3    C311075   0.036   0.882  10.709  0.1487  0.1590  0.2373
  746TMC3    C411076   4.566   0.901  10.878 -0.5888 -0.3979  0.1386
  746TMC3    C511077   4.634   0.778  10.870 -0.2739 -0.6227  0.2481
  746TMC3    C611078   0.006   0.767  10.785  0.3170 -0.3125  0.7048
  746TMC3     C11079   4.544   1.143  10.817  0.0343 -0.0654 -0.6047
  746TMC3     O11080   4.443   1.145  10.888  0.0423  0.1843 -1.0484
  746TMC3     H11081   0.011   1.094  10.661  2.3245 -1.2257 -0.8262
  746TMC3    H111082   4.468   0.922  10.919 -1.0959  0.0724 -1.3296
  746TMC3    H211083   0.062   0.677  10.763  2.1452  0.3549  2.6285
  746TMC3    C711084   4.568   0.655  10.895  0.7343 -0.1698  0.3313
  746TMC3    C811085   0.153   0.865  10.634 -0.5694 -0.1930  0.7492
  746TMC3    O111086   4.633   0.555  10.870 -0.0766  0.2041  0.1660
  746TMC3    O211087   0.242   0.788  10.674  0.3318  0.5094 -0.1732
  747TMC3    C111088   1.875   0.524  10.576 -0.1605  0.5887 -0.6711
  747TMC3    C211089   1.863   0.408  10.654 -0.4685 -0.1751  0.1046
  747TMC3    C311090   1.793   0.413  10.769  0.4948  0.2045  1.0667
  747TMC3    C411091   1.815   0.641  10.613 -0.2189  0.6964 -0.0830
  747TMC3    C511092   1.741   0.641  10.726  0.0666  0.2779  0.4693
  747TMC3    C611093   1.726   0.533  10.812 -0.2181  0.3633  0.1334
  747TMC3     C11094   1.918   0.517  10.436 -0.4432 -0.9518  0.2598
  747TMC3     O11095   1.861   0.593  10.360 -0.1070  0.4502 -0.3836
  747TMC3     H11096   1.901   0.310  10.625  0.0675  0.3421 -0.9258
  747TMC3    H111097   1.829   0.734  10.559 -0.5091  0.2522 -0.9340
  747TMC3    H211098   1.689   0.549  10.912 -1.5576  0.3689 -0.3700
  747TMC3    C711099   1.697   0.771  10.776  0.0049 -0.3243 -0.1674
  747TMC3    C811100   1.772   0.302  10.857  0.1554 -0.0597  1.5399
  747TMC3    O111101   1.786   0.857  10.775  0.4929  0.1953 -0.8457
  747TMC3    O211102   1.852   0.205  10.854  0.0715 -0.7030  0.4970
  748MPD2     C11103   3.035   1.727   1.115  0.4622 -0.0871  0.4329
  748MPD2    C111104   3.125   1.622   1.144  0.6494  0.1604 -0.7664
  748MPD2    C211105   3.253   1.636   1.095 -0.2066  0.8749  0.4078
  748MPD2    C311106   3.298   1.754   1.039 -0.1563  0.2531 -0.0712
  748MPD2    C411107   3.213   1.869   1.039 -0.1725 -0.7495  0.2899
  748MPD2    C511108   3.084   1.851   1.067 -0.0834  0.6110 -0.3776
  748MPD2     H11109   3.313   1.546   1.096 -1.2516  0.2069  3.1065
  748MPD2    H111110   3.238   1.968   1.002  0.7111 -1.4432 -0.9248
  748MPD2    H211111   2.930   1.709   1.129  0.6936 -1.8985 -0.1449
  748MPD2    H311112   3.021   1.938   1.052 -0.1601  0.6224  0.0006
  748MPD2     N11113   3.440   1.764   1.003 -0.2673  0.2871  0.0074
  748MPD2    H511114   3.505   1.688   1.021 -0.2166  0.8288  2.1551
  748MPD2    N111115   3.070   1.506   1.208 -0.1245 -0.6397  0.0311
  748MPD2    H711116   2.968   1.507   1.212 -0.1300  0.8462 -0.8331
  749TMC3    C111117   3.628   1.896   0.926  0.5120 -0.4724 -0.1593
  749TMC3    C211118   3.698   1.845   1.037  0.8835  0.0996  0.1843
  749TMC3    C311119   3.813   1.905   1.079  0.2138  0.3636  0.1245
  749TMC3    C411120   3.679   1.998   0.849 -0.1387  0.2597 -0.1247
  749TMC3    C511121   3.794   2.058   0.900 -0.5353 -0.6851  0.1794
  749TMC3    C611122   3.867   2.013   1.012  0.3728 -0.1129  0.3373
  749TMC3     C11123   3.484   1.878   0.927 -1.3243 -0.2267  0.2228
  749TMC3     O11124   3.416   1.955   0.861 -0.2118  0.7635 -0.0750
  749TMC3     H11125   3.665   1.764   1.100  0.8485 -1.2130 -1.5178
  749TMC3    H111126   3.622   2.031   0.763  0.7110 -0.0377 -0.8086
  749TMC3    H211127   3.961   2.056   1.045 -0.6786  0.8750  2.0429
  749TMC3    C711128   3.854   2.172   0.828 -0.0155  0.2384  0.6963
  749TMC3    C811129   3.887   1.864   1.201 -0.3829 -0.6397  0.0937
  749TMC3    O111130   3.959   2.215   0.869 -0.9622  0.3596 -0.3429
  749TMC3    O211131   3.964   1.947   1.247 -0.0449 -0.5744 -0.0226
  750MPD2     C11132   4.500   2.758  11.283 -0.5428 -0.7007  0.8118
  750MPD2    C111133   4.363   2.737  11.277 -0.2952 -0.1526  0.0197
  750MPD2    C211134   4.301   2.685  11.163 -0.3249  0.5267  0.3755
  750MPD2    C311135   4.373   2.627  11.060  0.7673 -0.2211  0.1657
  750MPD2    C411136   4.509   2.647  11.063  1.3341  0.2878 -0.4880
  750MPD2    C511137   4.569   2.714  11.171 -0.3701 -0.0901  0.3071
  750MPD2     H11138   4.192   2.679  11.168 -0.3322 -1.0238 -1.9408
  750MPD2    H111139   4.563   2.615  10.975 -0.0598 -1.1549 -0.8129
  750MPD2    H211140   4.561   2.788  11.367  1.8735  2.3333 -2.0035
  750MPD2    H311141   4.677   2.713  11.169 -0.3783  0.0517 -0.2833
  750MPD2     N11142   4.333   2.570  10.938 -0.3725  0.2907  0.4046
  750MPD2    H511143   4.409   2.537  10.881 -0.0421  2.4420 -0.4053
  750MPD2    N111144   4.281   2.775  11.383 -0.3707  0.3480  0.2540
  750MPD2    H711145   4.181   2.780  11.369 -0.1444 -0.0578 -1.4953
  751TMC3    C111146   4.191   2.446  10.795 -0.0873 -0.1343 -0.4510
  751TMC3    C211147   4.065   2.394  10.772 -0.3130  0.5713 -0.6295
  751TMC3    C311148   4.045   2.323  10.659 -0.9620 -0.5205 -0.2903
  751TMC3    C411149   4.290   2.444  10.696 -0.1418  0.0490  0.1899
  751TMC3    C511150   4.259   2.367  10.582  0.0837  0.0806 -0.3280
  751TMC3    C611151   4.136   2.307  10.560  0.7488  0.0428 -0.2166
  751TMC3     C11152   4.211   2.523  10.916  0.5137  0.4674  0.1221
  751TMC3     O11153   4.110   2.531  10.988  0.5903 -0.6919 -0.9291
  751TMC3     H11154   3.997   2.404  10.856 -1.2415 -0.9834 -1.2025
  751TMC3    H111155   4.390   2.483  10.715  0.3074 -0.0511 -1.9694
  751TMC3    H211156   4.119   2.245  10.473  0.3463 -0.4750  0.2382
  751TMC3    C711157   4.364   2.352  10.486  0.0240  0.4247 -0.0725
  751TMC3    C811158   3.941   2.217  10.656 -0.8718 -0.3298  0.4946
  751TMC3    O111159   4.457   2.436  10.474  0.7675  0.0982 -0.1038
  751TMC3    O211160   3.958   2.129  10.576 -0.3963  0.0183  0.4555
  752TMC3    C111161   2.564   2.353  17.395  0.4459  0.3583 -0.5234
  752TMC3    C211162   2.645   2.323  17.507  0.0694 -0.7267  0.3343
  752TMC3    C311163   2.602   2.349  17.633  0.1099 -0.1396  0.0476
  752TMC3    C411164   2.436   2.403  17.412 -0.3053 -0.0659 -0.8497
  752TMC3    C511165   2.401   2.438  17.543 -0.1369 -0.0893  0.2872
  752TMC3    C611166   2.481   2.409  17.656  0.5581 -0.3308 -0.0504
  752TMC3     C11167   2.617   2.331  17.256 -0.1706  0.0347 -0.1443
  752TMC3     O11168   2.728   2.286  17.250 -0.5180 -0.0400 -0.1948
  752TMC3     H11169   2.739   2.270  17.495 -0.5067 -1.7418  0.2899
  752TMC3    H111170   2.371   2.428  17.329 -0.5253  0.6369 -0.4652
  752TMC3    H211171   2.448   2.429   0.015 -0.1302  0.4397 -0.4298
  752TMC3    C711172   2.256   2.452  17.566 -0.1795 -0.0711  0.5776
  752TMC3    C811173   2.632   2.253  17.739  0.0549  0.3559 -0.8273
  752TMC3    O111174   2.174   2.393  17.494  0.5634  0.3606  0.2669
  752TMC3    O211175   2.542   2.202   0.058  0.1350 -0.0310  0.1801
  753TMC3    C111176   0.394   3.147  13.363 -0.1533 -0.1491  0.8121
  753TMC3    C211177   0.459   3.153  13.480  0.3691 -0.0605 -0.1268
  753TMC3    C311178   0.564   3.057  13.485 -0.5140  0.3061  0.1095
  753TMC3    C411179   0.413   3.052  13.262  0.9085  0.7933 -0.6365
  753TMC3    C511180   0.509   2.960  13.273  0.2167 -0.9991  0.6287
  753TMC3    C611181   0.584   2.955  13.387 -0.2790  0.3076 -0.2288
  753TMC3     C11182   0.294   3.246  13.336 -0.1517  0.2764 -0.3464
  753TMC3     O11183   0.252   3.252  13.221 -0.4787  0.0820 -0.1466
  753TMC3     H11184   0.435   3.220  13.563  0.6503  0.7762 -0.7184
  753TMC3    H111185   0.357   3.049  13.170  0.0442 -0.4005 -0.0673
  753TMC3    H211186   0.656   2.878  13.411 -2.2354 -1.3370  0.4006
  753TMC3    C711187   0.490   2.847  13.175 -0.0734  0.7858  0.1697
  753TMC3    C811188   0.671   3.063  13.586  0.1048 -0.5064  0.3587
  753TMC3    O111189   0.386   2.846  13.116  0.9922  0.2592 -0.4475
  753TMC3    O211190   0.754   2.973  13.580  0.0253  0.3911  0.6047
  754MPD2     C11191   3.333   1.938  13.827  0.5853  0.4231 -0.4822
  754MPD2    C111192   3.334   2.070  13.794 -0.0093 -0.1653  0.4540
  754MPD2    C211193   3.239   2.123  13.709  0.2615  0.1961  0.1373
  754MPD2    C311194   3.135   2.042  13.658 -0.8537  0.3581 -0.5285
  754MPD2    C411195   3.131   1.907  13.691  0.4024  0.0671  0.2454
  754MPD2    C511196   3.234   1.860  13.774 -0.3014 -0.2047  0.4701
  754MPD2     H11197   3.237   2.226  13.675  0.9789  0.0535 -0.3231
  754MPD2    H111198   3.056   1.834  13.663 -2.1251  3.0159 -0.7552
  754MPD2    H211199   3.407   1.897  13.894  0.1755 -0.5644 -0.6381
  754MPD2    H311200   3.241   1.753  13.790 -2.6213 -0.4976 -0.5468
  754MPD2     N11201   3.022   2.073  13.568 -0.1611  0.0632 -0.2895
  754MPD2    H511202   2.956   2.000  13.543  0.7736 -0.8146 -0.1966
  754MPD2    N111203   3.434   2.146  13.863  0.0971 -0.0119 -0.4096
  754MPD2    H711204   3.502   2.097  13.920 -1.0802 -1.8157 -0.5273
  755MPD2     C11205   3.196   2.738  13.067 -0.4666  0.4403 -0.2700
  755MPD2    C111206   3.085   2.772  13.141 -0.5231  0.0593  0.4374
  755MPD2    C211207   3.005   2.662  13.169 -0.3025  0.0720 -0.1953
  755MPD2    C311208   3.028   2.533  13.136 -0.2079 -0.2340 -0.9533
  755MPD2    C411209   3.149   2.505  13.080  0.9271  0.1631 -0.1366
  755MPD2    C511210   3.232   2.611  13.046  0.0580  0.5399 -0.2034
  755MPD2     H11211   2.915   2.690  13.222  0.6895 -0.4103  1.7252
  755MPD2    H111212   3.180   2.404  13.054 -1.9062 -0.6371 -0.3502
  755MPD2    H211213   3.265   2.813  13.029  1.0560 -1.3947 -1.0773
  755MPD2    H311214   3.319   2.587  12.987 -0.0194 -2.3472  0.8526
  755MPD2     N11215   2.942   2.429  13.165 -0.3323  0.1403  0.0508
  755MPD2    H511216   2.970   2.334  13.140 -0.3184  0.6318 -1.7884
  755MPD2    N111217   3.047   2.904  13.179 -0.1055 -0.0299 -0.0825
  755MPD2    H711218   2.968   2.910  13.243 -0.3957 -0.1497 -0.4295
  756MPD2     C11219   4.595   3.683   9.736 -0.1012 -0.1182 -0.0148
  756MPD2    C111220   4.506   3.622   9.826  0.1695  0.5631 -0.5219
  756MPD2    C211221   4.427   3.524   9.783  0.3638 -0.8999  0.4386
  756MPD2    C311222   4.429   3.476   9.659 -0.7381  0.7086  0.5652
  756MPD2    C411223   4.531   3.517   9.574  0.1980  0.2335  0.5551
  756MPD2    C511224   4.609   3.629   9.609  0.1828 -0.0692 -0.6245
  756MPD2     H11225   4.352   3.482   9.848 -0.4813  2.5713  1.6904
  756MPD2    H111226   4.539   3.472   9.476 -0.5009 -0.2901  0.7403
  756MPD2    H211227   4.661   3.765   9.761  1.1327 -0.9353 -0.5328
  756MPD2    H311228   4.691   3.649   9.542  0.5518  1.2359  0.2057
  756MPD2     N11229   4.340   3.368   9.642  0.2474 -0.1741  0.2121
  756MPD2    H511230   4.284   3.349   9.725 -1.4965 -1.0031 -1.1676
  756MPD2    N111231   4.500   3.655   9.963 -0.6278  0.0039  0.7021
  756MPD2    H711232   4.412   3.623  10.001 -1.0125 -1.4380 -1.4228
  757MPD2     C11233   3.727   2.635   9.094 -0.1180  0.1599  0.2488
  757MPD2    C111234   3.667   2.663   9.214  0.8276 -1.4325 -0.1958
  757MPD2    C211235   3.736   2.743   9.304 -0.2289 -1.3941 -0.1539
  757MPD2    C311236   3.848   2.814   9.267  0.2073 -0.0180 -0.0421
  757MPD2    C411237   3.902   2.791   9.141 -0.2111  0.1728  1.1287
  757MPD2    C511238   3.837   2.708   9.056 -0.0876  0.4721  0.0013
  757MPD2     H11239   3.697   2.771   9.401 -0.2249 -0.8080 -0.3227
  757MPD2    H111240   3.992   2.836   9.101 -0.1011 -1.0471 -0.0187
  757MPD2    H211241   3.691   2.567   9.019 -0.3286 -0.2244  0.7013
  757MPD2    H311242   3.885   2.676   8.964 -1.8291  1.0325 -1.1006
  757MPD2     N11243   3.910   2.893   9.360  0.4108 -0.5666  0.0310
  757MPD2    H511244   3.865   2.908   9.450  1.1790 -1.7345  0.6066
  757MPD2    N111245   3.543   2.604   9.252  0.6452  0.1317 -0.1971
  757MPD2    H711246   3.490   2.545   9.189 -1.6578 -0.0900  1.9663
  758MPD2     C11247   3.748   1.701  15.813 -1.0244  0.4492 -0.4546
  758MPD2    C111248   3.805   1.612  15.901  0.3145  0.7895  0.1200
  758MPD2    C211249   3.746   1.602  16.026 -0.2147 -0.5763 -0.1318
  758MPD2    C311250   3.642   1.684  16.056 -0.1531 -0.1607 -1.0235
  758MPD2    C411251   3.584   1.772  15.965 -0.5883 -0.4163 -0.1539
  758MPD2    C511252   3.633   1.768  15.842 -0.2490 -0.9457 -0.2854
  758MPD2     H11253   3.773   1.532  16.103 -1.0468  0.1463  0.8279
  758MPD2    H111254   3.497   1.828  15.996  1.0558  2.2761 -0.4766
  758MPD2    H211255   3.784   1.726  15.714  1.1759 -0.6990  0.0411
  758MPD2    H311256   3.596   1.832  15.763  2.9235  1.5326  0.2350
  758MPD2     N11257   3.605   1.689  16.193 -0.2618 -0.0822 -0.1675
  758MPD2    H511258   3.529   1.754  16.211  0.8512  1.0812  0.2883
  758MPD2    N111259   3.938   1.567  15.872  0.3120  0.3608 -0.2499
  758MPD2    H711260   3.990   1.605  15.793  2.1020  0.2210  0.8694
  759MPD2     C11261   3.794   0.402   9.805 -0.2328  0.5811 -0.3797
  759MPD2    C111262   3.869   0.359   9.705 -0.7506  0.0802  0.2434
  759MPD2    C211263   3.910   0.448   9.609  0.6609  0.4786  0.2117
  759MPD2    C311264   3.870   0.583   9.610  0.2272 -0.4927  0.2492
  759MPD2    C411265   3.783   0.617   9.705  0.2328  0.3637 -0.2241
  759MPD2    C511266   3.751   0.531   9.804 -0.6025 -0.4288 -0.1390
  759MPD2     H11267   3.980   0.428   9.528  0.4150  0.1892  0.0721
  759MPD2    H111268   3.742   0.717   9.714 -1.3688 -0.3114  0.0941
  759MPD2    H211269   3.766   0.348   9.894  0.7805 -0.9726 -0.9888
  759MPD2    H311270   3.692   0.568   9.887  1.3773  2.9232 -0.2378
  759MPD2     N11271   3.917   0.674   9.506  0.2691 -0.2155  0.4286
  759MPD2    H511272   3.979   0.636   9.434 -0.7809 -0.2586 -0.4573
  759MPD2    N111273   3.930   0.236   9.714  0.6381  0.5298  0.0930
  759MPD2    H711274   3.990   0.211   9.636 -0.1938  0.5481 -0.5512
  760MPD2     C11275   2.378   3.257  11.614 -0.1290 -0.2942 -0.1519
  760MPD2    C111276   2.500   3.198  11.617  0.0527  0.1460  0.5546
  760MPD2    C211277   2.507   3.064  11.650 -0.8306 -0.1624 -0.1173
  760MPD2    C311278   2.392   2.995  11.691  0.3759  0.1006  0.5440
  760MPD2    C411279   2.272   3.058  11.700  0.1753 -0.4066  0.0014
  760MPD2    C511280   2.263   3.183  11.649 -0.1626 -0.2910  0.1964
  760MPD2     H11281   2.597   3.005  11.647 -0.4983  0.3046  1.0062
  760MPD2    H111282   2.185   3.006  11.738 -1.4792  1.5098 -1.1381
  760MPD2    H211283   2.355   3.358  11.581  0.0471 -0.4202 -0.6484
  760MPD2    H311284   2.167   3.233  11.644 -0.1011  0.0541  2.4257
  760MPD2     N11285   2.394   2.856  11.723  0.1603 -0.7385 -0.3714
  760MPD2    H511286   2.302   2.820  11.746  0.3995  1.1751  3.6306
  760MPD2    N111287   2.620   3.262  11.584 -0.0357 -0.2537  0.2725
  760MPD2    H711288   2.706   3.212  11.606  0.1900 -0.3670 -0.8643
  761MPD2     C11289   3.556   1.968  10.875 -1.2942 -0.4211  0.2617
  761MPD2    C111290   3.637   1.932  10.771  0.0494  0.0063  0.4129
  761MPD2    C211291   3.723   2.031  10.731 -0.1284 -0.1959 -0.9084
  761MPD2    C311292   3.741   2.148  10.793  0.4324 -0.3313 -0.4904
  761MPD2    C411293   3.667   2.178  10.903 -0.0950 -0.6524  0.4035
  761MPD2    C511294   3.572   2.088  10.941 -0.1921 -0.0535  0.0581
  761MPD2     H11295   3.799   2.002  10.660  2.3201 -0.2021  1.6823
  761MPD2    H111296   3.690   2.263  10.967 -1.7108  0.7725 -0.9088
  761MPD2    H211297   3.481   1.897  10.908 -3.3389  0.3058 -2.7712
  761MPD2    H311298   3.519   2.104  11.034  0.3222 -3.2651  0.9119
  761MPD2     N11299   3.841   2.243  10.749  0.4031 -0.1057 -0.1579
  761MPD2    H511300   3.832   2.337  10.788  0.6859  0.4076 -1.3195
  761MPD2    N111301   3.623   1.802  10.724  0.1305 -0.1912  0.0838
  761MPD2    H711302   3.576   1.742  10.790 -0.7713 -0.1945 -0.5615
  762MPD2     C11303   4.165   1.079  10.589  0.6969  0.2065  0.3546
  762MPD2    C111304   4.134   1.207  10.550 -0.6708  0.6535  0.0576
  762MPD2    C211305   4.236   1.269  10.483 -0.2602 -0.0046  0.0116
  762MPD2    C311306   4.359   1.206  10.453 -0.0711  0.5512  0.4091
  762MPD2    C411307   4.380   1.072  10.490 -0.2803  0.5006 -0.0123
  762MPD2    C511308   4.281   1.009  10.560 -0.2704  0.4428  0.1307
  762MPD2     H11309   4.219   1.372  10.455  1.5118 -0.3132 -2.1206
  762MPD2    H111310   4.471   1.013  10.484 -1.1691 -1.0733  1.9267
  762MPD2    H211311   4.080   1.029  10.635  0.4297 -0.1839 -0.5625
  762MPD2    H311312   4.293   0.904  10.584  0.0500  0.5028  0.2252
  762MPD2     N11313   4.463   1.282  10.391 -0.2265  0.0963 -0.6711
  762MPD2    H511314   4.430   1.364  10.341  0.0710  1.2030  0.9581
  762MPD2    N111315   4.002   1.258  10.573  0.0014 -0.4205 -0.6673
  762MPD2    H711316   3.947   1.194  10.629 -0.2833 -0.7050 -1.2758
  763MPD2     C11317   0.355   1.775  16.075 -0.5571 -0.3158 -0.1362
  763MPD2    C111318   0.465   1.715  16.016  0.1701 -0.1362 -0.3733
  763MPD2    C211319   0.596   1.736  16.065 -0.4474 -0.1749 -0.1389
  763MPD2    C311320   0.615   1.828  16.168 -0.0198 -0.2573 -0.2239
  763MPD2    C411321   0.511   1.904  16.209 -0.7831 -0.2725  0.2196
  763MPD2    C511322   0.373   1.868  16.177  0.6050 -0.6547 -0.9676
  763MPD2     H11323   0.677   1.673  16.031  0.9050  1.8055 -0.5713
  763MPD2    H111324   0.517   1.982  16.285  3.1516  0.0582 -0.4539
  763MPD2    H211325   0.252   1.752  16.047  0.0786  0.3875 -3.0119
  763MPD2    H311326   0.289   1.924  16.216  0.3703 -1.1146 -0.8156
  763MPD2     N11327   0.744   1.856  16.211 -1.0423  0.3480  0.2871
  763MPD2    H511328   0.818   1.795  16.177 -1.2085 -0.0014  0.5479
  763MPD2    N111329   0.453   1.634  15.904 -0.1231  0.2493  0.3694
  763MPD2    H711330   0.542   1.600  15.869  0.6178  0.8275  1.6988
  764MPD2     C11331   3.258   3.214  17.200  0.1546 -0.0712 -0.5445
  764MPD2    C111332   3.141   3.162  17.265 -0.6806  0.1293  0.4143
  764MPD2    C211333   3.152   3.124  17.395  0.2006 -0.0928  0.2984
  764MPD2    C311334   3.266   3.140  17.469 -0.5279 -0.1961 -0.5002
  764MPD2    C411335   3.376   3.196  17.408  0.0755  0.2473  0.4692
  764MPD2    C511336   3.373   3.231  17.277  0.1869  0.5309 -0.6691
  764MPD2     H11337   3.066   3.076  17.442 -0.1856  1.5046  1.2214
  764MPD2    H111338   3.471   3.206  17.459  0.0966  2.4924 -0.0217
  764MPD2    H211339   3.260   3.247  17.097  1.6787  1.5883  0.0160
  764MPD2    H311340   3.449   3.291  17.229 -0.5319  1.7466 -0.3157
  764MPD2     N11341   3.262   3.097  17.607  0.4532  0.0995  0.6070
  764MPD2    H511342   3.178   3.055  17.646  0.5704 -1.0825 -0.4024
  764MPD2    N111343   3.020   3.133  17.200  0.4206  0.7112  0.1142
  764MPD2    H711344   2.945   3.083  17.245  2.3047 -0.2620  2.1829
  765MPD2     C11345   3.607   1.459  15.637 -0.1039  0.3394 -0.8566
  765MPD2    C111346   3.621   1.375  15.740  0.4888 -0.1858  0.3021
  765MPD2    C211347   3.738   1.299  15.741  0.2207 -0.2591 -0.7571
  765MPD2    C311348   3.830   1.322  15.640  0.2369 -0.3652  0.2780
  765MPD2    C411349   3.800   1.395  15.527 -0.1212 -0.3255  0.1754
  765MPD2    C511350   3.686   1.473  15.531  0.1737 -0.2208 -0.7034
  765MPD2     H11351   3.754   1.225  15.818 -0.9304  1.2114  0.8898
  765MPD2    H111352   3.863   1.412  15.441 -1.8993  0.4896 -0.9750
  765MPD2    H211353   3.526   1.532  15.635  0.9321  1.4495 -2.1546
  765MPD2    H311354   3.668   1.546  15.453 -0.7576 -0.3708 -0.6373
  765MPD2     N11355   3.954   1.246  15.649  0.2826  0.3284 -0.1409
  765MPD2    H511356   3.956   1.175  15.722 -1.4478 -0.5462 -0.9456
  765MPD2    N111357   3.523   1.372  15.841  0.2055  0.4112  0.0681
  765MPD2    H711358   3.437   1.423  15.827  1.7063  1.8029 -3.7794
  766MPD2     C11359   3.128   1.144  15.476 -0.2014 -0.0476  0.1521
  766MPD2    C111360   3.176   1.252  15.545  0.8255  0.4204  0.0104
  766MPD2    C211361   3.243   1.356  15.487 -0.0332 -0.0025 -0.5147
  766MPD2    C311362   3.253   1.344  15.349  0.4352  0.4448 -0.5186
  766MPD2    C411363   3.196   1.238  15.279  0.2551  0.5086 -0.2879
  766MPD2    C511364   3.138   1.139  15.342 -0.3387 -0.5295  0.0281
  766MPD2     H11365   3.295   1.435  15.540  0.9190 -0.3171 -0.9693
  766MPD2    H111366   3.184   1.234  15.171 -0.9396 -0.9275 -0.1004
  766MPD2    H211367   3.079   1.060  15.523 -2.4027  1.4186  0.4726
  766MPD2    H311368   3.103   1.050  15.291 -1.1371 -0.4183  0.3749
  766MPD2     N11369   3.312   1.436  15.261 -0.2200  0.3835 -0.2367
  766MPD2    H511370   3.323   1.410  15.163  2.2105 -0.2477  0.1954
  766MPD2    N111371   3.160   1.247  15.684  0.6351  0.2513  0.0226
  766MPD2    H711372   3.127   1.158  15.720 -0.9808  0.7745 -0.1427
  767MPD2     C11373   2.848   2.062  14.898  0.9946  0.0443 -0.1693
  767MPD2    C111374   2.955   1.978  14.931  0.3506  0.5278 -0.4435
  767MPD2    C211375   2.953   1.846  14.895 -0.9275 -0.1466  0.3421
  767MPD2    C311376   2.860   1.800  14.805 -0.0703 -0.1346  0.3624
  767MPD2    C411377   2.758   1.890  14.775  0.3177 -0.3150  0.4003
  767MPD2    C511378   2.747   2.019  14.817  0.8917  0.6890  0.0969
  767MPD2     H11379   3.036   1.780  14.914 -0.4909  0.5659  0.9371
  767MPD2    H111380   2.671   1.867  14.715  0.7939 -1.0175 -0.0215
  767MPD2    H211381   2.855   2.169  14.919 -0.2001 -0.0839  0.8502
  767MPD2    H311382   2.662   2.079  14.787  1.1844  0.2680 -1.5783
  767MPD2     N11383   2.872   1.675  14.750 -0.4286 -0.1238  0.3006
  767MPD2    H511384   2.954   1.624  14.780 -0.6405 -0.5455  0.1740
  767MPD2    N111385   3.041   2.033  15.033 -0.7480  0.3467  0.1966
  767MPD2    H711386   3.034   2.134  15.034 -2.3144  0.2480  0.7990
  768MPD2     C11387   0.064   0.545  10.261  0.2189 -0.4785 -0.1682
  768MPD2    C111388   0.006   0.467  10.359 -0.4158 -0.0574 -0.3488
  768MPD2    C211389   0.073   0.452  10.481 -0.7162 -0.4469 -0.4837
  768MPD2    C311390   0.187   0.511  10.504 -0.4653 -0.6739 -0.2115
  768MPD2    C411391   0.244   0.595  10.410  0.1666 -0.1094  0.5008
  768MPD2    C511392   0.183   0.607  10.288 -0.3726 -0.3322  0.6854
  768MPD2     H11393   0.025   0.386  10.553 -0.8289  0.4714  0.2781
  768MPD2    H111394   0.348   0.623  10.421 -0.2773  1.6818  0.2393
  768MPD2    H211395   0.024   0.548  10.160  2.0652  2.4591 -0.8008
  768MPD2    H311396   0.232   0.666  10.211  2.0159 -1.7933  1.1135
  768MPD2     N11397   0.248   0.499  10.634 -0.7151 -0.4463  0.1223
  768MPD2    H511398   0.294   0.585  10.661 -0.6724 -0.5900  0.4936
  768MPD2    N111399   4.618   0.398  10.350  0.1969 -0.1340 -0.0071
  768MPD2    H711400   4.593   0.349  10.435  0.5132 -0.2703  0.0088
  769MPD2     C11401   0.182   2.724  15.244  0.3424 -1.3241  0.4102
  769MPD2    C111402   0.060   2.760  15.288 -0.2265 -0.0720 -0.4871
  769MPD2    C211403   0.048   2.803  15.421  0.7429  0.3393  0.2318
  769MPD2    C311404   0.154   2.789  15.506  0.6253  0.0289 -0.1371
  769MPD2    C411405   0.276   2.752  15.457  0.9774  0.5376  1.3419
  769MPD2    C511406   0.296   2.728  15.325 -0.0923  0.3204 -0.2460
  769MPD2     H11407   4.686   2.842  15.448  0.4154  0.9941 -1.9118
  769MPD2    H111408   0.352   2.740  15.534  2.6140 -1.3555 -0.5647
  769MPD2    H211409   0.207   2.692  15.143  0.5139  1.4058 -0.4072
  769MPD2    H311410   0.392   2.686  15.296 -1.2581 -0.7692 -2.5720
  769MPD2     N11411   0.133   2.828  15.639  0.2049  0.1714 -0.4133
  769MPD2    H511412   0.041   2.860  15.666  0.0598 -0.9413  0.4061
  769MPD2    N111413   4.694   2.766  15.189  0.0735 -0.3582 -0.2800
  769MPD2    H711414   4.723   2.741  15.095 -0.8696 -0.2730 -0.5911
  770MPD2     C11415   4.512   2.195  14.599 -0.2746  0.4943 -0.3053
  770MPD2    C111416   4.419   2.197  14.693  0.2344  0.6572  0.0411
  770MPD2    C211417   4.375   2.318  14.753  0.1160  0.3362 -0.5647
  770MPD2    C311418   4.440   2.442  14.721  0.2677 -0.1661  0.1164
  770MPD2    C411419   4.546   2.431  14.639 -0.0225  0.0017 -0.3192
  770MPD2    C511420   4.581   2.313  14.574 -0.5053 -0.3947  0.6380
  770MPD2     H11421   4.291   2.313  14.821 -0.6974 -2.6588 -1.8021
  770MPD2    H111422   4.618   2.507  14.610  0.4603 -0.5763 -0.6133
  770MPD2    H211423   4.545   2.110  14.541 -0.7930  0.0861  0.0088
  770MPD2    H311424   4.659   2.315  14.498  0.4725  1.6698  1.7183
  770MPD2     N11425   4.394   2.563  14.773 -0.5009  1.0931  0.4839
  770MPD2    H511426   4.310   2.562  14.829  0.2669  0.9849  1.6154
  770MPD2    N111427   4.353   2.078  14.719 -0.1755 -0.5247  0.2220
  770MPD2    H711428   4.377   1.992  14.672  3.5423  1.2405 -1.1251
  771MPD2     C11429   0.711   0.772  13.402  0.2116  0.2741  0.9256
  771MPD2    C111430   0.785   0.859  13.316  0.3036 -0.1859 -0.0008
  771MPD2    C211431   0.770   0.844  13.176  0.2062  0.1166 -0.2756
  771MPD2    C311432   0.681   0.752  13.123  0.6457  1.2693 -0.0522
  771MPD2    C411433   0.613   0.667  13.213 -0.6572 -0.3520 -0.1660
  771MPD2    C511434   0.628   0.678  13.347  0.2603 -0.0331 -0.3538
  771MPD2     H11435   0.826   0.909  13.108 -3.4319  1.1556 -2.2736
  771MPD2    H111436   0.546   0.587  13.184 -0.3398 -0.4481 -0.6379
  771MPD2    H211437   0.728   0.772  13.509  1.7102 -2.0522  0.6916
  771MPD2    H311438   0.570   0.617  13.415  1.1093 -0.8254 -0.3542
  771MPD2     N11439   0.687   0.736  12.979  0.4814 -0.4038 -0.0986
  771MPD2    H511440   0.761   0.787  12.932  0.1442 -0.5840 -0.8287
  771MPD2    N111441   0.876   0.953  13.368  0.4080 -0.3995  0.4803
  771MPD2    H711442   0.925   1.006  13.297  0.1100 -0.2712  0.3663
  772MPD2     C11443   0.786   1.647  13.454  0.3166  0.2492  0.1863
  772MPD2    C111444   0.773   1.550  13.551  0.1506 -0.3447 -0.0288
  772MPD2    C211445   0.661   1.543  13.623  0.6544  0.2200  0.2814
  772MPD2    C311446   0.559   1.635  13.619 -0.4834  0.2005 -0.5098
  772MPD2    C411447   0.573   1.734  13.527  0.0735 -0.0403  0.0766
  772MPD2    C511448   0.681   1.738  13.444 -0.2144  0.0121  0.1116
  772MPD2     H11449   0.650   1.459  13.691  0.3184  0.6967  0.8202
  772MPD2    H111450   0.499   1.813  13.517 -0.1623 -0.1768  0.7211
  772MPD2    H211451   0.878   1.661  13.399 -1.2147  0.1316 -2.4030
  772MPD2    H311452   0.692   1.819  13.373 -4.1291 -1.6467 -2.4384
  772MPD2     N11453   0.444   1.622  13.702 -0.3664 -0.1340 -0.4899
  772MPD2    H511454   0.363   1.680  13.683 -0.0998  0.9771  1.8088
  772MPD2    N111455   0.878   1.464  13.587  0.1067 -0.5297 -0.0420
  772MPD2    H711456   0.872   1.407  13.670 -2.7241 -2.8783 -1.9046
  773MPD2     C11457   4.470   2.314   0.403 -0.4762 -0.1807  0.2191
  773MPD2    C111458   4.366   2.247   0.346 -0.2518 -0.1124  0.3532
  773MPD2    C211459   4.367   2.106   0.361  0.4150 -0.1179 -0.3502
  773MPD2    C311460   4.465   2.045   0.436  0.2475 -0.1266 -1.1659
  773MPD2    C411461   4.562   2.114   0.502 -1.2941  0.3684  0.3851
  773MPD2    C511462   4.568   2.250   0.480 -0.7008  0.7657 -0.2661
  773MPD2     H11463   4.291   2.045   0.312  1.6197  0.3938 -2.8328
  773MPD2    H111464   4.633   2.062   0.566 -1.4833 -1.0470 -0.5630
  773MPD2    H211465   4.479   2.422   0.393  1.3862 -0.3160  0.4618
  773MPD2    H311466   4.640   2.318   0.523 -0.1632  0.7407 -1.1372
  773MPD2     N11467   4.465   1.904   0.457  0.1679 -0.5124  1.2121
  773MPD2    H511468   4.552   1.863   0.488  1.7520  1.6326 -0.4524
  773MPD2    N111469   4.267   2.298   0.260  0.1216  0.4523  0.0029
  773MPD2    H711470   4.194   2.244   0.213  2.3543 -1.3462 -1.3526
  774MPD2     C11471   3.984   1.963  14.529  0.2338  0.1744  0.0008
  774MPD2    C111472   3.924   1.919  14.412 -0.5729  0.0179  0.2485
  774MPD2    C211473   3.902   1.997  14.304 -0.0906  0.7612 -0.1218
  774MPD2    C311474   3.944   2.132  14.309 -0.0073 -0.4977 -0.5509
  774MPD2    C411475   4.004   2.182  14.428 -0.1572 -0.0765 -0.3721
  774MPD2    C511476   4.019   2.093  14.530 -0.3112 -0.0876  0.3329
  774MPD2     H11477   3.866   1.946  14.216 -0.4249 -1.4896  1.3187
  774MPD2    H111478   4.030   2.285  14.447  0.1886 -0.6199  2.2158
  774MPD2    H211479   3.997   1.892  14.611  1.5826 -0.4916 -0.7897
  774MPD2    H311480   4.062   2.125  14.624 -0.3446 -0.5506  0.5060
  774MPD2     N11481   3.905   2.227  14.208  0.1872  0.3361  0.2113
  774MPD2    H511482   3.907   2.325  14.236 -2.6025  0.7997 -1.3208
  774MPD2    N111483   3.891   1.779  14.403 -0.1512  0.2535  0.4198
  774MPD2    H711484   3.909   1.732  14.492 -0.6599  2.2413  1.5735
  775MPD2     C11485   0.421   2.682  16.070  0.2045 -0.0573  0.3259
  775MPD2    C111486   0.402   2.804  16.120  0.0209  0.0785  0.8709
  775MPD2    C211487   0.477   2.903  16.062  0.1443  0.2827 -0.4048
  775MPD2    C311488   0.575   2.881  15.959  0.1462  0.0954 -0.1314
  775MPD2    C411489   0.586   2.748  15.926  0.0569 -0.7623  0.0984
  775MPD2    C511490   0.514   2.653  15.981  0.7536  0.1337  0.2012
  775MPD2     H11491   0.457   3.007  16.085  0.9729  0.5633 -0.9488
  775MPD2    H111492   0.649   2.721  15.842 -0.6829  0.5512 -0.8746
  775MPD2    H211493   0.359   2.604  16.113  1.4394  0.3645  2.9378
  775MPD2    H311494   0.527   2.550  15.950 -0.1990 -0.6629  2.4299
  775MPD2     N11495   0.659   2.974  15.889 -0.2657  0.5681 -0.0940
  775MPD2    H511496   0.733   2.931  15.835 -0.7197 -0.2090 -0.0989
  775MPD2    N111497   0.306   2.825  16.217 -0.3060  0.3509  0.5596
  775MPD2    H711498   0.254   2.740  16.237 -1.6213  1.1313  0.4025
  776MPD2     C11499   3.877   3.319  11.597  0.9237  0.0465 -0.3443
  776MPD2    C111500   3.994   3.263  11.558  0.5652 -0.0639 -0.0559
  776MPD2    C211501   4.088   3.342  11.506  0.4162  0.2109  0.7470
  776MPD2    C311502   4.060   3.470  11.470  0.4727 -1.0529 -0.1313
  776MPD2    C411503   3.942   3.531  11.509 -0.0739  0.0243 -0.1264
  776MPD2    C511504   3.848   3.452  11.577 -0.1364  0.2031 -0.2439
  776MPD2     H11505   4.188   3.304  11.486  0.1726  0.1568 -0.3820
  776MPD2    H111506   3.914   3.632  11.479 -0.5886 -0.6106 -1.8013
  776MPD2    H211507   3.802   3.269  11.658  1.6430 -2.1574 -1.2945
  776MPD2    H311508   3.749   3.493  11.594 -0.7072 -0.2944 -2.4473
  776MPD2     N11509   4.155   3.553  11.407 -0.5609  0.0498 -0.2103
  776MPD2    H511510   4.119   3.648  11.402 -1.5001 -0.3167 -0.4745
  776MPD2    N111511   4.035   3.128  11.591 -0.1984  0.0902 -0.0933
  776MPD2    H711512   4.135   3.112  11.580 -0.2842  0.4474 -1.3430
  777MPD2     C11513   3.965   0.974   0.851 -0.4049 -0.2539  0.0295
  777MPD2    C111514   4.026   0.886   0.951  0.3001 -0.9204 -0.0893
  777MPD2    C211515   4.082   0.772   0.908  0.8082  0.9120  0.6795
  777MPD2    C311516   4.073   0.731   0.776 -0.0639  0.0571  0.0054
  777MPD2    C411517   4.020   0.824   0.680 -0.4713 -0.5131  0.4245
  777MPD2    C511518   3.979   0.948   0.722  0.1024 -0.6278 -0.2575
  777MPD2     H11519   4.113   0.696   0.978  1.2746 -1.4851 -2.1075
  777MPD2    H111520   3.994   0.794   0.579 -1.3953 -1.8220  1.0435
  777MPD2    H211521   3.913   1.066   0.874  0.5672  0.6649 -1.4172
  777MPD2    H311522   3.921   0.999   0.646  2.5438 -0.8057 -2.2697
  777MPD2     N11523   4.113   0.598   0.744 -0.0433 -0.1485 -0.2782
  777MPD2    H511524   4.143   0.541   0.822 -1.2949  0.7858  0.8902
  777MPD2    N111525   4.023   0.929   1.091  0.0066  0.6825  0.0637
  777MPD2    H711526   3.988   1.022   1.115 -1.9242 -0.5429  1.9898
  778MPD2     C11527   0.599   0.853  14.812  0.2722 -0.0607 -0.0890
  778MPD2    C111528   0.652   0.742  14.755  0.0403  0.3662 -0.2131
  778MPD2    C211529   0.741   0.748  14.650 -1.2909  0.4354 -0.3965
  778MPD2    C311530   0.789   0.870  14.615 -0.1635 -0.2092 -0.4144
  778MPD2    C411531   0.747   0.982  14.686 -0.1129 -0.1261 -0.2645
  778MPD2    C511532   0.651   0.971  14.787  0.1495 -1.1504  0.3908
  778MPD2     H11533   0.784   0.664  14.596 -1.7695  0.4469 -0.7924
  778MPD2    H111534   0.788   1.082  14.671 -0.9762  0.5120  1.5649
  778MPD2    H211535   0.523   0.843  14.889 -0.1233  0.0519 -0.4703
  778MPD2    H311536   0.621   1.058  14.845 -0.2035 -0.5902 -0.6310
  778MPD2     N11537   0.895   0.868  14.524 -1.1628 -0.0608  0.5532
  778MPD2    H511538   0.932   0.778  14.495  3.9227  0.9802  3.7851
  778MPD2    N111539   0.616   0.608  14.800 -0.4913 -0.1715  0.5454
  778MPD2    H711540   0.665   0.529  14.761  2.7370  2.1857 -0.1607
  779MPD2     C11541   0.321   4.205  14.211  0.6669 -0.0083  0.2482
  779MPD2    C111542   0.458   4.215  14.220  0.2759 -0.4979  0.2337
  779MPD2    C211543   0.523   4.333  14.198 -0.7180 -0.2658 -0.2284
  779MPD2    C311544   0.451   4.447  14.169  0.5487 -0.4556  0.6519
  779MPD2    C411545   0.311   4.442  14.175  0.1622 -0.1936 -0.6289
  779MPD2    C511546   0.251   4.319  14.189  0.2692  0.4391 -0.1077
  779MPD2     H11547   0.630   4.350  14.193 -0.8716  0.7108 -0.0855
  779MPD2    H111548   0.246   4.527  14.161 -1.6199 -1.7843 -1.9577
  779MPD2    H211549   0.270   4.114  14.240  1.8052 -0.3817  1.0776
  779MPD2    H311550   0.143   4.319  14.184  0.2962 -0.8115 -0.9050
  779MPD2     N11551   0.518   4.565  14.149 -0.4190  0.0125  0.4137
  779MPD2    H511552   0.618   4.556  14.161 -0.1159  1.4859 -1.1291
  779MPD2    N111553   0.535   4.097  14.242  0.4229  0.6506  0.6550
  779MPD2    H711554   0.636   4.100  14.254 -0.0344  0.8498  4.5167
  780MPD2     C11555   0.583   4.121   0.826 -0.4529 -1.1428  0.3580
  780MPD2    C111556   0.456   4.163   0.831 -0.1659 -0.9720 -0.1212
  780MPD2    C211557   0.387   4.168   0.709 -0.5539 -0.3275 -0.2273
  780MPD2    C311558   0.442   4.129   0.591 -0.0500  0.1307  0.2681
  780MPD2    C411559   0.570   4.082   0.592 -0.4295  0.5936 -0.3082
  780MPD2    C511560   0.637   4.074   0.710 -0.9705 -0.5170 -0.3687
  780MPD2     H11561   0.285   4.204   0.709 -0.3168  0.3442  0.3844
  780MPD2    H111562   0.625   4.049   0.505 -1.6942  1.4633 -1.4442
  780MPD2    H211563   0.640   4.106   0.917  2.7596 -2.3962 -1.8693
  780MPD2    H311564   0.737   4.034   0.704 -1.6528 -2.9663  5.2247
  780MPD2     N11565   0.373   4.155   0.473  0.2335  0.3300  0.3412
  780MPD2    H511566   0.283   4.202   0.478  0.8761  2.1964 -5.2889
  780MPD2    N111567   0.390   4.183   0.960  0.1147  0.2186 -0.0638
  780MPD2    H711568   0.444   4.160   1.043 -1.1439  2.5002  1.3891
  781MPD2     C11569   1.823   1.859  11.876 -0.0248  0.5046  0.5553
  781MPD2    C111570   1.778   1.730  11.872  0.2141  0.0974  0.1226
  781MPD2    C211571   1.724   1.675  11.756  0.5276  0.1507  0.1236
  781MPD2    C311572   1.731   1.750  11.638 -0.9223  0.4878 -0.1604
  781MPD2    C411573   1.781   1.877  11.637  0.5161 -0.2094  0.0832
  781MPD2    C511574   1.823   1.931  11.758 -0.0392 -0.1661 -0.6327
  781MPD2     H11575   1.694   1.571  11.762  0.7186 -0.0618 -2.3532
  781MPD2    H111576   1.792   1.935  11.546 -0.7455 -0.6114 -0.3256
  781MPD2    H211577   1.861   1.911  11.964 -1.4254  0.0324  1.4398
  781MPD2    H311578   1.863   2.032  11.760  0.8955 -0.5241 -1.1718
  781MPD2     N11579   1.704   1.703  11.503 -0.1071 -0.0810 -0.2111
  781MPD2    H511580   1.728   1.770  11.430  1.3076 -0.4579 -0.1010
  781MPD2    N111581   1.760   1.655  11.991  0.6364  0.2849  0.4990
  781MPD2    H711582   1.710   1.567  11.994 -0.0288  0.6339 -0.3618
  782MPD2     C11583   4.643   2.772   9.688  0.0331  0.5607 -0.6535
  782MPD2    C111584   4.698   2.751   9.816  0.4162 -0.1999  0.6712
  782MPD2    C211585   4.681   2.848   9.911 -0.5924  0.1162  0.1832
  782MPD2    C311586   4.611   2.960   9.881 -0.5739 -0.7817  0.1550
  782MPD2    C411587   4.551   2.983   9.751 -0.3590  0.4215  0.3965
  782MPD2    C511588   4.569   2.885   9.661  0.2751  0.0170  0.5233
  782MPD2     H11589   4.717   2.831  10.012 -0.0310  0.3504  0.0239
  782MPD2    H111590   4.505   3.079   9.732  1.1578  1.0093 -0.2965
  782MPD2    H211591   4.664   2.699   9.611  0.5809  1.4969 -1.3951
  782MPD2    H311592   4.517   2.897   9.567  1.0753  2.8864  0.4335
  782MPD2     N11593   4.593   3.043   9.993  0.1754 -0.3480 -0.0314
  782MPD2    H511594   4.616   3.007  10.085 -1.9618 -1.8894 -0.1188
  782MPD2    N111595   0.039   2.631   9.843 -0.1684  0.4645 -0.0453
  782MPD2    H711596   0.022   2.552   9.782  0.7621  0.4858 -0.3229
  783MPD2     C11597   4.415   2.032  10.302  0.3599  0.1710 -0.1771
  783MPD2    C111598   4.440   2.162  10.338  0.4820 -0.3073  0.3163
  783MPD2    C211599   4.541   2.228  10.264  1.0335 -0.0556  0.0708
  783MPD2    C311600   4.613   2.160  10.166  0.1906  0.1107  0.1172
  783MPD2    C411601   4.588   2.026  10.139  0.0778 -0.2698  0.8025
  783MPD2    C511602   4.487   1.966  10.200 -0.1501 -0.8069 -0.1960
  783MPD2     H11603   4.553   2.334  10.281 -2.4340  0.0753  1.6727
  783MPD2    H111604   4.643   1.969  10.066 -0.6398  1.6602 -1.2454
  783MPD2    H211605   4.332   1.983  10.351 -0.3343 -0.6132 -2.1794
  783MPD2    H311606   4.458   1.867  10.167 -0.6735 -0.4156 -0.9299
  783MPD2     N11607   4.718   2.224  10.106  0.2031 -0.0952 -0.7118
  783MPD2    H511608   0.000   2.321  10.132 -0.7923 -0.3516  0.9293
  783MPD2    N111609   4.361   2.222  10.439  1.0401 -0.2504  0.0337
  783MPD2    H711610   4.302   2.157  10.490 -0.2450  0.3248 -0.7161
  784MPD2     C11611   2.255   2.298   0.724  0.9862  0.1298  0.1113
  784MPD2    C111612   2.231   2.345   0.855  0.7096 -0.2432 -0.0083
  784MPD2    C211613   2.106   2.406   0.891 -0.9044 -0.2788 -0.3815
  784MPD2    C311614   2.004   2.410   0.802 -0.2134 -0.6274  0.2158
  784MPD2    C411615   2.028   2.371   0.675 -0.3773 -0.0425  0.1487
  784MPD2    C511616   2.149   2.322   0.637  0.5572  0.4932 -0.2416
  784MPD2     H11617   2.095   2.455   0.987 -0.9276 -1.3819  0.1744
  784MPD2    H111618   1.959   2.387   0.593  0.9328 -0.0993 -0.9691
  784MPD2    H211619   2.338   2.234   0.697  0.2584 -0.4267 -0.8253
  784MPD2    H311620   2.164   2.284   0.536  0.7582  1.3206 -0.5292
  784MPD2     N11621   1.888   2.476   0.844 -0.5655 -0.2694 -0.5208
  784MPD2    H511622   1.896   2.533   0.927 -0.5826 -2.3063  0.8870
  784MPD2    N111623   2.317   2.304   0.961  0.2291  0.0766 -0.6795
  784MPD2    H711624   2.285   2.310   1.057 -1.3145 -1.2004 -1.1167
  785MPD2     C11625   2.371   0.705   9.826 -0.0904  0.7247  0.2287
  785MPD2    C111626   2.393   0.750   9.961  0.8353 -0.8230  0.6840
  785MPD2    C211627   2.287   0.773  10.045 -0.3502 -0.3616 -0.3005
  785MPD2    C311628   2.163   0.760   9.994  0.1838 -0.1697 -0.7187
  785MPD2    C411629   2.145   0.721   9.861  0.4976  0.7580  0.4650
  785MPD2    C511630   2.245   0.696   9.780 -0.1457  0.6825 -0.9315
  785MPD2     H11631   2.292   0.799  10.150  1.3671 -1.7575 -0.0393
  785MPD2    H111632   2.051   0.712   9.807  0.0145  2.5707  1.0128
  785MPD2    H211633   2.451   0.683   9.755 -0.4075 -2.3345  0.8244
  785MPD2    H311634   2.236   0.668   9.675  1.3267 -0.0578 -0.8644
  785MPD2     N11635   2.050   0.800  10.073 -0.3795 -0.3235  0.9015
  785MPD2    H511636   2.078   0.851  10.157  3.9711  1.8150 -1.8112
  785MPD2    N111637   2.525   0.776   9.996 -0.0615 -0.7484 -0.4173
  785MPD2    H711638   2.605   0.764   9.936  0.4611  2.4318 -0.3210
  786MPD2     C11639   1.038   3.586  14.859 -0.4669  0.3660 -0.1826
  786MPD2    C111640   1.133   3.489  14.833 -0.7401 -0.2434 -0.5689
  786MPD2    C211641   1.195   3.424  14.933 -0.5025  0.2506 -0.5330
  786MPD2    C311642   1.177   3.472  15.064 -0.8640  0.0126  0.3345
  786MPD2    C411643   1.095   3.581  15.093  0.5212  0.2734  0.8815
  786MPD2    C511644   1.024   3.634  14.983 -0.4176 -0.3811  0.4179
  786MPD2     H11645   1.263   3.342  14.912  1.5930  1.9899 -0.5014
  786MPD2    H111646   1.077   3.615  15.194 -0.3951  3.1185 -0.2308
  786MPD2    H211647   0.978   3.637  14.785 -0.8320 -0.9927 -0.8143
  786MPD2    H311648   0.957   3.717  15.000  1.4864  1.9462 -3.3315
  786MPD2     N11649   1.242   3.410  15.172  0.1076 -0.4759  0.1515
  786MPD2    H511650   1.243   3.454  15.263 -0.1253  0.3990 -0.2674
  786MPD2    N111651   1.169   3.456  14.703 -0.2311  0.4563 -0.3396
  786MPD2    H711652   1.237   3.383  14.684 -1.9960 -2.0775  3.0510
  787MPD2     C11653   1.484   2.913  14.544 -0.5742  0.6925 -0.1189
  787MPD2    C111654   1.538   3.031  14.482 -1.0933  0.5287  0.2826
  787MPD2    C211655   1.669   3.036  14.441 -0.6101 -0.0663 -0.9116
  787MPD2    C311656   1.755   2.932  14.468  0.2966  0.3219 -0.2002
  787MPD2    C411657   1.698   2.816  14.522  0.9338 -0.5761  0.0227
  787MPD2    C511658   1.572   2.811  14.568  0.0457  0.1571 -0.4361
  787MPD2     H11659   1.712   3.129  14.405 -2.0858  1.0133  0.0874
  787MPD2    H111660   1.754   2.725  14.535  0.0165 -1.1387 -0.0132
  787MPD2    H211661   1.379   2.910  14.570 -0.3844 -0.5500  0.5110
  787MPD2    H311662   1.538   2.728  14.628  0.3468  0.1818 -0.2346
  787MPD2     N11663   1.887   2.940  14.430  0.3407  0.2389 -0.2379
  787MPD2    H511664   1.916   3.010  14.363 -0.5353 -1.2687 -2.1902
  787MPD2    N111665   1.450   3.138  14.455  0.1634  0.5313  0.0752
  787MPD2    H711666   1.357   3.121  14.492 -0.2121  0.4179 -0.9296
  788MPD2     C11667   3.381   2.285   0.719 -0.1820  0.0351  0.8440
  788MPD2    C111668   3.255   2.231   0.689 -0.2584 -0.5868 -0.0102
  788MPD2    C211669   3.170   2.318   0.622  0.3841  0.3366 -0.8225
  788MPD2    C311670   3.209   2.450   0.587 -0.3082 -0.0752 -0.7181
  788MPD2    C411671   3.339   2.492   0.626 -0.3758  0.2008  0.7309
  788MPD2    C511672   3.427   2.406   0.681  0.4517 -0.0432 -0.9156
  788MPD2     H11673   3.073   2.283   0.588  0.3159 -1.6356  1.3807
  788MPD2    H111674   3.375   2.592   0.605 -0.2384 -0.1563 -0.7242
  788MPD2    H211675   3.449   2.226   0.778  3.0438  1.0133 -1.9067
  788MPD2    H311676   3.525   2.443   0.710 -0.7092  0.6321  2.0550
  788MPD2     N11677   3.125   2.546   0.520 -0.5748 -0.2919 -0.1659
  788MPD2    H511678   3.165   2.638   0.505 -1.2160 -0.1050 -0.7101
  788MPD2    N111679   3.221   2.092   0.718 -0.2952  0.0509 -0.3808
  788MPD2    H711680   3.288   2.036   0.771 -0.9112 -1.5270 -1.2636
  789MPD2     C11681   3.460   1.497  16.626  0.0796  0.4075 -0.9903
  789MPD2    C111682   3.340   1.482  16.556 -0.1220 -0.2864 -0.5765
  789MPD2    C211683   3.225   1.550  16.593 -0.0395 -0.7596  0.7901
  789MPD2    C311684   3.233   1.640  16.699  0.0122 -0.3035  0.7885
  789MPD2    C411685   3.350   1.659  16.765 -1.4095 -0.1357  0.4795
  789MPD2    C511686   3.459   1.592  16.727 -0.5329 -0.1656  0.1518
  789MPD2     H11687   3.129   1.539  16.545  0.3762  0.1065 -0.2279
  789MPD2    H111688   3.351   1.732  16.846 -0.8515  0.6690 -0.2477
  789MPD2    H211689   3.556   1.454  16.600  0.5505 -0.2934  1.9012
  789MPD2    H311690   3.551   1.593  16.784 -0.0635  1.6266 -0.6439
  789MPD2     N11691   3.115   1.702  16.746 -1.0702 -0.3084 -0.5705
  789MPD2    H511692   3.120   1.740  16.840 -2.9821  0.1394 -0.6498
  789MPD2    N111693   3.319   1.380  16.465  0.4888  0.5780 -0.4174
  789MPD2    H711694   3.235   1.376  16.409  2.6253  0.7371 -3.6460
  790MPD2     C11695   4.401   3.439  13.654 -0.1962  0.2429 -0.0519
  790MPD2    C111696   4.485   3.331  13.614  0.3601 -0.1738  0.0460
  790MPD2    C211697   4.482   3.296  13.480  0.0531  0.0296 -0.3088
  790MPD2    C311698   4.397   3.360  13.395  0.2333 -0.1551 -1.1803
  790MPD2    C411699   4.315   3.461  13.439 -0.2070 -0.2640 -0.2371
  790MPD2    C511700   4.319   3.501  13.565 -0.5327  0.3616  0.4497
  790MPD2     H11701   4.540   3.211  13.447 -0.3319  0.1473 -1.2876
  790MPD2    H111702   4.241   3.515  13.380  0.9443  1.2038 -0.3365
  790MPD2    H211703   4.392   3.460  13.760  1.3896  2.0587 -0.2676
  790MPD2    H311704   4.257   3.584  13.598  0.7767  2.0421 -1.3414
  790MPD2     N11705   4.377   3.309  13.266 -0.1749  0.2020 -0.0916
  790MPD2    H511706   4.450   3.251  13.226 -0.3916 -1.5093  2.0007
  790MPD2    N111707   4.564   3.258  13.709 -0.8201 -0.4086  0.0978
  790MPD2    H711708   4.622   3.185  13.669 -0.6465 -1.4702  2.3310
  791MPD2     C11709   3.745   3.402  12.801  0.3758 -0.0628  0.0408
  791MPD2    C111710   3.787   3.271  12.815 -0.0263  0.0807 -0.1436
  791MPD2    C211711   3.690   3.167  12.799  0.2311 -0.8345 -0.0450
  791MPD2    C311712   3.556   3.199  12.786  0.0170 -0.4924 -0.0084
  791MPD2    C411713   3.519   3.330  12.780 -0.1298 -0.2938 -0.4444
  791MPD2    C511714   3.613   3.433  12.782 -1.5147  0.4448  0.5072
  791MPD2     H11715   3.720   3.065  12.819 -1.4239 -1.0282  1.4083
  791MPD2    H111716   3.416   3.362  12.778 -0.1387 -0.5562 -4.1025
  791MPD2    H211717   3.815   3.485  12.800 -0.8740  0.9985  0.0176
  791MPD2    H311718   3.579   3.536  12.778 -2.6756  0.0359 -0.5349
  791MPD2     N11719   3.459   3.094  12.785  0.2055 -0.5832 -0.3433
  791MPD2    H511720   3.496   3.001  12.803  0.6477 -0.1569  0.9923
  791MPD2    N111721   3.924   3.246  12.839 -0.1083 -0.1245 -0.0778
  791MPD2    H711722   3.973   3.334  12.852 -2.1461  1.2522 -1.6796
  792MPD2     C11723   0.017   3.211  11.225 -0.8815 -0.7736  0.3568
  792MPD2    C111724   4.734   3.189  11.088  0.0999 -0.1927 -0.1604
  792MPD2    C211725   4.617   3.129  11.043 -0.2488 -0.0389  0.0473
  792MPD2    C311726   4.510   3.114  11.133 -0.2643  0.0236  0.4285
  792MPD2    C411727   4.526   3.156  11.263 -0.5204  0.0528 -0.0196
  792MPD2    C511728   4.646   3.198  11.305 -0.7445 -0.0393 -0.3838
  792MPD2     H11729   4.595   3.113  10.938  0.9931 -0.8719 -0.0860
  792MPD2    H111730   4.448   3.152  11.338 -0.8425 -1.9505 -0.4699
  792MPD2    H211731   0.105   3.255  11.270 -0.9662 -0.3350  0.0858
  792MPD2    H311732   4.643   3.225  11.410 -1.0479  1.9030 -0.9081
  792MPD2     N11733   4.381   3.072  11.093 -0.0691 -0.2443  0.3372
  792MPD2    H511734   4.307   3.075  11.162  0.1925  1.5078  0.5242
  792MPD2    N111735   0.094   3.248  11.000  0.1562  0.3658  0.4037
  792MPD2    H711736   0.167   3.302  11.046  1.3191  0.6033 -1.7335
  793MPD2     C11737   4.002   3.567  10.457  0.8176 -0.8200 -1.0326
  793MPD2    C111738   4.124   3.526  10.507  0.5319  0.2726  0.4946
  793MPD2    C211739   4.132   3.439  10.612 -0.4617 -0.3813 -0.3390
  793MPD2    C311740   4.015   3.386  10.661 -0.3344  0.4853 -0.6592
  793MPD2    C411741   3.893   3.422  10.615 -0.0389  0.3389  0.1234
  793MPD2    C511742   3.891   3.515  10.515 -0.0492 -0.2828 -0.2699
  793MPD2     H11743   4.228   3.406  10.650  0.0752  0.4759 -0.9526
  793MPD2    H111744   3.805   3.382  10.665 -1.0664  1.6390 -0.6363
  793MPD2    H211745   3.998   3.631  10.370 -0.1517 -0.3136 -0.6249
  793MPD2    H311746   3.797   3.547  10.473  0.8723  0.9338 -1.4145
  793MPD2     N11747   4.035   3.289  10.762 -0.2426 -0.4174 -0.1398
  793MPD2    H511748   4.129   3.289  10.801 -0.3439 -1.7281  0.0986
  793MPD2    N111749   4.248   3.583  10.465  0.4437 -0.2171  0.1245
  793MPD2    H711750   4.333   3.548  10.508  0.3190  0.6304  1.0733
  794MPD2     C11751   4.211   2.592  17.228 -0.2039  0.2263  0.3461
  794MPD2    C111752   4.088   2.566  17.281  0.4921 -0.6018  0.2865
  794MPD2    C211753   3.982   2.521  17.201  0.0139 -0.5900 -0.3631
  794MPD2    C311754   4.000   2.498  17.062 -0.3462 -0.0376 -0.2935
  794MPD2    C411755   4.134   2.518  17.017 -0.6281  0.7058  0.3676
  794MPD2    C511756   4.234   2.568  17.096 -0.0786  0.1549  0.5314
  794MPD2     H11757   3.888   2.488  17.243  0.1218 -0.2463  0.1573
  794MPD2    H111758   4.155   2.502  16.912  1.7710 -1.5735  1.1870
  794MPD2    H211759   4.293   2.620  17.293  1.0715 -2.7825  0.0478
  794MPD2    H311760   4.333   2.585  17.055  0.1680  0.9390  1.4663
  794MPD2     N11761   3.896   2.450  16.975 -0.4343  0.3471  0.7273
  794MPD2    H511762   3.915   2.418  16.880  1.2605 -0.5234  1.3737
  794MPD2    N111763   4.067   2.559  17.422  0.0676  0.5260  0.1440
  794MPD2    H711764   3.984   2.506  17.444 -1.5474  1.5295 -3.5254
  795MPD2     C11765   1.590   0.514  13.086 -0.1719 -0.1124  0.6474
  795MPD2    C111766   1.581   0.376  13.058  0.2887 -0.1831 -0.0626
  795MPD2    C211767   1.651   0.287  13.145 -0.3850  0.0846  0.1093
  795MPD2    C311768   1.726   0.339  13.251  0.3786 -0.4363 -0.2426
  795MPD2    C411769   1.737   0.475  13.270 -0.2182  0.1662 -0.2765
  795MPD2    C511770   1.653   0.559  13.199  0.4852  0.0426 -0.0851
  795MPD2     H11771   1.655   0.180  13.131  1.9267  0.0846  0.7792
  795MPD2    H111772   1.793   0.520  13.351 -1.5929 -0.4827  1.0391
  795MPD2    H211773   1.539   0.590  13.028 -0.4117 -1.7887 -1.3158
  795MPD2    H311774   1.648   0.664  13.222 -1.4368 -0.2064  0.6837
  795MPD2     N11775   1.790   0.242  13.335  0.2138 -0.0313 -0.5967
  795MPD2    H511776   1.776   0.143  13.316  1.0940 -0.8701  3.0708
  795MPD2    N111777   1.497   0.331  12.954 -0.3174 -0.3421  0.0308
  795MPD2    H711778   1.466   0.235  12.966  0.0058 -0.6253 -1.3965
  796MPD2     C11779   0.896   1.080  16.041  0.8710 -1.1877  0.2569
  796MPD2    C111780   1.021   1.146  16.051  0.5539 -0.4308 -0.7436
  796MPD2    C211781   1.043   1.273  15.991  0.6791  0.5246 -0.3363
  796MPD2    C311782   0.939   1.330  15.922 -0.2180  0.2002  0.3147
  796MPD2    C411783   0.821   1.260  15.909  0.1326 -0.3113  0.1388
  796MPD2    C511784   0.797   1.140  15.970  0.7335  0.3334  0.5491
  796MPD2     H11785   1.133   1.330  16.010  1.2105 -0.4346  0.0067
  796MPD2    H111786   0.738   1.312  15.862 -0.4972 -1.1861  0.2848
  796MPD2    H211787   0.876   0.988  16.095  0.7728  0.7214  3.4539
  796MPD2    H311788   0.699   1.095  15.964  1.1475 -0.3927 -0.8267
  796MPD2     N11789   0.947   1.458  15.865 -0.2400 -0.3221  0.7221
  796MPD2    H511790   1.038   1.500  15.848  0.0905 -0.8014  1.3120
  796MPD2    N111791   1.119   1.089  16.145 -0.3848 -0.5543  0.3298
  796MPD2    H711792   1.100   0.998  16.186 -0.7286 -1.3036 -1.5041
  797MPD2     C11793   2.148   0.899  17.661 -0.3798 -0.3639 -0.2943
  797MPD2    C111794   2.192   1.026  17.661 -0.0105  0.0581 -1.2565
  797MPD2    C211795   2.131   1.116  17.573 -0.0603 -0.0011 -0.3276
  797MPD2    C311796   2.033   1.073  17.478  0.7057 -0.3608 -0.8171
  797MPD2    C411797   1.993   0.941  17.484  0.2161 -0.3921 -0.2327
  797MPD2    C511798   2.058   0.855  17.573 -1.2969  0.1566 -0.1060
  797MPD2     H11799   2.159   1.221  17.575  1.0823 -0.3320  0.5953
  797MPD2    H111800   1.920   0.894  17.419 -0.0082 -2.5976  1.6037
  797MPD2    H211801   2.179   0.831  17.739 -1.8373 -1.9161 -1.0718
  797MPD2    H311802   2.017   0.756  17.586 -0.1305 -0.3012  0.1210
  797MPD2     N11803   1.981   1.166  17.399 -0.7271 -0.1009  0.9629
  797MPD2    H511804   2.014   1.260  17.417 -0.9271  0.3369 -1.0434
  797MPD2    N111805   2.288   1.069   0.014 -0.2978  0.0108 -0.2713
  797MPD2    H711806   2.324   1.163   0.000  0.2313 -0.3885 -1.6111
  798MPD2     C11807   2.428   1.634  17.312 -0.3119  0.0325  0.3764
  798MPD2    C111808   2.331   1.570  17.379 -0.2952  0.2424  0.2064
  798MPD2    C211809   2.360   1.515  17.501 -0.5793 -0.6271  0.6159
  798MPD2    C311810   2.489   1.504  17.550 -0.1180  1.0222 -0.2556
  798MPD2    C411811   2.587   1.564  17.479  0.1120  0.5786 -0.1756
  798MPD2    C511812   2.557   1.630  17.364  0.0324 -0.2684  0.4319
  798MPD2     H11813   2.278   1.475  17.560  1.1384 -3.1427  1.2681
  798MPD2    H111814   2.692   1.554  17.503 -0.5683 -1.1452  2.0746
  798MPD2    H211815   2.417   1.677  17.213 -1.8099  0.1206  0.5823
  798MPD2    H311816   2.642   1.670  17.309 -0.3660  1.6105  1.1761
  798MPD2     N11817   2.503   1.429  17.667 -0.1600 -0.2157  0.5706
  798MPD2    H511818   2.416   1.392  17.707 -1.3515 -0.5317 -2.3489
  798MPD2    N111819   2.208   1.558  17.313 -0.0740  0.2731 -0.1308
  798MPD2    H711820   2.207   1.596  17.219 -2.8212 -0.4068 -0.3744
  799MPD2     C11821   1.363   2.729  14.269  0.6487  0.1451 -0.5013
  799MPD2    C111822   1.258   2.671  14.208  0.3102 -0.5357 -0.1551
  799MPD2    C211823   1.207   2.733  14.089 -0.2977 -0.5670  0.2218
  799MPD2    C311824   1.272   2.841  14.034  0.2861 -0.2391  1.3849
  799MPD2    C411825   1.378   2.895  14.099  0.1542 -0.1311  0.4023
  799MPD2    C511826   1.426   2.839  14.215  0.3760  0.6621  0.5581
  799MPD2     H11827   1.121   2.683  14.047 -0.2896  0.6932 -1.2583
  799MPD2    H111828   1.424   2.981  14.051  2.8221 -1.7062  0.1503
  799MPD2    H211829   1.404   2.692  14.362 -1.5434 -2.9175 -0.7684
  799MPD2    H311830   1.507   2.891  14.265  0.2950  0.3314  1.0382
  799MPD2     N11831   1.241   2.897  13.909  0.3087 -0.0781  0.4292
  799MPD2    H511832   1.299   2.970  13.868  4.2567 -2.0771  2.4331
  799MPD2    N111833   1.199   2.546  14.239  0.1889 -0.0628  0.7294
  799MPD2    H711834   1.121   2.505  14.188  0.7671 -1.9408  1.3705
  800MPD2     C11835   1.914   3.503  14.171  0.3757  0.0514 -0.1657
  800MPD2    C111836   1.875   3.638  14.150 -0.9889  0.1127 -0.7258
  800MPD2    C211837   1.781   3.670  14.052  0.4879 -0.0833  0.2913
  800MPD2    C311838   1.744   3.577  13.960 -0.9209 -0.2993 -0.0540
  800MPD2    C411839   1.780   3.447  13.982 -0.5828 -0.2472  0.0669
  800MPD2    C511840   1.863   3.414  14.086  0.5088 -0.5719  0.2318
  800MPD2     H11841   1.757   3.774  14.034 -0.3247 -0.2083  0.6847
  800MPD2    H111842   1.752   3.364  13.918  0.3957 -0.8995  0.4879
  800MPD2    H211843   1.993   3.481  14.242  1.2525  0.3364 -1.0497
  800MPD2    H311844   1.919   3.322  14.078  1.6966  0.2379 -0.8827
  800MPD2     N11845   1.667   3.609  13.850 -0.9187 -0.0004 -0.3146
  800MPD2    H511846   1.634   3.705  13.849  0.5209  0.4976 -0.5696
  800MPD2    N111847   1.940   3.754  14.197 -0.2742 -0.4544  0.5326
  800MPD2    H711848   1.889   3.841  14.186  1.6222  0.9117  2.5415
  801MPD2     C11849   1.809   4.437  14.293 -0.0699 -0.4352 -0.0670
  801MPD2    C111850   1.780   4.304  14.313 -0.2682 -0.6640  0.6203
  801MPD2    C211851   1.653   4.258  14.342 -0.4517  0.1199  0.3960
  801MPD2    C311852   1.557   4.351  14.361 -0.2743  0.3452  0.0341
  801MPD2    C411853   1.581   4.481  14.349  0.7115  0.2669 -0.1184
  801MPD2    C511854   1.700   4.521  14.297 -0.6962  0.3925 -0.3533
  801MPD2     H11855   1.630   4.153  14.354 -1.3211  0.3006  0.2900
  801MPD2    H111856   1.505   4.555  14.371 -0.8568 -1.6094  0.7859
  801MPD2    H211857   1.905   4.483  14.272 -0.2413  1.1522  2.5539
  801MPD2    H311858   1.718   4.627  14.285  1.6026  0.0583  0.0566
  801MPD2     N11859   1.423   4.311  14.399 -0.2011 -0.1262  0.6963
  801MPD2    H511860   1.350   4.376  14.427  1.2827  1.6624  0.4075
  801MPD2    N111861   1.882   4.208  14.319  0.4118  0.6026 -0.7037
  801MPD2    H711862   1.843   4.117  14.339 -0.5131  1.0397 -0.5426
  802MPD2     C11863   1.180   0.509   0.314  0.2506 -0.0006 -0.6365
  802MPD2    C111864   1.115   0.390   0.337 -0.4290 -0.6465  0.0668
  802MPD2    C211865   1.156   0.281   0.265 -0.0793  0.4344  0.4430
  802MPD2    C311866   1.266   0.277   0.187  0.2035 -0.6261  0.0332
  802MPD2    C411867   1.335   0.394   0.173 -0.5225 -0.0168  0.3467
  802MPD2    C511868   1.291   0.505   0.238  0.1459  0.1551 -0.0981
  802MPD2     H11869   1.100   0.189   0.281 -0.6428  1.2674  3.2509
  802MPD2    H111870   1.428   0.415   0.121 -0.7853 -1.5102 -0.7074
  802MPD2    H211871   1.149   0.604   0.356  0.8341 -0.3575  0.5908
  802MPD2    H311872   1.348   0.597   0.233  0.1138  0.1944  0.2461
  802MPD2     N11873   1.292   0.166   0.107 -0.3514 -0.7724 -0.2255
  802MPD2    H511874   1.222   0.093   0.113 -0.5051 -0.6374 -0.3577
  802MPD2    N111875   0.997   0.369   0.416 -0.6069 -0.2453  0.3659
  802MPD2    H711876   0.962   0.274   0.424  1.8856 -1.2018 -0.1784
  803MPD2     C11877   1.918   2.854  12.340  0.1291  0.0710  0.4486
  803MPD2    C111878   1.908   2.985  12.380 -0.0679 -0.4021  0.0088
  803MPD2    C211879   1.890   3.016  12.517  0.3915  0.0036  0.7342
  803MPD2    C311880   1.877   2.913  12.610 -0.4403  0.3648 -0.0527
  803MPD2    C411881   1.880   2.779  12.564 -0.2363  0.6027  0.4266
  803MPD2    C511882   1.894   2.755  12.431  0.3113 -1.2075 -0.0927
  803MPD2     H11883   1.891   3.119  12.549  1.9356  0.8432 -2.0525
  803MPD2    H111884   1.882   2.695  12.632 -1.3446  1.9183  2.0952
  803MPD2    H211885   1.937   2.829  12.236  0.8476  2.3322  0.0373
  803MPD2    H311886   1.889   2.655  12.388  0.1528 -1.2514  0.0285
  803MPD2     N11887   1.882   2.936  12.744  0.0335  0.5015 -0.0168
  803MPD2    H511888   1.890   2.851  12.800  2.3014 -0.3964 -1.6727
  803MPD2    N111889   1.914   3.093  12.294  0.0994  0.1168 -0.1264
  803MPD2    H711890   1.906   3.184  12.338  1.2684  0.6958 -1.1013
  804MPD2     C11891   1.388   4.354  17.107  0.0935  0.5041 -0.1207
  804MPD2    C111892   1.450   4.279  17.202  0.6339  0.2111  0.6055
  804MPD2    C211893   1.567   4.330  17.262  0.2318 -0.4927  0.6677
  804MPD2    C311894   1.625   4.441  17.220  0.4915 -0.2793  0.2141
  804MPD2    C411895   1.578   4.510  17.117 -0.3405  0.0481 -0.0283
  804MPD2    C511896   1.455   4.470  17.067 -0.3496  0.6212  0.5347
  804MPD2     H11897   1.614   4.274  17.342  0.7635  0.6922  1.1856
  804MPD2    H111898   1.616   4.606  17.082 -3.2554  1.6277  1.1395
  804MPD2    H211899   1.296   4.328  17.057 -0.1705 -2.6630  1.9886
  804MPD2    H311900   1.415   4.542  16.997 -0.8511  1.2363  1.4530
  804MPD2     N11901   1.741   4.479  17.290 -0.2472 -0.0619 -0.4824
  804MPD2    H511902   1.775   4.417  17.363 -0.9967 -0.1123 -0.1798
  804MPD2    N111903   1.388   4.168  17.250 -0.2009 -0.2799  0.0357
  804MPD2    H711904   1.407   4.139  17.346  2.1362 -0.8879 -0.6110
  805MPD2     C11905   0.556   2.431  15.250 -0.8639  0.8805 -0.0169
  805MPD2    C111906   0.626   2.549  15.221 -0.3998 -0.4785  0.3980
  805MPD2    C211907   0.745   2.581  15.281  0.4588  0.4092  0.0406
  805MPD2    C311908   0.793   2.495  15.374 -0.2325  0.4029  0.0075
  805MPD2    C411909   0.730   2.368  15.396 -0.2543  0.2618  0.5755
  805MPD2    C511910   0.612   2.344  15.336  0.7941  0.1602 -0.5913
  805MPD2     H11911   0.791   2.676  15.257  0.0742  1.2015  2.4695
  805MPD2    H111912   0.762   2.295  15.470 -1.0056 -0.6115  0.0308
  805MPD2    H211913   0.467   2.395  15.201  0.3790 -1.2611 -0.7096
  805MPD2    H311914   0.556   2.255  15.362  1.7208 -0.5063 -0.8498
  805MPD2     N11915   0.904   2.545  15.451 -0.0196 -0.0874  0.0052
  805MPD2    H511916   0.918   2.646  15.443 -2.6219  0.2071 -0.9636
  805MPD2    N111917   0.577   2.638  15.121  0.9493  0.7123 -0.0929
  805MPD2    H711918   0.640   2.717  15.105  2.0875  0.0225  1.0021
  806MPD2     C11919   1.089   2.048   0.657 -0.1134  0.4514 -0.2570
  806MPD2    C111920   1.106   2.176   0.721  0.1301 -0.3826  0.5712
  806MPD2    C211921   1.177   2.272   0.650 -0.8713 -0.0891  0.2864
  806MPD2    C311922   1.204   2.248   0.516  0.4243  0.5041  0.0457
  806MPD2    C411923   1.177   2.128   0.456  0.4218 -0.1706  0.0182
  806MPD2    C511924   1.120   2.025   0.526  0.1792  0.3814  0.4603
  806MPD2     H11925   1.209   2.367   0.692  2.4706 -0.7226 -0.8294
  806MPD2    H111926   1.187   2.105   0.351  1.7359 -3.6177  0.9083
  806MPD2    H211927   1.049   1.969   0.719  0.7359  0.0704 -0.2041
  806MPD2    H311928   1.102   1.927   0.484  1.0395  0.0106  0.9511
  806MPD2     N11929   1.262   2.353   0.450 -0.5839  0.7423 -0.2291
  806MPD2    H511930   1.283   2.442   0.495  0.5642  0.5146 -0.3179
  806MPD2    N111931   1.063   2.190   0.852 -0.1664  0.4115  0.4311
  806MPD2    H711932   1.038   2.111   0.911 -1.2179 -0.5268 -1.2830
  807MPD2     C11933   1.051   1.778   1.457 -0.2171 -0.0170  0.3160
  807MPD2    C111934   0.970   1.884   1.497 -0.0763 -0.4632 -0.0712
  807MPD2    C211935   0.891   1.877   1.604 -0.0183 -0.2658  0.5324
  807MPD2    C311936   0.885   1.754   1.676 -0.7152  0.6439  0.1295
  807MPD2    C411937   0.949   1.643   1.630 -0.1689 -0.1451 -0.0464
  807MPD2    C511938   1.036   1.655   1.520  0.2429  0.8982  0.4011
  807MPD2     H11939   0.828   1.963   1.625  0.6041  0.1398  0.7428
  807MPD2    H111940   0.935   1.545   1.674 -0.4516  0.6514  1.6331
  807MPD2    H211941   1.124   1.786   1.377 -0.2393  0.2892  0.3265
  807MPD2    H311942   1.074   1.561   1.481  0.0272  0.4855  1.1986
  807MPD2     N11943   0.800   1.749   1.782 -0.4238  0.0193 -0.6871
  807MPD2    H511944   0.746   1.832   1.803 -0.7912  0.0400 -1.7083
  807MPD2    N111945   0.969   2.008   1.432  0.4809  0.8317 -0.3605
  807MPD2    H711946   0.943   2.098   1.470  2.4901 -0.0752  3.2324
  808MPD2     C11947   2.711   3.730   9.713 -0.0530 -0.1845  0.3672
  808MPD2    C111948   2.733   3.693   9.587  0.2429 -0.8961 -0.2958
  808MPD2    C211949   2.856   3.714   9.529  0.2324 -0.0435 -0.4497
  808MPD2    C311950   2.950   3.789   9.594 -0.4839  0.0497  0.1269
  808MPD2    C411951   2.922   3.843   9.721  0.4956 -0.5574 -0.4399
  808MPD2    C511952   2.801   3.809   9.781 -0.3916 -0.1939 -0.0127
  808MPD2     H11953   2.873   3.685   9.426 -0.2729  0.0545 -0.5597
  808MPD2    H111954   2.988   3.905   9.781 -1.1340  1.7329 -1.0145
  808MPD2    H211955   2.615   3.722   9.763  0.3358 -0.6783  1.0269
  808MPD2    H311956   2.773   3.857   9.874  0.3662 -0.6544  0.4460
  808MPD2     N11957   3.079   3.824   9.551  0.0825  0.4202  0.7824
  808MPD2    H511958   3.132   3.889   9.608  0.5059  0.8577 -0.0957
  808MPD2    N111959   2.632   3.614   9.519 -0.1547 -0.3601  0.2119
  808MPD2    H711960   2.662   3.574   9.431  0.4025 -1.6077  0.9567
  809MPD2     C11961   3.538   3.590   8.700 -0.3935  0.4649 -0.1882
  809MPD2    C111962   3.632   3.665   8.764 -0.0870 -0.8195 -0.0598
  809MPD2    C211963   3.602   3.722   8.884  0.7939  0.0798 -0.4013
  809MPD2    C311964   3.480   3.685   8.943 -0.7661  0.3420 -0.4195
  809MPD2    C411965   3.381   3.625   8.879  0.3452  0.8198 -0.6352
  809MPD2    C511966   3.411   3.574   8.753  0.0855  0.8216  0.1316
  809MPD2     H11967   3.674   3.781   8.940 -0.1163  2.3685 -1.6281
  809MPD2    H111968   3.284   3.601   8.922 -0.9765  0.2186 -3.9280
  809MPD2    H211969   3.560   3.532   8.611 -0.9869 -1.1454  0.7126
  809MPD2    H311970   3.328   3.516   8.713 -0.1659 -1.1167  3.4470
  809MPD2     N11971   3.451   3.726   9.075  0.3443  0.3583 -0.4135
  809MPD2    H511972   3.352   3.743   9.089  0.0748 -0.2509 -1.5921
  809MPD2    N111973   3.765   3.677   8.718 -0.9280 -0.0631 -0.2146
  809MPD2    H711974   3.817   3.748   8.768  1.9629 -1.1492 -1.7091
  810MPD2     C11975   2.160   3.137  10.400  1.3115 -0.1341  0.8911
  810MPD2    C111976   2.044   3.195  10.346 -0.1709 -0.0293 -0.0929
  810MPD2    C211977   2.031   3.329  10.336  0.0762 -0.8321  0.4338
  810MPD2    C311978   2.135   3.414  10.376  0.1467 -0.8692 -0.6924
  810MPD2    C411979   2.248   3.355  10.433  0.5157 -0.7952 -0.2562
  810MPD2    C511980   2.258   3.221  10.449 -0.1562  0.2745  0.1948
  810MPD2     H11981   1.939   3.363  10.291 -0.3988 -0.8306  1.4154
  810MPD2    H111982   2.325   3.418  10.477  1.5488 -1.5262 -1.0123
  810MPD2    H211983   2.186   3.032  10.389  0.9108 -0.2195  0.7558
  810MPD2    H311984   2.344   3.176  10.496 -0.8586 -1.2697 -0.0017
  810MPD2     N11985   2.119   3.557  10.369  0.5115  0.1590 -0.3698
  810MPD2    H511986   2.205   3.601  10.400  1.7561 -2.3695 -0.2676
  810MPD2    N111987   1.926   3.125  10.308  0.7617 -0.1946 -0.4833
  810MPD2    H711988   1.859   3.180  10.254  2.6669  2.3694 -0.2405
  811MPD2     C11989   1.192   3.225  10.000 -0.0912 -0.5922 -0.4300
  811MPD2    C111990   1.302   3.259  10.075  0.2380 -0.1214  0.9325
  811MPD2    C211991   1.343   3.397  10.072  0.6556  0.0110  0.4215
  811MPD2    C311992   1.267   3.497  10.007 -0.0890  1.1300 -0.1078
  811MPD2    C411993   1.147   3.458   9.950 -0.6955 -0.3658 -0.3539
  811MPD2    C511994   1.119   3.323   9.936 -0.0245  0.0090 -0.3054
  811MPD2     H11995   1.436   3.435  10.113  0.6534 -0.2615  0.6840
  811MPD2    H111996   1.068   3.527   9.923  0.8337  0.6158 -2.2909
  811MPD2    H211997   1.159   3.122   9.994  0.1802 -0.5717 -2.4650
  811MPD2    H311998   1.027   3.304   9.882 -1.9083  0.1316  2.8519
  811MPD2     N11999   1.327   3.629   9.999  0.3064  0.2701  0.8328
  811MPD2    H512000   1.411   3.645  10.054  1.0671 -0.5085 -0.0847
  811MPD2    N112001   1.375   3.150  10.127 -0.4456 -1.0586 -0.9573
  811MPD2    H712002   1.337   3.056  10.123 -0.7004 -1.1254  3.3650
  812MPD2     C12003   0.452   3.020  11.858  0.3108 -0.1107  0.6462
  812MPD2    C112004   0.400   3.130  11.907 -0.6262  1.0243  0.3859
  812MPD2    C212005   0.365   3.132  12.039 -0.0482  0.0906  0.1834
  812MPD2    C312006   0.386   3.023  12.119  0.8797 -0.6561  0.3860
  812MPD2    C412007   0.451   2.909  12.070  0.9155 -1.0573  0.4989
  812MPD2    C512008   0.479   2.911  11.941  0.6607  0.8785 -1.0976
  812MPD2     H12009   0.310   3.219  12.074  0.3094  1.1550 -1.9291
  812MPD2    H112010   0.477   2.827  12.137  0.5545 -0.8536  0.8911
  812MPD2    H212011   0.473   3.016  11.752 -2.6620  0.4631  0.0284
  812MPD2    H312012   0.508   2.816  11.898  1.6505  0.6874  0.0063
  812MPD2     N12013   0.353   3.031  12.257  0.2245 -0.0727 -0.4819
  812MPD2    H512014   0.331   3.124  12.292 -1.6032 -0.3451 -0.8885
  812MPD2    N112015   0.371   3.234  11.818  0.2258  0.3454 -0.0647
  812MPD2    H712016   0.395   3.211  11.722  0.3567  1.9397 -0.4203
  813MPD2     C12017   0.204   0.435  12.855  0.2983  0.7262 -0.0684
  813MPD2    C112018   0.100   0.454  12.769 -0.3027 -0.2422 -0.5572
  813MPD2    C212019   4.715   0.473  12.829 -0.8257 -0.9192 -0.4544
  813MPD2    C312020   4.685   0.480  12.969 -1.0148  0.1885 -0.0430
  813MPD2    C412021   0.052   0.443  13.047 -0.1145  1.2722  0.5294
  813MPD2    C512022   0.177   0.418  12.990  0.9979 -0.3936 -0.1444
  813MPD2     H12023   4.626   0.510  12.778  0.6276  0.3864 -2.0306
  813MPD2    H112024   0.037   0.442  13.154 -1.0635  1.1634  0.3968
  813MPD2    H212025   0.303   0.445  12.813  0.8286 -0.0358  0.9812
  813MPD2    H312026   0.268   0.393  13.044  0.7300 -0.6571  0.1876
  813MPD2     N12027   4.555   0.512  13.016 -0.1285  0.3322 -0.0085
  813MPD2    H512028   4.488   0.532  12.942 -0.6823  1.3689  0.7773
  813MPD2    N112029   0.122   0.488  12.635  0.3173  0.6503  0.0193
  813MPD2    H712030   0.218   0.488  12.602  0.8239  1.2699  1.4864
  814MPD2     C12031   4.705   1.238  12.086  0.3368  0.0879  0.6537
  814MPD2    C112032   4.714   1.350  12.003 -0.7139 -0.0143  0.0590
  814MPD2    C212033   0.038   1.462  12.050 -0.1155  0.0600 -0.4839
  814MPD2    C312034   0.093   1.453  12.175  0.2924  0.1647 -0.3648
  814MPD2    C412035   0.089   1.343  12.259 -0.2789 -0.0530 -0.0457
  814MPD2    C512036   0.025   1.239  12.210  0.3992 -0.2288  0.2900
  814MPD2     H12037   0.050   1.542  11.978 -5.5445  2.1464  0.9321
  814MPD2    H112038   0.139   1.340  12.356  0.1282  1.2524 -0.2027
  814MPD2    H212039   4.666   1.143  12.052 -0.8331  0.3825  1.1711
  814MPD2    H312040   0.025   1.146  12.265  0.6769 -0.4606 -0.0979
  814MPD2     N12041   0.160   1.568  12.227 -0.3602  0.3568 -0.5332
  814MPD2    H512042   0.218   1.550  12.308  0.5328 -2.0383 -1.7208
  814MPD2    N112043   4.659   1.349  11.876 -0.5979 -0.8515  0.0913
  814MPD2    H712044   4.686   1.430  11.821  2.4899 -1.6608  0.4486
  815MPD2     C12045   0.603   3.878  11.694 -0.2058 -0.5630  0.7631
  815MPD2    C112046   0.550   3.928  11.581  0.0594 -0.2962  0.4266
  815MPD2    C212047   0.438   4.017  11.586 -0.4819  0.0785 -0.1831
  815MPD2    C312048   0.384   4.043  11.711 -0.5587  0.2267  0.5457
  815MPD2    C412049   0.443   3.982  11.826 -0.2506 -0.0825  0.5354
  815MPD2    C512050   0.541   3.895  11.810  0.3390  0.0081  0.3412
  815MPD2     H12051   0.404   4.077  11.502 -1.9597 -0.6137 -0.0667
  815MPD2    H112052   0.412   4.011  11.926 -1.5657 -1.8054  0.6339
  815MPD2    H212053   0.692   3.815  11.690 -0.7711 -1.4374  1.8004
  815MPD2    H312054   0.596   3.850  11.891  1.2580 -0.3991 -0.5149
  815MPD2     N12055   0.289   4.149  11.714 -0.1073  0.4990 -0.3231
  815MPD2    H512056   0.283   4.204  11.629 -0.7421 -0.8889 -1.1729
  815MPD2    N112057   0.616   3.913  11.461  0.2474  0.0033 -0.3723
  815MPD2    H712058   0.705   3.864  11.466  0.6093  0.5379 -1.5785
  816MPD2     C12059   0.612   3.946  17.536 -0.5773  0.7890 -0.1826
  816MPD2    C112060   0.587   4.036  17.432  0.2785 -0.5718 -0.3693
  816MPD2    C212061   0.594   3.999  17.295  0.2503  0.7160  0.2495
  816MPD2    C312062   0.663   3.879  17.271 -0.1371  0.3593 -0.3647
  816MPD2    C412063   0.671   3.788  17.374  0.7163  0.0348  0.4032
  816MPD2    C512064   0.627   3.814  17.501 -0.2853 -0.3179  0.1061
  816MPD2     H12065   0.587   4.069  17.213 -1.8537 -0.8121 -0.8914
  816MPD2    H112066   0.704   3.686  17.355 -1.2889 -0.4606 -0.5217
  816MPD2    H212067   0.593   3.976  17.639  3.2482 -1.2847  1.1331
  816MPD2    H312068   0.634   3.740  17.580  0.5730  0.3200  0.6288
  816MPD2     N12069   0.710   3.852  17.134  0.2047 -0.2958  0.2298
  816MPD2    H512070   0.678   3.916  17.063  0.4104 -0.7741 -0.2963
  816MPD2    N112071   0.546   4.167  17.462  0.1215  0.1619 -0.5456
  816MPD2    H712072   0.514   4.229  17.388  1.2725  1.2653 -0.1344
  817MPD2     C12073   0.618   0.599   9.721  0.0159 -0.0424  1.2555
  817MPD2    C112074   0.655   0.656   9.601  0.5269  0.2811 -0.0970
  817MPD2    C212075   0.617   0.790   9.586 -0.0724 -0.5235  0.1762
  817MPD2    C312076   0.545   0.854   9.684  0.6066  0.0850 -0.3617
  817MPD2    C412077   0.504   0.790   9.802  0.6047 -0.4923 -0.5164
  817MPD2    C512078   0.541   0.660   9.817  0.6255 -0.6252  0.0701
  817MPD2     H12079   0.630   0.842   9.492 -2.4326 -1.9194 -0.9462
  817MPD2    H112080   0.445   0.834   9.882 -0.5916 -2.5821 -0.2521
  817MPD2    H212081   0.643   0.494   9.730 -2.0752 -0.6131  0.5588
  817MPD2    H312082   0.520   0.612   9.912  2.8691 -1.2600  0.2401
  817MPD2     N12083   0.515   0.991   9.656 -0.8090  0.2576 -0.6081
  817MPD2    H512084   0.547   1.024   9.566  2.0695 -0.5917  0.1078
  817MPD2    N112085   0.732   0.580   9.509  0.9933 -0.1591 -0.4487
  817MPD2    H712086   0.751   0.486   9.540 -1.6528 -0.4670  0.2301
  818MPD2     C12087   4.126   1.231   9.561  0.2795  0.3838 -0.9139
  818MPD2    C112088   4.121   1.124   9.647 -0.4780  0.2672  0.0201
  818MPD2    C212089   4.223   1.033   9.637  0.4449 -0.3256  0.1692
  818MPD2    C312090   4.323   1.031   9.546 -0.2716  0.0429 -0.2755
  818MPD2    C412091   4.328   1.131   9.456 -0.6654 -0.3059  0.2401
  818MPD2    C512092   4.227   1.230   9.466 -0.3316 -0.1520  0.1484
  818MPD2     H12093   4.225   0.960   9.718 -0.4775 -2.6643 -1.9068
  818MPD2    H112094   4.400   1.137   9.375  1.7528 -3.2171  2.2106
  818MPD2    H212095   4.069   1.323   9.572  1.2413  0.7703  0.7971
  818MPD2    H312096   4.224   1.312   9.395 -3.4502 -1.4089 -1.1568
  818MPD2     N12097   4.421   0.931   9.539 -0.3426 -0.2455 -0.1731
  818MPD2    H512098   4.485   0.949   9.462 -0.8072 -1.8111 -0.9394
  818MPD2    N112099   4.029   1.117   9.750 -0.0477  0.8560 -0.1806
  818MPD2    H712100   4.050   1.051   9.823 -1.5185  0.9935  0.3685
  819MPD2     C12101   1.724   2.605  15.603 -0.2422  0.0972 -0.0952
  819MPD2    C112102   1.658   2.481  15.604  0.8387  0.0402 -0.2816
  819MPD2    C212103   1.683   2.381  15.695  0.4448 -0.1323  0.1656
  819MPD2    C312104   1.799   2.402  15.772  0.1507  0.0169  0.6477
  819MPD2    C412105   1.877   2.520  15.758  0.1042  0.5849  0.4417
  819MPD2    C512106   1.831   2.621  15.680 -0.0925  0.3105 -0.6468
  819MPD2     H12107   1.624   2.293  15.717  0.8527  0.0580  1.9848
  819MPD2    H112108   1.974   2.524  15.806 -0.2330 -0.7872  1.2165
  819MPD2    H212109   1.700   2.687  15.536 -0.0375 -0.2407 -0.5790
  819MPD2    H312110   1.885   2.715  15.685 -1.8984  1.2830  0.5006
  819MPD2     N12111   1.835   2.297  15.863  0.1873 -0.6665  0.3373
  819MPD2    H512112   1.784   2.209  15.860  0.5250 -0.8354 -0.2573
  819MPD2    N112113   1.544   2.475  15.516 -0.2016  0.3937 -0.1199
  819MPD2    H712114   1.537   2.549  15.446 -2.9917 -1.2062 -1.5079
  820MPD2     C12115   1.128   2.752  14.674  0.0617  0.1104 -0.0501
  820MPD2    C112116   1.034   2.741  14.773 -0.5964  0.2735 -0.0836
  820MPD2    C212117   1.064   2.672  14.888 -0.4800  0.4619  0.1088
  820MPD2    C312118   1.185   2.609  14.900  0.6166 -0.0564 -0.1552
  820MPD2    C412119   1.280   2.609  14.800  0.7720  0.1066  0.1088
  820MPD2    C512120   1.239   2.681  14.690  0.6166 -0.6311  0.1829
  820MPD2     H12121   0.994   2.658  14.970 -0.7200 -2.2461 -0.5660
  820MPD2    H112122   1.373   2.554  14.803  0.6156 -0.1605  0.0362
  820MPD2    H212123   1.097   2.789  14.577  2.4119  0.4089 -0.6837
  820MPD2    H312124   1.304   2.691  14.604 -0.2713  0.7708 -0.3223
  820MPD2     N12125   1.198   2.536  15.017  0.1514  0.7087 -0.0454
  820MPD2    H512126   1.111   2.512  15.063  0.0283  1.7193  0.2585
  820MPD2    N112127   0.901   2.794  14.757  0.4407  1.0258  0.0609
  820MPD2    H712128   0.874   2.832  14.667 -0.8640  0.3176  0.1501
  821MPD2     C12129   2.197   3.766  13.296  0.3639 -0.3912  0.3999
  821MPD2    C112130   2.140   3.864  13.377 -0.2085  0.2558  0.4452
  821MPD2    C212131   2.215   3.977  13.396 -0.2736  0.6994  0.3854
  821MPD2    C312132   2.323   4.008  13.318  0.1007  0.5608 -0.3229
  821MPD2    C412133   2.368   3.917  13.219 -0.2981  0.0423 -0.2724
  821MPD2    C512134   2.306   3.792  13.223  0.4864  0.4767 -0.2243
  821MPD2     H12135   2.182   4.054  13.464 -3.0244  0.0829 -0.2536
  821MPD2    H112136   2.446   3.939  13.148 -0.6196 -1.2909 -1.0486
  821MPD2    H212137   2.160   3.665  13.285 -0.7898  0.3226 -2.2643
  821MPD2    H312138   2.339   3.719  13.149  2.5101  0.6716  0.4843
  821MPD2     N12139   2.395   4.131  13.319 -0.2835  0.5229  0.6266
  821MPD2    H512140   2.440   4.169  13.236  0.7264 -0.0550  0.9067
  821MPD2    N112141   2.019   3.858  13.451  0.0758  0.9096  0.2063
  821MPD2    H712142   1.996   3.942  13.503 -0.3778  1.0356 -0.2005
  822MPD2     C12143   2.226   3.677  15.675  0.0951 -0.5671 -0.4545
  822MPD2    C112144   2.195   3.617  15.796  0.5614 -0.0251 -0.0361
  822MPD2    C212145   2.104   3.689  15.884  0.1632  0.2953 -0.2063
  822MPD2    C312146   2.031   3.803  15.842 -0.1770  0.0864  0.1546
  822MPD2    C412147   2.050   3.839  15.707  0.1458 -0.5895 -0.0276
  822MPD2    C512148   2.149   3.780  15.631  0.3024  0.0061 -0.2570
  822MPD2     H12149   2.099   3.652  15.985  0.9238  0.5485 -0.0784
  822MPD2    H112150   2.002   3.920  15.654 -0.5970  0.5350  2.3536
  822MPD2    H212151   2.293   3.634  15.601  1.0847  1.5848 -0.7910
  822MPD2    H312152   2.157   3.822  15.532 -0.3854  2.4645  0.7069
  822MPD2     N12153   1.965   3.880  15.942  0.2690 -0.5625  0.5692
  822MPD2    H512154   1.959   3.831  16.031 -1.2847 -1.6815 -0.1558
  822MPD2    N112155   2.254   3.496  15.839  0.1016 -0.4145  0.4160
  822MPD2    H712156   2.223   3.460  15.929 -1.9738 -0.7492 -0.4274
  823MPD2     C12157   1.540   4.112  16.674  0.1242 -0.9604 -0.7564
  823MPD2    C112158   1.604   4.033  16.582  0.3522 -0.3760 -0.3909
  823MPD2    C212159   1.658   3.917  16.630 -0.1046 -0.1452  0.5040
  823MPD2    C312160   1.635   3.872  16.756 -0.2443 -0.5223  0.1390
  823MPD2    C412161   1.562   3.947  16.843  0.0686  0.0431  0.0283
  823MPD2    C512162   1.514   4.071  16.801  0.0498  0.0836  0.4464
  823MPD2     H12163   1.714   3.854  16.562  1.4402  2.1086 -0.2950
  823MPD2    H112164   1.546   3.920  16.946 -0.4722 -0.4634 -0.1916
  823MPD2    H212165   1.503   4.210  16.646  0.2215 -1.4554 -2.5884
  823MPD2    H312166   1.458   4.127  16.875 -0.6752  1.1857 -0.9452
  823MPD2     N12167   1.686   3.749  16.803 -0.0708  0.3889 -0.1126
  823MPD2    H512168   1.653   3.712  16.892  0.7943  1.7559  0.7807
  823MPD2    N112169   1.633   4.073  16.449 -0.4432 -0.5467 -0.7603
  823MPD2    H712170   1.644   4.171  16.427 -2.4419  0.1305  1.2556
  824MPD2     C12171   2.548   2.687  15.777  0.1683  0.2586 -0.1425
  824MPD2    C112172   2.605   2.772  15.868  0.2192  0.0176  0.1726
  824MPD2    C212173   2.706   2.717  15.942 -0.4664  0.5901 -0.0996
  824MPD2    C312174   2.743   2.586  15.933  0.2416 -0.1521 -0.7448
  824MPD2    C412175   2.694   2.507  15.834 -0.4406  0.6646 -0.3998
  824MPD2    C512176   2.585   2.555  15.764 -0.0437  0.3728  0.7155
  824MPD2     H12177   2.753   2.780  16.018  2.0772 -1.7931  0.2973
  824MPD2    H112178   2.731   2.407  15.818 -0.5136  0.3513  1.4389
  824MPD2    H212179   2.460   2.716  15.722 -0.1371 -1.4012 -0.5101
  824MPD2    H312180   2.536   2.496  15.688  0.0505  0.4930  0.5619
  824MPD2     N12181   2.850   2.560  16.014 -0.5378  0.0988  0.7018
  824MPD2    H512182   2.885   2.626  16.082  0.8181  2.6403 -2.4532
  824MPD2    N112183   2.578   2.907  15.887  0.7056  0.5402  0.0593
  824MPD2    H712184   2.619   2.961  15.963 -1.0466  1.7316  0.1662
  825MPD2     C12185   3.596   2.899  15.887  0.2776 -0.6546  0.2271
  825MPD2    C112186   3.464   2.889  15.870  0.5370  0.2831 -0.0470
  825MPD2    C212187   3.398   2.997  15.808 -0.2750 -0.3732  0.0592
  825MPD2    C312188   3.467   3.117  15.779 -0.5192 -0.1189 -0.8538
  825MPD2    C412189   3.605   3.114  15.801 -0.4463 -0.0618  0.7201
  825MPD2    C512190   3.667   3.007  15.859  0.4341 -0.3197  0.3854
  825MPD2     H12191   3.290   2.995  15.802 -0.3406  2.2524  0.4279
  825MPD2    H112192   3.658   3.205  15.776  1.0683 -1.9570 -3.0407
  825MPD2    H212193   3.648   2.809  15.918 -0.1318 -0.2053  2.2266
  825MPD2    H312194   3.775   3.005  15.865  0.5871  2.1811 -1.4548
  825MPD2     N12195   3.407   3.236  15.725 -0.2411  0.5311  0.7898
  825MPD2    H512196   3.470   3.308  15.691  1.8574 -1.1554  1.1489
  825MPD2    N112197   3.405   2.762  15.906  0.3478 -1.3003  0.4981
  825MPD2    H712198   3.466   2.697  15.954 -1.1667 -1.6941  1.9157
  826MPD2     C12199   2.940   3.180  13.742 -0.9193  0.0254  0.2218
  826MPD2    C112200   2.981   3.296  13.680  0.3003 -0.2339 -0.4026
  826MPD2    C212201   2.915   3.416  13.708  0.6475  0.0021 -0.7061
  826MPD2    C312202   2.826   3.421  13.810 -0.3946  0.1422 -0.4014
  826MPD2    C412203   2.786   3.300  13.871 -0.1920 -0.4366 -1.0012
  826MPD2    C512204   2.833   3.182  13.829  0.4409 -0.3347  0.8280
  826MPD2     H12205   2.927   3.516  13.670  2.2676  0.2078  0.3284
  826MPD2    H112206   2.706   3.294  13.944  1.3621  0.7441  0.8105
  826MPD2    H212207   2.990   3.086  13.722  0.3225  0.6180  0.5032
  826MPD2    H312208   2.792   3.087  13.860  0.3397 -0.3984  0.5036
  826MPD2     N12209   2.762   3.533  13.857 -0.6329  0.4831 -0.7021
  826MPD2    H512210   2.689   3.524  13.927  1.5306 -0.6687  1.4078
  826MPD2    N112211   3.080   3.278  13.585 -0.4427 -0.8342 -0.2108
  826MPD2    H712212   3.106   3.182  13.565  2.3320 -0.0508 -0.4566
  827MPD2     C12213   0.267   4.568   9.244 -0.1160  0.5091 -0.0383
  827MPD2    C112214   0.193   4.480   9.323  0.0257  0.8797  0.2544
  827MPD2    C212215   0.138   4.377   9.249 -0.4032 -0.1747 -0.4699
  827MPD2    C312216   0.129   4.353   9.112 -0.8044  0.4176  0.1840
  827MPD2    C412217   0.199   4.445   9.046  0.1101 -0.3113 -0.2797
  827MPD2    C512218   0.264   4.551   9.109  0.1219 -0.3646  0.2435
  827MPD2     H12219   0.083   4.300   9.300 -0.2296 -0.7324 -1.1235
  827MPD2    H112220   0.206   4.447   8.938 -1.6116  1.0957 -0.3568
  827MPD2    H212221   0.323   4.649   9.288 -1.1542  1.1904  0.0342
  827MPD2    H312222   0.324   4.619   9.050 -2.0575  0.0034 -1.5409
  827MPD2     N12223   0.061   4.242   9.059 -0.2301  0.2322  0.0466
  827MPD2    H512224   4.732   4.193   9.121 -2.0064  0.5138 -1.5968
  827MPD2    N112225   0.185   4.500   9.462 -0.1114 -0.0351 -0.4646
  827MPD2    H712226   0.227   4.580   9.509  2.9855 -1.7433 -0.2552
  828MPD2     C12227   3.164   4.006  12.431  0.7348  1.0519  0.4111
  828MPD2    C112228   3.068   4.071  12.353 -0.1177 -0.6038  0.3800
  828MPD2    C212229   3.104   4.096  12.224  0.8680  1.2116 -0.2711
  828MPD2    C312230   3.230   4.074  12.175 -0.3739  0.0205 -0.7334
  828MPD2    C412231   3.330   4.029  12.257  0.3105  0.3391 -0.2557
  828MPD2    C512232   3.294   3.991  12.387 -0.6013  0.1099 -1.0711
  828MPD2     H12233   3.022   4.133  12.164  0.3789 -0.7264 -0.8121
  828MPD2    H112234   3.435   4.018  12.229  0.4022 -1.3177  0.7126
  828MPD2    H212235   3.148   3.976  12.534 -0.4712 -0.9512 -0.3528
  828MPD2    H312236   3.372   3.957  12.454 -0.8910  2.2127  0.3285
  828MPD2     N12237   3.265   4.113  12.047 -0.3498  0.5807  0.7204
  828MPD2    H512238   3.367   4.113  12.042 -0.3092  0.0597  1.6048
  828MPD2    N112239   2.939   4.110  12.400 -0.3912 -0.2748  0.2239
  828MPD2    H712240   2.881   4.168  12.340  1.4504  0.2783 -1.0320
  829MPD2     C12241   2.344   4.498  11.949 -0.7141  0.4040 -0.8501
  829MPD2    C112242   2.262   4.457  12.054 -0.2140  0.8008  0.2334
  829MPD2    C212243   2.320   4.411  12.171 -0.0985  0.4302 -0.5878
  829MPD2    C312244   2.461   4.408  12.181  0.3549  0.4923  0.2700
  829MPD2    C412245   2.536   4.456  12.074 -0.4917  0.0251  0.3564
  829MPD2    C512246   2.477   4.492  11.954 -0.7075  0.7884  1.1497
  829MPD2     H12247   2.261   4.368  12.251  1.3056 -2.6517 -1.2052
  829MPD2    H112248   2.644   4.462  12.082 -0.4305  2.0661 -1.7744
  829MPD2    H212249   2.301   4.531  11.855  0.3459 -1.4505 -1.9875
  829MPD2    H312250   2.531   4.524  11.866 -0.4967  0.2150  1.0701
  829MPD2     N12251   2.534   4.364  12.290 -0.2703  0.2936 -0.4705
  829MPD2    H512252   2.635   4.360  12.280 -0.0680  1.4427  0.9839
  829MPD2    N112253   2.121   4.452  12.025  0.2130 -0.4950  0.0295
  829MPD2    H712254   2.094   4.473  11.930  0.5000 -0.6307 -0.0812
  830MPD2     C12255   2.069   1.506  16.123 -0.0152 -0.5231 -0.4868
  830MPD2    C112256   2.089   1.598  16.025 -0.6882  1.1499 -0.3670
  830MPD2    C212257   2.153   1.572  15.907  0.1835 -1.1763 -0.3596
  830MPD2    C312258   2.208   1.446  15.887 -0.1558 -0.0612 -0.3067
  830MPD2    C412259   2.193   1.351  15.986 -0.2917 -0.4402 -0.4549
  830MPD2    C512260   2.116   1.378  16.099 -0.5141  0.1353 -0.4887
  830MPD2     H12261   2.168   1.651  15.834  1.8028 -1.9502 -0.8539
  830MPD2    H112262   2.232   1.253  15.964  2.2670  0.0673  1.8913
  830MPD2    H212263   2.012   1.519  16.214  1.1626 -0.2259  0.2106
  830MPD2    H312264   2.089   1.301  16.170 -0.2067 -0.5358 -1.0960
  830MPD2     N12265   2.298   1.410  15.788  0.1132  0.2148  0.0712
  830MPD2    H512266   2.346   1.321  15.788  0.9385  0.6556  2.4940
  830MPD2    N112267   2.026   1.726  16.052 -0.3997 -0.5003 -0.2038
  830MPD2    H712268   2.013   1.737  16.152  1.5770  1.2051 -0.1276
  831MPD2     C12269   2.232   4.013  16.390  0.0578 -0.0612  0.7938
  831MPD2    C112270   2.218   3.925  16.289 -0.0317 -0.2868 -0.3481
  831MPD2    C212271   2.108   3.840  16.278 -0.8001 -0.3667  0.1327
  831MPD2    C312272   2.017   3.834  16.372 -0.0697 -0.8449 -0.3155
  831MPD2    C412273   2.039   3.911  16.488  0.5654  0.5209  0.7477
  831MPD2    C512274   2.155   3.987  16.498  0.3572 -0.3579 -0.2768
  831MPD2     H12275   2.105   3.761  16.204  1.0627  0.0039 -0.3267
  831MPD2    H112276   1.976   3.919  16.576  0.4115  3.1806  0.4068
  831MPD2    H212277   2.328   4.061  16.399 -0.5189  0.9665  1.3996
  831MPD2    H312278   2.184   4.037  16.590  0.4288  0.5917 -0.8150
  831MPD2     N12279   1.911   3.735  16.374 -0.0993 -0.1379 -0.1206
  831MPD2    H512280   1.868   3.708  16.461  0.0968 -2.4824 -0.7622
  831MPD2    N112281   2.311   3.911  16.187  0.0491  0.6086 -0.5123
  831MPD2    H712282   2.383   3.977  16.161 -0.3706  1.5388  0.7007
  832MPD2     C12283   1.087   0.443  17.272  0.2480  0.1762  0.9267
  832MPD2    C112284   1.091   0.560  17.194  0.1220  0.9423 -0.7963
  832MPD2    C212285   0.980   0.589  17.114 -0.4579  0.9312 -0.0014
  832MPD2    C312286   0.865   0.517  17.117  0.5877  0.3612 -0.3142
  832MPD2    C412287   0.865   0.407  17.199  0.1256  0.4794 -0.2833
  832MPD2    C512288   0.978   0.361  17.268  0.3113  0.6117 -0.8390
  832MPD2     H12289   0.975   0.679  17.052  0.2719 -0.7450 -2.4851
  832MPD2    H112290   0.771   0.354  17.212  2.1478 -2.7907  1.0678
  832MPD2    H212291   1.173   0.413  17.330  0.7268 -1.2373 -0.5165
  832MPD2    H312292   0.976   0.276  17.335  0.9961  0.7628 -0.6283
  832MPD2     N12293   0.746   0.545  17.046  0.6130 -0.0145  0.2572
  832MPD2    H512294   0.665   0.487  17.069  0.3033  0.5603  0.5971
  832MPD2    N112295   1.207   0.629  17.203 -0.2319 -0.2210  0.7022
  832MPD2    H712296   1.282   0.594  17.262  0.8247  2.9104  1.2262
  833MPD2     C12297   3.004   1.631  12.637  0.0911  0.2654 -0.5250
  833MPD2    C112298   2.962   1.698  12.521  0.9043 -0.5988 -0.0675
  833MPD2    C212299   2.964   1.617  12.408 -0.1220  0.0856  0.3095
  833MPD2    C312300   3.010   1.488  12.407 -0.1573  0.0043  0.6050
  833MPD2    C412301   3.047   1.429  12.524 -0.2783  0.4371 -0.6988
  833MPD2    C512302   3.053   1.501  12.640 -0.2436 -0.0324  0.1648
  833MPD2     H12303   2.938   1.663  12.313  1.1969 -0.7640 -0.4573
  833MPD2    H112304   3.075   1.324  12.532 -2.9664 -0.2254  0.2715
  833MPD2    H212305   3.017   1.684  12.730  0.3049 -1.1293  0.2389
  833MPD2    H312306   3.100   1.462  12.729 -0.9294  0.0607  0.5609
  833MPD2     N12307   3.014   1.405  12.292  0.8447 -0.2957 -0.3042
  833MPD2    H512308   3.037   1.307  12.300 -1.2044 -0.8369 -1.1306
  833MPD2    N112309   2.924   1.837  12.523 -0.1384 -0.6222  0.0386
  833MPD2    H712310   2.919   1.876  12.617 -1.0162 -2.3562  0.7013
  834MPD2     C12311   3.355   0.831  11.537 -0.1455 -0.3492 -0.8174
  834MPD2    C112312   3.321   0.943  11.462  0.1265  0.1365  0.4938
  834MPD2    C212313   3.276   1.055  11.523 -0.2374  0.2352 -1.1534
  834MPD2    C312314   3.280   1.053  11.661  0.4814 -0.8237 -0.4665
  834MPD2    C412315   3.329   0.946  11.739 -0.3326  0.7479 -0.0589
  834MPD2    C512316   3.366   0.834  11.672 -0.1391 -0.2090 -0.5903
  834MPD2     H12317   3.240   1.139  11.464  0.2345 -0.0238 -1.8039
  834MPD2    H112318   3.340   0.943  11.847 -0.1907  1.4345 -0.0559
  834MPD2    H212319   3.387   0.738  11.492  1.5419 -1.0969  1.9514
  834MPD2    H312320   3.403   0.743  11.718  1.7050 -0.2641 -2.1556
  834MPD2     N12321   3.233   1.170  11.728 -0.1901  0.4665  0.4533
  834MPD2    H512322   3.183   1.239  11.672 -0.2475 -0.8711 -1.1535
  834MPD2    N112323   3.363   0.939  11.326  0.1576 -0.0128  1.3941
  834MPD2    H712324   3.399   0.857  11.278  0.8462  1.6751 -0.9305
  835MPD2     C12325   3.646   4.471  11.162 -0.0574 -0.2832 -0.1026
  835MPD2    C112326   3.551   4.471  11.255  0.9114  0.0769 -0.3929
  835MPD2    C212327   3.589   4.469  11.388  0.6153  0.5271  0.6163
  835MPD2    C312328   3.718   4.451  11.429  0.1720 -0.4114  0.5158
  835MPD2    C412329   3.806   4.422  11.332 -0.1131  0.7054 -0.0746
  835MPD2    C512330   3.774   4.435  11.199  0.2168  0.0336 -0.1674
  835MPD2     H12331   3.505   4.489  11.454  0.6184 -2.0966  1.4419
  835MPD2    H112332   3.911   4.408  11.350 -0.3100 -0.1718  0.4113
  835MPD2    H212333   3.637   4.478  11.054  3.0065 -1.0026 -0.4179
  835MPD2    H312334   3.862   4.427  11.135  1.7978  0.8471  1.8955
  835MPD2     N12335   3.751   4.455  11.563 -0.0878 -0.1073 -0.1303
  835MPD2    H512336   3.846   4.431  11.590 -0.7273 -1.9544  0.4733
  835MPD2    N112337   3.419   4.513  11.226  0.1472 -0.0947 -0.2764
  835MPD2    H712338   3.350   4.500  11.299  0.4324  1.3630  0.2451
  836MPD2     C12339   3.741   0.042  12.450  0.0127 -0.0362 -0.2190
  836MPD2    C112340   3.665   0.019  12.341  0.1501  0.4216  0.5440
  836MPD2    C212341   3.530   0.033  12.349  0.2690 -0.2725 -0.4031
  836MPD2    C312342   3.473   0.072  12.465  0.5639  0.0956  1.1074
  836MPD2    C412343   3.547   0.109  12.578 -0.2563  0.2364 -0.3423
  836MPD2    C512344   3.687   0.095  12.566 -0.0102 -0.2988  0.0839
  836MPD2     H12345   3.469   4.735  12.265 -2.1956  0.6665  1.0046
  836MPD2    H112346   3.509   0.145  12.672 -0.0558  0.3047 -0.2863
  836MPD2    H212347   3.848   0.026  12.443  0.1778 -0.4183  3.5823
  836MPD2    H312348   3.749   0.121  12.651 -2.6542  1.3069  1.5375
  836MPD2     N12349   3.332   0.092  12.463 -0.1839  0.6000 -0.5633
  836MPD2    H512350   3.287   0.084  12.372  0.2402  0.4718 -0.7647
  836MPD2    N112351   3.726   4.690  12.225  0.0283 -0.2701 -0.2706
  836MPD2    H712352   3.821   4.654  12.234  0.5102  0.9443 -0.4467
  837MPD2     C12353   1.901   4.121  10.136  0.6645 -0.0365 -0.2563
  837MPD2    C112354   1.797   4.173  10.077 -0.4129 -0.5130  0.1875
  837MPD2    C212355   1.774   4.309  10.084  0.5400 -0.8255 -0.1974
  837MPD2    C312356   1.854   4.389  10.168 -0.5484  0.0434 -0.0549
  837MPD2    C412357   1.944   4.329  10.254  0.1504 -0.0858  0.2735
  837MPD2    C512358   1.982   4.200  10.218  0.0777  0.2522  0.6957
  837MPD2     H12359   1.692   4.348  10.025  0.7159 -1.4651 -0.8613
  837MPD2    H112360   2.004   4.390  10.321 -0.7808  1.7187 -0.5447
  837MPD2    H212361   1.930   4.019  10.113  2.3267  0.8704 -2.1268
  837MPD2    H312362   2.069   4.150  10.259  0.4451 -0.9981 -1.6360
  837MPD2     N12363   1.826   4.527  10.173  0.0741 -0.0751 -0.2977
  837MPD2    H512364   1.742   4.558  10.127 -1.9217 -1.7155  2.2675
  837MPD2    N112365   1.712   4.099   9.985 -0.5705 -0.3871 -0.0765
  837MPD2    H712366   1.635   4.144   9.935 -0.0765  1.0980  0.4965
  838MPD2     C12367   0.393   2.421  11.229 -0.0568 -0.4531 -0.4662
  838MPD2    C112368   0.304   2.321  11.202 -0.3267  0.3814  0.3925
  838MPD2    C212369   0.229   2.269  11.306 -0.1784 -0.1236 -0.6534
  838MPD2    C312370   0.263   2.293  11.436 -0.4312 -0.4377  0.0526
  838MPD2    C412371   0.373   2.375  11.463 -0.0698  1.1879  0.0401
  838MPD2    C512372   0.430   2.444  11.361 -0.4152  0.2492 -0.8904
  838MPD2     H12373   0.139   2.211  11.287  0.0977 -0.7991  0.1188
  838MPD2    H112374   0.424   2.382  11.559  1.1091  2.8599 -0.7066
  838MPD2    H212375   0.445   2.479  11.152  1.1982 -1.2689 -0.2338
  838MPD2    H312376   0.513   2.509  11.381 -0.7790  1.5063 -3.4887
  838MPD2     N12377   0.197   2.227  11.540  0.5007 -0.0636 -0.5009
  838MPD2    H512378   0.128   2.155  11.521 -0.9979  0.9446  1.1879
  838MPD2    N112379   0.257   2.290  11.075 -0.0227 -0.9896  0.3283
  838MPD2    H712380   0.189   2.215  11.074 -0.4260 -0.6385  0.7340
  839MPD2     C12381   4.178   2.187  11.087 -0.5776 -0.2266  0.2572
  839MPD2    C112382   4.219   2.108  10.981 -0.7095 -0.3678 -0.2104
  839MPD2    C212383   4.341   2.136  10.925 -0.3985  0.4188 -0.1723
  839MPD2    C312384   4.426   2.233  10.983 -0.2592  0.8179 -0.6716
  839MPD2    C412385   4.387   2.297  11.101 -0.4978  0.0771  0.3450
  839MPD2    C512386   4.261   2.279  11.147  1.2618 -0.3947 -0.0408
  839MPD2     H12387   4.357   2.094  10.826 -0.9809  1.7694 -0.8431
  839MPD2    H112388   4.444   2.367  11.160 -1.8489 -0.3549  2.1671
  839MPD2    H212389   4.083   2.174  11.138 -0.5262 -0.6497  0.2497
  839MPD2    H312390   4.239   2.335  11.237  2.0663  1.4069 -0.9566
  839MPD2     N12391   4.548   2.278  10.932 -1.0200 -0.3917  0.0545
  839MPD2    H512392   4.599   2.348  10.985 -0.6701 -0.2900 -0.4218
  839MPD2    N112393   4.143   2.003  10.930  0.2682 -0.1355 -0.5326
  839MPD2    H712394   4.184   1.943  10.859  0.4839  0.1178 -0.6257
  840MPD2     C12395   0.552   0.136   9.760  0.0986  0.0355 -1.4224
  840MPD2    C112396   0.496   0.061   9.861 -0.2581  0.0420  0.1646
  840MPD2    C212397   0.550   0.054   9.991  0.3115 -1.1220 -0.7182
  840MPD2    C312398   0.674   0.118  10.009 -0.4607  0.8204  0.7605
  840MPD2    C412399   0.735   0.185   9.908  0.3935 -0.4030  0.4567
  840MPD2    C512400   0.672   0.197   9.789  0.2215 -0.5755  1.2690
  840MPD2     H12401   0.502   4.729  10.066 -1.6029  1.3932  0.0862
  840MPD2    H112402   0.826   0.240   9.931  1.0747 -1.6188  0.6914
  840MPD2    H212403   0.508   0.146   9.662  0.3957  1.1849 -1.4401
  840MPD2    H312404   0.712   0.252   9.704  1.7650  1.7056  3.5126
  840MPD2     N12405   0.751   0.114  10.131 -0.5874 -0.0172 -0.3173
  840MPD2    H512406   0.843   0.156  10.122  0.1622 -1.2012  1.8987
  840MPD2    N112407   0.373   4.735   9.832  0.1236  0.0897 -0.6768
  840MPD2    H712408   0.341   4.733   9.736  0.4874  0.0308 -0.7978
  841MPD2     C12409   4.059   4.467  13.902  0.0481 -0.4975  0.1830
  841MPD2    C112410   4.129   4.363  13.967  0.3249  0.3532  0.1452
  841MPD2    C212411   4.165   4.388  14.099  0.1091  0.2796  0.0563
  841MPD2    C312412   4.118   4.490  14.179  0.4204 -0.1653 -0.0409
  841MPD2    C412413   4.039   4.587  14.116 -0.4612 -0.3460 -0.5866
  841MPD2    C512414   4.017   4.568  13.984 -0.7118 -0.8920 -0.5470
  841MPD2     H12415   4.236   4.313  14.134 -0.1320 -0.5354 -1.2161
  841MPD2    H112416   3.993   4.673  14.163 -0.1164  0.2212 -1.3035
  841MPD2    H212417   4.005   4.472  13.808  0.2189  0.3224  0.1352
  841MPD2    H312418   3.939   4.627  13.938 -1.5588 -2.5504 -1.2404
  841MPD2     N12419   4.174   4.509  14.308 -1.1343  0.0220 -0.9342
  841MPD2    H512420   4.231   4.435  14.348 -1.4501  0.9538  1.2401
  841MPD2    N112421   4.176   4.247  13.895  0.3049  0.1115 -0.5943
  841MPD2    H712422   4.252   4.190  13.931 -0.2167 -0.7960 -0.9229
  842MPD2     C12423   0.487   0.931  17.000  0.1001  0.5546 -0.2615
  842MPD2    C112424   0.380   0.852  17.044  0.3820 -0.1893 -0.0089
  842MPD2    C212425   0.387   0.781  17.164 -0.1835  0.3134  0.1774
  842MPD2    C312426   0.499   0.799  17.242  0.3480 -0.3289 -0.3007
  842MPD2    C412427   0.606   0.869  17.189  0.1018 -0.3799  0.4128
  842MPD2    C512428   0.604   0.936  17.071 -0.4823  0.1387 -0.8216
  842MPD2     H12429   0.291   0.751  17.203 -0.4021  2.2091  1.1211
  842MPD2    H112430   0.697   0.869  17.247 -0.5768 -1.8149  1.4850
  842MPD2    H212431   0.493   0.981  16.904 -2.5134  1.6166  0.1103
  842MPD2    H312432   0.682   1.010  17.057 -0.8155  0.6171 -0.1820
  842MPD2     N12433   0.510   0.753  17.373 -0.4451 -0.0503  0.6423
  842MPD2    H512434   0.586   0.786  17.432 -0.2673 -0.1584  0.4730
  842MPD2    N112435   0.279   0.832  16.947 -0.6420 -0.2742 -0.6805
  842MPD2    H712436   0.281   0.882  16.859 -1.7469  0.6744 -0.1809
  843MPD2     C12437   1.625   1.539   0.266  0.3714  0.1931  0.2555
  843MPD2    C112438   1.735   1.474   0.214 -0.8806 -0.4744  0.0714
  843MPD2    C212439   1.859   1.501   0.267  0.5614 -0.2627 -0.2230
  843MPD2    C312440   1.865   1.595   0.372 -0.3974 -0.0736 -0.4569
  843MPD2    C412441   1.759   1.663   0.417 -0.6535  0.5368 -0.7086
  843MPD2    C512442   1.634   1.626   0.372 -0.6109 -0.7631 -0.7701
  843MPD2     H12443   1.945   1.441   0.237  1.4578  1.4972 -1.1614
  843MPD2    H112444   1.779   1.721   0.506  0.0505 -2.0157  0.7976
  843MPD2    H212445   1.527   1.524   0.222  2.6578 -0.3172 -4.6646
  843MPD2    H312446   1.541   1.666   0.410  0.5492  1.8552 -0.6252
  843MPD2     N12447   1.995   1.625   0.418 -0.8770  0.1855 -0.2135
  843MPD2    H512448   1.999   1.713   0.468 -1.4097  0.3269 -0.4148
  843MPD2    N112449   1.707   1.380   0.109 -0.7653  0.5184  1.0006
  843MPD2    H712450   1.612   1.372   0.073 -0.7034 -1.4695  1.3127
  844MPD2     C12451   0.332   4.636  16.612 -0.0206  0.0497 -0.0913
  844MPD2    C112452   0.422   4.642  16.511 -0.0893 -0.4002 -0.4174
  844MPD2    C212453   0.529   4.725  16.522  0.1890 -0.1853  0.5447
  844MPD2    C312454   0.549   0.074  16.624 -0.1931 -0.2473 -0.2648
  844MPD2    C412455   0.451   0.070  16.726  0.0980 -0.6591  1.0871
  844MPD2    C512456   0.348   4.715  16.724 -0.5950  0.0662 -0.6379
  844MPD2     H12457   0.597   0.001  16.439  0.3163  0.7593  0.7862
  844MPD2    H112458   0.451   0.139  16.809 -2.0638  2.0614 -1.1835
  844MPD2    H212459   0.249   4.567  16.605  0.9265 -1.2853  1.7354
  844MPD2    H312460   0.269   4.722  16.798  0.0371 -1.1426  0.1313
  844MPD2     N12461   0.657   0.160  16.624 -0.1926  0.7237  0.6475
  844MPD2    H512462   0.718   0.158  16.543 -2.9010 -1.4142 -1.3302
  844MPD2    N112463   0.413   4.551  16.405  0.1162  0.3027  0.2583
  844MPD2    H712464   0.354   4.469  16.418 -0.6146  0.9289  0.9377
  845MPD2     C12465   1.000   1.059  16.447 -0.6676 -0.7183 -0.1155
  845MPD2    C112466   1.086   1.020  16.546 -1.3753 -0.1969 -0.2410
  845MPD2    C212467   1.093   0.885  16.574 -0.3644 -0.2292 -0.0708
  845MPD2    C312468   1.020   0.787  16.508  0.0769  0.5040  0.0548
  845MPD2    C412469   0.929   0.837  16.412 -0.1759 -0.7339  1.0112
  845MPD2    C512470   0.923   0.967  16.383  0.6548  0.3679 -0.5514
  845MPD2     H12471   1.153   0.856  16.659  0.7033  1.7765 -0.1420
  845MPD2    H112472   0.853   0.777  16.365 -0.2658 -0.4674  0.8183
  845MPD2    H212473   0.984   1.163  16.419 -0.9136 -0.2965  1.6394
  845MPD2    H312474   0.847   1.005  16.316  1.2981  2.1719 -0.2588
  845MPD2     N12475   1.029   0.658  16.553  1.0252 -0.1620 -0.1552
  845MPD2    H512476   1.071   0.641  16.644 -1.5433 -2.7408  0.5427
  845MPD2    N112477   1.160   1.123  16.614 -0.5423  0.3723  0.8391
  845MPD2    H712478   1.136   1.219  16.593 -2.1300 -0.2640 -0.2235
  846MPD2     C12479   2.360   1.362  13.794 -0.2978 -0.5022  0.1025
  846MPD2    C112480   2.227   1.407  13.776 -0.2273  1.1299 -0.9889
  846MPD2    C212481   2.152   1.431  13.885  0.1052 -0.2340  0.3166
  846MPD2    C312482   2.201   1.405  14.012 -0.1613 -0.4793 -0.4209
  846MPD2    C412483   2.330   1.351  14.031  0.1668 -0.1453  0.0684
  846MPD2    C512484   2.412   1.335  13.924 -0.4900 -0.4508  0.5600
  846MPD2     H12485   2.051   1.468  13.873 -0.2861 -1.4778 -0.2004
  846MPD2    H112486   2.369   1.323  14.128 -0.2885  2.4816  1.0177
  846MPD2    H212487   2.431   1.337  13.715 -2.3399 -4.7590 -0.3792
  846MPD2    H312488   2.514   1.299  13.920  0.5885  2.3581  2.5194
  846MPD2     N12489   2.113   1.436  14.119  0.3335  0.5492  0.2921
  846MPD2    H512490   2.020   1.465  14.093  0.2029  0.0426  0.1902
  846MPD2    N112491   2.182   1.451  13.648  0.1162  0.3547  0.9408
  846MPD2    H712492   2.101   1.512  13.645  0.3308  0.5238 -1.9865
  847MPD2     C12493   2.353   1.752  14.852  0.0130 -0.3987 -0.4572
  847MPD2    C112494   2.469   1.772  14.927  0.4771  0.8278  0.0416
  847MPD2    C212495   2.547   1.663  14.953 -0.4327 -0.5228  0.0791
  847MPD2    C312496   2.518   1.538  14.896  0.3861  0.5915 -0.3585
  847MPD2    C412497   2.408   1.517  14.818 -0.0720  0.6538 -0.5911
  847MPD2    C512498   2.330   1.625  14.795 -0.4018 -0.3271 -0.0141
  847MPD2     H12499   2.630   1.678  15.022  0.5110 -1.3849 -0.8629
  847MPD2    H112500   2.389   1.419  14.776  2.3391 -0.9502  2.0413
  847MPD2    H212501   2.287   1.837  14.833 -1.2168 -1.6130 -1.6421
  847MPD2    H312502   2.242   1.609  14.733  0.4819  0.5284 -1.4958
  847MPD2     N12503   2.605   1.442  14.945 -0.3061 -0.4920  0.1054
  847MPD2    H512504   2.694   1.470  14.986  0.3759 -1.3521 -0.7890
  847MPD2    N112505   2.504   1.892  14.992  0.8584  0.5394 -0.3373
  847MPD2    H712506   2.584   1.877  15.052 -1.4458 -0.5454  2.4915
  848MPD2     C12507   0.269   0.706  16.360 -0.5914 -0.0000  0.1402
  848MPD2    C112508   0.389   0.750  16.409 -0.5725 -0.0381 -0.1935
  848MPD2    C212509   0.455   0.855  16.346  0.0130 -0.2032  0.4843
  848MPD2    C312510   0.397   0.918  16.231 -0.0366 -0.7321 -0.7802
  848MPD2    C412511   0.275   0.869  16.186  0.1228 -0.1868 -0.7503
  848MPD2    C512512   0.214   0.765  16.250  0.0804 -0.2801 -0.0197
  848MPD2     H12513   0.549   0.882  16.392 -0.2443  1.1259  0.2276
  848MPD2    H112514   0.233   0.912  16.096  2.1199 -0.7742 -1.9697
  848MPD2    H212515   0.206   0.632  16.408  0.8998 -1.8372 -0.6979
  848MPD2    H312516   0.121   0.729  16.209 -0.9980  0.6391  1.6395
  848MPD2     N12517   0.447   1.036  16.171 -0.1749  0.2607  0.3667
  848MPD2    H512518   0.396   1.066  16.089  0.3567  1.0613  0.3274
  848MPD2    N112519   0.447   0.690  16.522  0.5107 -0.0954  0.0183
  848MPD2    H712520   0.526   0.738  16.563  1.4795 -0.6564 -1.1758
  849MPD2     C12521   4.257   0.851  13.790 -0.1381  0.0866 -0.1336
  849MPD2    C112522   4.376   0.790  13.747 -0.0192 -0.2959  0.3047
  849MPD2    C212523   4.419   0.676  13.817 -0.8872 -0.1129 -0.5175
  849MPD2    C312524   4.360   0.643  13.934 -0.3640  0.0848 -0.0992
  849MPD2    C412525   4.246   0.709  13.983 -0.2954  0.6627  0.0277
  849MPD2    C512526   4.209   0.811  13.911  0.3384 -0.1496  0.2987
  849MPD2     H12527   4.509   0.626  13.781 -0.6139 -0.3974  0.5360
  849MPD2    H112528   4.198   0.674  14.074  2.0590  0.4326  1.1892
  849MPD2    H212529   4.220   0.933  13.729  0.3490 -0.0162 -0.5715
  849MPD2    H312530   4.131   0.874  13.952  0.9893  1.2523 -0.6040
  849MPD2     N12531   4.397   0.527  14.008 -0.3655 -0.2738  0.7920
  849MPD2    H512532   4.335   0.498  14.083 -0.4736  0.8797  1.1514
  849MPD2    N112533   4.445   0.842  13.633  0.0752 -0.3824 -0.2550
  849MPD2    H712534   4.407   0.928  13.595  1.4436 -0.4354 -1.7191
  850MPD2     C12535   2.155   2.840  14.821  0.1216 -0.0285 -0.5077
  850MPD2    C112536   2.220   2.750  14.887  0.0106 -0.2071  0.5494
  850MPD2    C212537   2.352   2.782  14.936  0.3858 -0.1335  0.6979
  850MPD2    C312538   2.403   2.910  14.910  0.1060 -0.6681  0.6839
  850MPD2    C412539   2.332   2.995  14.833  0.2704  0.6921 -0.2192
  850MPD2    C512540   2.211   2.959  14.787  0.2620  0.0099 -0.1399
  850MPD2     H12541   2.405   2.716  15.004  1.2437 -1.3399 -1.1483
  850MPD2    H112542   2.364   3.092  14.796  0.5270  0.4225 -0.7036
  850MPD2    H212543   2.053   2.827  14.786 -0.7256  1.7945  1.2831
  850MPD2    H312544   2.153   3.024  14.722 -0.0968  0.3642  0.5431
  850MPD2     N12545   2.532   2.950  14.957 -0.5242 -0.1571 -0.0936
  850MPD2    H512546   2.563   3.043  14.927 -0.1700 -0.7807 -1.6889
  850MPD2    N112547   2.157   2.643  14.954 -0.1458 -0.3281 -0.4783
  850MPD2    H712548   2.056   2.642  14.964 -0.2539  2.6663 -1.4549
  851MPD2     C12549   2.626   2.219  15.583 -0.7251  0.0386 -0.2853
  851MPD2    C112550   2.527   2.167  15.505  0.3263 -0.0881  0.4842
  851MPD2    C212551   2.515   2.030  15.501  0.3299 -0.1653  0.6158
  851MPD2    C312552   2.597   1.950  15.574  0.0879 -0.2164 -0.4578
  851MPD2    C412553   2.684   2.003  15.664 -0.3897  0.6629  0.2944
  851MPD2    C512554   2.694   2.140  15.664  0.2738  0.4133  0.6452
  851MPD2     H12555   2.443   1.987  15.433 -0.0939  0.4527  0.6790
  851MPD2    H112556   2.742   1.948  15.738 -1.2921  1.1148  1.3320
  851MPD2    H212557   2.636   2.327  15.591  1.9090 -0.3687  1.8694
  851MPD2    H312558   2.776   2.183  15.720 -2.2782  1.5336  3.5090
  851MPD2     N12559   2.588   1.807  15.553 -0.2383  0.0147 -0.7085
  851MPD2    H512560   2.533   1.772  15.475  0.4425  0.2159 -1.2851
  851MPD2    N112561   2.453   2.256  15.431  0.4025  0.5215  0.0382
  851MPD2    H712562   2.477   2.354  15.445  0.4503  0.3991  0.8498
  852MPD2     C12563   1.715   1.489   9.882 -0.6598 -0.1461 -0.2857
  852MPD2    C112564   1.835   1.437   9.921 -0.3565  0.9919 -0.3058
  852MPD2    C212565   1.950   1.513   9.907 -0.0503  0.1113 -0.3628
  852MPD2    C312566   1.957   1.626   9.834 -0.2283  0.4273 -0.9886
  852MPD2    C412567   1.843   1.680   9.789 -0.0876 -0.3060 -0.4561
  852MPD2    C512568   1.725   1.611   9.815  0.0056  0.9387 -0.0253
  852MPD2     H12569   2.045   1.473   9.941 -0.7915 -0.6567  0.8309
  852MPD2    H112570   1.849   1.775   9.737  3.3120  0.3598  1.1023
  852MPD2    H212571   1.617   1.444   9.888 -0.4401 -0.6708 -0.5287
  852MPD2    H312572   1.636   1.645   9.764  0.2647 -0.8301 -1.6874
  852MPD2     N12573   2.083   1.680   9.806 -0.3823  0.0854 -0.0481
  852MPD2    H512574   2.161   1.620   9.829 -0.1040 -0.4525 -2.3813
  852MPD2    N112575   1.849   1.314   9.986  0.4556 -0.1696 -0.6180
  852MPD2    H712576   1.945   1.286  10.001 -0.2003 -1.3955  1.4090
  853MPD2     C12577   4.172   0.496  12.105  0.2497  0.6300  0.1048
  853MPD2    C112578   4.081   0.590  12.067  0.5006 -0.2129 -0.1605
  853MPD2    C212579   4.094   0.646  11.938 -0.2861 -0.3511 -0.1485
  853MPD2    C312580   4.182   0.593  11.845 -0.0258 -0.0461 -0.7613
  853MPD2    C412581   4.268   0.494  11.880 -0.0692 -0.0902 -0.4933
  853MPD2    C512582   4.258   0.450  12.008  0.5220 -0.6553  0.6642
  853MPD2     H12583   4.031   0.727  11.902  1.9683  2.0216  1.2408
  853MPD2    H112584   4.332   0.450  11.805  1.6506  0.4871  0.6298
  853MPD2    H212585   4.176   0.445  12.201 -0.9369 -0.8241 -0.6208
  853MPD2    H312586   4.330   0.375  12.037 -0.5911 -2.1314 -0.3989
  853MPD2     N12587   4.190   0.626  11.702 -0.0255 -0.5354  0.2185
  853MPD2    H512588   4.260   0.582  11.642 -0.2214 -0.0477 -0.3669
  853MPD2    N112589   3.982   0.625  12.156  0.0654 -0.3419 -0.2058
  853MPD2    H712590   3.981   0.588  12.251 -0.6983  0.2977  0.0384
  854MPD2     C12591   0.990   0.578  12.775  0.4952  0.1851  0.1928
  854MPD2    C112592   1.032   0.654  12.663 -0.7542 -0.1885  0.1217
  854MPD2    C212593   1.135   0.746  12.680 -0.0430  0.3327 -0.5571
  854MPD2    C312594   1.199   0.762  12.803 -0.6659 -0.0754 -0.4617
  854MPD2    C412595   1.168   0.674  12.904  0.0228 -0.0902 -0.4458
  854MPD2    C512596   1.064   0.584  12.887 -0.0235  0.0843 -0.9618
  854MPD2     H12597   1.154   0.813  12.597  0.3133  0.1636 -0.6128
  854MPD2    H112598   1.215   0.680  13.001  0.3643 -0.8134 -0.5670
  854MPD2    H212599   0.913   0.502  12.774  1.2799 -0.6499  1.7820
  854MPD2    H312600   1.048   0.516  12.970  0.0289  0.0670 -0.9655
  854MPD2     N12601   1.297   0.864  12.825 -0.1722 -0.3523  0.6016
  854MPD2    H512602   1.359   0.856  12.905  1.8433 -1.4150 -1.0944
  854MPD2    N112603   0.963   0.630  12.537  0.5056 -0.2780 -0.2325
  854MPD2    H712604   0.897   0.553  12.524  0.6513 -0.0065 -2.6660
  855MPD2     C12605   2.004   0.752  13.382 -0.3252 -0.4246  0.4211
  855MPD2    C112606   1.874   0.791  13.396  0.1290  0.1876 -0.4873
  855MPD2    C212607   1.804   0.854  13.293  0.3866  0.3814  0.4044
  855MPD2    C312608   1.864   0.878  13.170 -0.3538 -0.1164 -0.2867
  855MPD2    C412609   2.001   0.848  13.167 -0.3808  0.5151 -0.6341
  855MPD2    C512610   2.067   0.786  13.273 -0.0169 -0.1051 -0.5404
  855MPD2     H12611   1.699   0.876  13.308 -0.0985 -1.5517 -0.1551
  855MPD2    H112612   2.063   0.866  13.080  1.6095 -0.0382  0.6831
  855MPD2    H212613   2.053   0.680  13.446 -0.8025 -0.5929  0.5883
  855MPD2    H312614   2.169   0.751  13.257 -0.1266 -0.0839 -1.3136
  855MPD2     N12615   1.798   0.934  13.056  0.0664  0.6429  0.2292
  855MPD2    H512616   1.856   0.963  12.978  2.0090  1.0923  1.8482
  855MPD2    N112617   1.795   0.749  13.505  0.0548  0.2905 -0.0311
  855MPD2    H712618   1.694   0.765  13.505 -0.4473 -2.9002  0.0735
  856MPD2     C12619   3.098   1.796  14.126 -0.3428  0.7534 -0.2314
  856MPD2    C112620   3.131   1.931  14.141  0.3098 -0.1908 -0.1189
  856MPD2    C212621   3.057   2.027  14.069  0.0082  0.0501  0.2137
  856MPD2    C312622   2.948   1.994  13.990  0.1537 -0.6924  1.0737
  856MPD2    C412623   2.910   1.865  13.985 -0.0770  0.0344 -0.3710
  856MPD2    C512624   2.991   1.767  14.045  0.0434  0.4312  0.5827
  856MPD2     H12625   3.086   2.131  14.067  0.0341  0.0671  1.7483
  856MPD2    H112626   2.830   1.837  13.917  2.5373 -1.1273 -3.0115
  856MPD2    H212627   3.163   1.713  14.148 -0.0565  1.2126  0.6194
  856MPD2    H312628   2.974   1.665  14.013 -0.0243  0.9209 -0.9777
  856MPD2     N12629   2.880   2.102  13.925 -0.5532 -0.0002 -0.1506
  856MPD2    H512630   2.919   2.195  13.942 -1.5599  1.1431 -3.9269
  856MPD2    N112631   3.243   1.973  14.214 -0.4816 -0.1993  0.2544
  856MPD2    H712632   3.257   2.074  14.211  0.2505 -0.3606 -1.7006
  857MPD2     C12633   0.234   3.663  12.961  1.1169 -0.0125 -0.2691
  857MPD2    C112634   0.257   3.750  12.859  0.2273 -0.0482 -0.1656
  857MPD2    C212635   0.270   3.879  12.891  0.4055  0.0572  0.4465
  857MPD2    C312636   0.269   3.921  13.025  0.0478  0.0378 -0.3965
  857MPD2    C412637   0.261   3.831  13.127 -0.3899  0.7470  0.9329
  857MPD2    C512638   0.252   3.699  13.090  0.2215  0.2600 -0.4630
  857MPD2     H12639   0.293   3.962  12.824 -3.7055 -0.4890 -1.6156
  857MPD2    H112640   0.270   3.857  13.232  0.9585  3.0206  0.2793
  857MPD2    H212641   0.225   3.558  12.935 -0.5290  0.1115 -0.2234
  857MPD2    H312642   0.258   3.615  13.158 -2.4369  0.2435 -0.2403
  857MPD2     N12643   0.276   4.059  13.051  0.6288  0.1191  0.4099
  857MPD2    H512644   0.270   4.116  12.967  1.3928 -2.3282 -1.3023
  857MPD2    N112645   0.267   3.696  12.733 -0.4372  0.1816  0.0876
  857MPD2    H712646   0.240   3.598  12.733  2.3556 -0.5697  0.0273
  858MPD2     C12647   1.441   2.206  16.617  0.0660  0.3921  0.0970
  858MPD2    C112648   1.326   2.252  16.559 -0.1313 -0.4856 -0.4435
  858MPD2    C212649   1.264   2.355  16.627  0.1829 -0.0508  0.1672
  858MPD2    C312650   1.312   2.408  16.743 -0.5856 -0.6799 -0.3531
  858MPD2    C412651   1.412   2.351  16.807 -0.0060  0.3892  0.0266
  858MPD2    C512652   1.481   2.248  16.742 -0.2445  0.2791  0.4130
  858MPD2     H12653   1.166   2.389  16.594  0.1479  0.0156  0.3390
  858MPD2    H112654   1.445   2.382  16.905  2.2500  0.4668 -0.7413
  858MPD2    H212655   1.491   2.116  16.584  0.3131  0.1896  1.0325
  858MPD2    H312656   1.572   2.206  16.782 -0.6931 -1.4839 -0.4110
  858MPD2     N12657   1.237   2.498  16.822 -0.2010  0.2048 -0.0796
  858MPD2    H512658   1.255   2.504  16.922  0.9313 -1.1454 -0.1953
  858MPD2    N112659   1.269   2.192  16.441 -0.1626 -0.2691 -0.2259
  858MPD2    H712660   1.288   2.094  16.423 -0.8639 -0.5352  0.4818
  859MPD2     C12661   4.605   0.287  15.866 -0.6609 -0.1012 -0.6307
  859MPD2    C112662   4.544   0.293  15.742  0.5117 -0.1025 -0.0810
  859MPD2    C212663   4.435   0.213  15.723  0.6083 -0.5126 -0.2697
  859MPD2    C312664   4.383   0.131  15.817 -0.2426 -0.0031 -0.4227
  859MPD2    C412665   4.445   0.130  15.940 -0.9859 -0.1439 -0.2691
  859MPD2    C512666   4.556   0.199  15.963  0.4356 -0.8337  0.4072
  859MPD2     H12667   4.386   0.217  15.626 -0.9083 -1.5535  0.4557
  859MPD2    H112668   4.410   0.063  16.017  0.9179  1.2984  1.8152
  859MPD2    H212669   4.696   0.342  15.884 -0.0733 -1.2703 -0.0022
  859MPD2    H312670   4.598   0.183  16.062  0.2050 -1.0191  0.4755
  859MPD2     N12671   4.278   0.043  15.796  0.5243 -0.3603  0.7944
  859MPD2    H512672   4.247   4.726  15.877  0.9553  1.4085  2.0920
  859MPD2    N112673   4.594   0.381  15.645 -0.0187  0.9619 -0.1843
  859MPD2    H712674   4.683   0.424  15.667 -0.4714  0.5896  2.3014
  860MPD2     C12675   1.526   0.269  11.856  0.3765  0.5599  0.2637
  860MPD2    C112676   1.613   0.354  11.932 -0.0957 -0.7839 -0.2585
  860MPD2    C212677   1.567   0.482  11.947  0.0538 -0.0304  0.0405
  860MPD2    C312678   1.450   0.530  11.890 -0.1089  0.6406  0.0081
  860MPD2    C412679   1.367   0.452  11.812  0.3514 -0.2910  0.5434
  860MPD2    C512680   1.406   0.321  11.800 -0.6010  0.3159 -0.0594
  860MPD2     H12681   1.628   0.557  11.995  2.4578 -1.9339 -0.0746
  860MPD2    H112682   1.277   0.494  11.770 -1.0680  0.0344  3.8981
  860MPD2    H212683   1.540   0.162  11.856  1.6542  0.7311 -2.6565
  860MPD2    H312684   1.340   0.243  11.761 -1.8308  0.9616  0.7327
  860MPD2     N12685   1.414   0.668  11.907 -0.1986 -0.5082 -0.0380
  860MPD2    H512686   1.468   0.722  11.974 -2.5044  0.1510  1.2927
  860MPD2    N112687   1.734   0.313  12.002 -0.4318 -0.1888 -0.8823
  860MPD2    H712688   1.784   0.377  12.064  0.5428 -1.1150 -0.7101
  861MPD2     C12689   1.840   3.281  10.738  0.3163 -0.3431  0.3826
  861MPD2    C112690   1.741   3.356  10.786  0.6212  0.7134  0.0343
  861MPD2    C212691   1.628   3.375  10.709  0.5842  0.9687  0.3009
  861MPD2    C312692   1.610   3.312  10.588 -0.5173  0.0199  0.1675
  861MPD2    C412693   1.713   3.230  10.546  0.9437 -0.7715  0.4140
  861MPD2    C512694   1.831   3.210  10.620 -0.5680 -0.8621 -1.1308
  861MPD2     H12695   1.547   3.439  10.742  1.0036  1.1363  1.0150
  861MPD2    H112696   1.706   3.168  10.457 -0.1818  0.5867 -0.4450
  861MPD2    H212697   1.937   3.269  10.785 -0.3370 -1.5485  1.4222
  861MPD2    H312698   1.915   3.149  10.588  1.9346  0.7066  2.5440
  861MPD2     N12699   1.496   3.332  10.501 -0.0461 -0.3446  0.2862
  861MPD2    H512700   1.494   3.267  10.424  2.2127 -2.2609  1.8245
  861MPD2    N112701   1.752   3.431  10.902  0.8376 -0.8362 -0.5580
  861MPD2    H712702   1.693   3.512  10.914  1.9388  0.0107 -0.8551
  862MPD2     C12703   0.932   2.852  10.422 -0.2233  0.1646  0.2311
  862MPD2    C112704   0.889   2.960  10.490 -0.1441 -0.3242  0.1019
  862MPD2    C212705   0.772   2.946  10.557  1.3705  0.0346  0.6800
  862MPD2    C312706   0.711   2.820  10.562 -0.0978 -0.0713 -0.2700
  862MPD2    C412707   0.765   2.712  10.505  0.0150  0.4698  0.0134
  862MPD2    C512708   0.865   2.734  10.425 -0.0912  0.2001  0.4658
  862MPD2     H12709   0.735   3.028  10.618  0.6344 -1.9118  2.8293
  862MPD2    H112710   0.725   2.611  10.505 -0.4801  0.6819 -1.6925
  862MPD2    H212711   1.018   2.850  10.357 -0.1605  0.8791  0.2925
  862MPD2    H312712   0.920   2.654  10.377  2.0841  1.8455  0.2109
  862MPD2     N12713   0.601   2.810  10.652 -0.0545 -0.2249  0.3975
  862MPD2    H512714   0.569   2.896  10.695  1.8395  1.0213 -0.6914
  862MPD2    N112715   0.954   3.087  10.479 -0.2110 -0.1936  0.0063
  862MPD2    H712716   0.896   3.160  10.519 -1.2681 -1.1924  0.3200
  863MPD2     C12717   4.194   1.923  16.635 -0.6769  0.0920 -0.6044
  863MPD2    C112718   4.099   1.864  16.717  0.8382  0.7369  0.1466
  863MPD2    C212719   4.137   1.826  16.847 -0.3747 -0.2060  0.4659
  863MPD2    C312720   4.257   1.861  16.903 -0.1609  0.1215 -0.1718
  863MPD2    C412721   4.349   1.929  16.818  0.0539 -1.1260  0.0984
  863MPD2    C512722   4.318   1.949  16.693 -0.1853 -0.5011  0.2954
  863MPD2     H12723   4.064   1.770  16.904 -1.0529  0.8454  0.6478
  863MPD2    H112724   4.443   1.961  16.861  0.4981 -2.3680  0.0586
  863MPD2    H212725   4.175   1.950  16.532 -1.6892  0.3282 -0.3506
  863MPD2    H312726   4.387   2.013  16.640 -0.1827 -3.1028 -2.8575
  863MPD2     N12727   4.289   1.844  17.043 -0.1816 -0.1953  0.0471
  863MPD2    H512728   4.388   1.861  17.057  0.0190 -2.0702  0.8621
  863MPD2    N112729   3.972   1.820  16.663 -0.5641 -0.1882  0.3154
  863MPD2    H712730   3.961   1.832  16.563 -1.2407 -2.7767  0.0677
  864MPD2     C12731   4.590   2.766  17.585 -0.3091 -0.2144 -0.2194
  864MPD2    C112732   4.610   2.721  17.459 -0.1133  0.2352 -0.8304
  864MPD2    C212733   4.677   2.799  17.370  0.4158 -0.6777  0.2292
  864MPD2    C312734   4.711   2.935  17.402  0.1232  0.6146  1.0104
  864MPD2    C412735   4.691   2.976  17.533 -0.6930  0.1660 -0.1534
  864MPD2    C512736   4.626   2.890  17.618  0.6275 -0.2257  0.2212
  864MPD2     H12737   4.701   2.755  17.274 -0.7706 -0.1956 -0.2914
  864MPD2    H112738   4.724   3.075  17.562 -0.3121  0.0516 -0.1931
  864MPD2    H212739   4.543   2.704  17.660 -0.5160 -1.3159 -1.2617
  864MPD2    H312740   4.611   2.924  17.720 -1.6384  0.9281 -0.4737
  864MPD2     N12741   0.040   3.020  17.302  0.5823  0.3546  0.1570
  864MPD2    H512742   0.075   3.106  17.344 -2.8916  1.5960  0.5617
  864MPD2    N112743   4.574   2.585  17.434 -0.2212  0.3246 -0.0151
  864MPD2    H712744   4.545   2.531  17.514 -0.5728 -0.2785 -0.5442
  865MPD2     C12745   0.020   3.477  16.574  0.3856 -0.3409  0.2285
  865MPD2    C112746   0.014   3.369  16.657  0.1457  0.2761  0.8065
  865MPD2    C212747   0.002   3.387  16.799  0.0009 -0.3257  0.9667
  865MPD2    C312748   0.016   3.516  16.856  0.0886 -0.0249 -0.5187
  865MPD2    C412749   0.015   3.618  16.767  0.7071 -0.3718 -0.7100
  865MPD2    C512750   0.002   3.601  16.632  0.4346  0.1001  1.1923
  865MPD2     H12751   4.733   3.295  16.856  3.1825 -0.6627  0.7356
  865MPD2    H112752   0.015   3.716  16.814  0.3355 -0.1056 -1.2694
  865MPD2    H212753   0.038   3.473  16.467 -1.9311  1.1200 -0.2198
  865MPD2    H312754   4.732   3.688  16.568 -1.0845 -1.8719 -1.3292
  865MPD2     N12755   0.026   3.547  16.996  0.4741  0.1107 -0.4607
  865MPD2    H512756   0.016   3.646  17.017  0.4027 -0.2439  1.1646
  865MPD2    N112757   0.028   3.238  16.597  0.5193 -0.0859 -0.0885
  865MPD2    H712758   0.045   3.237  16.497 -0.6819  2.3921 -0.3180
  866MPD2     C12759   2.036   3.972  10.853  0.2225  0.1574  0.4022
  866MPD2    C112760   1.995   3.842  10.841  0.6712  0.0081 -0.0757
  866MPD2    C212761   1.864   3.813  10.810 -0.9364  0.2537  0.6084
  866MPD2    C312762   1.769   3.915  10.810 -0.5659 -0.9136  0.0156
  866MPD2    C412763   1.813   4.047  10.823  0.6173 -0.1007 -0.0462
  866MPD2    C512764   1.944   4.068  10.839  0.1151 -0.1828  0.4997
  866MPD2     H12765   1.839   3.710  10.785  1.8613 -0.3844  0.5270
  866MPD2    H112766   1.745   4.131  10.816  0.6998 -0.1209 -1.0346
  866MPD2    H212767   2.140   4.001  10.868 -0.2925  1.5011  1.3430
  866MPD2    H312768   1.971   4.173  10.844  2.4554 -0.7836  0.2316
  866MPD2     N12769   1.631   3.893  10.788  0.2760  0.2407 -0.1297
  866MPD2    H512770   1.571   3.975  10.778  1.5316  1.3126  1.0907
  866MPD2    N112771   2.103   3.747  10.840 -0.5148 -0.6409 -0.1593
  866MPD2    H712772   2.199   3.775  10.854 -1.1166  1.0018  0.6235
  867MPD2     C12773   3.071   2.463  16.559 -1.0750  0.2222  0.0261
  867MPD2    C112774   3.132   2.504  16.678  0.0780 -0.7879  0.1993
  867MPD2    C212775   3.067   2.597  16.753 -0.0741 -0.6150  0.2703
  867MPD2    C312776   2.939   2.631  16.720  0.0581 -0.4881 -0.2930
  867MPD2    C412777   2.881   2.593  16.598 -0.4247 -0.2596 -0.0611
  867MPD2    C512778   2.949   2.507  16.518 -0.4140 -0.2258  0.5490
  867MPD2     H12779   3.118   2.646  16.835  0.7427  0.1002 -0.6552
  867MPD2    H112780   2.785   2.631  16.566 -0.5672 -1.5284 -1.1541
  867MPD2    H212781   3.120   2.393  16.492  1.7817  3.7575 -1.5921
  867MPD2    H312782   2.914   2.472  16.422 -0.2758 -0.1887  0.4855
  867MPD2     N12783   2.858   2.715  16.803  0.1230 -0.2409 -0.7399
  867MPD2    H512784   2.771   2.754  16.767 -0.9681 -2.5984 -0.6839
  867MPD2    N112785   3.264   2.450  16.702 -0.6878 -0.3902  0.2324
  867MPD2    H712786   3.298   2.389  16.629  1.1225  2.8738 -1.6694
  868MPD2     C12787   0.330   2.118  13.047 -0.4675 -0.3262  0.0532
  868MPD2    C112788   0.443   2.183  13.098  0.7805  0.9594 -0.2661
  868MPD2    C212789   0.435   2.312  13.144 -0.7417 -0.3030  0.0001
  868MPD2    C312790   0.314   2.376  13.162 -0.2920 -0.0317  0.5598
  868MPD2    C412791   0.200   2.308  13.123 -0.5704 -0.4543 -0.7511
  868MPD2    C512792   0.210   2.183  13.064 -0.5593 -0.3657  0.1106
  868MPD2     H12793   0.525   2.369  13.167 -1.2209 -0.2834  1.8685
  868MPD2    H112794   0.098   2.345  13.124 -0.4526 -0.1912  1.1426
  868MPD2    H212795   0.328   2.034  12.979 -0.0442 -0.1535 -0.1714
  868MPD2    H312796   0.128   2.125  13.024 -1.5709  0.7297  0.5747
  868MPD2     N12797   0.311   2.498  13.231  0.5107 -0.0928 -0.6341
  868MPD2    H512798   0.393   2.526  13.284 -0.1134  0.3943  0.0799
  868MPD2    N112799   0.569   2.129  13.075  0.3308  0.0635  0.0481
  868MPD2    H712800   0.648   2.190  13.092 -0.4737  1.7421 -2.3051
  869MPD2     C12801   1.447   4.505   0.175  1.0213 -0.7901  0.1251
  869MPD2    C112802   1.337   4.544   0.249 -0.5766  0.0196  0.0857
  869MPD2    C212803   1.356   4.639   0.352 -0.6524 -0.0642  0.2766
  869MPD2    C312804   1.477   4.704   0.363 -0.0067 -0.0841 -0.6485
  869MPD2    C412805   1.589   4.664   0.288 -0.3718  0.4089 -0.4861
  869MPD2    C512806   1.568   4.559   0.203 -0.1386 -0.3580 -0.0518
  869MPD2     H12807   1.269   4.678   0.403 -0.3224  1.2860 -0.2040
  869MPD2    H112808   1.686   4.709   0.301  0.0603 -0.7834  0.4276
  869MPD2    H212809   1.445   4.429   0.099 -1.0016 -0.0833 -0.5301
  869MPD2    H312810   1.651   4.519   0.146  0.9334  1.9868 -0.1329
  869MPD2     N12811   1.495   0.083   0.456 -0.5176 -0.0639  0.2860
  869MPD2    H512812   1.586   0.128   0.452 -0.8320  0.4485 -1.3192
  869MPD2    N112813   1.216   4.470   0.227 -0.1405 -0.2467 -0.3021
  869MPD2    H712814   1.206   4.412   0.145  0.1458 -0.0810 -0.4538
  870MPD2     C12815   1.554   3.919   2.158 -0.7318  0.0410  0.0475
  870MPD2    C112816   1.541   3.824   2.056 -0.5214 -0.3354  0.5544
  870MPD2    C212817   1.444   3.851   1.968  0.7865 -0.2988 -0.1047
  870MPD2    C312818   1.385   3.976   1.951  0.7156 -1.0499 -0.5096
  870MPD2    C412819   1.399   4.062   2.062 -0.9883 -0.2358  1.1763
  870MPD2    C512820   1.470   4.030   2.171  0.0279 -0.4526 -0.2012
  870MPD2     H12821   1.438   3.782   1.884 -0.9412  0.2743 -0.4431
  870MPD2    H112822   1.354   4.160   2.059 -1.2978 -0.4806 -1.9736
  870MPD2    H212823   1.627   3.903   2.236 -0.7989 -0.5067 -0.0042
  870MPD2    H312824   1.486   4.106   2.247 -2.5784  0.3033 -0.4236
  870MPD2     N12825   1.312   4.006   1.829  0.1138  0.2207 -0.1716
  870MPD2    H512826   1.330   3.941   1.753 -1.0411  0.4081 -0.6041
  870MPD2    N112827   1.624   3.710   2.062 -0.2003 -0.1821 -0.1274
  870MPD2    H712828   1.701   3.708   2.127  0.0365 -2.3311 -0.4736
  871MPD2     C12829   1.973   3.201  16.377 -0.1319  0.1665 -0.5407
  871MPD2    C112830   1.996   3.152  16.505  0.4699  0.7275  1.1198
  871MPD2    C212831   2.037   3.020  16.528 -0.0246 -0.6854 -0.0408
  871MPD2    C312832   2.024   2.934  16.419 -0.1313  0.4515  0.0757
  871MPD2    C412833   1.987   2.976  16.293 -0.1637 -0.3523 -0.4626
  871MPD2    C512834   1.961   3.111  16.272 -0.2876 -0.0556 -0.2434
  871MPD2     H12835   2.070   2.976  16.621  0.3955  1.7982  0.9867
  871MPD2    H112836   1.983   2.918  16.202 -1.3193 -1.8580  0.5408
  871MPD2    H212837   1.966   3.304  16.346  1.1706  0.0034 -1.3872
  871MPD2    H312838   1.946   3.138  16.168  0.1704  1.1612  0.0017
  871MPD2     N12839   2.055   2.797  16.446  0.3330  0.1400  0.1715
  871MPD2    H512840   2.101   2.780  16.534  0.1355  0.7839  0.4001
  871MPD2    N112841   1.993   3.249  16.609 -0.0361  0.0668 -0.0998
  871MPD2    H712842   2.006   3.348  16.588  0.1401 -0.0707 -0.6588
  872MPD2     C12843   3.436   1.195  13.953  0.5885 -0.2058  0.8786
  872MPD2    C112844   3.452   1.252  14.079 -0.2171  0.0756  0.1434
  872MPD2    C212845   3.341   1.243  14.164  0.4850 -0.2203  0.1255
  872MPD2    C312846   3.225   1.180  14.131 -0.7288 -0.8439 -0.2911
  872MPD2    C412847   3.224   1.115  14.007 -0.8339 -0.3206  0.3647
  872MPD2    C512848   3.329   1.116  13.929  0.2206  0.4611  0.0671
  872MPD2     H12849   3.337   1.291  14.261 -3.8421 -2.9149  1.3191
  872MPD2    H112850   3.134   1.068  13.969 -0.9343  0.8030 -0.7792
  872MPD2    H212851   3.514   1.201  13.878  1.1876 -2.3907  1.3230
  872MPD2    H312852   3.323   1.073  13.829  1.9269  2.7416 -1.0116
  872MPD2     N12853   3.124   1.164  14.226 -0.1640 -0.4616 -0.1302
  872MPD2    H512854   3.141   1.205  14.317  1.7742 -0.5911 -0.4414
  872MPD2    N112855   3.561   1.320  14.129 -0.1245 -0.3221  0.0470
  872MPD2    H712856   3.549   1.376  14.212 -1.4762 -0.3309 -0.1395
  873MPD2     C12857   4.211   1.290   1.189 -0.4560 -0.1843 -0.0114
  873MPD2    C112858   4.320   1.204   1.216 -0.8179  0.0198  0.1066
  873MPD2    C212859   4.363   1.110   1.124  0.2942  0.1073 -0.6135
  873MPD2    C312860   4.293   1.106   0.996  0.3954 -0.3836 -0.2286
  873MPD2    C412861   4.190   1.199   0.967  0.5130  0.7836 -0.5683
  873MPD2    C512862   4.153   1.292   1.064 -0.2552 -0.1592  0.0420
  873MPD2     H12863   4.440   1.034   1.131  1.6935  1.5928  0.2786
  873MPD2    H112864   4.129   1.202   0.877 -0.3974  2.8939  0.1150
  873MPD2    H212865   4.166   1.348   1.269 -1.0651 -0.8512  0.1313
  873MPD2    H312866   4.064   1.350   1.044 -0.0201  0.9213  2.2036
  873MPD2     N12867   4.331   1.025   0.890 -0.0156  0.0456  0.0653
  873MPD2    H512868   4.279   1.039   0.803  0.0492  0.3110  0.0707
  873MPD2    N112869   4.379   1.228   1.343 -0.4548  0.2379 -0.4154
  873MPD2    H712870   4.354   1.313   1.393  4.5324  1.2860  0.3564
  874MPD2     C12871   4.598   0.986  16.220  0.1056 -0.2457  0.0631
  874MPD2    C112872   4.696   0.994  16.318 -0.0349 -0.1017 -0.5877
  874MPD2    C212873   0.062   1.082  16.294  0.2809 -0.4495  0.3297
  874MPD2    C312874   0.072   1.158  16.175 -0.5650  0.2003 -0.0143
  874MPD2    C412875   4.705   1.165  16.084  0.1689  0.6119  0.7917
  874MPD2    C512876   4.598   1.075  16.110 -0.6738 -0.8655 -0.3265
  874MPD2     H12877   0.146   1.093  16.362 -1.0159  1.0764  1.6857
  874MPD2    H112878   4.709   1.219  15.990 -0.8920 -1.1821 -0.2842
  874MPD2    H212879   4.523   0.908  16.230 -0.4363  0.1953 -0.5977
  874MPD2    H312880   4.523   1.061  16.033  0.9863  1.5459 -2.3590
  874MPD2     N12881   0.177   1.247  16.168  0.1735  0.1672  0.4108
  874MPD2    H512882   0.251   1.231  16.236 -0.1014 -0.0350  0.6635
  874MPD2    N112883   4.680   0.915  16.436  0.3690  0.4201 -0.0291
  874MPD2    H712884   4.590   0.869  16.442 -0.6482  2.5610  0.8900
  875MPD2     C12885   1.128   3.874  14.577 -0.1987 -0.1741 -0.6600
  875MPD2    C112886   0.991   3.893  14.593 -0.0377  1.1610  0.2468
  875MPD2    C212887   0.953   3.941  14.720 -0.2508  0.3630  0.4820
  875MPD2    C312888   1.052   3.986  14.807 -0.1927  0.2498  0.1340
  875MPD2    C412889   1.181   3.978  14.778 -0.0926  0.3570 -0.2607
  875MPD2    C512890   1.219   3.912  14.669 -0.3009  0.3453 -0.1966
  875MPD2     H12891   0.850   3.961  14.747  0.5290  1.7860  2.4190
  875MPD2    H112892   1.249   3.991  14.862  1.2991 -0.4148 -1.2592
  875MPD2    H212893   1.172   3.833  14.487  0.0621 -0.4225 -0.4185
  875MPD2    H312894   1.323   3.886  14.655 -0.9192 -1.4669 -1.4392
  875MPD2     N12895   1.019   4.040  14.930  0.2404  0.8186  0.2797
  875MPD2    H512896   1.091   4.091  14.980 -1.7059  3.2668  0.5576
  875MPD2    N112897   0.887   3.867  14.495  0.7239 -0.8603 -0.2121
  875MPD2    H712898   0.791   3.880  14.524  0.3603 -1.5616 -1.1360
  876MPD2     C12899   4.410   0.645  16.138  0.5310  0.2143  0.5133
  876MPD2    C112900   4.539   0.608  16.100 -1.0933  0.5751 -0.9780
  876MPD2    C212901   4.607   0.507  16.173  0.2473 -0.0009  0.3280
  876MPD2    C312902   4.546   0.452  16.282 -0.5185  0.9818 -0.1554
  876MPD2    C412903   4.428   0.507  16.330  0.1265  0.4618  0.2591
  876MPD2    C512904   4.361   0.599  16.253  0.2316  0.3182 -0.8234
  876MPD2     H12905   4.705   0.473  16.141  0.1228  1.2195 -1.3534
  876MPD2    H112906   4.382   0.464  16.418 -2.1089  0.7955 -0.7650
  876MPD2    H212907   4.358   0.720  16.079 -0.1227 -0.4859  0.2030
  876MPD2    H312908   4.263   0.631  16.287 -0.4743 -3.7923  0.9413
  876MPD2     N12909   4.612   0.335  16.338  0.1766 -0.3586 -0.1693
  876MPD2    H512910   4.693   0.306  16.284  0.1565  0.1580 -0.4815
  876MPD2    N112911   4.591   0.679  15.990  0.2594  0.3671 -0.4899
  876MPD2    H712912   4.524   0.737  15.939  0.6384  4.0283  3.1353
  877MPD2     C12913   4.495   1.053  15.315  0.7045 -0.4030  0.3639
  877MPD2    C112914   4.624   1.003  15.325  0.3932  0.7183  0.6511
  877MPD2    C212915   4.709   0.984  15.215  0.4943  0.5503  0.0507
  877MPD2    C312916   4.665   1.030  15.094 -0.9541  0.8509 -0.3862
  877MPD2    C412917   4.540   1.078  15.079 -0.3307 -0.5342  0.1575
  877MPD2    C512918   4.448   1.084  15.187  0.7710  0.2002 -0.7442
  877MPD2     H12919   0.072   0.941  15.232  0.7331  0.2641 -2.0758
  877MPD2    H112920   4.497   1.092  14.981  0.0935  2.3222  0.3612
  877MPD2    H212921   4.428   1.070  15.399  0.8908  2.5021 -0.0828
  877MPD2    H312922   4.348   1.121  15.168  0.6087 -1.4491 -3.1468
  877MPD2     N12923   0.009   1.018  14.976 -0.3568  0.2529 -0.1968
  877MPD2    H512924   4.703   1.060  14.893  0.6021 -1.0547 -1.3493
  877MPD2    N112925   4.679   0.966  15.446 -0.0128  0.3905 -0.6154
  877MPD2    H712926   0.044   0.971  15.460  0.0522  1.3275 -1.4170
  878MPD2     C12927   4.450   0.927  12.649 -0.5062  0.8655  0.0664
  878MPD2    C112928   4.579   0.892  12.675  0.5718  0.3299 -0.3436
  878MPD2    C212929   4.614   0.856  12.797  0.3079  0.6561 -0.3552
  878MPD2    C312930   4.524   0.869  12.906  0.7169 -0.3197  0.1013
  878MPD2    C412931   4.389   0.896  12.883 -0.2274 -0.2096 -0.7407
  878MPD2    C512932   4.358   0.930  12.756  0.0560  0.0630  0.5339
  878MPD2     H12933   4.715   0.822  12.814 -0.6700 -2.0735  0.1248
  878MPD2    H112934   4.305   0.904  12.952  0.6163 -3.8395  0.6888
  878MPD2    H212935   4.425   0.969  12.553 -0.3599  1.6753  0.3751
  878MPD2    H312936   4.254   0.952  12.735  0.6497 -0.7160 -3.1448
  878MPD2     N12937   4.582   0.848  13.033  0.1201  0.6915 -0.1928
  878MPD2    H512938   4.683   0.841  13.043 -0.0069 -0.2614  0.4879
  878MPD2    N112939   4.662   0.888  12.561 -0.4623  1.0172  0.1045
  878MPD2    H712940   4.629   0.881  12.465 -1.2805  1.0115  0.3925
  879MPD2     C12941   0.542   1.697  17.121 -0.5239 -0.5426 -0.0566
  879MPD2    C112942   0.455   1.614  17.194  0.2603 -0.2400  0.0851
  879MPD2    C212943   0.337   1.585  17.138  0.6936  0.5817 -0.1239
  879MPD2    C312944   0.299   1.628  17.012  0.0413  0.2784 -0.7083
  879MPD2    C412945   0.385   1.708  16.940 -0.6457  0.5747 -0.4850
  879MPD2    C512946   0.503   1.741  16.999 -0.1404  0.0424 -0.2252
  879MPD2     H12947   0.278   1.503  17.176 -0.1532  0.7330 -1.1018
  879MPD2    H112948   0.368   1.739  16.837  0.0987 -0.3671 -0.8860
  879MPD2    H212949   0.642   1.726  17.153  0.9939 -1.4250 -4.0320
  879MPD2    H312950   0.567   1.806  16.941 -1.0892 -0.0734 -1.4166
  879MPD2     N12951   0.195   1.565  16.940 -0.0876  0.2743  0.5453
  879MPD2    H512952   0.201   1.565  16.838 -1.6861  0.6864  0.4354
  879MPD2    N112953   0.499   1.545  17.311 -0.1107 -0.5054 -0.5170
  879MPD2    H712954   0.592   1.565  17.348 -0.1809 -2.7041  0.8287
  880MPD2     C12955   1.183   3.057   0.425  0.1555  0.1255  0.2157
  880MPD2    C112956   1.245   3.100   0.539 -0.6932 -0.3399 -0.7049
  880MPD2    C212957   1.278   2.998   0.627 -0.1756 -0.0258  0.2893
  880MPD2    C312958   1.264   2.865   0.601  0.8267  0.0736  0.5173
  880MPD2    C412959   1.194   2.821   0.491 -0.4740 -0.0274  0.0556
  880MPD2    C512960   1.166   2.920   0.403  0.0205 -0.0137 -0.0037
  880MPD2     H12961   1.322   3.016   0.724 -0.0338  0.6013  0.1067
  880MPD2    H112962   1.166   2.721   0.460  0.4552 -0.4202  0.4729
  880MPD2    H212963   1.155   3.133   0.353  1.5081  0.3633 -0.0546
  880MPD2    H312964   1.107   2.886   0.319  0.7217 -3.6067  0.9661
  880MPD2     N12965   1.320   2.779   0.700 -0.0619  0.2982 -0.0756
  880MPD2    H512966   1.373   2.818   0.778 -2.3861  1.3412  0.9763
  880MPD2    N112967   1.273   3.235   0.551  0.5140  0.3405  0.7966
  880MPD2    H712968   1.248   3.299   0.476 -1.4832  0.9736  2.0252
  881MPD2     C12969   1.354   4.111   0.104 -0.0892 -0.6273  0.0359
  881MPD2    C112970   1.328   3.981   0.061  0.6173 -0.2033 -0.7876
  881MPD2    C212971   1.336   3.879   0.160 -0.4310  0.1937 -0.5435
  881MPD2    C312972   1.340   3.914   0.289 -0.6740  0.3306  0.1971
  881MPD2    C412973   1.350   4.047   0.335  0.0996  0.1604 -0.0943
  881MPD2    C512974   1.357   4.146   0.238  0.0551  0.1373 -1.3373
  881MPD2     H12975   1.316   3.777   0.131 -0.4439  0.6975 -2.3141
  881MPD2    H112976   1.369   4.073   0.438  0.5365  1.4936 -0.5022
  881MPD2    H212977   1.354   4.188   0.028  0.0906 -0.2238  0.4464
  881MPD2    H312978   1.375   4.247   0.272 -0.6796 -0.5787  1.2064
  881MPD2     N12979   1.335   3.820   0.397  0.3480  0.0070  0.2149
  881MPD2    H512980   1.334   3.870   0.486 -0.8149  0.3241  0.0225
  881MPD2    N112981   1.330   3.949  17.667 -0.5829  0.4663 -0.1989
  881MPD2    H712982   1.352   4.028  17.608  0.7250  0.9279  0.8833
  882MPD2     C12983   0.079   0.854  14.243  0.2315  0.1052  0.2232
  882MPD2    C112984   0.068   0.947  14.342 -0.1912 -0.0798 -0.1376
  882MPD2    C212985   4.676   0.996  14.381 -0.0023  0.1554  0.3636
  882MPD2    C312986   4.566   0.940  14.323 -0.3466  0.6750 -0.4315
  882MPD2    C412987   4.586   0.839  14.234  0.4434 -0.6542 -0.2289
  882MPD2    C512988   4.702   0.809  14.179 -0.3747  0.5994 -0.1442
  882MPD2     H12989   4.669   1.054  14.472  0.5847  1.0023 -0.1380
  882MPD2    H112990   4.502   0.788  14.188  1.1496 -0.3015 -1.9135
  882MPD2    H212991   0.176   0.815  14.214 -0.6611 -2.9072  1.2927
  882MPD2    H312992   4.695   0.742  14.094 -0.8247  0.5319 -0.0516
  882MPD2     N12993   4.431   0.970  14.367 -0.0154  0.4911  0.2676
  882MPD2    H512994   4.357   0.921  14.318  1.5388 -2.4629  0.8510
  882MPD2    N112995   0.183   0.978  14.417 -0.3930  0.2112  0.3689
  882MPD2    H712996   0.268   0.929  14.392 -2.3006 -3.0131  0.1567
  883MPD2     C12997   1.649   0.321  16.231  0.0778 -0.1132  0.1507
  883MPD2    C112998   1.719   0.386  16.132 -0.4589 -0.4320 -0.7843
  883MPD2    C212999   1.851   0.415  16.155 -0.0942 -0.0399 -0.3804
  883MPD2    C313000   1.913   0.387  16.276 -0.3309  0.1033 -0.2288
  883MPD2    C413001   1.844   0.330  16.380 -0.0474 -0.1266 -0.0448
  883MPD2    C513002   1.715   0.299  16.350 -0.8921  1.0213 -0.4052
  883MPD2     H13003   1.903   0.461  16.071 -0.0016  1.2139  0.3592
  883MPD2    H113004   1.881   0.299  16.477  1.9636 -0.6401 -0.9700
  883MPD2    H213005   1.546   0.290  16.219  0.4132  0.2199 -3.5970
  883MPD2    H313006   1.660   0.245  16.427 -1.4050 -1.0199 -2.1814
  883MPD2     N13007   2.047   0.417  16.291  0.0777  0.7638 -0.5303
  883MPD2    H513008   2.090   0.441  16.202  2.2177  2.6577  1.0205
  883MPD2    N113009   1.663   0.421  16.001 -0.0955  0.4776  0.1985
  883MPD2    H713010   1.711   0.473  15.928 -2.2792 -0.4356 -1.9077
  884MPD2     C13011   3.943   1.741  15.362 -0.0750  0.7318 -0.4320
  884MPD2    C113012   3.910   1.807  15.242  0.5694  0.3279 -0.0015
  884MPD2    C213013   3.788   1.872  15.230 -0.4932  0.2248 -0.8611
  884MPD2    C313014   3.705   1.888  15.338 -0.2500  0.3709  0.2402
  884MPD2    C413015   3.747   1.834  15.462 -0.2728  0.2503  0.0877
  884MPD2    C513016   3.860   1.755  15.467 -0.4217 -0.5962 -0.2371
  884MPD2     H13017   3.756   1.924  15.140  1.2600  0.8762 -1.1055
  884MPD2    H113018   3.681   1.837  15.548 -0.3712 -0.1034  0.0231
  884MPD2    H213019   4.028   1.675  15.377  0.4438  1.2222 -1.2040
  884MPD2    H313020   3.899   1.709  15.557 -3.4892 -0.0051  1.3851
  884MPD2     N13021   3.582   1.951  15.322 -0.0495  0.8521  0.2002
  884MPD2    H513022   3.546   1.953  15.227 -3.4668 -0.7020  1.4421
  884MPD2    N113023   3.995   1.799  15.127 -0.3086  0.6265 -0.7360
  884MPD2    H713024   3.953   1.841  15.045 -0.2817  1.4935 -0.3056
  885MPD2     C13025   1.756   2.266   0.396 -0.0485 -0.1585 -0.0532
  885MPD2    C113026   1.817   2.143   0.405 -0.5074 -0.2807 -0.1297
  885MPD2    C213027   1.875   2.081   0.290 -0.5041 -0.6417  0.2431
  885MPD2    C313028   1.863   2.141   0.167  0.8745 -0.5741 -0.0344
  885MPD2    C413029   1.796   2.258   0.158  0.3381  0.0801  0.6778
  885MPD2    C513030   1.741   2.323   0.270 -0.0997 -0.8932 -0.2552
  885MPD2     H13031   1.932   1.990   0.307  0.3297 -0.1007  0.3628
  885MPD2    H113032   1.777   2.297   0.059  1.8551  0.4253  0.5237
  885MPD2    H213033   1.705   2.309   0.481  1.4920 -2.8844  2.2424
  885MPD2    H313034   1.680   2.413   0.263  1.8910  0.3883 -1.1693
  885MPD2     N13035   1.925   2.078   0.051  0.1148  0.2015  0.3758
  885MPD2    H513036   1.955   1.984   0.074 -0.8290  0.4086  2.5181
  885MPD2    N113037   1.859   2.110   0.536  0.0547  0.3093  0.4487
  885MPD2    H713038   1.829   2.174   0.609 -2.4154 -1.8012  1.2903
  886MPD2     C13039   3.279   0.609  15.415  0.1806  0.6008 -0.3861
  886MPD2    C113040   3.379   0.634  15.504  0.3392 -1.3305  0.0775
  886MPD2    C213041   3.434   0.762  15.506  0.5236 -0.2167 -0.9314
  886MPD2    C313042   3.401   0.857  15.405 -0.5171  0.1891  0.4145
  886MPD2    C413043   3.300   0.821  15.324 -1.3057 -0.5392  0.4408
  886MPD2    C513044   3.233   0.700  15.329  0.6463 -0.7170 -0.4310
  886MPD2     H13045   3.519   0.785  15.570  1.2046 -0.2888 -1.8036
  886MPD2    H113046   3.266   0.894  15.251  1.1072 -0.5119 -0.6521
  886MPD2    H213047   3.243   0.508  15.396 -1.1729  1.2191 -1.1386
  886MPD2    H313048   3.162   0.672  15.252 -2.0979 -0.9114  2.1892
  886MPD2     N13049   3.465   0.979  15.379  0.1759  0.4442  0.3374
  886MPD2    H513050   3.453   1.011  15.283 -1.3526  1.6060  0.9228
  886MPD2    N113051   3.435   0.535  15.588  0.0618  0.1714 -0.4642
  886MPD2    H713052   3.519   0.558  15.641 -0.5707 -1.3467  1.1855
  887MPD2     C13053   4.081   0.397  15.873  0.8292  0.2789 -0.6932
  887MPD2    C113054   3.979   0.467  15.804 -0.3808  0.8334 -0.5383
  887MPD2    C213055   4.012   0.595  15.771 -0.4652 -0.3402  0.1592
  887MPD2    C313056   4.136   0.658  15.804  0.1473 -0.4597 -0.5614
  887MPD2    C413057   4.232   0.581  15.868 -0.1854 -0.1550 -0.0096
  887MPD2    C513058   4.204   0.451  15.906 -0.3563  0.0252 -0.3015
  887MPD2     H13059   3.929   0.651  15.728  0.4071  2.7247  2.5045
  887MPD2    H113060   4.331   0.614  15.897  0.0606  0.0756 -1.0790
  887MPD2    H213061   4.085   0.290  15.890  0.5824  0.6540  1.7308
  887MPD2    H313062   4.273   0.377  15.943  0.0275 -0.0784 -1.2195
  887MPD2     N13063   4.153   0.797  15.771  0.5590  0.1397  0.1692
  887MPD2    H513064   4.080   0.837  15.713  0.1769 -3.1589 -1.6149
  887MPD2    N113065   3.853   0.413  15.776 -0.3043 -0.0250 -0.0904
  887MPD2    H713066   3.783   0.472  15.732  0.2249  0.3685 -0.4084
  888MPD2     C13067   0.764   0.213  14.866 -0.2294  0.2092  0.5699
  888MPD2    C113068   0.774   0.265  14.994 -0.1943  1.0118 -0.3478
  888MPD2    C213069   0.837   0.389  15.010  0.5635  0.3248  0.3356
  888MPD2    C313070   0.900   0.453  14.902  0.0082  0.2721  0.1213
  888MPD2    C413071   0.909   0.386  14.782 -0.7608  0.5499 -0.5839
  888MPD2    C513072   0.825   0.278  14.758 -0.1110 -0.5271  0.2606
  888MPD2     H13073   0.835   0.430  15.110  0.2419  0.0091  0.4596
  888MPD2    H113074   0.973   0.420  14.701 -0.2841  1.8083  0.3265
  888MPD2    H213075   0.723   0.113  14.860 -2.0133  0.9008  1.1109
  888MPD2    H313076   0.828   0.218  14.668 -1.6508 -0.4811  0.1798
  888MPD2     N13077   0.954   0.580  14.925  0.1104  0.0027  0.5208
  888MPD2    H513078   0.946   0.616  15.020  1.2094 -2.8046  1.6699
  888MPD2    N113079   0.712   0.205  15.108  0.7826 -0.6604  0.4388
  888MPD2    H713080   0.729   0.243  15.200 -2.1467 -0.1942  0.7833
  889MPD2     C13081   0.193   0.003  12.723  0.3702  0.1908 -0.6342
  889MPD2    C113082   0.329   4.724  12.753  0.4110  0.0304  0.6050
  889MPD2    C213083   0.415   0.095  12.727  0.2975 -0.5547 -0.1931
  889MPD2    C313084   0.383   0.197  12.643  0.2602 -0.2140 -0.0449
  889MPD2    C413085   0.251   0.198  12.591  0.7791 -0.6140 -0.0944
  889MPD2    C513086   0.165   0.099  12.625  1.3915 -0.7198  0.6964
  889MPD2     H13087   0.513   0.097  12.774  0.6103 -1.3477 -0.8123
  889MPD2    H113088   0.221   0.275  12.520 -0.9167  2.9054  4.3995
  889MPD2    H213089   0.116   4.669  12.751  1.3548 -0.2103  1.0645
  889MPD2    H313090   0.064   0.088  12.586  2.0417 -1.1664 -0.8607
  889MPD2     N13091   0.481   0.294  12.630  0.1471 -0.1142 -0.0011
  889MPD2    H513092   0.566   0.283  12.685  1.0501 -1.0472 -1.5689
  889MPD2    N113093   0.376   4.623  12.847 -0.2449  0.3972  0.1138
  889MPD2    H713094   0.474   4.629  12.873 -0.8616  1.1415  2.2581
  890MPD2     C13095   4.325   1.860  14.418  0.2736 -0.2383 -0.2042
  890MPD2    C113096   4.459   1.886  14.399 -0.5362 -0.3781 -0.8841
  890MPD2    C213097   4.550   1.811  14.471 -0.2253  0.5831  0.2858
  890MPD2    C313098   4.514   1.706  14.551 -0.2175 -0.8116 -0.3798
  890MPD2    C413099   4.383   1.685  14.572 -0.0639  0.0157 -0.1081
  890MPD2    C513100   4.293   1.767  14.511  0.3317  1.1002 -0.3500
  890MPD2     H13101   4.655   1.832  14.454 -0.3643 -1.1821 -2.7673
  890MPD2    H113102   4.344   1.610  14.640 -1.8681  1.8886  0.9543
  890MPD2    H213103   4.249   1.929  14.381 -0.0955  0.3447  1.6238
  890MPD2    H313104   4.192   1.740  14.541 -0.3766  1.4427 -2.4310
  890MPD2     N13105   4.617   1.634  14.617  0.0370  0.6668  0.0730
  890MPD2    H513106   4.710   1.666  14.593  0.5885 -1.2981 -0.4576
  890MPD2    N113107   4.485   2.000  14.317  0.7820  0.2280 -0.4174
  890MPD2    H713108   4.406   2.054  14.284 -0.8994 -1.1440  1.3116
  891MPD2     C13109   2.442   4.333  16.794 -0.2174  0.0079  0.6111
  891MPD2    C113110   2.453   4.461  16.752 -0.3845 -0.1417  0.0919
  891MPD2    C213111   2.559   4.542  16.793 -0.2824  0.3307  0.0471
  891MPD2    C313112   2.639   4.489  16.892 -0.2794  0.3958  0.6167
  891MPD2    C413113   2.632   4.354  16.930  0.5234 -0.0000  0.5531
  891MPD2    C513114   2.528   4.274  16.887  0.4868 -0.3861 -0.0700
  891MPD2     H13115   2.580   4.644  16.765  2.0331  0.6497  2.8853
  891MPD2    H113116   2.695   4.309  17.006  1.1660 -2.7491 -1.6123
  891MPD2    H213117   2.353   4.275  16.771 -0.0877  0.3151 -0.7051
  891MPD2    H313118   2.513   4.171  16.920  1.3471 -0.3755  0.3792
  891MPD2     N13119   2.738   4.575  16.953  0.1043  0.2368 -0.0935
  891MPD2    H513120   2.766   4.658  16.901 -2.2460  0.9154 -0.2971
  891MPD2    N113121   2.352   4.508  16.666 -0.2808 -0.3242  0.1856
  891MPD2    H713122   2.279   4.442  16.640 -2.0467  1.9859 -0.7340
  892MPD2     C13123   3.987   1.427  15.182 -0.1673  0.0180  0.2050
  892MPD2    C113124   3.908   1.457  15.069  0.2982 -0.3692 -0.9913
  892MPD2    C213125   3.955   1.422  14.950  0.0804  0.4011 -0.6403
  892MPD2    C313126   4.073   1.352  14.931 -0.0548  0.6735 -0.3880
  892MPD2    C413127   4.146   1.322  15.045  0.4333 -0.3967 -0.0819
  892MPD2    C513128   4.104   1.361  15.170 -0.1488 -0.3180  0.6802
  892MPD2     H13129   3.891   1.457  14.870 -1.1235  1.8447  0.9458
  892MPD2    H113130   4.250   1.293  15.043  0.2789 -0.7938 -2.1458
  892MPD2    H213131   3.954   1.462  15.279  1.4951 -0.3216  0.9073
  892MPD2    H313132   4.161   1.352  15.262  2.2832 -0.8308 -0.8715
  892MPD2     N13133   4.118   1.302  14.811 -0.4740 -0.2845 -0.1290
  892MPD2    H513134   4.209   1.256  14.814  0.8534  2.4020  0.9704
  892MPD2    N113135   3.783   1.532  15.096 -0.2323  0.4000  0.1260
  892MPD2    H713136   3.740   1.514  15.186  0.4281 -0.1258  0.3330
  893MPD2     C13137   0.057   4.526   1.269 -0.4190  0.0117  0.4011
  893MPD2    C113138   0.147   4.464   1.346 -0.2341  0.0945  0.5469
  893MPD2    C213139   0.110   4.361   1.439 -0.2497 -0.6490  0.2786
  893MPD2    C313140   4.714   4.324   1.436 -0.2889  0.4505  0.1767
  893MPD2    C413141   4.619   4.400   1.366  0.4460  0.4077 -0.7698
  893MPD2    C513142   4.658   4.497   1.284  0.1853 -0.2420 -0.7545
  893MPD2     H13143   0.183   4.311   1.501  2.9510  2.7065 -0.8553
  893MPD2    H113144   4.516   4.368   1.370  0.1739  1.1103 -2.1925
  893MPD2    H213145   0.071   4.621   1.218  1.4895 -0.0320  0.8586
  893MPD2    H313146   4.585   4.552   1.227  0.2945 -0.6978 -1.3345
  893MPD2     N13147   4.667   4.206   1.495 -0.0797 -0.2862  0.6034
  893MPD2    H513148   4.570   4.182   1.475  1.1438 -2.5052 -2.6963
  893MPD2    N113149   0.290   4.493   1.332  0.4374  0.3084 -0.7064
  893MPD2    H713150   0.311   4.566   1.264  1.4250  2.1026  1.5353
  894MPD2     C13151   3.353   2.155   1.191 -0.1478  0.2450  0.8104
  894MPD2    C113152   3.464   2.144   1.276  0.8747  0.7031 -0.1473
  894MPD2    C213153   3.574   2.212   1.248 -0.3014  0.4384  0.0490
  894MPD2    C313154   3.586   2.294   1.142 -0.2640 -0.6373 -0.8753
  894MPD2    C413155   3.478   2.313   1.056  0.1508  0.4207  0.6192
  894MPD2    C513156   3.368   2.242   1.081 -0.8129  0.2903 -0.0203
  894MPD2     H13157   3.661   2.206   1.312 -0.1630 -4.3458 -0.6053
  894MPD2    H113158   3.479   2.373   0.967  0.5868 -2.5712 -1.3894
  894MPD2    H213159   3.265   2.093   1.200  0.2084 -0.1697  1.3911
  894MPD2    H313160   3.297   2.260   1.001 -0.5992 -3.2499 -1.0194
  894MPD2     N13161   3.707   2.364   1.111 -0.3568  0.0670  0.9322
  894MPD2    H513162   3.792   2.326   1.152 -0.4231 -1.8049 -0.6521
  894MPD2    N113163   3.468   2.040   1.379 -0.6589  0.5500 -0.3224
  894MPD2    H713164   3.559   2.035   1.424 -0.9757 -1.1476  0.1109
  895MPD2     C13165   3.295   0.231  13.941  0.3370  0.2096  0.1487
  895MPD2    C113166   3.189   0.207  13.864  0.0537  0.0006  0.1025
  895MPD2    C213167   3.078   0.138  13.910 -0.1207  0.9419  0.4556
  895MPD2    C313168   3.073   0.088  14.035  0.2359 -0.4172 -0.6635
  895MPD2    C413169   3.190   0.098  14.106 -0.2464 -0.6599  0.2805
  895MPD2    C513170   3.298   0.174  14.067  0.3262 -0.5229  0.4635
  895MPD2     H13171   2.986   0.136  13.853  1.6471 -1.5710 -2.3374
  895MPD2    H113172   3.199   0.063  14.208  1.1999  0.1489  0.4486
  895MPD2    H213173   3.385   0.283  13.909 -1.7684  3.4391 -0.5965
  895MPD2    H313174   3.389   0.189  14.124  0.2736 -0.2006  0.4616
  895MPD2     N13175   2.954   0.024  14.083 -0.2296  0.0451 -0.3204
  895MPD2    H513176   2.877   0.023  14.017 -0.9354  0.9475  0.4901
  895MPD2    N113177   3.180   0.259  13.732  0.3495 -0.0694  0.7097
  895MPD2    H713178   3.109   0.232  13.665 -0.2589 -0.9384  1.7133
  896MPD2     C13179   0.732   2.575   1.792 -0.9885  0.0358  0.0510
  896MPD2    C113180   0.680   2.645   1.686  0.3035 -0.3371 -0.1647
  896MPD2    C213181   0.543   2.654   1.675  0.3152 -0.0293  0.0424
  896MPD2    C313182   0.463   2.570   1.755  0.0188 -0.0539  0.3806
  896MPD2    C413183   0.521   2.493   1.853  0.3746 -0.0139 -0.1810
  896MPD2    C513184   0.655   2.499   1.869 -0.3190 -0.7114  0.1190
  896MPD2     H13185   0.499   2.708   1.592 -0.3698  1.2273  1.2160
  896MPD2    H113186   0.467   2.428   1.921 -0.4565 -0.9481 -1.7197
  896MPD2    H213187   0.838   2.574   1.817 -0.6324 -0.4331 -1.4621
  896MPD2    H313188   0.703   2.438   1.944 -2.3434 -0.8384  1.3165
  896MPD2     N13189   0.328   2.581   1.728  0.0476 -0.2951  0.7624
  896MPD2    H513190   0.296   2.649   1.660 -1.5927 -1.2691  0.5559
  896MPD2    N113191   0.770   2.724   1.608 -0.5629  0.4701  0.3139
  896MPD2    H713192   0.867   2.729   1.637  0.6544 -1.0213 -3.4841
  897MPD2     C13193   2.301   4.312  10.597 -0.0300  0.2488  0.0593
  897MPD2    C113194   2.235   4.414  10.536  0.5890 -0.2326  0.2667
  897MPD2    C213195   2.142   4.474  10.614  0.4171 -0.3455  0.3720
  897MPD2    C313196   2.100   4.421  10.732  0.7576 -0.8525 -0.3531
  897MPD2    C413197   2.177   4.330  10.793 -0.4805 -0.6342 -0.5682
  897MPD2    C513198   2.277   4.275  10.726  0.1336 -0.1851  0.1064
  897MPD2     H13199   2.076   4.549  10.573  0.8084 -0.2122 -0.0157
  897MPD2    H113200   2.165   4.298  10.896 -1.5637  1.4715 -0.0459
  897MPD2    H213201   2.391   4.276  10.549 -0.4931  0.9192 -1.3026
  897MPD2    H313202   2.338   4.196  10.768 -0.1470 -0.7109 -0.4531
  897MPD2     N13203   1.976   4.473  10.785  0.6633 -0.6633 -0.0591
  897MPD2    H513204   1.946   4.559  10.741 -2.0903 -1.6257 -0.1200
  897MPD2    N113205   2.247   4.446  10.398  0.4208 -0.7694 -0.3011
  897MPD2    H713206   2.210   4.533  10.363  0.5752  0.2865  2.1575
  898MPD2     C13207   2.672   0.554  17.657 -0.0553 -0.5438 -0.4681
  898MPD2    C113208   2.793   0.527  17.605  0.3967 -0.1951 -0.6953
  898MPD2    C213209   2.871   0.630  17.564 -0.6436  0.0872  0.3787
  898MPD2    C313210   2.814   0.757  17.562 -0.3261 -0.2976  0.0291
  898MPD2    C413211   2.692   0.789  17.631  0.0963  0.1178  0.3579
  898MPD2    C513212   2.629   0.679  17.679  0.5694  0.0319 -0.1908
  898MPD2     H13213   2.967   0.614  17.517 -0.4198 -0.7368  1.1173
  898MPD2    H113214   2.646   0.887  17.639  2.2971  1.2654 -1.0535
  898MPD2    H213215   2.614   0.474  17.701 -0.4889  0.8604  1.4757
  898MPD2    H313216   2.532   0.687  17.727  1.1308  2.2615  0.6052
  898MPD2     N13217   2.892   0.861  17.508  0.2573 -0.5975 -0.2710
  898MPD2    H513218   2.979   0.832  17.465  0.8069  1.6226 -0.6185
  898MPD2    N113219   2.833   0.393  17.582  0.4359 -0.1066 -0.3143
  898MPD2    H713220   2.927   0.378  17.545 -0.1219 -0.6861 -1.5051
  899MPD2     C13221   4.033   1.337  17.580 -0.0222  0.0343  0.3126
  899MPD2    C113222   4.060   1.458  17.635  0.4286 -0.0287  0.5054
  899MPD2    C213223   4.000   1.493   0.013  0.3890 -0.0787  0.1085
  899MPD2    C313224   3.909   1.407   0.080 -0.1883  0.1203 -0.1333
  899MPD2    C413225   3.895   1.281   0.027 -0.4938  0.1053  0.3937
  899MPD2    C513226   3.964   1.249  17.655  1.3063  0.4949 -0.1697
  899MPD2     H13227   4.029   1.590   0.051 -0.4785  1.1718 -2.3473
  899MPD2    H113228   3.837   1.207   0.081 -2.1167 -0.7624 -2.5334
  899MPD2    H213229   4.064   1.306  17.481 -0.1749 -2.2203  0.9722
  899MPD2    H313230   3.958   1.149  17.613  0.0358 -0.0841  1.3815
  899MPD2     N13231   3.848   1.445   0.197 -0.7308 -1.2052  0.3989
  899MPD2    H513232   3.800   1.363   0.233 -1.5952 -1.9027 -2.2996
  899MPD2    N113233   4.145   1.540  17.560  0.4228 -0.1899 -0.7090
  899MPD2    H713234   4.162   1.505  17.466  1.0591 -1.6168 -0.0571
  900MPD2     C13235   4.250   2.959  12.557  0.1452 -0.0734 -0.2876
  900MPD2    C113236   4.138   2.895  12.532  0.1436  0.3681 -0.4938
  900MPD2    C213237   4.013   2.962  12.515  0.2194 -0.3333  0.4822
  900MPD2    C313238   4.010   3.100  12.507  0.5834 -0.5989  0.2929
  900MPD2    C413239   4.128   3.167  12.523  0.3619  0.3561 -0.1564
  900MPD2    C513240   4.244   3.097  12.547  0.1325 -0.5150  0.6386
  900MPD2     H13241   3.918   2.910  12.514  0.6928 -1.1915  0.0821
  900MPD2    H113242   4.132   3.275  12.515  1.7539  0.1768 -1.8388
  900MPD2    H213243   4.345   2.908  12.575  0.7410  1.1528  0.0257
  900MPD2    H313244   4.334   3.157  12.553  0.3179 -0.8513  1.2406
  900MPD2     N13245   3.886   3.168  12.483 -0.1341 -0.7968  0.6431
  900MPD2    H513246   3.810   3.102  12.479 -3.8133  3.5147 -0.4131
  900MPD2    N113247   4.133   2.748  12.531  0.3803  0.6098  0.5014
  900MPD2    H713248   4.224   2.708  12.553  0.3529  0.2180 -0.1183
  901MPD2     C13249   3.832   1.662  12.645  0.2522 -0.0379  0.5332
  901MPD2    C113250   3.921   1.691  12.541 -0.0130 -1.0544  0.0846
  901MPD2    C213251   3.963   1.822  12.517  0.3397  0.1797 -0.6788
  901MPD2    C313252   3.922   1.927  12.598  0.1541  0.2950 -0.3571
  901MPD2    C413253   3.845   1.897  12.711 -1.1974  0.1298  0.1273
  901MPD2    C513254   3.799   1.770  12.727  0.1221 -0.0011  0.0573
  901MPD2     H13255   4.028   1.848  12.434  1.2510 -1.1464 -0.3967
  901MPD2    H113256   3.809   1.981  12.769  1.6729  1.7396 -0.4282
  901MPD2    H213257   3.785   1.567  12.664 -0.5835  0.1956 -0.3668
  901MPD2    H313258   3.735   1.757  12.813  1.7739 -1.5207  1.0597
  901MPD2     N13259   3.989   2.056  12.584 -0.1481 -0.5656  0.1876
  901MPD2    H513260   4.069   2.049  12.522  0.0745 -0.6667  0.4903
  901MPD2    N113261   3.949   1.589  12.462 -0.2676  0.1627 -0.6855
  901MPD2    H713262   3.904   1.503  12.491  1.6770 -0.0605  1.6848
  902MPD2     C13263   2.616   1.211  12.018  0.5438 -1.0795 -0.2315
  902MPD2    C113264   2.660   1.220  12.145 -0.2478 -0.2021  0.5443
  902MPD2    C213265   2.721   1.106  12.205  0.1250 -0.2939  0.6120
  902MPD2    C313266   2.733   0.989  12.130 -0.3858  0.2675  0.1307
  902MPD2    C413267   2.693   0.983  12.000 -0.1673 -0.2472 -0.1609
  902MPD2    C513268   2.628   1.095  11.946  0.0092 -0.5040  0.0002
  902MPD2     H13269   2.758   1.102  12.307  2.0772  0.2422 -0.0908
  902MPD2    H113270   2.699   0.900  11.931 -2.9974  0.7423 -1.5951
  902MPD2    H213271   2.583   1.300  11.966 -1.5165 -1.4842  0.3838
  902MPD2    H313272   2.610   1.103  11.840 -3.4693 -0.9591  0.5300
  902MPD2     N13273   2.779   0.865  12.182  1.2084  0.3508  0.5424
  902MPD2    H513274   2.758   0.792  12.115  1.4292  2.9876 -2.4155
  902MPD2    N113275   2.631   1.337  12.222  1.0794 -0.3009 -0.4708
  902MPD2    H713276   2.576   1.405  12.171  0.9273  0.1542  0.2976
  903MPD2     C13277   2.608   0.338  11.953  1.0342 -0.4163  0.9423
  903MPD2    C113278   2.588   0.332  12.089 -0.1693  0.0036 -0.7592
  903MPD2    C213279   2.480   0.257  12.138 -0.0889 -0.5245  0.8604
  903MPD2    C313280   2.406   0.177  12.058  0.3151 -0.0342  0.1817
  903MPD2    C413281   2.443   0.163  11.934  0.0237 -0.4706  0.1757
  903MPD2    C513282   2.533   0.249  11.885 -0.4065 -0.1922 -0.4907
  903MPD2     H13283   2.453   0.267  12.242  0.9735  0.0322  1.0808
  903MPD2    H113284   2.407   0.086  11.868  1.6479 -1.5086  0.4931
  903MPD2    H213285   2.684   0.402  11.909 -0.4128  1.3358  0.9850
  903MPD2    H313286   2.551   0.250  11.778  0.0324 -1.2210 -0.4260
  903MPD2     N13287   2.300   0.111  12.120 -0.0399 -0.9410 -0.3109
  903MPD2    H513288   2.296   0.123  12.221  0.7750  1.0532 -0.5047
  903MPD2    N113289   2.677   0.402  12.171  0.0086 -0.3699 -0.5084
  903MPD2    H713290   2.735   0.472  12.128  1.4727 -1.8408 -0.9289
  904MPD2     C13291   3.065   0.914  13.504  0.7347 -0.0435 -0.0563
  904MPD2    C113292   3.035   0.802  13.572  0.3111 -0.5506  0.8022
  904MPD2    C213293   3.131   0.734  13.651  0.6761 -0.3985  0.0024
  904MPD2    C313294   3.254   0.791  13.659 -0.1374  0.1546  0.3115
  904MPD2    C413295   3.291   0.910  13.599 -0.3237 -0.6322 -0.2003
  904MPD2    C513296   3.186   0.971  13.527  0.0343  0.2774  0.2775
  904MPD2     H13297   3.105   0.646  13.709  0.3949 -1.1066 -1.1891
  904MPD2    H113298   3.386   0.959  13.617 -1.2604  0.5464  1.5957
  904MPD2    H213299   2.991   0.958  13.439 -0.0871  0.2550  1.0789
  904MPD2    H313300   3.216   1.056  13.468 -0.5169  0.6033  0.4729
  904MPD2     N13301   3.345   0.720  13.740 -0.1492 -0.6779  0.4719
  904MPD2    H513302   3.307   0.632  13.773 -0.8727 -1.0587 -1.3518
  904MPD2    N113303   2.901   0.761  13.570 -0.6386  0.1533  0.3440
  904MPD2    H713304   2.838   0.826  13.526 -0.3522 -0.1543 -0.5205
  905MPD2     C13305   2.286   0.082  13.588 -0.2212  0.0553  0.6606
  905MPD2    C113306   2.398   0.140  13.639 -0.5007  0.0546 -0.2841
  905MPD2    C213307   2.446   0.087  13.760  0.2793 -0.9055  0.2969
  905MPD2    C313308   2.400   4.702  13.806 -0.7905  0.2197 -0.1566
  905MPD2    C413309   2.297   4.639  13.736 -0.6288 -0.3955 -0.2906
  905MPD2    C513310   2.235   4.699  13.631  0.3030 -0.0447  0.1311
  905MPD2     H13311   2.533   0.133  13.805 -1.8579  0.5109  2.9650
  905MPD2    H113312   2.250   4.550  13.775  0.4703 -0.7150  0.3021
  905MPD2    H213313   2.239   0.121  13.498 -0.3336 -1.8730 -0.0984
  905MPD2    H313314   2.148   4.653  13.587 -0.3637  0.1308  1.2409
  905MPD2     N13315   2.463   4.633  13.914  0.3265  0.4456  0.4408
  905MPD2    H513316   2.415   4.552  13.953  0.3071  0.0907 -0.3275
  905MPD2    N113317   2.445   0.253  13.574  0.3045  0.0279  0.2758
  905MPD2    H713318   2.376   0.294  13.512 -0.9096 -1.7382  0.4470
  906MPD2     C13319   0.769   4.539  10.959  0.5611  0.0983  0.2728
  906MPD2    C113320   0.721   4.530  10.831 -0.2496  0.1338  0.2047
  906MPD2    C213321   0.600   4.456  10.823 -0.2569 -0.2598 -0.3021
  906MPD2    C313322   0.544   4.379  10.924  0.3335 -0.2158 -0.5343
  906MPD2    C413323   0.593   4.402  11.050  0.2029 -0.4585  0.1171
  906MPD2    C513324   0.706   4.482  11.069 -0.1323 -0.2313 -0.1023
  906MPD2     H13325   0.552   4.464  10.726 -0.5763  1.7633  0.0036
  906MPD2    H113326   0.556   4.354  11.139  2.3397  1.3013  1.9547
  906MPD2    H213327   0.854   4.601  10.985 -0.9133  2.2823 -0.1320
  906MPD2    H313328   0.752   4.485  11.167 -0.8937 -0.6627  0.2723
  906MPD2     N13329   0.427   4.301  10.904  0.3534  0.0117 -0.5489
  906MPD2    H513330   0.390   4.255  10.987  0.0577  1.3539  0.0701
  906MPD2    N113331   0.766   4.593  10.718  0.0157  0.5131 -0.4532
  906MPD2    H713332   0.705   4.579  10.638  0.9589  2.7382 -1.5757
  907MPD2     C13333   3.745   3.799  15.592  0.2087  0.0544 -0.4993
  907MPD2    C113334   3.704   3.683  15.653  0.5415  0.0938 -0.0044
  907MPD2    C213335   3.794   3.612  15.728  0.9533 -0.1354 -0.0964
  907MPD2    C313336   3.928   3.646  15.748 -0.5921  0.1112  0.8722
  907MPD2    C413337   3.967   3.759  15.678 -0.7056 -0.1157  0.9171
  907MPD2    C513338   3.878   3.833  15.598 -0.1402 -0.7072  0.0154
  907MPD2     H13339   3.770   3.523  15.785  0.3132  1.7399  2.5176
  907MPD2    H113340   4.066   3.801  15.685  0.0265 -1.8786  1.2119
  907MPD2    H213341   3.673   3.869  15.551  0.5362  1.3377  1.1492
  907MPD2    H313342   3.910   3.923  15.548  0.6533 -0.2986  1.2536
  907MPD2     N13343   4.015   3.573  15.835 -0.0550 -0.2367 -0.1694
  907MPD2    H513344   3.968   3.490  15.870 -0.9522  0.1685 -0.4110
  907MPD2    N113345   3.567   3.637  15.653 -0.3280  0.0333  0.0215
  907MPD2    H713346   3.547   3.563  15.719  1.3328 -0.4652 -0.0415
  908MPD2     C13347   1.955   3.805   9.752  0.6133 -0.0776  0.4504
  908MPD2    C113348   2.057   3.796   9.847 -0.2622  0.5972 -0.1927
  908MPD2    C213349   2.120   3.910   9.888 -0.4824  0.1029 -1.1499
  908MPD2    C313350   2.072   4.034   9.839  0.1394 -0.1954  1.2094
  908MPD2    C413351   1.978   4.049   9.742  1.0450  0.2251 -1.0634
  908MPD2    C513352   1.916   3.933   9.700 -1.0091  0.0730 -0.3287
  908MPD2     H13353   2.190   3.913   9.970 -0.7666 -0.0882 -0.9016
  908MPD2    H113354   1.942   4.139   9.694 -0.9712 -0.1179 -0.1748
  908MPD2    H213355   1.909   3.712   9.719 -0.1232  0.2949  0.4464
  908MPD2    H313356   1.827   3.935   9.638  0.7423 -0.7930 -2.8464
  908MPD2     N13357   2.128   4.148   9.896 -0.2510 -0.0558  0.0717
  908MPD2    H513358   2.198   4.133   9.968  1.3134  0.6161 -1.3262
  908MPD2    N113359   2.084   3.670   9.898  0.1046  0.7508 -0.1608
  908MPD2    H713360   2.019   3.603   9.860  0.7138  1.0758 -1.7610
  909MPD2     C13361   2.084   2.542  11.652  0.4326 -0.5567  0.2258
  909MPD2    C113362   2.083   2.679  11.626  0.2591 -0.3768 -0.0736
  909MPD2    C213363   1.988   2.756  11.696 -0.1137 -0.4039 -0.2179
  909MPD2    C313364   1.898   2.701  11.783  0.0916 -0.3322 -0.0374
  909MPD2    C413365   1.899   2.571  11.802 -0.2777 -0.6286  0.0757
  909MPD2    C513366   1.992   2.494  11.740  0.4119  0.4252 -0.3687
  909MPD2     H13367   1.974   2.862  11.680 -2.8839 -0.7305  0.0689
  909MPD2    H113368   1.839   2.514  11.872 -1.3698 -1.4729 -1.5518
  909MPD2    H213369   2.160   2.472  11.619 -0.1353 -0.5339 -1.1224
  909MPD2    H313370   1.991   2.389  11.768  0.0052  0.3848 -0.5366
  909MPD2     N13371   1.808   2.782  11.856 -0.0288  0.2010  0.0631
  909MPD2    H513372   1.819   2.882  11.842  0.5689 -0.1233 -1.7215
  909MPD2    N113373   2.163   2.740  11.522 -0.2371  1.0526 -0.2148
  909MPD2    H713374   2.142   2.834  11.489 -1.2130  0.2203 -1.9582
  910MPD2     C13375   2.826   4.182  15.632 -0.2004  0.4127  0.8557
  910MPD2    C113376   2.897   4.296  15.633  0.3185 -0.2643 -0.3156
  910MPD2    C213377   2.856   4.391  15.544  0.4181 -0.2967 -0.4982
  910MPD2    C313378   2.750   4.371  15.456  0.1301 -0.2577 -0.5913
  910MPD2    C413379   2.680   4.255  15.457 -1.1214  0.3644 -0.0060
  910MPD2    C513380   2.718   4.163  15.544 -0.0148 -0.7285  0.2442
  910MPD2     H13381   2.908   4.486  15.555 -3.0630  1.4299  0.9133
  910MPD2    H113382   2.599   4.243  15.385 -1.3507 -3.0677  0.8481
  910MPD2    H213383   2.856   4.096  15.691  1.5792 -1.7070 -3.1494
  910MPD2    H313384   2.672   4.065  15.550 -0.9252 -0.2482  1.0699
  910MPD2     N13385   2.704   4.478  15.371  0.5206  0.5520  0.2265
  910MPD2    H513386   2.607   4.461  15.343  0.8556 -0.3175 -0.4252
  910MPD2    N113387   2.998   4.320  15.717  0.2953 -0.4084 -0.5464
  910MPD2    H713388   3.048   4.406  15.696  0.5411 -0.1469  1.1096
  911MPD2     C13389   0.844   0.017  16.061 -0.0214 -0.5968 -0.6646
  911MPD2    C113390   0.844   0.062  16.191 -0.1342 -0.0042  0.0266
  911MPD2    C213391   0.800   0.191  16.218  0.5088  0.3716  0.2705
  911MPD2    C313392   0.750   0.270  16.120  0.4352 -0.0059  0.1543
  911MPD2    C413393   0.757   0.229  15.991  0.3231  0.6063  1.5485
  911MPD2    C513394   0.810   0.104  15.961  0.1627  0.2789 -0.2192
  911MPD2     H13395   0.807   0.223  16.321  0.6216 -1.7465  0.9297
  911MPD2    H113396   0.717   0.291  15.911  0.2796 -1.3324  0.0537
  911MPD2    H213397   0.887   4.655  16.044  0.2435 -0.1516 -2.5526
  911MPD2    H313398   0.812   0.068  15.858 -0.6657  2.1701 -0.9129
  911MPD2     N13399   0.696   0.394  16.142  1.1715  0.7949  0.7755
  911MPD2    H513400   0.693   0.463  16.068 -1.2456 -1.6413 -1.3975
  911MPD2    N113401   0.892   4.704  16.285  0.2298 -0.5968  0.2918
  911MPD2    H713402   0.924   4.615  16.248 -1.5975 -1.3522  0.5748
  912MPD2     C13403   0.501   0.318  15.661  0.5095 -0.7245 -0.8305
  912MPD2    C113404   0.442   0.314  15.784 -0.9855 -0.2659 -0.1968
  912MPD2    C213405   0.430   0.199  15.854 -0.0457  0.1908 -0.5068
  912MPD2    C313406   0.486   0.081  15.798 -0.1120  0.6825  0.1753
  912MPD2    C413407   0.529   0.083  15.675  0.2117 -0.2418 -0.0795
  912MPD2    C513408   0.540   0.201  15.606 -0.4430 -1.1302  0.4275
  912MPD2     H13409   0.392   0.195  15.956  1.6408  2.3486  0.2058
  912MPD2    H113410   0.561   4.725  15.632  1.0939 -1.5502  3.4846
  912MPD2    H213411   0.516   0.410  15.605 -0.7457  0.5177  0.8646
  912MPD2    H313412   0.582   0.199  15.506 -1.8335 -0.5503 -0.1670
  912MPD2     N13413   0.471   4.702  15.881  0.2542 -0.8027 -0.6402
  912MPD2    H513414   0.436   4.723  15.974 -0.8153 -0.6219 -1.0812
  912MPD2    N113415   0.411   0.434  15.854 -0.0841  0.4412  0.6359
  912MPD2    H713416   0.445   0.522  15.815 -0.5188  0.6521  0.7350
  913MPD2     C13417   2.224   1.701  10.634  0.6092  0.9896 -0.2167
  913MPD2    C113418   2.301   1.778  10.548 -0.8478  0.2003 -0.4789
  913MPD2    C213419   2.261   1.806  10.417 -0.4848 -0.2563  0.4270
  913MPD2    C313420   2.143   1.747  10.379  0.2189  0.0584  0.0649
  913MPD2    C413421   2.064   1.675  10.465 -0.7242 -0.3388 -0.4669
  913MPD2    C513422   2.105   1.655  10.589 -0.8060  0.0321 -0.4293
  913MPD2     H13423   2.311   1.877  10.353 -1.3111 -1.8318 -1.9501
  913MPD2    H113424   1.967   1.643  10.428 -1.6884  0.6596  1.2049
  913MPD2    H213425   2.254   1.687  10.738 -2.0264  1.8442  0.6801
  913MPD2    H313426   2.039   1.600  10.656  0.1986 -1.6771 -0.8674
  913MPD2     N13427   2.090   1.772  10.252 -0.2009 -0.5081 -0.0696
  913MPD2    H513428   1.994   1.746  10.236  0.3963 -1.8733 -1.4989
  913MPD2    N113429   2.417   1.837  10.596 -0.0329 -0.1674 -0.3305
  913MPD2    H713430   2.430   1.825  10.696  1.8661 -0.5771 -0.6254
  914MPD2     C13431   4.445   1.697  11.654  0.2195  0.8148  0.1212
  914MPD2    C113432   4.481   1.726  11.784 -0.4780 -0.1273  0.2395
  914MPD2    C213433   4.424   1.650  11.883  0.3148 -0.0568  0.3247
  914MPD2    C313434   4.341   1.550  11.858 -0.4852  0.3473 -0.0927
  914MPD2    C413435   4.298   1.530  11.726 -0.3988  0.3685 -0.7527
  914MPD2    C513436   4.350   1.607  11.622 -0.1170 -0.1025  0.0044
  914MPD2     H13437   4.465   1.653  11.983 -3.0724 -0.1222  1.7162
  914MPD2    H113438   4.207   1.476  11.701  1.1051 -1.7755 -1.5482
  914MPD2    H213439   4.497   1.748  11.574  0.4213  1.4358  0.6476
  914MPD2    H313440   4.322   1.591  11.519  3.4489  1.5287 -1.2080
  914MPD2     N13441   4.274   1.486  11.963  0.5662 -0.1654  0.1427
  914MPD2    H513442   4.282   1.520  12.058 -1.4520 -1.1624  0.6518
  914MPD2    N113443   4.564   1.834  11.830 -0.6827  0.4570 -0.0444
  914MPD2    H713444   4.579   1.843  11.930 -0.0769  1.9253 -0.2574
  915MPD2     C13445   1.538   1.149  15.397  0.4179 -0.0595  0.4920
  915MPD2    C113446   1.472   1.265  15.406 -0.0316  0.1652 -0.7421
  915MPD2    C213447   1.511   1.355  15.506  0.0872  0.1760  0.1127
  915MPD2    C313448   1.620   1.325  15.586 -0.4825  0.3545  0.1624
  915MPD2    C413449   1.683   1.200  15.583  0.3616 -0.1713  0.3874
  915MPD2    C513450   1.648   1.120  15.481  0.1430  0.7833  0.8550
  915MPD2     H13451   1.451   1.443  15.528  0.4290  0.6418 -0.8066
  915MPD2    H113452   1.760   1.161  15.649  2.1780 -0.3377 -1.8016
  915MPD2    H213453   1.517   1.090  15.309 -0.8272 -0.2282  0.9097
  915MPD2    H313454   1.701   1.027  15.461 -2.0491 -0.4612  0.7910
  915MPD2     N13455   1.650   1.406  15.693  0.3954  0.1473  0.3143
  915MPD2    H513456   1.703   1.370  15.772  0.4652 -1.6698 -0.5599
  915MPD2    N113457   1.358   1.289  15.323 -0.5778  0.0899 -0.3709
  915MPD2    H713458   1.342   1.223  15.247 -0.8986 -1.3297  0.9334
  916MPD2     C13459   0.112   0.015  15.917 -0.3633 -0.5862 -0.0940
  916MPD2    C113460   0.068   4.660  16.005 -1.2665  0.2097  0.0368
  916MPD2    C213461   0.043   4.538  15.952  0.1054  0.2030 -0.7588
  916MPD2    C313462   0.053   4.516  15.817 -0.7487  0.5641  0.3235
  916MPD2    C413463   0.114   4.605  15.735  0.1531 -0.1190  0.3321
  916MPD2    C513464   0.137   4.730  15.781 -0.0753  0.3378  0.7790
  916MPD2     H13465   0.017   4.453  16.014  0.5411  1.3494  0.9856
  916MPD2    H113466   0.128   4.582  15.630  3.5635 -0.4467  0.8484
  916MPD2    H213467   0.124   0.115  15.958 -1.1474 -1.1288  1.4722
  916MPD2    H313468   0.186   0.065  15.717 -2.2552  0.5472 -0.6716
  916MPD2     N13469   0.018   4.386  15.769 -0.6164  0.0519 -0.5925
  916MPD2    H513470   4.716   4.328  15.843 -2.5055  0.3407 -1.3281
  916MPD2    N113471   0.051   4.696  16.143  0.1425 -0.5182 -0.1306
  916MPD2    H713472   0.057   0.059  16.168  0.9723 -0.6799  0.2958
  917MPD2     C13473   0.687   2.352  11.021 -0.1591  0.3818  0.5528
  917MPD2    C113474   0.761   2.341  11.137 -0.1072 -0.3446 -0.3708
  917MPD2    C213475   0.894   2.397  11.134 -0.5405  0.4512  0.5213
  917MPD2    C313476   0.944   2.455  11.018  0.1859  0.2490  0.1432
  917MPD2    C413477   0.863   2.468  10.910 -0.3499  0.6164  0.6793
  917MPD2    C513478   0.739   2.419  10.912 -0.5195 -0.5009 -0.8594
  917MPD2     H13479   0.952   2.406  11.225  2.2179 -0.5285 -1.1532
  917MPD2    H113480   0.899   2.525  10.825  2.4861 -1.2314  0.6717
  917MPD2    H213481   0.585   2.315  11.016  0.4736 -1.7176  2.8409
  917MPD2    H313482   0.685   2.443  10.821  0.4276 -0.3122 -1.3718
  917MPD2     N13483   1.070   2.523  11.013 -0.3804  0.5752 -0.2953
  917MPD2    H513484   1.081   2.591  10.938  0.3808  0.2873 -0.4486
  917MPD2    N113485   0.704   2.275  11.244  0.4194  0.6808 -0.2550
  917MPD2    H713486   0.607   2.250  11.227  0.1239  0.3283  1.9645
  918MPD2     C13487   0.570   2.591  12.171  0.0559 -0.1513 -0.1579
  918MPD2    C113488   0.701   2.592  12.125  0.2616 -0.3986  0.2848
  918MPD2    C213489   0.728   2.508  12.015 -0.8277 -0.0391 -0.9686
  918MPD2    C313490   0.631   2.420  11.973  0.2093 -0.1300 -0.2775
  918MPD2    C413491   0.500   2.420  12.021 -0.1657 -0.0631 -0.0295
  918MPD2    C513492   0.474   2.502  12.128  0.4063 -0.4358 -0.0581
  918MPD2     H13493   0.821   2.512  11.959 -0.6005 -0.8298 -0.6523
  918MPD2    H113494   0.416   2.368  11.976 -0.0546  0.6145 -1.0261
  918MPD2    H213495   0.532   2.664  12.241  1.1692  0.1704  0.0992
  918MPD2    H313496   0.374   2.506  12.170  0.6387 -0.8980  0.5347
  918MPD2     N13497   0.657   2.337  11.859 -0.5862  0.4799 -1.0651
  918MPD2    H513498   0.736   2.366  11.803  0.5184  0.5698  0.5452
  918MPD2    N113499   0.801   2.682  12.170  0.0798 -0.8691 -0.2588
  918MPD2    H713500   0.892   2.684  12.125 -1.3163  1.2121 -2.9638
  919MPD2     C13501   1.408   0.957  11.471 -0.2085  0.1920 -0.3001
  919MPD2    C113502   1.272   0.929  11.442  0.5019  0.5446 -0.1643
  919MPD2    C213503   1.184   1.032  11.406  0.1941 -0.1115  0.2450
  919MPD2    C313504   1.233   1.163  11.395  0.3140 -0.3925 -0.4700
  919MPD2    C413505   1.366   1.189  11.421  0.4344  0.1398  0.0951
  919MPD2    C513506   1.455   1.087  11.457  0.0648 -0.6626 -1.0911
  919MPD2     H13507   1.082   1.004  11.381  1.1577 -1.3578 -2.2420
  919MPD2    H113508   1.399   1.292  11.427 -1.9457  0.8544  0.9250
  919MPD2    H213509   1.479   0.884  11.510 -0.2823  0.7817  0.9331
  919MPD2    H313510   1.558   1.105  11.487 -0.6293 -1.0777  1.5201
  919MPD2     N13511   1.160   1.268  11.334  0.7622  0.0359  0.2938
  919MPD2    H513512   1.213   1.355  11.327  2.5736 -1.3540 -3.0459
  919MPD2    N113513   1.219   0.800  11.465 -0.3202  0.1538  0.0881
  919MPD2    H713514   1.118   0.794  11.454 -0.4986  1.4566  0.9447
  920MPD2     C13515   1.250   1.958  10.647  0.4515 -0.0988  0.5386
  920MPD2    C113516   1.132   1.897  10.618  0.9014  0.0549  0.4250
  920MPD2    C213517   1.086   1.804  10.707  0.2205  0.6752 -0.4960
  920MPD2    C313518   1.143   1.785  10.838  0.3813 -0.0963 -0.2839
  920MPD2    C413519   1.256   1.865  10.870  0.0636  0.2852  0.0269
  920MPD2    C513520   1.306   1.945  10.773 -0.5154  0.0429  0.0797
  920MPD2     H13521   0.999   1.749  10.673  0.9680 -0.0750 -1.2099
  920MPD2    H113522   1.299   1.857  10.969  0.1417 -1.8401 -0.1662
  920MPD2    H213523   1.305   2.029  10.587 -0.8527 -0.2610 -0.8426
  920MPD2    H313524   1.389   2.012  10.795 -1.4106  1.0572  0.3221
  920MPD2     N13525   1.079   1.696  10.933 -0.1968  0.5813  0.5926
  920MPD2    H513526   0.987   1.666  10.902 -0.0436  0.3121  0.3902
  920MPD2    N113527   1.055   1.910  10.497 -0.3456 -0.0738  0.1216
  920MPD2    H713528   0.977   1.846  10.492  0.8600 -1.4642 -0.7446
  921MPD2     C13529   1.677   0.081  16.813  0.1030 -0.4181 -0.0573
  921MPD2    C113530   1.690   4.714  16.724  0.3422  0.3438 -0.0316
  921MPD2    C213531   1.578   4.636  16.696 -0.5254 -0.8646 -0.2180
  921MPD2    C313532   1.450   4.680  16.744 -0.2873 -1.0888  0.2302
  921MPD2    C413533   1.442   0.056  16.825  0.3453 -0.1064 -0.2287
  921MPD2    C513534   1.558   0.121  16.859  0.1078  0.0769  0.3382
  921MPD2     H13535   1.591   4.550  16.632 -2.5016 -1.0584 -0.3399
  921MPD2    H113536   1.348   0.095  16.861  2.0661  2.6399  1.3533
  921MPD2    H213537   1.764   0.132  16.851 -0.1357 -0.1161  0.0858
  921MPD2    H313538   1.555   0.204  16.929  0.4233  0.6992 -0.3820
  921MPD2     N13539   1.323   4.626  16.707  0.6685 -0.1309  0.2510
  921MPD2    H513540   1.248   4.673  16.756 -0.4704 -1.1351 -0.5249
  921MPD2    N113541   1.824   4.688  16.678 -0.2142  0.0121  0.2346
  921MPD2    H713542   1.893   0.024  16.693 -1.3903  1.2481 -0.3463
  922MPD2     C13543   2.289   3.476  17.496 -0.0787 -0.6393  0.1218
  922MPD2    C113544   2.305   3.396  17.610  0.4817  0.0452  0.1886
  922MPD2    C213545   2.319   3.259  17.599  0.1259  0.2721 -0.3103
  922MPD2    C313546   2.333   3.203  17.470 -0.2596 -0.3946  0.3633
  922MPD2    C413547   2.309   3.277  17.353 -0.7463 -0.4132 -0.3050
  922MPD2    C513548   2.290   3.416  17.376 -0.3378  0.0196  0.0781
  922MPD2     H13549   2.337   3.190  17.681  1.3152  1.2862  0.2794
  922MPD2    H113550   2.307   3.230  17.255 -2.8166 -0.7362 -0.1232
  922MPD2    H213551   2.287   3.584  17.503 -0.2778 -0.6639  0.4581
  922MPD2    H313552   2.257   3.474  17.291 -0.3772 -0.3945 -0.1863
  922MPD2     N13553   2.354   3.064  17.456 -0.3000  0.4776  0.4007
  922MPD2    H513554   2.356   3.007  17.540 -0.4090  0.8679  0.6710
  922MPD2    N113555   2.322   3.445  17.741  0.1697 -0.0804 -0.4309
  922MPD2    H713556   2.343   3.373   0.067 -1.3344  0.2903  0.3967
  923MPD2     C13557   0.427   0.845   8.621 -0.4267 -0.7394 -0.1875
  923MPD2    C113558   0.355   0.908   8.727 -0.2942  0.3897 -0.0288
  923MPD2    C213559   0.370   0.860   8.854  0.0234  0.1676  0.2662
  923MPD2    C313560   0.439   0.740   8.883  0.4352 -0.0080  0.4535
  923MPD2    C413561   0.504   0.679   8.777 -0.1768 -0.3674 -0.2985
  923MPD2    C513562   0.511   0.736   8.651  0.0615  0.4531 -0.1280
  923MPD2     H13563   0.300   0.898   8.928 -0.6370  0.1900 -0.3701
  923MPD2    H113564   0.578   0.603   8.802 -1.3460 -0.9798  1.2411
  923MPD2    H213565   0.417   0.884   8.520  1.9364  1.8553  0.6084
  923MPD2    H313566   0.579   0.701   8.575  1.8811  2.7320  0.4552
  923MPD2     N13567   0.444   0.676   9.015  0.3771 -0.4263 -0.1276
  923MPD2    H513568   0.493   0.587   9.021  0.4097 -0.4772 -1.0354
  923MPD2    N113569   0.270   1.014   8.698  0.1225 -0.0366  0.3171
  923MPD2    H713570   0.264   1.034   8.599 -2.1129 -1.0857  0.2369
  924MPD2     C13571   4.422   3.657  16.450 -0.3899 -0.7842  0.3727
  924MPD2    C113572   4.333   3.665  16.346  0.2981  0.6827  0.6817
  924MPD2    C213573   4.246   3.558  16.313 -0.1340  0.3770 -0.0942
  924MPD2    C313574   4.250   3.440  16.392  0.4691 -0.4132 -0.5092
  924MPD2    C413575   4.339   3.448  16.499 -0.0134 -0.6538  0.3149
  924MPD2    C513576   4.416   3.550  16.535  0.0837  0.1499  0.1753
  924MPD2     H13577   4.174   3.566  16.233 -0.1406 -0.1689 -0.1430
  924MPD2    H113578   4.366   3.362  16.558  3.4431 -0.9349 -1.6437
  924MPD2    H213579   4.483   3.743  16.472 -2.5611  1.0955 -0.9735
  924MPD2    H313580   4.472   3.555  16.627  0.7633  0.6365 -0.2627
  924MPD2     N13581   4.185   3.316  16.359  0.8982  0.8666  0.0827
  924MPD2    H513582   4.161   3.246  16.428 -2.3165  1.1634 -0.7105
  924MPD2    N113583   4.334   3.783  16.273  0.0394 -0.1231 -0.3287
  924MPD2    H713584   4.393   3.858  16.309  1.6877 -1.7025  0.2228
  925MPD2     C13585   2.971   0.966  14.942 -0.3742 -0.3480  0.3938
  925MPD2    C113586   2.849   0.959  14.881  0.2758  0.3572 -0.2009
  925MPD2    C213587   2.756   0.887  14.946  0.3467  0.2081  0.4324
  925MPD2    C313588   2.791   0.825  15.067  0.4281  0.4029  0.4786
  925MPD2    C413589   2.916   0.826  15.124  0.8574 -0.1512 -0.7203
  925MPD2    C513590   3.006   0.901  15.056 -0.6657 -0.3075 -0.8086
  925MPD2     H13591   2.662   0.872  14.894  1.1578 -0.8455 -0.7285
  925MPD2    H113592   2.944   0.782  15.219 -0.0376 -0.3226 -0.5352
  925MPD2    H213593   3.049   1.030  14.904 -0.5393 -0.5763 -0.3285
  925MPD2    H313594   3.105   0.910  15.099 -0.3311 -0.9735 -1.4319
  925MPD2     N13595   2.700   0.742  15.137  0.6033 -0.0638 -0.3725
  925MPD2    H513596   2.745   0.678  15.200  0.4201 -1.1785 -1.3821
  925MPD2    N113597   2.823   1.020  14.760 -0.2967 -0.2326 -0.2518
  925MPD2    H713598   2.733   0.990  14.724  1.1969 -1.9067 -2.5849
  926MPD2     C13599   1.506   4.142  13.029 -0.7001 -0.5748  0.5878
  926MPD2    C113600   1.535   4.265  13.086  0.0006  0.1372 -0.1457
  926MPD2    C213601   1.624   4.346  13.013  0.0023  0.4237 -0.4713
  926MPD2    C313602   1.679   4.306  12.897 -0.2559 -0.3591 -0.0054
  926MPD2    C413603   1.671   4.173  12.861 -0.3589 -0.4189 -0.4211
  926MPD2    C513604   1.583   4.096  12.930 -0.0690  0.3435  0.2092
  926MPD2     H13605   1.646   4.442  13.058  1.2822 -0.9451  1.8455
  926MPD2    H113606   1.710   4.137  12.766 -2.5396 -3.4232 -0.1988
  926MPD2    H213607   1.432   4.074  13.070 -2.4360  1.5697  0.9958
  926MPD2    H313608   1.555   3.999  12.888  0.2290  1.8667 -3.5206
  926MPD2     N13609   1.741   4.399  12.805  0.0746 -0.4993  0.1512
  926MPD2    H513610   1.765   4.358  12.716 -0.3177  0.4683 -0.3971
  926MPD2    N113611   1.473   4.305  13.208  0.0298  0.6615  0.3365
  926MPD2    H713612   1.502   4.394  13.246 -0.4227  2.0216 -2.5261
  927MPD2     C13613   0.973   1.484   0.138 -0.1580  0.3710  0.3799
  927MPD2    C113614   1.007   1.614   0.141  1.0956 -0.3185 -0.5006
  927MPD2    C213615   1.126   1.654   0.087 -0.2199  0.2548 -0.6237
  927MPD2    C313616   1.215   1.564   0.042  0.5373 -0.2910 -0.1575
  927MPD2    C413617   1.179   1.432   0.029  0.6347  0.2939  0.1824
  927MPD2    C513618   1.065   1.394   0.082  0.5352  0.2143 -0.5197
  927MPD2     H13619   1.157   1.758   0.088  0.2523  0.1253 -1.8803
  927MPD2    H113620   1.255   1.357   0.008 -0.3803  0.0330 -2.5006
  927MPD2    H213621   0.882   1.455   0.190 -0.1494  1.9770  1.2789
  927MPD2    H313622   1.031   1.291   0.075 -1.7937  0.8366  1.2901
  927MPD2     N13623   1.330   1.609  17.727 -0.2767 -0.3233 -0.1683
  927MPD2    H513624   1.338   1.710  17.727 -0.4170 -0.3074  0.5005
  927MPD2    N113625   0.913   1.701   0.201  0.0868  0.3725  0.3667
  927MPD2    H713626   0.838   1.645   0.241  0.1025 -1.0440 -1.5253
  928MPD2     C13627   4.294   4.448   1.100 -0.2745  0.1716 -0.1932
  928MPD2    C113628   4.257   4.574   1.137  0.8544  0.1011 -0.2551
  928MPD2    C213629   4.212   4.668   1.046 -0.5535 -0.1036  0.2478
  928MPD2    C313630   4.204   4.632   0.916 -0.8007 -0.1568  0.1366
  928MPD2    C413631   4.254   4.508   0.879  0.4812  0.5701  0.0221
  928MPD2    C513632   4.289   4.414   0.968  0.5450 -0.0397 -0.2826
  928MPD2     H13633   4.187   0.031   1.082  0.8175  2.2378 -5.1884
  928MPD2    H113634   4.253   4.479   0.775  2.3540  2.6371 -0.5750
  928MPD2    H213635   4.329   4.371   1.168 -0.9028 -1.5978 -1.8550
  928MPD2    H313636   4.333   4.321   0.935  1.5958  0.4377 -0.2364
  928MPD2     N13637   4.176   4.729   0.812  0.0881  0.0896 -0.2078
  928MPD2    H513638   4.182   4.686   0.720 -1.9457  2.0534 -1.2512
  928MPD2    N113639   4.258   4.628   1.273  0.0305  0.1672 -0.2878
  928MPD2    H713640   4.233   4.726   1.285 -0.1168 -0.2163  2.6251
  929MPD2     C13641   0.223   0.235  10.133  0.2290  0.4581  0.4527
  929MPD2    C113642   0.093   0.198  10.094 -0.0892 -0.4645 -0.1557
  929MPD2    C213643   0.034   0.240   9.976  0.1127 -0.1161  0.0062
  929MPD2    C313644   0.107   0.331   9.894 -0.5911  0.3187  0.0196
  929MPD2    C413645   0.241   0.359   9.925  0.2446 -0.2112  0.4043
  929MPD2    C513646   0.296   0.297  10.033 -0.1352  0.2753 -0.4503
  929MPD2     H13647   4.662   0.231   9.964  0.0393 -0.8798  1.1843
  929MPD2    H113648   0.309   0.408   9.857 -1.5920 -0.2042 -1.4195
  929MPD2    H213649   0.269   0.207  10.227  2.2312 -0.7596 -0.9090
  929MPD2    H313650   0.404   0.306  10.032 -0.0287 -0.7460  1.6104
  929MPD2     N13651   0.046   0.404   9.782  0.3365 -0.3339 -0.0486
  929MPD2    H513652   0.106   0.461   9.724 -1.1545  0.1049 -1.1610
  929MPD2    N113653   0.017   0.138  10.197  0.2620  0.1167 -0.1662
  929MPD2    H713654   0.073   0.137  10.282  0.4505  0.7822 -0.2788
  930MPD2     C13655   0.869   2.494  13.740 -0.4918 -0.0295  0.2006
  930MPD2    C113656   0.985   2.424  13.749 -0.5515  0.1894 -0.8311
  930MPD2    C213657   0.988   2.296  13.711  0.3407 -0.1008  0.9534
  930MPD2    C313658   0.876   2.235  13.649 -0.1863 -0.2594 -0.1160
  930MPD2    C413659   0.757   2.300  13.653 -0.6024  1.1772  0.1396
  930MPD2    C513660   0.755   2.421  13.708 -0.4555 -0.2353 -0.1092
  930MPD2     H13661   1.085   2.248  13.720 -0.2504 -1.3906  0.4931
  930MPD2    H113662   0.669   2.264  13.601 -1.2559  1.2444  1.2024
  930MPD2    H213663   0.863   2.601  13.759  0.8181  0.2325 -0.8097
  930MPD2    H313664   0.657   2.467  13.715  1.9022  4.2917  3.5823
  930MPD2     N13665   0.897   2.125  13.559  0.6231 -0.5326  0.1149
  930MPD2    H513666   0.828   2.102  13.488  2.3268 -0.5350 -1.5292
  930MPD2    N113667   1.108   2.490  13.789 -0.8674 -0.4231  0.4046
  930MPD2    H713668   1.106   2.591  13.797 -2.8610 -0.3961 -0.3412
  931MPD2     C13669   0.401   1.706   0.892 -0.2845  0.0318 -0.4002
  931MPD2    C113670   0.518   1.669   0.830 -0.6191  0.6995  0.0639
  931MPD2    C213671   0.585   1.554   0.883  1.0119  0.5973  0.1221
  931MPD2    C313672   0.539   1.479   0.987  0.4711 -0.0639 -0.0836
  931MPD2    C413673   0.420   1.520   1.045 -0.0641 -0.2223  0.8025
  931MPD2    C513674   0.353   1.639   1.001 -0.3052  0.0771 -0.4678
  931MPD2     H13675   0.684   1.529   0.846  0.1950  1.1126 -2.3859
  931MPD2    H113676   0.382   1.463   1.129  1.1708  0.6520  1.9509
  931MPD2    H213677   0.350   1.793   0.853 -0.5817 -0.6916 -1.6274
  931MPD2    H313678   0.263   1.672   1.051  1.1636  0.1411  2.1323
  931MPD2     N13679   0.601   1.369   1.047 -0.4128 -0.2828  0.2839
  931MPD2    H513680   0.548   1.315   1.116  0.3420 -1.0368  0.2798
  931MPD2    N113681   0.558   1.742   0.725 -0.1741 -0.1118 -0.3432
  931MPD2    H713682   0.500   1.821   0.699  0.5862  1.1734  1.9143
  932MPD2     C13683   3.973   0.608  11.231 -0.3179 -0.4504 -0.4707
  932MPD2    C113684   3.856   0.653  11.296 -0.2210  0.1389  0.2850
  932MPD2    C213685   3.812   0.606  11.416  0.7345  0.2511 -0.8006
  932MPD2    C313686   3.884   0.510  11.483  0.5186 -0.6606  0.2828
  932MPD2    C413687   4.004   0.465  11.426  0.4113  0.8804 -0.3892
  932MPD2    C513688   4.046   0.513  11.301  0.1300 -0.4206  0.6426
  932MPD2     H13689   3.718   0.636  11.461 -1.1045 -3.1490 -2.3348
  932MPD2    H113690   4.068   0.391  11.473  1.0351  0.2446 -2.2595
  932MPD2    H213691   4.007   0.647  11.136 -0.5639  1.1082  0.0673
  932MPD2    H313692   4.145   0.486  11.268  0.8644  1.5564  1.2461
  932MPD2     N13693   3.864   0.468  11.617  0.3916 -0.7989  0.5526
  932MPD2    H513694   3.940   0.410  11.652  0.9540 -0.4525 -0.0906
  932MPD2    N113695   3.772   0.754  11.236  0.1295  0.4036  0.0855
  932MPD2    H713696   3.697   0.784  11.298  1.3491 -0.0731  1.7993
  933MPD2     C13697   4.070   0.557   1.687 -0.6772 -0.0344  0.2162
  933MPD2    C113698   4.073   0.470   1.579 -0.0313 -0.5569  0.0287
  933MPD2    C213699   3.998   0.509   1.470  0.1237 -0.0745  0.3498
  933MPD2    C313700   3.927   0.628   1.465 -1.0837 -0.1830 -0.7050
  933MPD2    C413701   3.919   0.709   1.578 -0.0832 -0.3259 -0.2208
  933MPD2    C513702   3.995   0.671   1.687 -0.4805 -0.4841  0.3636
  933MPD2     H13703   3.994   0.451   1.378  1.6772 -0.6192  0.6406
  933MPD2    H113704   3.859   0.799   1.580  0.6012  0.0952  1.3644
  933MPD2    H213705   4.138   0.531   1.768  1.2794  0.8934 -1.1078
  933MPD2    H313706   3.995   0.736   1.773  1.1966 -2.0860  1.5840
  933MPD2     N13707   3.846   0.657   1.351 -0.1769  0.5932 -0.7821
  933MPD2    H513708   3.848   0.591   1.273 -0.5253  1.4585 -1.5188
  933MPD2    N113709   4.150   0.349   1.579  0.0411  0.3052 -0.1707
  933MPD2    H713710   4.215   0.333   1.656  0.6830  1.0637 -0.5526
  934MPD2     C13711   0.000   2.274   2.361 -0.1938 -0.5464 -0.2989
  934MPD2    C113712   0.059   2.168   2.307 -0.0228 -0.2755 -0.5162
  934MPD2    C213713   4.727   2.093   2.213  0.1369 -0.4633  0.4505
  934MPD2    C313714   4.591   2.126   2.176 -0.1358 -0.1472 -0.2540
  934MPD2    C413715   4.532   2.232   2.239 -0.8764  0.4416 -0.1338
  934MPD2    C513716   4.606   2.304   2.332  0.1388 -0.2727  0.0657
  934MPD2     H13717   0.032   2.003   2.168 -1.5207  0.1394 -2.2404
  934MPD2    H113718   4.432   2.266   2.214 -0.2873  0.7179 -2.0812
  934MPD2    H213719   0.049   2.335   2.437 -1.5091  0.3143 -0.1506
  934MPD2    H313720   4.565   2.383   2.393 -0.0780  0.1985 -0.6821
  934MPD2     N13721   4.513   2.061   2.076  0.3457  0.2605  0.3810
  934MPD2    H513722   4.416   2.085   2.060 -0.5035 -1.9510  2.1428
  934MPD2    N113723   0.188   2.129   2.354 -0.3451 -0.3972  0.4892
  934MPD2    H713724   0.238   2.072   2.288 -0.2011  0.3957 -0.0902
  935MPD2     C13725   0.110   1.389   1.429 -1.1329 -0.5976 -0.4870
  935MPD2    C113726   4.734   1.423   1.364 -0.3284 -0.5458 -0.1679
  935MPD2    C213727   4.645   1.496   1.439 -0.8136  0.0637  0.5879
  935MPD2    C313728   4.669   1.528   1.573 -1.0809  0.5892  0.1868
  935MPD2    C413729   0.050   1.486   1.633 -0.3937  0.9194  0.8150
  935MPD2    C513730   0.130   1.408   1.562 -0.7036 -0.2422  0.0186
  935MPD2     H13731   4.545   1.516   1.402  1.6152  0.9954 -5.4193
  935MPD2    H113732   0.070   1.512   1.737  3.8621  1.1237 -0.0801
  935MPD2    H213733   0.183   1.323   1.382  0.1567  0.9306 -0.6458
  935MPD2    H313734   0.211   1.365   1.620  1.5447  0.7865 -2.3555
  935MPD2     N13735   4.589   1.607   1.656  0.1187 -0.2010 -0.2941
  935MPD2    H513736   4.615   1.622   1.753  0.1319  1.2549 -0.5202
  935MPD2    N113737   4.702   1.383   1.230 -0.7791 -0.3577 -0.1451
  935MPD2    H713738   4.611   1.415   1.199 -0.2099  1.8233  0.3868
  936MPD2     C13739   3.834   4.628  12.917  0.1809  0.5478  0.0928
  936MPD2    C113740   3.773   4.505  12.896 -0.3815 -0.1699  0.2690
  936MPD2    C213741   3.785   4.435  12.779 -0.1652 -0.2446  0.5457
  936MPD2    C313742   3.854   4.489  12.677 -0.3893 -0.2316  0.6733
  936MPD2    C413743   3.909   4.616  12.693 -0.0745 -0.3834 -0.5074
  936MPD2    C513744   3.895   4.683  12.810 -0.4275  0.0245 -0.1038
  936MPD2     H13745   3.743   4.335  12.777  1.3095 -0.9043  1.7567
  936MPD2    H113746   3.962   4.662  12.611 -1.1729  0.4362 -0.7626
  936MPD2    H213747   3.836   4.681  13.012  0.0624  3.2560 -1.4000
  936MPD2    H313748   3.945   0.042  12.828 -0.8756  0.1451  0.5140
  936MPD2     N13749   3.889   4.419  12.558  0.0310  0.2437  1.0219
  936MPD2    H513750   3.956   4.464  12.496 -0.8981  0.3206  0.0686
  936MPD2    N113751   3.707   4.443  13.000  0.3227 -0.2759 -0.2787
  936MPD2    H713752   3.670   4.352  12.973  0.5200 -0.0091 -1.4389
  937MPD2     C13753   1.500   0.100  11.254  0.2858 -0.1540 -0.1078
  937MPD2    C113754   1.428   0.200  11.192  0.7979  0.1049  0.1683
  937MPD2    C213755   1.490   0.278  11.092  0.7731 -0.3317 -0.2787
  937MPD2    C313756   1.608   0.237  11.036 -0.6243 -0.0555 -0.1904
  937MPD2    C413757   1.674   0.131  11.082 -0.1121  0.7257 -0.4709
  937MPD2    C513758   1.624   0.072  11.196 -0.7491  0.2651 -0.0119
  937MPD2     H13759   1.445   0.364  11.044  0.1428 -0.3443  0.2902
  937MPD2    H113760   1.759   0.094  11.027  1.2532  3.5596 -0.2814
  937MPD2    H213761   1.461   0.035  11.331 -2.6145 -1.4872 -2.6786
  937MPD2    H313762   1.689   0.005  11.251 -1.3439 -0.5578 -0.3171
  937MPD2     N13763   1.654   0.316  10.928  0.4079 -0.1856 -0.3630
  937MPD2    H513764   1.598   0.396  10.900  1.1185  0.1235 -0.9278
  937MPD2    N113765   1.324   0.260  11.259 -0.2887  0.4854  0.2256
  937MPD2    H713766   1.299   0.354  11.228 -1.9417  0.2129  0.6981
  938MPD2     C13767   3.899   2.525   0.464 -0.5702 -0.2030 -0.2251
  938MPD2    C113768   3.997   2.462   0.541 -0.9669 -0.2868  0.0006
  938MPD2    C213769   3.967   2.361   0.623 -0.4658 -0.3486 -0.6932
  938MPD2    C313770   3.836   2.307   0.617  0.0163 -0.0128 -0.0560
  938MPD2    C413771   3.745   2.352   0.531  0.7156 -0.2599  0.2488
  938MPD2    C513772   3.774   2.472   0.469  0.1904 -0.5630 -0.0098
  938MPD2     H13773   4.040   2.312   0.686  0.1976  0.2158 -1.0193
  938MPD2    H113774   3.646   2.311   0.516  0.6194  0.4771 -1.1151
  938MPD2    H213775   3.910   2.622   0.418  0.1131 -1.2023 -2.1672
  938MPD2    H313776   3.706   2.527   0.405 -1.6024 -1.5501  1.0508
  938MPD2     N13777   3.796   2.205   0.707 -0.5211  0.1441  0.1502
  938MPD2    H513778   3.706   2.157   0.701 -0.0750 -0.4983 -1.4931
  938MPD2    N113779   4.128   2.514   0.541 -0.7676 -0.3237  0.5690
  938MPD2    H713780   4.196   2.467   0.601  0.9403  0.4309 -0.7957
  939MPD2     C13781   0.323   2.668   0.966  0.2332 -0.0440  0.6093
  939MPD2    C113782   0.358   2.797   0.944 -0.5760 -0.1099  0.3075
  939MPD2    C213783   0.397   2.844   0.819 -0.3888  0.1886 -0.3050
  939MPD2    C313784   0.409   2.760   0.716 -1.0122 -0.4268 -0.3617
  939MPD2    C413785   0.369   2.631   0.738 -0.4854 -0.3594 -0.0584
  939MPD2    C513786   0.322   2.586   0.856 -0.0660  0.6529  0.7038
  939MPD2     H13787   0.423   2.948   0.802  1.4048 -0.4116 -1.3501
  939MPD2    H113788   0.369   2.558   0.657  1.7663 -1.3161  0.7919
  939MPD2    H213789   0.284   2.625   1.058 -1.4676  1.0534  0.3994
  939MPD2    H313790   0.288   2.484   0.870 -2.7133  1.2149 -1.6809
  939MPD2     N13791   0.439   2.809   0.586  0.1721  0.3579  0.2410
  939MPD2    H513792   0.453   2.909   0.580  0.4246  0.4075  1.6960
  939MPD2    N113793   0.346   2.879   1.056 -0.0855 -0.4517  0.2082
  939MPD2    H713794   0.314   2.833   1.141 -1.4570  0.9090  0.4296
  940MPD2     C13795   0.070   3.939  12.202 -0.3882 -0.8586  0.9973
  940MPD2    C113796   4.726   3.877  12.294  0.0520  0.7234 -0.3270
  940MPD2    C213797   4.689   3.748  12.281 -0.4722 -0.1037 -0.2780
  940MPD2    C313798   0.005   3.666  12.180  0.0589 -0.2690  0.4740
  940MPD2    C413799   0.096   3.729  12.100 -0.6298  0.5489  0.1899
  940MPD2    C513800   0.123   3.863  12.102  1.2924 -0.1899  0.3859
  940MPD2     H13801   4.622   3.712  12.358  0.9077 -0.6613  0.6528
  940MPD2    H113802   0.153   3.677  12.023 -1.0025 -3.4056  2.6174
  940MPD2    H213803   0.079   4.047  12.193  2.7764 -1.2722 -0.8507
  940MPD2    H313804   0.196   3.902  12.032 -0.0731 -0.0286 -0.9414
  940MPD2     N13805   4.718   3.528  12.161 -0.2793  0.2979  0.3576
  940MPD2    H513806   0.036   3.485  12.087 -1.1804 -0.5120  0.1714
  940MPD2    N113807   4.665   3.952  12.400 -0.1409 -0.4885  0.2123
  940MPD2    H713808   4.600   3.904  12.461 -0.1923 -0.5638  0.0970
  941MPD2     C13809   3.949   3.385   9.662  0.1414  0.1492 -0.1021
  941MPD2    C113810   4.018   3.452   9.765  0.0834  0.4334  0.1844
  941MPD2    C213811   4.012   3.400   9.891 -0.2222  0.3590 -0.4002
  941MPD2    C313812   3.928   3.290   9.920  0.9639  0.1339 -0.7887
  941MPD2    C413813   3.863   3.226   9.814  0.4936 -0.2388  0.7869
  941MPD2    C513814   3.868   3.283   9.690  0.1254  0.2413 -0.4988
  941MPD2     H13815   4.049   3.463   9.972  1.0248 -1.4184  0.4067
  941MPD2    H113816   3.804   3.136   9.828 -0.6552  0.4854  0.6363
  941MPD2    H213817   3.941   3.420   9.560  2.2461  1.0971  0.0521
  941MPD2    H313818   3.796   3.246   9.618 -2.3529  0.5595  1.7725
  941MPD2     N13819   3.927   3.231  10.048 -0.1236  0.0413  0.5448
  941MPD2    H513820   3.866   3.152  10.063 -2.3882  1.9388  1.2998
  941MPD2    N113821   4.088   3.574   9.740  0.1741 -0.7262 -0.0354
  941MPD2    H713822   4.134   3.621   9.817  1.5506  0.9927 -1.8882
  942MPD2     C13823   4.036   4.547   8.609  0.0918  0.0385  0.1800
  942MPD2    C113824   4.148   4.623   8.651  0.5821  0.2237  0.4903
  942MPD2    C213825   4.259   4.628   8.568 -0.2423 -0.1370 -0.0652
  942MPD2    C313826   4.261   4.564   8.440 -0.6139 -0.2276  0.2226
  942MPD2    C413827   4.144   4.501   8.397  0.3355  0.8064  0.8629
  942MPD2    C513828   4.034   4.492   8.485  0.1789  0.3781 -0.3261
  942MPD2     H13829   4.350   4.675   8.603 -0.0039  0.1345 -1.0474
  942MPD2    H113830   4.138   4.467   8.294  0.6372  0.2850  1.0152
  942MPD2    H213831   3.947   4.536   8.671  1.5193  0.3111  2.2558
  942MPD2    H313832   3.950   4.433   8.450 -0.1845 -0.1521  1.4710
  942MPD2     N13833   4.374   4.553   8.356 -0.8779  0.0553 -0.1453
  942MPD2    H513834   4.363   4.495   8.273  3.1724 -2.4697  1.0767
  942MPD2    N113835   4.136   4.705   8.765  0.3723  0.2813  0.1054
  942MPD2    H713836   4.218   0.024   8.786 -0.2547  1.6897 -1.1755
  943MPD2     C13837   2.738   3.262   9.342  0.0156  0.2886 -0.0245
  943MPD2    C113838   2.669   3.198   9.438 -0.7614 -0.0321  0.4578
  943MPD2    C213839   2.690   3.222   9.573  0.5801 -0.2953  0.7954
  943MPD2    C313840   2.786   3.314   9.610  0.1486  0.4810 -0.0688
  943MPD2    C413841   2.856   3.376   9.509  0.5486  0.1120  0.0608
  943MPD2    C513842   2.834   3.356   9.376 -0.2987  0.0699 -0.2812
  943MPD2     H13843   2.634   3.178   9.656  0.8621  1.6058  1.9798
  943MPD2    H113844   2.914   3.465   9.527 -0.4215  0.4608  1.4561
  943MPD2    H213845   2.713   3.238   9.240 -0.9179  2.0252 -0.2115
  943MPD2    H313846   2.882   3.406   9.293  2.4399  2.1086  2.5540
  943MPD2     N13847   2.824   3.351   9.745  0.7490 -0.2270  0.5914
  943MPD2    H513848   2.895   3.423   9.757 -0.9145  1.2598  1.5393
  943MPD2    N113849   2.581   3.098   9.398  0.0892 -0.2773  0.5460
  943MPD2    H713850   2.606   3.052   9.311 -0.1410 -1.2144  0.9762
  944MPD2     C13851   2.083   2.612  10.899  0.1199 -0.5090  0.2045
  944MPD2    C113852   2.007   2.496  10.916 -0.2948 -0.3529 -0.1285
  944MPD2    C213853   1.926   2.481  11.022  1.1576  0.0994  0.3780
  944MPD2    C313854   1.914   2.583  11.116  0.7181 -0.2440  0.1647
  944MPD2    C413855   1.991   2.702  11.100  0.0495  0.7938  0.3968
  944MPD2    C513856   2.080   2.716  10.991 -0.4299 -0.0864  0.1691
  944MPD2     H13857   1.869   2.390  11.034 -0.4545  1.4585  3.0136
  944MPD2    H113858   1.988   2.781  11.173 -0.5607 -0.0252  1.2499
  944MPD2    H213859   2.151   2.637  10.818 -1.2728  4.0683  0.4720
  944MPD2    H313860   2.145   2.802  10.982  1.7458 -1.8718 -1.0320
  944MPD2     N13861   1.836   2.563  11.231 -0.5676 -0.2485  1.0864
  944MPD2    H513862   1.789   2.473  11.228  1.8832 -1.4113 -1.8070
  944MPD2    N113863   2.021   2.408  10.809 -0.3097 -0.4975 -0.2490
  944MPD2    H713864   2.074   2.448  10.733  1.2062 -2.9821 -0.4725
    1TMC1    C113865   0.513   4.255  14.609 -0.8020 -0.0739 -0.0490
    1TMC1    C213866   0.589   4.363  14.566  0.5589 -0.4397  0.4853
    1TMC1    C313867   0.526   4.486  14.569 -0.5596  0.0078 -1.0184
    1TMC1    C413868   0.382   4.271  14.650  1.0708 -1.1023 -0.2785
    1TMC1    C513869   0.327   4.399  14.651  0.7777  0.5374  0.5607
    1TMC1    C613870   0.393   4.506  14.608 -0.3343  0.2700 -0.0642
    1TMC1     C13871   0.560   4.121  14.589 -0.0858  0.3631 -0.1106
    1TMC1     O13872   0.678   4.099  14.568 -0.3412  0.1391 -0.4386
    1TMC1     H13873   0.690   4.358  14.527  1.1641 -0.3294  2.0263
    1TMC1    H113874   0.335   4.193  14.708  0.1393  0.4145  0.9982
    1TMC1    H213875   0.353   4.602  14.576 -1.3328  1.1411  3.7969
    1TMC1    C713876   0.188   4.410  14.643  0.0876 -0.3563 -0.2495
    1TMC1    C813877   0.604   4.606  14.543 -0.8282  0.4214 -0.2296
    1TMC1    O113878   0.109   4.330  14.590 -0.0047 -0.7419  0.6805
    1TMC1    O213879   0.698   4.607  14.461 -0.2611  0.1702  0.2474
    1TMC1    O313880   0.143   4.492  14.742 -0.0782 -0.2704 -0.0595
    1TMC1    H313881   0.216   4.499  14.807 -0.4675  0.1550  0.3283
    1TMC1    O513882   0.561   4.716  14.614 -0.3689  0.0662  0.2201
    1TMC1    H513883   0.491   4.699  14.680 -1.5918  1.1321 -0.8082
    2MPD2     C13884   0.511   3.627  14.495 -0.1867 -0.2463  0.6921
    2MPD2    C113885   0.390   3.685  14.471 -0.3112 -0.1208 -0.7636
    2MPD2    C213886   0.371   3.818  14.510  0.5807  0.4164  0.3486
    2MPD2    C313887   0.476   3.887  14.563 -0.6823  0.4277 -0.2086
    2MPD2    C413888   0.586   3.822  14.608  0.4178 -0.0868  0.0294
    2MPD2    C513889   0.607   3.693  14.566 -0.7225 -0.7423  0.4398
    2MPD2     H13890   0.285   3.871  14.470  1.3817 -0.0029 -1.9303
    2MPD2    H113891   0.672   3.869  14.655  0.4075  0.5449 -0.6041
    2MPD2    H213892   0.519   3.522  14.469  1.1932 -0.2128  0.9911
    2MPD2    H313893   0.701   3.650  14.598 -0.8794 -1.6526 -0.3441
    2MPD2     N13894   0.456   4.030  14.577 -0.7677 -0.1839 -0.9514
    2MPD2    H513895   0.363   4.069  14.572 -0.6509  0.1845 -0.3119
    2MPD2    N113896   0.304   3.617  14.379 -0.2684  0.6447  0.0778
    2MPD2    H713897   0.335   3.543  14.316  1.1019 -0.5996  2.2200
    3TMC2    C113898   0.109   3.608  14.252  0.1113 -0.3638  0.5382
    3TMC2    C213899   4.713   3.585  14.268 -0.3417  0.3425 -0.8530
    3TMC2    C313900   4.640   3.594  14.156  0.5310  0.1095 -0.5331
    3TMC2    C413901   0.167   3.650  14.139 -0.0313  0.4968 -0.0258
    3TMC2    C513902   0.082   3.661  14.026 -0.3449 -0.1358  0.1924
    3TMC2    C613903   4.682   3.634  14.032 -0.3948  0.1537  0.1727
    3TMC2     C13904   0.172   3.645  14.376 -0.1139  0.5756  0.1429
    3TMC2     O13905   0.101   3.685  14.462 -0.4717  0.0430 -0.1510
    3TMC2     H13906   4.666   3.566  14.364  1.2718 -1.5101 -0.4145
    3TMC2    H113907   0.274   3.667  14.132 -0.2818  2.9439  1.7902
    3TMC2    H213908   4.625   3.657  13.943 -0.6719 -0.3775  0.2117
    3TMC2    C713909   0.145   3.716  13.906  0.1533  0.1071  0.2805
    3TMC2    C813910   4.496   3.593  14.179  0.4978  0.1242 -0.3909
    3TMC2    O113911   0.254   3.671  13.871 -0.0211 -0.3851  0.3956
    3TMC2    O213912   4.458   3.605  14.296  0.1923 -0.8700  0.1427
    3TMC2    O513913   4.436   3.515  14.085 -0.9034  0.0050 -0.0845
    3TMC2    H513914   4.486   3.508  14.001  2.0489  1.7396  1.5161
    4TMC2    C113915   4.311   4.417  13.462  0.7150  0.5626  0.2145
    4TMC2    C213916   4.296   4.405  13.330 -0.3453  1.7027  0.2280
    4TMC2    C313917   4.390   4.334  13.271  0.1338  0.7650  0.8637
    4TMC2    C413918   4.409   4.356  13.533 -0.7993 -0.1199  0.5570
    4TMC2    C513919   4.497   4.275  13.469 -0.3560  0.1112 -0.0246
    4TMC2    C613920   4.479   4.257  13.335  1.0591  0.3359  0.0163
    4TMC2     C13921   4.234   4.522  13.526  0.0270  0.0110 -0.4679
    4TMC2     O13922   4.286   4.576  13.624 -0.0736  0.0325 -0.4518
    4TMC2     H13923   4.237   4.475  13.273  0.0655  2.8385  1.1958
    4TMC2    H113924   4.408   4.370  13.640  0.2307  2.5340  0.2120
    4TMC2    H213925   4.537   4.184  13.280 -0.0614  0.5006 -1.3848
    4TMC2    C713926   4.549   4.167  13.552 -0.4818 -0.0565 -0.1920
    4TMC2    C813927   4.350   4.298  13.135  0.2797  0.2059  0.2759
    4TMC2    O113928   4.514   4.162  13.670  0.6329 -0.1033 -0.2850
    4TMC2    O213929   4.244   4.338  13.086 -0.1339  0.2514  0.5267
    4TMC2    O513930   4.445   4.215  13.073 -0.3700 -0.4182 -0.5893
    4TMC2    H513931   4.527   4.198  13.124 -1.1043  2.5757  1.6351
    5MPD2     C13932   3.877   0.154  13.531  0.0339 -0.4287 -0.0645
    5MPD2    C113933   3.841   0.069  13.422  0.5203  0.4642 -0.4475
    5MPD2    C213934   3.924   4.691  13.408 -0.1895 -0.2052 -0.1007
    5MPD2    C313935   4.034   4.660  13.495  0.7441  0.2386 -0.3594
    5MPD2    C413936   4.064   0.017  13.597  0.5189 -0.5147 -0.4914
    5MPD2    C513937   3.992   0.129  13.605 -0.2025 -0.4548  0.4430
    5MPD2     H13938   3.900   4.621  13.329 -1.5844  0.1709 -0.0075
    5MPD2    H113939   4.150   0.005  13.662  0.4447  0.6511 -0.1648
    5MPD2    H213940   3.831   0.250  13.554  1.8482  0.4685 -0.2040
    5MPD2    H313941   4.016   0.201  13.681  1.5985  1.1523 -1.6379
    5MPD2     N13942   4.110   4.546  13.468 -0.1347  0.1764 -0.3756
    5MPD2    H513943   4.086   4.483  13.392 -1.0162  0.0774 -0.0168
    5MPD2    N113944   3.745   0.101  13.332  0.0866 -0.4506  0.1660
    5MPD2    H713945   3.725   0.032  13.260 -0.1639 -1.7072  1.4404
    6MPD1     C13946   2.333   0.957  12.156 -0.0867 -0.0295 -0.3231
    6MPD1    C113947   2.340   0.821  12.191 -0.4703 -0.3137 -0.4597
    6MPD1    C213948   2.425   0.787  12.297 -0.4419 -0.5059  0.0651
    6MPD1    C313949   2.470   0.877  12.384 -1.4986 -0.4631  0.5104
    6MPD1    C413950   2.432   1.006  12.365 -0.9485 -0.1921 -0.6226
    6MPD1    C513951   2.369   1.052  12.248 -0.3874 -0.0805 -0.0523
    6MPD1     H13952   2.449   0.681  12.298  0.8015 -0.2103  1.5727
    6MPD1    H113953   2.453   1.081  12.440  1.7334 -0.9081 -0.6418
    6MPD1    H213954   2.292   0.982  12.059 -0.3184  0.2081 -0.1626
    6MPD1    H313955   2.346   1.157  12.231 -1.6698  0.0862  2.6445
    6MPD1     N13956   2.554   0.857  12.497  0.5140  0.2752  0.0452
    6MPD1    H513957   2.605   0.933  12.542  0.0473  0.6421 -0.0443
    6MPD1    N113958   2.314   0.726  12.094 -0.5880  0.5830  0.9010
    6MPD1    H613959   2.292   0.641  12.146 -1.3126 -0.6994 -1.5174
    6MPD1    H713960   2.238   0.743  12.028 -1.3500 -3.6884  0.6659
    7MPD2     C13961   2.849   0.129  12.964  0.0153  0.1679  0.2928
    7MPD2    C113962   2.918   0.235  12.918  0.0889 -0.0614  0.3044
    7MPD2    C213963   3.055   0.221  12.920  0.1756 -0.2131 -0.1410
    7MPD2    C313964   3.116   0.113  12.982  0.0643 -0.3326 -0.4055
    7MPD2    C413965   3.041   0.009  13.038  0.2966  0.9957  0.1865
    7MPD2    C513966   2.908   0.014  13.018  1.0140  0.2099 -0.5887
    7MPD2     H13967   3.121   0.283  12.861 -0.4968  0.3998 -0.2513
    7MPD2    H113968   3.072   4.649  13.077  0.7773  1.2166  0.3480
    7MPD2    H213969   2.741   0.126  12.963 -0.0111  0.8360  2.3195
    7MPD2    H313970   2.850   4.664  13.051 -0.1662  1.9662  1.9456
    7MPD2     N13971   3.259   0.117  12.983 -0.2029  0.1552  0.3005
    7MPD2    H513972   3.304   0.184  12.922  1.6885 -1.0223  0.4402
    7MPD2    N113973   2.875   0.354  12.858  0.0648 -0.2463 -0.3739
    7MPD2    H713974   2.948   0.419  12.829  1.7957 -2.2798 -0.4995
    8TMC3    C113975   3.483   0.093  13.046 -0.5910 -0.4057  0.1919
    8TMC3    C213976   3.534   0.100  13.170  0.3055 -0.1547  0.6252
    8TMC3    C313977   3.599   0.216  13.201 -0.0784 -0.0249  0.0469
    8TMC3    C413978   3.499   0.188  12.958  0.7539  0.0478 -0.1320
    8TMC3    C513979   3.565   0.307  12.986  0.1025 -0.1891 -0.2989
    8TMC3    C613980   3.614   0.318  13.110  0.5974  0.2333  0.0744
    8TMC3     C13981   3.343   0.045  13.056  0.7053 -0.2695  0.1970
    8TMC3     O13982   3.311   4.699  13.140 -0.0300  0.5575 -0.1973
    8TMC3     H13983   3.504   0.026  13.243 -3.3454  2.1133  1.4232
    8TMC3    H113984   3.464   0.177  12.856  1.5435 -1.5226 -0.2242
    8TMC3    H213985   3.639   0.418  13.145  1.9118  0.5506 -1.7327
    8TMC3    C713986   3.474   0.416  12.948 -0.7543  0.1448 -0.7053
    8TMC3    C813987   3.674   0.222  13.323 -0.3145  0.2044 -0.3249
    8TMC3    O113988   3.366   0.374  12.906 -0.1585  0.2279 -0.4032
    8TMC3    O213989   3.701   0.330  13.363 -0.3556  0.2155  0.1114
    9TMC3    C113990   2.654   0.709  12.659 -0.0885 -0.2219 -0.4337
    9TMC3    C213991   2.767   0.791  12.679 -0.2076  0.0480  0.2977
    9TMC3    C313992   2.868   0.743  12.761  0.3134  0.4698  0.4962
    9TMC3    C413993   2.643   0.586  12.721 -0.5707  0.5379  0.5002
    9TMC3    C513994   2.746   0.545  12.798  0.6751  0.1710  0.8844
    9TMC3    C613995   2.851   0.619  12.823 -0.2746 -0.1357 -0.0579
    9TMC3     C13996   2.566   0.730  12.546  0.4018  0.8500  0.1659
    9TMC3     O13997   2.519   0.622  12.505 -0.0278 -0.2769 -0.4487
    9TMC3     H13998   2.776   0.889  12.634  0.4397  0.0243  0.3669
    9TMC3    H113999   2.557   0.521  12.709 -1.3453  1.6065  0.3091
    9TMC3    H214000   2.901   0.598  12.917 -4.1201 -0.1073  1.9929
    9TMC3    C714001   2.747   0.402  12.834  0.8270  1.2712 -0.0880
    9TMC3    C814002   2.994   0.812  12.768  0.0587  0.5158  0.2409
    9TMC3    O114003   2.639   0.350  12.867  0.0745  0.5030 -0.0900
    9TMC3    O214004   3.007   0.925  12.721 -0.4197  0.2522  0.0595
   10MPD2     C14005   3.485   0.793  12.935  0.4845  0.0581  0.7569
   10MPD2    C114006   3.433   0.659  12.932 -0.9640  0.1775 -0.7064
   10MPD2    C214007   3.303   0.654  12.887 -0.0392 -0.0322  0.4629
   10MPD2    C314008   3.223   0.760  12.851  0.3062 -0.5363  0.4122
   10MPD2    C414009   3.272   0.887  12.853 -0.5368  0.3857  0.0051
   10MPD2    C514010   3.404   0.898  12.895  0.4121  0.0162 -0.0949
   10MPD2     H14011   3.251   0.559  12.879 -0.2384  0.3834 -3.5658
   10MPD2    H114012   3.218   0.976  12.822 -1.9092 -0.5482 -0.3122
   10MPD2    H214013   3.580   0.807  12.984  0.9921  2.1194 -0.8191
   10MPD2    H314014   3.447   0.996  12.909  0.2819  0.0698 -0.0707
   10MPD2     N14015   3.092   0.727  12.806  0.0781 -0.2987 -0.4673
   10MPD2    H514016   3.064   0.630  12.822 -2.1880  0.1977 -1.4755
   10MPD2    N114017   3.513   0.546  12.969 -1.2206 -0.2623 -0.6430
   10MPD2    H714018   3.611   0.566  12.989 -1.0975 -1.2140 -0.2790
   11MPD2     C14019   0.190   3.827  13.635  0.2730  0.4157  0.5713
   11MPD2    C114020   0.078   3.854  13.710  0.5602  0.0972  0.1692
   11MPD2    C214021   4.717   3.937  13.657 -0.6812 -0.3031  0.5021
   11MPD2    C314022   4.734   3.997  13.532 -0.3387  0.2262  0.2882
   11MPD2    C414023   0.107   3.962  13.460  0.7075  0.8151  1.1692
   11MPD2    C514024   0.208   3.885  13.512  0.0755  0.2991 -0.1346
   11MPD2     H14025   4.635   3.966  13.722 -1.5290 -0.8588 -0.3238
   11MPD2    H114026   0.117   3.994  13.357  1.1175 -2.4137  0.1889
   11MPD2    H214027   0.265   3.754  13.664  1.1300  2.1133  2.6703
   11MPD2    H314028   0.292   3.859  13.449 -1.1724 -1.1870 -1.1723
   11MPD2     N14029   4.643   4.093  13.481 -0.0525 -0.4670 -0.3791
   11MPD2    H514030   4.662   4.131  13.389 -1.0634  0.4453 -0.2026
   11MPD2    N114031   0.061   3.802  13.836 -0.2379  0.5377 -0.2350
   11MPD2    H714032   4.713   3.828  13.886  0.1514 -1.4285  1.4075
    1MPD1     C14033   2.792   1.577  17.041  0.2239  0.5755 -0.0248
    1MPD1    C114034   2.776   1.484  16.942  0.0315 -0.3531 -0.1397
    1MPD1    C214035   2.889   1.413  16.903  0.1573  0.1426 -0.1594
    1MPD1    C314036   3.016   1.437  16.960 -0.1479 -0.0792 -0.4147
    1MPD1    C414037   3.027   1.535  17.058  0.3497  0.4829  1.0052
    1MPD1    C514038   2.914   1.598  17.098  0.5717  0.5310  0.0387
    1MPD1     H14039   2.862   1.333  16.835 -0.0057 -0.7077  0.9105
    1MPD1    H114040   3.122   1.563  17.104  1.1700 -0.0773 -0.3358
    1MPD1    H214041   2.710   1.638  17.078  1.6509  1.9171  0.8863
    1MPD1    H314042   2.916   1.675  17.174 -1.0528 -2.0728  2.7165
    1MPD1     N14043   3.127   1.366  16.921  1.1400  0.1872 -0.3210
    1MPD1    H514044   3.209   1.407  16.964  1.4139  0.0668 -0.7330
    1MPD1    N114045   2.652   1.445  16.900 -0.3313 -0.1531  0.3607
    1MPD1    H614046   2.577   1.511  16.922 -0.7450 -1.2010  2.1025
    1MPD1    H714047   2.656   1.429  16.800  1.1812 -1.8814  0.6839
    2MPD1     C14048   4.065   1.501  16.825  1.1271  0.0004 -0.1420
    2MPD1    C114049   4.029   1.440  16.706 -0.5425  0.1204  0.5356
    2MPD1    C214050   3.907   1.372  16.703 -0.3070  0.4912  0.2039
    2MPD1    C314051   3.825   1.360  16.813 -0.7648 -0.2002 -0.4777
    2MPD1    C414052   3.867   1.420  16.933 -0.1019 -0.1932 -0.5010
    2MPD1    C514053   3.985   1.488  16.937  0.3663  0.3167  0.2419
    2MPD1     H14054   3.868   1.338  16.607  0.7157 -2.7341  0.9112
    2MPD1    H114055   3.829   1.408  17.033 -1.0432  0.8392 -0.7289
    2MPD1    H214056   4.153   1.558  16.852  0.9789  0.6994 -1.1326
    2MPD1    H314057   4.017   1.532  17.030  1.5175  1.3719 -0.6536
    2MPD1     N14058   3.700   1.292  16.788  0.4025  0.6821  0.7607
    2MPD1    H514059   3.692   1.250  16.696 -0.5131  1.1611  0.6300
    2MPD1    N114060   4.124   1.438  16.599 -0.4338  0.2828 -0.1702
    2MPD1    H614061   4.181   1.522  16.605  1.4115 -1.1458  2.5641
    2MPD1    H714062   4.075   1.442  16.510 -2.2653  0.9571  0.8802
    3TMC3    C114063   3.487   1.209  16.821  0.5102 -0.8218  0.1361
    3TMC3    C214064   3.495   1.115  16.720 -0.2506 -0.3283 -0.6200
    3TMC3    C314065   3.383   1.055  16.685  0.2795  0.8976 -0.1820
    3TMC3    C414066   3.369   1.248  16.869 -0.0812  0.6722 -0.5605
    3TMC3    C514067   3.256   1.187  16.823  0.3907  0.1476  0.2193
    3TMC3    C614068   3.267   1.092  16.729 -0.2790  0.2984 -0.0506
    3TMC3     C14069   3.601   1.280  16.876  0.0785  0.5705  0.2994
    3TMC3     O14070   3.596   1.337  16.985  0.0428  0.4336  0.7341
    3TMC3     H14071   3.596   1.098  16.683  0.6908 -0.4670  1.9855
    3TMC3    H114072   3.362   1.311  16.957 -3.4925 -1.4468  0.7061
    3TMC3    H214073   3.176   1.045  16.696 -0.3626  0.9239 -0.7116
    3TMC3    C714074   3.130   1.253  16.851  0.3770  0.0315 -0.1201
    3TMC3    C814075   3.380   0.926  16.620 -0.4136 -0.5567 -0.3144
    3TMC3    O114076   3.031   1.191  16.816  0.3871 -0.1293 -0.0293
    3TMC3    O214077   3.274   0.879  16.577 -0.2780 -0.1509 -0.7508
    4MPD1     C14078   3.644   0.523  16.436 -0.2170 -0.0381  0.0991
    4MPD1    C114079   3.731   0.603  16.499  0.1702  0.0920  0.5328
    4MPD1    C214080   3.678   0.719  16.554 -0.2219  0.2619 -0.4962
    4MPD1    C314081   3.546   0.752  16.545  0.7797  0.3102  0.2094
    4MPD1    C414082   3.457   0.665  16.485 -0.6408 -0.8302  0.4661
    4MPD1    C514083   3.514   0.550  16.429  0.0535 -0.0782  0.3782
    4MPD1     H14084   3.739   0.792  16.608 -0.8460  1.5494 -1.5313
    4MPD1    H114085   3.351   0.688  16.476 -0.2642  0.7453  0.1038
    4MPD1    H214086   3.660   0.432  16.379 -0.1722 -0.3451  0.6006
    4MPD1    H314087   3.454   0.477  16.375 -1.3106 -0.0234  1.8293
    4MPD1     N14088   3.509   0.876  16.609  0.0575  0.1426  0.6933
    4MPD1    H514089   3.585   0.928  16.651 -0.8729  1.5576  0.6017
    4MPD1    N114090   3.868   0.575  16.519  0.4796 -0.5124 -0.3647
    4MPD1    H614091   3.925   0.659  16.531 -0.0370 -0.4119  1.3595
    4MPD1    H714092   3.906   0.513  16.447  1.3212 -1.4054  0.8544
    1TCq1    O114093   3.746   0.334  10.927 -0.7145 -0.4624 -0.0720
    1TCq1    C114094   3.680   0.439  10.990  0.2641  0.1679 -0.4447
    1TCq1    O214095   3.610   0.417  11.089  0.3425  0.0934 -0.0203
    1TCq1    C214096   3.650   0.525  10.877  0.0527 -0.6472 -0.5403
    1TCq1    C314097   3.521   0.539  10.846  0.3283  0.1809 -0.4239
    1TCq1    C414098   3.475   0.580  10.724 -0.6262 -0.1725  0.1823
    1TCq1    C514099   3.570   0.636  10.652 -0.8426  0.5517  0.4065
    1TCq1    C614100   3.702   0.621  10.671  0.5349 -0.6608 -0.1247
    1TCq1    C714101   3.747   0.553  10.785  0.4840 -0.0960 -0.0250
    1TCq1    C814102   3.793   0.672  10.570 -0.8393  0.0850  0.0123
    1TCq1    O414103   3.746   0.753  10.494 -0.4870  0.7196 -0.1612
    1TCq1    C914104   3.340   0.634  10.723  0.2936  0.0381 -0.2171
    1TCq1    O514105   3.319   0.723  10.634  0.3326 -0.2241  0.2717
    1TCq1    O614106   3.247   0.581  10.788 -0.4683  0.6180  0.9968
    1TCq1    H114107   3.768   0.346  10.832  2.2430 -0.1794  0.6443
    1TCq1    H214108   3.447   0.511  10.919 -0.0573 -2.6902 -1.9185
    1TCq1    H314109   3.540   0.681  10.558 -0.8087  0.7631  0.4949
    1TCq1    H414110   3.851   0.528  10.800  0.5310  0.7743  1.1436
    2MPD1     C14111   4.244   0.676  10.333 -0.8533  0.3047 -0.1014
    2MPD1    C114112   4.269   0.656  10.468 -0.0411  0.7470 -0.3988
    2MPD1    C214113   4.157   0.646  10.554 -0.9577  0.0565 -1.0227
    2MPD1    C314114   4.030   0.670  10.502  0.1492 -0.3158 -0.0671
    2MPD1    C414115   4.012   0.711  10.368 -0.1203  0.0380  0.4009
    2MPD1    C514116   4.123   0.709  10.281  0.0020 -0.0339 -0.6404
    2MPD1     H14117   4.176   0.623  10.658  1.5329  0.9259 -1.2900
    2MPD1    H114118   3.912   0.730  10.332 -0.3996  0.1623  1.2452
    2MPD1    H214119   4.326   0.670  10.262  0.3406  2.1941  1.1211
    2MPD1    H314120   4.118   0.740  10.178  2.3598 -0.0867 -0.7529
    2MPD1     N14121   3.925   0.649  10.596  0.4344  0.1464  0.0195
    2MPD1    H514122   3.955   0.628  10.691 -0.0965 -3.2400 -0.5590
    2MPD1    N114123   4.396   0.618  10.511  0.0798  0.2967 -0.1888
    2MPD1    H614124   4.413   0.632  10.610 -1.1308 -3.5369  0.5266
    2MPD1    H714125   4.467   0.674  10.464 -0.2207  0.4897 -0.4124
    1TMC1    C114126   0.759   1.650   1.217  0.0661  0.3816 -0.3432
    1TMC1    C214127   0.794   1.687   1.088 -0.8808  0.2624 -0.0437
    1TMC1    C314128   0.760   1.816   1.047  0.5048 -0.0742  0.8040
    1TMC1    C414129   0.694   1.732   1.304  0.6557 -0.7503 -0.3816
    1TMC1    C514130   0.657   1.854   1.253  0.0363  0.2612 -0.1765
    1TMC1    C614131   0.687   1.902   1.125 -0.0892 -1.0743  0.3856
    1TMC1     C14132   0.815   1.531   1.276 -0.2647  0.4986 -0.1008
    1TMC1     O14133   0.744   1.465   1.353  0.0048  0.5826  0.0561
    1TMC1     H14134   0.841   1.616   1.021 -1.7214 -0.8462  0.5192
    1TMC1    H114135   0.660   1.702   1.402 -0.7404  1.4861 -0.1788
    1TMC1    H214136   0.674   2.009   1.114 -0.0766 -0.8620  2.6170
    1TMC1    C714137   0.589   1.939   1.350  0.5776  0.4069  0.2405
    1TMC1    C814138   0.825   1.881   0.927  0.2892 -0.1850  0.1714
    1TMC1    O114139   0.582   1.906   1.468  0.3880  0.0107 -0.0850
    1TMC1    O214140   0.783   1.987   0.889  0.3850  0.1661  0.9524
    1TMC1    O314141   0.496   2.019   1.285  0.2173  0.2599 -0.0861
    1TMC1    H314142   0.486   1.994   1.191  1.2565 -3.0384  0.6936
    1TMC1    O514143   0.959   1.841   0.912  0.4246 -0.2520  0.4372
    1TMC1    H514144   0.977   1.778   0.985  0.2462 -0.0378  0.6686
    2MPD1     C14145   1.192   1.179   1.255 -0.2531  0.4342  0.1379
    2MPD1    C114146   1.218   1.281   1.168  0.8875  0.2033  0.0832
    2MPD1    C214147   1.134   1.389   1.155 -0.2066 -0.7120 -0.7489
    2MPD1    C314148   1.026   1.406   1.241  0.1123 -0.6081 -0.2993
    2MPD1    C414149   0.997   1.300   1.321  0.1099 -0.6737  0.4715
    2MPD1    C514150   1.086   1.192   1.341  0.2827  0.0944 -0.2835
    2MPD1     H14151   1.150   1.466   1.080  3.0869 -1.8978 -1.2627
    2MPD1    H114152   0.920   1.301   1.397 -1.2739 -1.7904 -0.9240
    2MPD1    H214153   1.250   1.088   1.243 -0.5811  0.2316  0.1103
    2MPD1    H314154   1.071   1.125   1.425  1.2142  1.8447  1.2697
    2MPD1     N14155   0.940   1.514   1.231  0.4990  0.0627 -0.0645
    2MPD1    H514156   0.978   1.594   1.181  1.0929  0.9941  1.8525
    2MPD1    N114157   1.315   1.258   1.069 -0.4214 -0.1076 -0.2911
    2MPD1    H614158   1.357   1.346   1.042  1.2380 -1.1276 -1.0691
    2MPD1    H714159   1.380   1.189   1.106  0.0172  0.3807 -0.1556
    1MPD1     C14160   0.182   4.463  12.347  0.6535 -0.2320  0.9557
    1MPD1    C114161   0.218   4.392  12.234 -0.5437 -0.6982 -0.8386
    1MPD1    C214162   0.262   4.467  12.124  0.5379 -0.0481 -0.2830
    1MPD1    C314163   0.238   4.604  12.109 -0.5460 -0.3970 -0.6143
    1MPD1    C414164   0.167   4.663  12.211  0.1315 -0.3111  0.1284
    1MPD1    C514165   0.157   4.598  12.328 -0.0942 -0.2111  0.3977
    1MPD1     H14166   0.316   4.423  12.041 -2.1031  1.2025 -2.6613
    1MPD1    H114167   0.151   0.034  12.217 -0.1275 -0.2753 -1.3220
    1MPD1    H214168   0.167   4.415  12.443 -0.7561 -2.0028 -0.1498
    1MPD1    H314169   0.119   4.645  12.418 -0.6230  0.4327 -0.1554
    1MPD1     N14170   0.270   4.666  11.989  0.0540  0.0895  0.8977
    1MPD1    H514171   0.325   4.606  11.927  1.8123  0.3662  2.1777
    1MPD1    N114172   0.251   4.258  12.249 -0.4737 -0.3377 -0.2547
    1MPD1    H614173   0.190   4.207  12.313 -0.8624  1.2181  0.6043
    1MPD1    H714174   0.245   4.212  12.158 -1.6922 -0.2973 -0.1895
    2MPD1     C14175   1.154   0.674   9.299 -0.1682  0.8532 -0.3677
    2MPD1    C114176   1.114   0.803   9.305  0.5568 -0.0422 -0.6811
    2MPD1    C214177   1.066   0.850   9.430  0.4558  0.5960 -0.6054
    2MPD1    C314178   1.046   0.767   9.538  0.1712  0.2860  0.0484
    2MPD1    C414179   1.083   0.636   9.522 -0.5170 -0.4109 -0.2165
    2MPD1    C514180   1.139   0.597   9.405 -1.0102 -0.4056 -1.1727
    2MPD1     H14181   1.031   0.952   9.441 -1.3895 -0.0143 -0.7515
    2MPD1    H114182   1.074   0.566   9.604  4.0564 -0.0391  0.6001
    2MPD1    H214183   1.203   0.646   9.207  0.3997 -0.2123  0.2603
    2MPD1    H314184   1.173   0.496   9.389 -2.7187 -0.9612 -1.2363
    2MPD1     N14185   0.989   0.812   9.662  0.3495  0.2285 -0.2559
    2MPD1    H514186   0.988   0.751   9.743 -2.5069  0.2951 -0.2424
    2MPD1    N114187   1.138   0.884   9.195  0.0250  0.9317  0.1953
    2MPD1    H614188   1.080   0.968   9.194  1.0665  1.6312 -2.6684
    2MPD1    H714189   1.135   0.832   9.107 -2.4821 -0.0058  0.8279
    3MPD1     C14190   0.589   1.668  10.064  0.7160  0.4235 -0.4239
    3MPD1    C114191   0.671   1.654   9.962  0.1441  0.0657 -0.1239
    3MPD1    C214192   0.727   1.525   9.946 -0.6141 -0.1663  0.2605
    3MPD1    C314193   0.684   1.415  10.022 -0.1287  0.5950 -0.2296
    3MPD1    C414194   0.600   1.433  10.132 -0.4791  0.0494  0.4847
    3MPD1    C514195   0.550   1.558  10.148 -0.2278 -0.0458  0.2849
    3MPD1     H14196   0.807   1.511   9.874  0.6593  0.6526  1.5144
    3MPD1    H114197   0.568   1.355  10.201 -0.0000 -0.6264 -0.0626
    3MPD1    H214198   0.540   1.760  10.093 -0.8423 -0.0524 -1.5415
    3MPD1    H314199   0.473   1.575  10.223 -2.1540 -2.4994 -1.1119
    3MPD1     N14200   0.748   1.292   9.993  0.2740 -0.4633 -0.3463
    3MPD1    H514201   0.800   1.292   9.906  1.2305  0.5153  0.2316
    3MPD1    N114202   0.725   1.762   9.890 -1.0794 -0.5319  0.5412
    3MPD1    H614203   0.794   1.747   9.817 -0.1437  2.7141  0.7360
    3MPD1    H714204   0.649   1.816   9.850 -0.6988  0.0725  0.6263
    4MPD2     C14205   0.318   0.660  11.490  0.1886  0.3976 -0.6238
    4MPD2    C114206   0.395   0.547  11.474 -0.2253 -0.3257  0.3609
    4MPD2    C214207   0.493   0.545  11.368 -0.4325 -0.3130  0.1738
    4MPD2    C314208   0.512   0.653  11.279 -0.2064  0.2987 -0.1268
    4MPD2    C414209   0.425   0.763  11.293 -0.3765  0.4220  0.3414
    4MPD2    C514210   0.327   0.759  11.394 -0.3758 -0.8348 -0.0133
    4MPD2     H14211   0.535   0.449  11.341 -0.3852 -0.1807 -0.2342
    4MPD2    H114212   0.427   0.846  11.223 -3.0626  0.0042 -0.2358
    4MPD2    H214213   0.264   0.681  11.581  1.5740  1.3593 -0.0339
    4MPD2    H314214   0.267   0.849  11.407 -2.5035 -2.4127  1.0948
    4MPD2     N14215   0.598   0.650  11.169 -0.0540 -0.3707  0.3617
    4MPD2    H514216   0.599   0.732  11.109 -0.7783 -1.9974 -1.8799
    4MPD2    N114217   0.375   0.428  11.540  0.2064  0.4892 -0.3443
    4MPD2    H714218   0.428   0.350  11.503 -2.0264 -0.5347 -1.3998
    5TMC3    C114219   0.284   0.246  11.650  0.3024 -0.2614  0.3112
    5TMC3    C214220   0.228   0.206  11.764 -0.4046  0.6089  0.7129
    5TMC3    C314221   0.254   0.076  11.810 -0.3217  0.3475 -0.1374
    5TMC3    C414222   0.366   0.164  11.576  0.2832  0.2592 -0.1576
    5TMC3    C514223   0.390   0.035  11.620 -0.0088 -0.5287  0.1069
    5TMC3    C614224   0.338   4.730  11.738 -0.7577  0.1606 -0.3412
    5TMC3     C14225   0.280   0.395  11.630 -0.3650  0.2975  0.7720
    5TMC3     O14226   0.191   0.465  11.675  0.2335 -0.3324  0.3908
    5TMC3     H14227   0.173   0.279  11.822 -3.7462 -0.4271 -1.1967
    5TMC3    H114228   0.416   0.196  11.485  1.9687  1.6934  1.2752
    5TMC3    H214229   0.356   4.624  11.752  1.8031  0.4124 -1.6672
    5TMC3    C714230   0.496   4.689  11.556 -0.2776  0.9054 -0.3477
    5TMC3    C814231   0.223   0.050  11.947 -0.5919 -1.0969 -0.0467
    5TMC3    O114232   0.549   4.602  11.622  0.3940  0.0244  0.1507
    5TMC3    O214233   0.167   0.141  12.008 -0.1215 -0.7251  0.2942
    6TMC3    C114234   0.871   0.927   9.819 -0.1161 -0.2538 -0.4164
    6TMC3    C214235   0.836   1.047   9.869  0.2118  0.7054  0.5500
    6TMC3    C314236   0.792   1.049   9.999  0.5060 -0.2445  0.4434
    6TMC3    C414237   0.866   0.808   9.890  0.3410 -0.1059 -0.0545
    6TMC3    C514238   0.824   0.810  10.021 -0.8208 -0.0530  0.5455
    6TMC3    C614239   0.786   0.931  10.075 -0.2431 -0.2573 -0.1249
    6TMC3     C14240   0.931   0.930   9.684  0.0495 -0.0782 -0.2922
    6TMC3     O14241   0.915   1.028   9.619 -0.3760 -0.1527  0.0095
    6TMC3     H14242   0.857   1.133   9.807  1.6578 -0.1050 -0.0827
    6TMC3    H114243   0.887   0.708   9.851  3.0383  1.1857 -1.9493
    6TMC3    H214244   0.772   0.938  10.182 -1.9249 -0.7903 -0.3099
    6TMC3    C714245   0.791   0.683  10.088 -0.1596  0.4178  0.4115
    6TMC3    C814246   0.727   1.172  10.055 -0.2707 -0.0475  0.5286
    6TMC3    O114247   0.810   0.579  10.017  0.2896  0.4869  0.1292
    6TMC3    O214248   0.674   1.154  10.168  0.9168  0.3740  0.0045
    7MPD2     C14249   0.901   0.021  11.265  0.6624  0.4703 -0.3810
    7MPD2    C114250   0.795   0.071  11.190 -0.4541  0.6805 -0.0625
    7MPD2    C214251   0.674   0.058  11.248 -0.5943  0.0265  0.0969
    7MPD2    C314252   0.665   4.729  11.372 -0.3905 -0.3232 -0.3690
    7MPD2    C414253   0.769   4.676  11.439 -0.1794 -0.8840 -0.6919
    7MPD2    C514254   0.893   4.699  11.388 -0.4689  0.3284 -0.3397
    7MPD2     H14255   0.587   0.107  11.206  0.1009  0.6309 -0.6459
    7MPD2    H114256   0.761   4.639  11.541  1.1786  0.0628 -0.2399
    7MPD2    H214257   1.002   0.049  11.236  0.9579  0.0358  0.2174
    7MPD2    H314258   0.987   4.683  11.438 -1.4359  1.5394  1.8582
    7MPD2     N14259   0.532   0.003  11.434  0.5304 -0.1906  0.0292
    7MPD2    H514260   0.458   0.037  11.375  0.1347  0.2483  0.7787
    7MPD2    N114261   0.820   0.158  11.086 -0.5642  0.4781  0.6768
    7MPD2    H714262   0.914   0.195  11.072 -1.4312  1.6375 -2.1788
    8TMC3    C114263   0.770   0.337  10.948  0.2372 -0.4444  0.2130
    8TMC3    C214264   0.704   0.368  10.832 -0.4026 -0.0679 -0.1440
    8TMC3    C314265   0.668   0.499  10.821  0.0061 -0.4909 -0.1320
    8TMC3    C414266   0.817   0.425  11.038 -0.2817 -0.5592 -0.0936
    8TMC3    C514267   0.767   0.544  11.031  0.7195 -0.3443 -0.4117
    8TMC3    C614268   0.694   0.588  10.925  0.5565 -0.0272  0.3886
    8TMC3     C14269   0.728   0.209  11.003 -0.1610 -0.2695 -0.4028
    8TMC3     O14270   0.612   0.175  10.975 -0.1639 -0.3972 -0.5370
    8TMC3     H14271   0.678   0.285  10.767 -1.5132  1.6433 -1.9056
    8TMC3    H114272   0.874   0.393  11.125 -2.1931  1.1326  1.7916
    8TMC3    H214273   0.657   0.689  10.913  1.6814 -0.0437 -3.2548
    8TMC3    C714274   0.709   0.575  11.164 -0.1070  0.2109  0.0727
    8TMC3    C814275   0.634   0.552  10.695  0.2979  1.0012 -0.4252
    8TMC3    O114276   0.746   0.503  11.257  0.2503  0.0902 -0.0611
    8TMC3    O214277   0.665   0.668  10.672  0.5144  0.1794  0.4074
    9MPD2     C14278   0.551   0.357  10.383  0.0167  0.2332 -0.3625
    9MPD2    C114279   0.604   0.464  10.463  0.1280  0.5853 -0.0424
    9MPD2    C214280   0.658   0.574  10.393 -0.3327  0.0038 -0.2064
    9MPD2    C314281   0.669   0.578  10.258  0.0241  0.5533 -0.1390
    9MPD2    C414282   0.624   0.469  10.185 -0.1159  0.1464 -0.5438
    9MPD2    C514283   0.565   0.362  10.250  0.0336 -0.4874  0.4844
    9MPD2     H14284   0.728   0.639  10.445  1.1027 -0.2098 -1.8551
    9MPD2    H114285   0.594   0.488  10.083 -2.7573 -2.7318 -0.3045
    9MPD2    H214286   0.511   0.264  10.424  1.1864  0.4075  1.1506
    9MPD2    H314287   0.504   0.293  10.193  1.7809 -0.0462 -1.9211
    9MPD2     N14288   0.720   0.693  10.205 -0.2110  0.2047 -0.9704
    9MPD2    H514289   0.747   0.771  10.264 -0.3609 -1.7631  1.7094
    9MPD2    N114290   0.592   0.454  10.604  0.1418 -0.0673  0.4247
    9MPD2    H714291   0.550   0.365  10.630  0.7122 -1.5702 -3.7456
    1MPD1     C14292   4.278   4.278  16.494  0.1244 -0.7312  0.6535
    1MPD1    C114293   4.199   4.324  16.395  0.1584 -0.1711 -0.4635
    1MPD1    C214294   4.126   4.235  16.323 -0.3592  0.2848 -0.5584
    1MPD1    C314295   4.106   4.100  16.358 -0.6239 -0.5414  0.4096
    1MPD1    C414296   4.182   4.064  16.465 -0.1713 -0.3366  0.0885
    1MPD1    C514297   4.269   4.150  16.530 -0.3102 -0.2320 -0.3782
    1MPD1     H14298   4.064   4.271  16.242 -2.9012 -2.9198 -0.0488
    1MPD1    H114299   4.182   3.962  16.499  0.4399 -0.6083 -0.7403
    1MPD1    H214300   4.335   4.344  16.558  0.1757  1.2507 -1.4190
    1MPD1    H314301   4.330   4.110  16.609 -0.2223 -1.3956 -1.0281
    1MPD1     N14302   4.017   4.009  16.291 -0.4894  0.0373 -0.0713
    1MPD1    H514303   4.016   3.919  16.337 -1.7905  0.0757 -0.0271
    1MPD1    N114304   4.238   4.458  16.343  0.4637 -0.1603  0.5239
    1MPD1    H614305   4.245   4.529  16.415 -0.7661  2.2677 -1.7454
    1MPD1    H714306   4.165   4.494  16.283 -0.5485 -2.4077  0.3923
    2TMC2    C114307   3.659   3.864  16.037  0.1835  0.0090 -0.3432
    2TMC2    C214308   3.684   3.728  16.078  0.0358 -0.5056 -0.6372
    2TMC2    C314309   3.784   3.706  16.168  0.0755  0.4341 -0.9410
    2TMC2    C414310   3.746   3.961  16.062  0.0583 -0.2878  0.4152
    2TMC2    C514311   3.844   3.938  16.149  0.5268  0.9151  0.2929
    2TMC2    C614312   3.865   3.813  16.199  0.2423 -0.0004  0.1982
    2TMC2     C14313   3.535   3.888  15.961 -0.1887  0.5999  0.1460
    2TMC2     O14314   3.523   3.982  15.882  0.1216 -0.4443 -0.0296
    2TMC2     H14315   3.635   3.641  16.037  0.8203  0.0845 -2.8253
    2TMC2    H114316   3.718   4.061  16.031 -1.2922 -0.5466  0.7842
    2TMC2    H214317   3.962   3.788  16.242  1.0299  0.3957 -1.3222
    2TMC2    C714318   3.939   4.037  16.183  0.4655 -0.5999 -0.3593
    2TMC2    C814319   3.840   3.574  16.178 -0.2922 -0.3517  0.0770
    2TMC2    O114320   3.942   4.133  16.104 -0.6527 -0.3998 -0.2723
    2TMC2    O214321   3.817   3.491  16.091  0.2744 -0.3650 -0.0618
    2TMC2    O514322   3.903   3.560  16.290 -0.4558  0.1557  0.1086
    2TMC2    H514323   3.898   3.638  16.348  1.5131 -0.8744  1.6662
    3MPD1     C14324   3.063   3.710  15.848  0.3881 -0.0402 -0.5347
    3MPD1    C114325   3.130   3.615  15.920  0.5496 -0.0958  0.5752
    3MPD1    C214326   3.253   3.656  15.956  0.0934 -0.9617  0.1304
    3MPD1    C314327   3.314   3.770  15.921 -0.2011 -0.9242 -0.5220
    3MPD1    C414328   3.249   3.858  15.841 -0.2762 -0.2590  0.0049
    3MPD1    C514329   3.119   3.823  15.814 -0.0081  0.2250  0.0881
    3MPD1     H14330   3.314   3.590  16.016  1.5714 -0.2099 -0.5515
    3MPD1    H114331   3.291   3.950  15.803  0.1889 -1.0580 -1.4210
    3MPD1    H214332   2.961   3.690  15.815 -0.4081  0.9669  1.2995
    3MPD1    H314333   3.075   3.888  15.739 -0.5579  1.0883  1.1803
    3MPD1     N14334   3.444   3.783  15.976  0.3749  0.2851 -0.5344
    3MPD1    H514335   3.470   3.712  16.044  1.3142  0.5032 -0.6717
    3MPD1    N114336   3.073   3.513  15.993 -0.2063 -0.0655 -0.2083
    3MPD1    H614337   2.991   3.479  15.943 -0.8203 -0.1505  0.8502
    3MPD1    H714338   3.129   3.437  16.033  0.8756  0.8069 -0.0787
    1TMC1    C114339   3.259   3.815  13.417  0.0027 -0.0165 -0.4191
    1TMC1    C214340   3.144   3.765  13.455 -0.3133  0.2389  0.2940
    1TMC1    C314341   3.042   3.784  13.371  0.9181 -0.4264 -0.0173
    1TMC1    C414342   3.275   3.900  13.314 -0.1735  0.0982  0.5114
    1TMC1    C514343   3.165   3.927  13.235 -0.4794  0.5305  0.7914
    1TMC1    C614344   3.050   3.862  13.259  0.8891 -0.5892 -0.8159
    1TMC1     C14345   3.389   3.796  13.485  0.0513 -0.0938 -0.5465
    1TMC1     O14346   3.485   3.873  13.468  0.3743 -0.1314 -0.1936
    1TMC1     H14347   3.125   3.719  13.552  0.5444 -0.3703  0.1724
    1TMC1    H114348   3.376   3.925  13.285 -0.1128  1.3825  1.7939
    1TMC1    H214349   2.952   3.872  13.213 -0.5349 -3.2160  1.5739
    1TMC1    C714350   3.186   3.948  13.093 -0.6415  0.2905  0.0950
    1TMC1    C814351   2.912   3.771  13.427  0.1591 -0.5401 -0.0114
    1TMC1    O114352   3.263   3.872  13.031 -0.0418  0.2550 -0.3460
    1TMC1    O214353   2.823   3.854  13.401  0.1202  0.9292 -0.3035
    1TMC1    O314354   3.081   4.009  13.045 -0.0845 -0.0599  0.4817
    1TMC1    H314355   3.054   4.091  13.092 -1.0840  0.3400 -0.7966
    1TMC1    O514356   2.888   3.641  13.450 -0.2868  0.1604 -0.4062
    1TMC1    H514357   2.969   3.590  13.470 -0.4747 -0.5708 -1.5002
    2MPD2     C14358   3.646   3.649  13.533  0.0888 -0.8506 -0.0585
    2MPD2    C114359   3.518   3.604  13.568 -0.0358 -0.1920  0.4160
    2MPD2    C214360   3.510   3.491  13.641  0.1898 -0.1910 -0.5445
    2MPD2    C314361   3.621   3.417  13.688  0.3291 -0.3688 -0.2690
    2MPD2    C414362   3.746   3.461  13.645 -0.3295 -0.3941  0.1336
    2MPD2    C514363   3.753   3.577  13.573  0.6238  0.0994 -0.0104
    2MPD2     H14364   3.412   3.457  13.674  0.3352 -1.6938 -1.6772
    2MPD2    H114365   3.840   3.409  13.663  0.7008  0.2897 -3.2258
    2MPD2    H214366   3.659   3.733  13.466  0.0515  0.5439  1.6772
    2MPD2    H314367   3.855   3.604  13.548  1.5574 -1.4039  2.2756
    2MPD2     N14368   3.610   3.307  13.777 -0.6076  0.2039  0.2533
    2MPD2    H514369   3.519   3.267  13.797 -0.9240 -0.4501 -2.5582
    2MPD2    N114370   3.399   3.671  13.539  0.7250 -0.1185  0.0023
    2MPD2    H714371   3.311   3.623  13.552 -0.8957  2.3807 -1.6783
    3TCq1    O114372   3.951   2.986  14.193 -0.1815  0.2718  0.2821
    3TCq1    C114373   3.888   2.892  14.114 -0.2886  0.0724  0.3792
    3TCq1    O214374   3.897   2.773  14.146 -0.2548  0.2553  0.6969
    3TCq1    C214375   3.776   2.950  14.047 -0.0755 -0.2191 -0.2451
    3TCq1    C314376   3.658   2.886  14.026  0.6628 -0.2865  0.5347
    3TCq1    C414377   3.559   2.952  13.952  0.1815  0.3295 -0.3000
    3TCq1    C514378   3.564   3.077  13.907 -0.3503  0.3237 -0.4997
    3TCq1    C614379   3.683   3.137  13.929  0.5735  0.0542  0.4315
    3TCq1    C714380   3.793   3.079  14.000  0.8299  1.0906  0.0838
    3TCq1    C814381   3.715   3.259  13.848 -1.3478 -0.9805  0.3988
    3TCq1    O414382   3.832   3.292  13.848  0.4046 -0.3830  0.1050
    3TCq1    C914383   3.445   2.873  13.930 -0.4538 -0.9259 -0.2557
    3TCq1    O514384   3.335   2.940  13.921 -0.2876 -0.2912  0.2503
    3TCq1    O614385   3.476   2.760  13.893 -0.1910 -0.2293  0.0818
    3TCq1    H114386   3.910   3.076  14.198 -1.7357 -0.3623 -1.1021
    3TCq1    H214387   3.636   2.780  14.038  4.0587 -1.1775 -1.1297
    3TCq1    H314388   3.480   3.115  13.850  0.8331  1.3952 -1.5481
    3TCq1    H414389   3.881   3.141  14.008  1.3253  0.1494  1.8455
    1MPD2     C14390   2.050   3.848  15.206 -0.3459 -0.3159 -0.2856
    1MPD2    C114391   1.961   3.955  15.206 -0.0679 -0.2143 -0.3816
    1MPD2    C214392   1.863   3.944  15.299  0.2736 -0.2447  0.7001
    1MPD2    C314393   1.851   3.829  15.380  0.4660 -0.1238  0.2699
    1MPD2    C414394   1.934   3.725  15.374 -0.2516 -0.0969  0.0166
    1MPD2    C514395   2.043   3.734  15.285 -0.2686 -0.4843 -0.9034
    1MPD2     H14396   1.781   4.015  15.298  0.6455  0.1624 -0.6169
    1MPD2    H114397   1.907   3.632  15.424  0.3606  0.2398  0.9720
    1MPD2    H214398   2.140   3.844  15.145 -1.5217 -0.8258 -2.0035
    1MPD2    H314399   2.122   3.660  15.284 -0.9206 -1.1874  0.0012
    1MPD2     N14400   1.726   3.812  15.452 -0.5217  0.3654  0.0761
    1MPD2    H514401   1.654   3.880  15.429 -0.1805  0.2442 -1.3343
    1MPD2    N114402   1.981   4.056  15.110  0.0200  0.4468 -0.7065
    1MPD2    H714403   2.065   4.058  15.054  1.0643 -3.5919  0.7468
    2TMC3    C114404   1.916   4.262  15.003  0.0423  0.1203 -0.0545
    2TMC3    C214405   1.806   4.346  14.995  0.6571  0.3889 -0.5462
    2TMC3    C314406   1.818   4.480  15.036 -0.7968 -0.1739  0.7228
    2TMC3    C414407   2.042   4.311  15.029  0.0850 -0.1299 -0.3630
    2TMC3    C514408   2.051   4.450  15.051 -0.3875  0.2281  0.1452
    2TMC3    C614409   1.939   4.534  15.066 -0.0453 -0.9028  0.6360
    2TMC3     C14410   1.882   4.147  15.085 -0.3554 -0.7913 -1.3210
    2TMC3     O14411   1.769   4.150  15.125  0.1099 -0.0864 -0.0978
    2TMC3     H14412   1.706   4.308  14.975  0.8651  0.0649 -0.9870
    2TMC3    H114413   2.129   4.250  15.006  1.2571  1.5693 -0.4119
    2TMC3    H214414   1.947   4.637  15.096  0.4194 -1.8972  3.9613
    2TMC3    C714415   2.171   4.516  15.007 -0.6257  0.6852 -0.4462
    2TMC3    C814416   1.702   4.521  15.113  0.4150  0.0864  0.4931
    2TMC3    O114417   2.164   4.634  14.972 -0.0512 -0.5103 -0.4221
    2TMC3    O214418   1.684   4.639  15.146  0.0091  0.0410  0.9188
    3TCq1    O114419   2.944   3.872  15.364  0.1874  0.1249  0.1121
    3TCq1    C114420   2.879   3.965  15.292 -0.7610  0.1201  0.6735
    3TCq1    O214421   2.762   3.960  15.262 -0.0959 -0.1373 -0.0875
    3TCq1    C214422   2.966   4.066  15.236  0.2902  0.0090 -0.1485
    3TCq1    C314423   3.085   4.018  15.175 -0.3239  0.4263  0.0540
    3TCq1    C414424   3.138   4.095  15.075  0.6056 -0.8284 -0.0137
    3TCq1    C514425   3.074   4.207  15.020  0.0241 -0.3393  0.3129
    3TCq1    C614426   2.958   4.248  15.093  0.3686 -0.2943  0.5086
    3TCq1    C714427   2.899   4.171  15.194 -0.1801  0.3436  0.3476
    3TCq1    C814428   2.890   4.364  15.038  0.1038  1.1330  0.9364
    3TCq1    O414429   2.964   4.456  15.002  0.5323  0.4463  0.1094
    3TCq1    C914430   3.268   4.045  15.025  0.3417 -0.6180 -0.5469
    3TCq1    O514431   3.318   3.944  15.080 -0.0726 -0.7882 -0.2179
    3TCq1    O614432   3.321   4.099  14.930  0.2250 -0.1777 -0.1264
    3TCq1    H114433   3.033   3.901  15.396 -0.0256  1.2875 -0.3450
    3TCq1    H214434   3.126   3.919  15.192 -3.5523 -1.2516 -2.0911
    3TCq1    H314435   3.119   4.274  14.947 -0.6094  1.6171  1.7060
    3TCq1    H414436   2.796   4.186  15.224 -0.8461 -0.9624 -1.2581
    4MPD2     C14437   2.687   4.546  14.932 -0.3859 -0.0498  0.4089
    4MPD2    C114438   2.658   4.433  14.999  0.2816 -0.5696  0.9604
    4MPD2    C214439   2.529   4.393  15.027 -0.4537  0.6000 -0.5474
    4MPD2    C314440   2.423   4.481  14.987  0.7584 -0.5249 -0.8156
    4MPD2    C414441   2.454   4.591  14.904 -0.6486 -0.3015 -0.3445
    4MPD2    C514442   2.590   4.623  14.886  0.0278  0.1493  0.4862
    4MPD2     H14443   2.510   4.304  15.085  2.4603  0.7612  0.6635
    4MPD2    H114444   2.377   4.659  14.868  0.7833  1.7416  0.4361
    4MPD2    H214445   2.787   4.577  14.906  0.0825 -2.4813 -0.6844
    4MPD2    H314446   2.628   4.715  14.842 -0.3602 -0.2725 -0.7170
    4MPD2     N14447   2.288   4.445  15.020 -0.0524 -0.2576 -0.2593
    4MPD2    H514448   2.276   4.357  15.071 -2.0562 -0.1373 -0.5254
    4MPD2    N114449   2.755   4.345  15.048  0.8814  0.1527  0.0845
    4MPD2    H714450   2.726   4.250  15.071 -2.9926  1.0798 -0.9999
    5TMC2    C114451   1.447   3.959  15.580  0.4236 -0.5156  0.0016
    5TMC2    C214452   1.339   3.880  15.554  0.0704  0.2363  0.3409
    5TMC2    C314453   1.354   3.747  15.550 -0.0248 -0.5084  0.1216
    5TMC2    C414454   1.566   3.900  15.613  0.2108  0.3475  0.3562
    5TMC2    C514455   1.578   3.765  15.609  0.7215 -0.5695 -0.3139
    5TMC2    C614456   1.471   3.687  15.577 -0.3982  0.1194 -0.6158
    5TMC2     C14457   1.471   4.058  15.481 -0.0702 -0.6749 -0.8522
    5TMC2     O14458   1.543   4.012  15.396 -0.2147 -0.1689  0.7501
    5TMC2     H14459   1.247   3.919  15.513  0.1761 -0.8847 -0.9848
    5TMC2    H114460   1.645   3.973  15.626 -1.5213  2.4489 -0.8366
    5TMC2    H214461   1.490   3.594  15.524  2.2232 -0.9302  2.1894
    5TMC2    C714462   1.701   3.723  15.550 -0.5185 -0.1697 -0.3013
    5TMC2    C814463   1.268   3.669  15.457 -0.0379  0.5602 -0.3206
    5TMC2    O114464   1.764   3.624  15.592 -0.2773 -0.1213  0.6007
    5TMC2    O214465   1.299   3.596  15.370 -0.5103  0.0736  0.3403
    5TMC2    O514466   1.147   3.678  15.503  0.3769 -0.0475  0.1314
    5TMC2    H514467   1.139   3.728  15.587  2.5528 -0.3472  0.5146
    6MPD2     C14468   1.435   4.515  15.263 -0.7554  0.1522 -0.5105
    6MPD2    C114469   1.522   4.411  15.249  0.1316  0.6040  0.2238
    6MPD2    C214470   1.504   4.293  15.320 -0.8012  0.3510  0.0456
    6MPD2    C314471   1.395   4.279  15.406 -0.2258  0.7277  0.9435
    6MPD2    C414472   1.320   4.387  15.430  0.3405  0.2206  0.7106
    6MPD2    C514473   1.331   4.491  15.347 -0.5414 -1.0491 -0.2413
    6MPD2     H14474   1.581   4.220  15.300 -0.5207  1.4172 -2.7709
    6MPD2    H114475   1.239   4.385  15.502  0.1036  0.9703  0.4686
    6MPD2    H214476   1.440   4.608  15.208  0.9417  0.4341  0.1320
    6MPD2    H314477   1.268   4.576  15.368 -0.6323 -0.9657 -0.8413
    6MPD2     N14478   1.381   4.167  15.484  0.0288 -0.0552  0.0989
    6MPD2    H514479   1.324   4.178  15.567 -0.0065  1.4466 -0.1189
    6MPD2    N114480   1.635   4.409  15.162 -0.0582 -0.0624 -0.3123
    6MPD2    H714481   1.679   4.319  15.144  0.4168  0.1309 -0.1038
  945NH4     N114482   3.641   3.245   8.670  0.1241 -0.1283 -0.3492
  945NH4     H214483   3.709   3.167   8.656  1.9524  1.2341  0.9520
  945NH4     H314484   3.679   3.297   8.752  0.4906  0.2954 -0.7901
  945NH4     H414485   3.552   3.199   8.698 -0.7773 -0.3592 -3.5804
  945NH4     H514486   3.631   3.310   8.590  2.6213 -0.4471 -0.9130
  946SOD     NA14487   3.373   4.010  16.845 -0.0447 -0.1153  0.5325
  947SOD     NA14488   3.469   3.930  14.927  0.3722  0.2467  0.0602
  948SOD     NA14489   2.326   0.187  12.577  0.2243 -0.3308 -0.2292
  949SOD     NA14490   0.190   2.293  15.728 -0.3902 -0.1602  0.7496
  950SOD     NA14491   3.342   3.762  12.845  0.1999  0.5351 -0.5733
  951SOD     NA14492   0.292   2.423   7.139 -0.3910  0.0886 -0.6055
  952SOD     NA14493   4.701   0.543  11.715 -0.2707 -0.3805  0.0759
  953SOL     OW14494   1.076   1.799  11.746 -0.7609  0.5287 -0.1271
  953SOL    HW114495   0.981   1.815  11.753 -1.1395 -0.3792 -3.2357
  953SOL    HW214496   1.102   1.792  11.838  0.2734 -1.0812 -0.5435
  954SOL     OW14497   1.396   0.882   3.730 -0.5836 -0.3335  0.3990
  954SOL    HW114498   1.378   0.790   3.751  0.5303 -0.5450  0.4339
  954SOL    HW214499   1.432   0.918   3.811  0.7429  0.7680 -0.6733
  955SOL     OW14500   4.248   0.224  16.580  0.4082  0.0425 -0.0156
  955SOL    HW114501   4.191   0.297  16.554  0.1632 -1.3391 -3.4415
  955SOL    HW214502   4.331   0.269  16.597  0.4245  0.4656 -1.1713
  956SOL     OW14503   1.263   2.076  13.928 -0.4223 -0.1569  0.6410
  956SOL    HW114504   1.250   2.171  13.929  4.4042  0.4935  0.7358
  956SOL    HW214505   1.186   2.048  13.879  2.2424 -1.8415 -2.5794
  957SOL     OW14506   2.846   1.349   6.864 -0.1278  0.3546  0.0775
  957SOL    HW114507   2.938   1.339   6.890 -0.5279 -0.2615  1.2319
  957SOL    HW214508   2.811   1.326   6.950  2.8099  1.9310  1.6928
  958SOL     OW14509   1.119   4.665   2.542 -0.5122  0.0166  0.0623
  958SOL    HW114510   1.153   4.590   2.494 -0.2609 -0.9221  1.6985
  958SOL    HW214511   1.194   4.691   2.596  1.2933 -1.6071 -1.6833
  959SOL     OW14512   4.002   1.976   5.563 -0.6661  0.1987 -0.5094
  959SOL    HW114513   3.967   2.061   5.536 -0.9242  0.3884  0.4075
  959SOL    HW214514   4.094   1.999   5.581 -0.7559 -1.3697  1.9114
  960SOL     OW14515   3.244   0.892   2.409  0.4848 -0.1235 -0.1107
  960SOL    HW114516   3.182   0.858   2.474  0.9884 -0.0799  0.3872
  960SOL    HW214517   3.325   0.847   2.432 -0.2188 -0.0080  2.6267
  961SOL     OW14518   1.477   3.140   8.198 -0.6215 -0.4020  0.0467
  961SOL    HW114519   1.507   3.224   8.163 -0.9062  0.3275  1.5814
  961SOL    HW214520   1.482   3.152   8.292  0.4434  0.1952 -0.0870
  962SOL     OW14521   2.351   1.083   5.529  0.7793  0.2179  0.1938
  962SOL    HW114522   2.423   1.139   5.501 -0.4817  0.7942 -1.8732
  962SOL    HW214523   2.305   1.064   5.448  0.1424 -0.8953  0.8058
  963SOL     OW14524   0.919   3.068   8.387 -0.0135 -0.4811 -0.0030
  963SOL    HW114525   0.854   2.998   8.391 -2.2883  1.6111 -0.6632
  963SOL    HW214526   0.980   3.038   8.455  1.1730  0.6660 -0.5468
  964SOL     OW14527   1.454   0.823  12.158  0.0095  0.7124  0.4776
  964SOL    HW114528   1.408   0.769  12.222  0.6570  0.3727  0.6555
  964SOL    HW214529   1.543   0.792  12.178 -0.4666  0.8846  2.8236
  965SOL     OW14530   1.303   4.582  11.445  0.3423  0.3234 -0.3896
  965SOL    HW114531   1.261   4.534  11.373 -1.2834 -3.3036  3.0277
  965SOL    HW214532   1.285   4.672  11.417  2.5438  0.3034 -1.7984
  966SOL     OW14533   3.163   3.978  15.476  0.2262  0.1052  0.4337
  966SOL    HW114534   3.253   3.946  15.480  0.2370  0.1712  0.6978
  966SOL    HW214535   3.191   4.070  15.469 -3.3006  1.1421 -0.2442
  967SOL     OW14536   1.641   2.394   2.929  0.4023  0.1545 -0.3716
  967SOL    HW114537   1.583   2.394   3.005  1.7313  2.8954  0.6670
  967SOL    HW214538   1.618   2.311   2.888 -0.5933 -0.3360  1.1879
  968SOL     OW14539   0.324   0.783   4.966  0.4716  0.1727 -0.5837
  968SOL    HW114540   0.260   0.781   5.037  1.2619 -0.8947  0.0989
  968SOL    HW214541   0.346   0.690   4.955 -1.6907 -0.0295 -3.3093
  969SOL     OW14542   0.327   1.347  11.076  0.3098  0.1405 -0.1768
  969SOL    HW114543   0.291   1.338  11.165  0.1904  3.0521  0.0786
  969SOL    HW214544   0.375   1.427  11.098  0.6727 -0.5014  1.3449
  970SOL     OW14545   0.274   0.497   5.875  0.4550  0.1081 -0.1447
  970SOL    HW114546   0.186   0.467   5.852  0.3667  0.2908 -0.0455
  970SOL    HW214547   0.257   0.546   5.956 -0.1177 -1.8497  0.9233
  971SOL     OW14548   3.378   3.571   3.296 -0.6737  0.5756  0.0329
  971SOL    HW114549   3.403   3.642   3.236  4.1672 -0.7543  0.4389
  971SOL    HW214550   3.418   3.499   3.247  1.2887  0.9166  1.1073
  972SOL     OW14551   2.999   0.603   5.968  0.0515  0.0249  0.0344
  972SOL    HW114552   2.935   0.537   5.993  1.3070 -0.5832  1.7145
  972SOL    HW214553   2.948   0.683   5.977  1.5540  0.9209  0.6654
  973SOL     OW14554   0.958   2.386   7.149  0.3965  0.0875  0.0561
  973SOL    HW114555   0.908   2.339   7.215 -0.0533 -1.6414 -1.4804
  973SOL    HW214556   0.883   2.387   7.090  1.2841  1.1529 -1.0687
  974SOL     OW14557   3.244   4.060   9.091 -0.3280 -0.8703 -0.7707
  974SOL    HW114558   3.252   4.076   8.997 -1.2806 -0.1214 -0.7267
  974SOL    HW214559   3.222   3.966   9.091 -2.0141 -0.4680 -1.8472
  975SOL     OW14560   0.366   4.717   5.039  0.0646  0.5020  0.4229
  975SOL    HW114561   0.342   4.701   4.948  1.1773 -1.1860  0.4470
  975SOL    HW214562   0.456   0.010   5.024 -0.7230  2.4563 -0.5308
  976SOL     OW14563   1.781   1.255   6.502 -0.1516  0.0496 -0.5116
  976SOL    HW114564   1.859   1.203   6.484 -1.4343 -1.6823 -1.0288
  976SOL    HW214565   1.743   1.219   6.582  1.2496 -0.4560 -0.0866
  977SOL     OW14566   0.311   2.825   5.189  0.4313  0.5990 -0.3982
  977SOL    HW114567   0.290   2.759   5.123 -1.8886 -1.0611  1.9982
  977SOL    HW214568   0.300   2.906   5.138  1.2298  1.3499  0.6152
  978SOL     OW14569   1.845   2.115   1.517 -0.0277  0.0427  0.5074
  978SOL    HW114570   1.801   2.128   1.433  2.1462 -0.2077 -0.6764
  978SOL    HW214571   1.884   2.028   1.508  2.0413  0.9037  0.9380
  979SOL     OW14572   2.845   4.181   3.991 -0.0115 -0.3087 -0.2385
  979SOL    HW114573   2.840   4.270   4.025  0.9587 -0.8526  1.3055
  979SOL    HW214574   2.904   4.139   4.053 -3.2156 -0.1108  2.8921
  980SOL     OW14575   1.847   2.199  11.974  0.5372  0.1392  0.7354
  980SOL    HW114576   1.813   2.185  12.062  1.3279 -2.3759  0.6439
  980SOL    HW214577   1.775   2.257  11.948  1.3055  0.8918  0.2739
  981SOL     OW14578   1.612   0.269   1.214 -0.1906 -0.0980 -0.7049
  981SOL    HW114579   1.681   0.205   1.231  1.1927  1.2490 -1.3227
  981SOL    HW214580   1.655   0.346   1.250 -0.2588  0.0524 -0.9404
  982SOL     OW14581   4.229   0.669   2.021 -0.2610  0.5343  0.7671
  982SOL    HW114582   4.298   0.714   2.069  0.6791  1.4728 -1.4814
  982SOL    HW214583   4.262   0.657   1.932 -1.8425 -0.8155  0.3609
  983SOL     OW14584   2.461   4.557   0.928  0.6652 -0.1812  0.0640
  983SOL    HW114585   2.504   4.494   0.986 -0.8724 -1.1191  0.1961
  983SOL    HW214586   2.384   4.578   0.981  0.6311 -0.0609 -0.0361
  984SOL     OW14587   2.189   2.370   5.021 -0.2374  0.0229  0.8116
  984SOL    HW114588   2.135   2.448   5.008  0.1406  0.2242  0.4770
  984SOL    HW214589   2.172   2.362   5.115 -1.1194 -1.2972  0.5408
  985SOL     OW14590   2.826   0.392   6.042  0.6981  0.2068  0.5456
  985SOL    HW114591   2.807   0.328   6.110  1.3126 -0.2125  0.3191
  985SOL    HW214592   2.763   0.459   6.068 -1.1518 -1.3209  0.0273
  986SOL     OW14593   0.661   4.601  17.240 -0.2852 -0.0473 -0.1897
  986SOL    HW114594   0.669   4.653  17.320 -2.6012 -0.7361  0.5021
  986SOL    HW214595   0.633   4.674  17.184  1.1348  0.0301 -0.7982
  987SOL     OW14596   3.039   0.688   5.275  0.2248  0.5992 -0.4422
  987SOL    HW114597   2.967   0.747   5.254  0.3165  0.3434 -1.4620
  987SOL    HW214598   3.022   0.619   5.211  2.2943 -2.0322  1.8353
  988SOL     OW14599   3.067   1.796   7.254 -0.2412  0.4290  1.3631
  988SOL    HW114600   2.994   1.735   7.248 -0.1857  0.5063  0.0535
  988SOL    HW214601   3.142   1.744   7.227 -0.8808  0.0574  0.3395
  989SOL     OW14602   2.143   1.013  16.770 -0.1269  0.1018  0.1050
  989SOL    HW114603   2.200   1.038  16.843 -0.4328  1.1578 -0.0162
  989SOL    HW214604   2.109   1.098  16.740  1.3161 -0.0294 -1.9407
  990SOL     OW14605   4.428   3.453   5.170 -0.0346 -0.1584 -0.8344
  990SOL    HW114606   4.344   3.407   5.171  0.6472 -1.3996 -0.5392
  990SOL    HW214607   4.456   3.432   5.259  0.3255  0.8196 -0.7178
  991SOL     OW14608   0.303   3.736   7.895 -0.2316 -0.6332 -0.2620
  991SOL    HW114609   0.232   3.672   7.882 -2.6163  2.3689 -1.9412
  991SOL    HW214610   0.369   3.717   7.829  0.5821 -0.3274  0.4576
  992SOL     OW14611   2.584   1.248   5.161  0.1549  0.3433 -0.1435
  992SOL    HW114612   2.568   1.153   5.164  1.3458  0.1359 -0.4999
  992SOL    HW214613   2.656   1.256   5.098  1.0850 -1.4393  0.7012
  993SOL     OW14614   4.454   0.072  13.634  0.1432 -0.1166 -0.3931
  993SOL    HW114615   4.409   4.727  13.656  0.8991 -1.2120 -2.8919
  993SOL    HW214616   4.549   0.060  13.634  0.0633 -0.7372  0.2848
  994SOL     OW14617   2.521   1.412  14.356  0.1315 -0.8155 -0.7949
  994SOL    HW114618   2.459   1.438  14.288 -1.8567 -0.6084  1.0917
  994SOL    HW214619   2.478   1.332  14.387  2.7102 -2.4575 -1.5049
  995SOL     OW14620   3.246   0.525   3.599  0.0363 -0.5876 -0.4041
  995SOL    HW114621   3.269   0.480   3.681 -2.0449  2.4180  1.8254
  995SOL    HW214622   3.314   0.507   3.534  1.3995 -0.6588  1.0511
  996SOL     OW14623   2.619   3.921   2.576  0.4691 -0.7451  0.0631
  996SOL    HW114624   2.601   3.875   2.493 -0.0672  1.8995 -1.2959
  996SOL    HW214625   2.600   3.852   2.639 -0.9201 -1.0303 -0.6751
  997SOL     OW14626   1.331   0.803   4.865 -0.5304 -0.1849  0.2390
  997SOL    HW114627   1.418   0.806   4.903 -0.5584  1.1981  0.1639
  997SOL    HW214628   1.278   0.832   4.939  2.1461 -0.1482  2.1129
  998SOL     OW14629   2.385   4.356  11.272 -0.0018  0.0155 -0.3784
  998SOL    HW114630   2.296   4.392  11.265  0.0352 -0.0179 -1.0050
  998SOL    HW214631   2.414   4.385  11.186  0.2954  0.7225 -0.0427
  999SOL     OW14632   3.111   1.754   2.651 -0.1202 -0.5302 -0.6842
  999SOL    HW114633   3.193   1.792   2.682  0.3304 -1.7093 -0.4497
  999SOL    HW214634   3.102   1.780   2.559 -1.8433  0.0841 -0.3380
 1000SOL     OW14635   2.226   2.795   0.400 -0.3731 -0.2344 -0.3086
 1000SOL    HW114636   2.310   2.751   0.388 -0.5729 -0.5331 -0.6145
 1000SOL    HW214637   2.210   2.778   0.493 -1.6927 -1.3234 -0.7310
 1001SOL     OW14638   2.049   3.830   6.203  0.1479 -0.5583  0.2307
 1001SOL    HW114639   2.081   3.798   6.119  1.5989  1.6415 -0.0595
 1001SOL    HW214640   1.969   3.872   6.173  0.7012 -0.3863 -1.0034
 1002SOL     OW14641   1.964   1.378   8.485 -0.0054  0.8871 -0.2446
 1002SOL    HW114642   1.951   1.473   8.475 -0.3287  0.9562  0.7705
 1002SOL    HW214643   1.939   1.376   8.578 -1.0621 -0.2104 -0.5512
 1003SOL     OW14644   2.341   0.270   6.099  0.1620 -0.0847  0.4127
 1003SOL    HW114645   2.398   0.340   6.130 -1.0267  0.0478  2.3006
 1003SOL    HW214646   2.402   0.208   6.059 -0.1938 -0.4552  0.4337
 1004SOL     OW14647   2.708   0.029   1.913  0.1534  0.1204 -0.1403
 1004SOL    HW114648   2.714   0.123   1.896  3.2560 -0.4543 -2.0853
 1004SOL    HW214649   2.622   0.014   1.873  0.4074 -1.2956 -0.1469
 1005SOL     OW14650   3.539   3.176   1.033  0.4115 -0.2725 -0.5619
 1005SOL    HW114651   3.608   3.231   1.069  0.3681  0.9052 -2.3137
 1005SOL    HW214652   3.482   3.166   1.110 -1.6216  2.1100 -1.7577
 1006SOL     OW14653   0.684   3.026   6.778 -0.3537  0.4482 -0.1863
 1006SOL    HW114654   0.645   3.006   6.693 -1.0843  2.4544 -0.3101
 1006SOL    HW214655   0.739   2.947   6.778  0.7988  1.2540  1.0601
 1007SOL     OW14656   3.382   2.850  12.384  0.1568 -0.9224 -0.5269
 1007SOL    HW114657   3.425   2.933  12.361 -1.4180  0.5289  1.7102
 1007SOL    HW214658   3.293   2.859  12.349 -0.3622  0.1455  1.0894
 1008SOL     OW14659   2.887   1.960   3.653 -0.0488  0.0746 -0.4368
 1008SOL    HW114660   2.936   2.011   3.588  1.3584 -0.4384  0.2044
 1008SOL    HW214661   2.873   2.024   3.723 -0.1455 -0.6526  0.2065
 1009SOL     OW14662   1.073   2.667   1.679  0.1071 -0.4094  0.4001
 1009SOL    HW114663   1.034   2.587   1.643 -2.7834  1.3925 -0.4846
 1009SOL    HW214664   1.075   2.629   1.766  1.2406 -2.5624 -0.5702
 1010SOL     OW14665   2.210   0.431   0.088 -0.2962  0.5880 -0.7664
 1010SOL    HW114666   2.262   0.361   0.048  0.3288  0.1758  0.7570
 1010SOL    HW214667   2.274   0.499   0.109 -0.3626  0.2951  0.4047
 1011SOL     OW14668   1.972   2.467  14.609 -0.2533  0.1137 -0.3864
 1011SOL    HW114669   1.940   2.532  14.547 -1.6944 -0.1728  0.0443
 1011SOL    HW214670   1.912   2.396  14.588  1.4962 -1.2417 -0.8320
 1012SOL     OW14671   2.846   4.288   4.959 -0.1052  0.3401 -0.0206
 1012SOL    HW114672   2.884   4.354   5.018  1.1366 -0.1328 -0.2966
 1012SOL    HW214673   2.922   4.242   4.924  0.0974  1.9040 -1.6322
 1013SOL     OW14674   3.125   0.892   6.202  0.1663  0.3606  0.3989
 1013SOL    HW114675   3.053   0.831   6.188  0.4110  0.4274 -1.1401
 1013SOL    HW214676   3.120   0.893   6.297  0.8135  0.3288  0.4290
 1014SOL     OW14677   0.808   4.472   8.267 -0.1876  0.3054  0.5425
 1014SOL    HW114678   0.859   4.454   8.188  0.7457 -1.3063  1.5056
 1014SOL    HW214679   0.760   4.548   8.234  1.3572  1.7033  1.5091
 1015SOL     OW14680   2.648   3.556   5.052 -0.3916 -0.2586 -0.1831
 1015SOL    HW114681   2.597   3.565   4.972 -1.2544 -1.7327  0.2038
 1015SOL    HW214682   2.648   3.647   5.082  0.9543  0.2432 -1.7161
 1016SOL     OW14683   0.954   3.237   7.237  0.6649  0.4767 -0.1427
 1016SOL    HW114684   0.920   3.206   7.321  0.0520 -0.9140 -0.9000
 1016SOL    HW214685   0.994   3.156   7.206  1.0335  0.4905  0.3020
 1017SOL     OW14686   3.664   3.373  15.247  0.0356 -0.3699 -0.1641
 1017SOL    HW114687   3.749   3.333  15.230 -1.1810 -2.5330 -1.1813
 1017SOL    HW214688   3.681   3.467  15.251 -2.3651  0.0445  0.7000
 1018SOL     OW14689   0.572   2.882   2.075  0.4474  0.1165 -0.4557
 1018SOL    HW114690   0.602   2.973   2.083 -1.0087  0.7405 -2.0480
 1018SOL    HW214691   0.545   2.861   2.165  0.7041 -0.1631 -0.4464
 1019SOL     OW14692   0.591   0.740   7.031 -0.4449 -0.1706  0.3194
 1019SOL    HW114693   0.609   0.763   6.939 -0.4300 -2.9214 -0.3821
 1019SOL    HW214694   0.564   0.648   7.026  0.7178 -0.4981  0.0826
 1020SOL     OW14695   2.337   2.639   8.568  0.1512 -0.4146  0.5581
 1020SOL    HW114696   2.366   2.603   8.652  0.1781  0.6623  1.0058
 1020SOL    HW214697   2.377   2.575   8.509 -0.5748 -0.7893  0.4721
 1021SOL     OW14698   1.271   2.380   1.962  0.4132  0.2318 -0.3854
 1021SOL    HW114699   1.224   2.328   1.897 -1.5340 -0.2571  1.4283
 1021SOL    HW214700   1.206   2.448   1.981  0.6708 -0.0376  1.4473
 1022SOL     OW14701   2.718   3.647   3.689 -0.4378 -0.1765  0.3889
 1022SOL    HW114702   2.636   3.631   3.737 -2.1234  0.7023 -2.1594
 1022SOL    HW214703   2.674   3.663   3.605 -0.9978  0.3512  0.7780
 1023SOL     OW14704   3.722   1.362   8.728 -0.3285  0.0887  0.0607
 1023SOL    HW114705   3.723   1.334   8.636  1.8431  1.2382 -0.2798
 1023SOL    HW214706   3.767   1.291   8.774 -0.5067  0.7370  1.2149
 1024SOL     OW14707   1.960   1.885   6.750 -0.3612 -0.3348 -0.2266
 1024SOL    HW114708   1.947   1.954   6.815 -0.2756 -0.4984 -0.0360
 1024SOL    HW214709   2.014   1.827   6.804  0.3088  1.6790  1.2579
 1025SOL     OW14710   0.493   4.405   2.075 -0.1166 -0.6529 -0.0279
 1025SOL    HW114711   0.585   4.428   2.077 -0.6867  1.5745  1.6165
 1025SOL    HW214712   0.467   4.417   1.984  0.3974  0.3505 -0.0425
 1026SOL     OW14713   3.250   2.108   5.580  0.2941 -0.5531  0.4218
 1026SOL    HW114714   3.325   2.101   5.639  0.8783  3.0280  0.0663
 1026SOL    HW214715   3.285   2.135   5.495  1.0318  0.5348  1.0704
 1027SOL     OW14716   3.638   1.283   7.790 -0.2987 -0.1591 -0.2511
 1027SOL    HW114717   3.611   1.191   7.778  1.6192 -0.7096 -0.4091
 1027SOL    HW214718   3.587   1.305   7.868 -0.0277  1.9082 -0.6769
 1028SOL     OW14719   2.677   3.449  16.933  0.4010  0.3656 -0.1466
 1028SOL    HW114720   2.751   3.455  16.994  1.0350 -2.7664 -0.6170
 1028SOL    HW214721   2.683   3.538  16.897  0.5966 -1.1335 -3.8942
 1029SOL     OW14722   4.546   4.323   0.080  0.1502  0.5942 -0.4540
 1029SOL    HW114723   4.607   4.260   0.119 -0.4073 -1.2803 -2.5767
 1029SOL    HW214724   4.602   4.397   0.059  2.0075 -0.6170  0.2237
 1030SOL     OW14725   3.579   1.234   8.464  0.4126  0.6830  0.4824
 1030SOL    HW114726   3.525   1.189   8.529  1.8779  2.5120  2.9718
 1030SOL    HW214727   3.659   1.183   8.479 -1.1425 -1.9558 -0.1396
 1031SOL     OW14728   3.594   1.072   2.391 -0.5257 -0.3779 -0.2250
 1031SOL    HW114729   3.616   1.128   2.465 -0.0161 -0.7252 -0.1176
 1031SOL    HW214730   3.677   1.084   2.344 -0.9516  2.9095 -0.1769
 1032SOL     OW14731   3.796   2.408  10.051 -0.4356 -0.8251  0.1145
 1032SOL    HW114732   3.757   2.489  10.086 -1.5949  0.4416 -4.0667
 1032SOL    HW214733   3.868   2.440   9.997 -0.3796  0.0934  0.7298
 1033SOL     OW14734   2.411   1.807   3.457 -0.0431 -0.1256  0.1149
 1033SOL    HW114735   2.463   1.735   3.492 -1.3867 -1.4684 -0.6135
 1033SOL    HW214736   2.397   1.859   3.536 -0.7741 -2.6559  1.6483
 1034SOL     OW14737   0.380   0.030   8.748 -0.1140  0.3860  0.2692
 1034SOL    HW114738   0.291   0.060   8.768 -0.2728  0.2093 -0.1872
 1034SOL    HW214739   0.417   0.095   8.689  2.7441 -0.3519  1.2292
 1035SOL     OW14740   0.391   4.154   4.716 -0.8255 -0.3442 -0.1860
 1035SOL    HW114741   0.344   4.162   4.799 -2.6582 -1.8370 -1.1033
 1035SOL    HW214742   0.381   4.063   4.689  0.0343 -0.8986  1.3334
 1036SOL     OW14743   3.619   3.366   4.999 -0.0458 -0.8269 -0.3130
 1036SOL    HW114744   3.670   3.379   4.918 -1.5093  1.6719 -0.8411
 1036SOL    HW214745   3.541   3.329   4.957  0.0066 -1.0563 -0.2063
 1037SOL     OW14746   0.972   4.475   6.068 -0.2755  0.0696 -0.2890
 1037SOL    HW114747   0.933   4.551   6.026  1.0855  1.1642  0.4133
 1037SOL    HW214748   1.063   4.490   6.096  0.7295 -2.5719 -2.1166
 1038SOL     OW14749   1.431   1.436   3.934  0.0647  0.4936  0.7388
 1038SOL    HW114750   1.378   1.377   3.880  0.0118  1.5957 -0.4275
 1038SOL    HW214751   1.379   1.512   3.906  0.1271  0.0043 -0.6978
 1039SOL     OW14752   2.562   3.065   3.687  0.0974 -0.1397 -0.6864
 1039SOL    HW114753   2.542   3.014   3.609  0.4749  2.0935 -2.2230
 1039SOL    HW214754   2.490   3.128   3.678  0.7298  0.7511  0.5279
 1040SOL     OW14755   1.618   3.456   5.256 -0.3210  0.1276 -0.3313
 1040SOL    HW114756   1.652   3.366   5.259  3.0282  1.4898  1.9805
 1040SOL    HW214757   1.661   3.491   5.333  0.8935 -0.6190 -0.6710
 1041SOL     OW14758   1.344   0.538   1.957 -0.4756 -0.2858  0.5952
 1041SOL    HW114759   1.372   0.627   1.979  1.2892 -0.6522 -0.1533
 1041SOL    HW214760   1.277   0.567   1.895  1.2506  0.6548 -0.8483
 1042SOL     OW14761   1.746   1.120   1.573 -0.2454 -0.3992  0.0351
 1042SOL    HW114762   1.737   1.181   1.500  0.2209  0.0891  0.3867
 1042SOL    HW214763   1.693   1.156   1.644  0.0126 -1.2598  0.6604
 1043SOL     OW14764   1.420   3.719   8.240 -0.6089  0.4078 -0.2478
 1043SOL    HW114765   1.502   3.764   8.222 -0.3682 -0.2016 -0.6684
 1043SOL    HW214766   1.396   3.752   8.326 -1.4768 -0.1120 -0.2881
 1044SOL     OW14767   3.968   3.124   3.067  0.2896  0.8736  0.3301
 1044SOL    HW114768   4.048   3.082   3.099 -1.5093 -0.9168  2.5438
 1044SOL    HW214769   3.907   3.095   3.136 -0.1545  0.6273 -0.1638
 1045SOL     OW14770   0.473   4.637  13.233 -0.1368  0.2538 -0.3260
 1045SOL    HW114771   0.404   4.653  13.297 -0.2778 -0.0690 -0.3980
 1045SOL    HW214772   0.540   4.606  13.293 -1.1099  0.9825  1.1327
 1046SOL     OW14773   2.198   0.915   1.708  0.6684 -0.2015  0.6025
 1046SOL    HW114774   2.134   0.853   1.744  1.7377 -1.7382 -0.1731
 1046SOL    HW214775   2.141   0.992   1.701 -0.9853 -1.6554 -1.9771
 1047SOL     OW14776   0.908   2.961  17.249 -0.1580 -0.2246  0.5877
 1047SOL    HW114777   0.852   3.031  17.281 -0.9274 -0.3301 -0.5494
 1047SOL    HW214778   0.977   3.010  17.204  0.3698  0.2054  1.8475
 1048SOL     OW14779   1.932   2.411   4.725  0.1644 -0.4748  0.4218
 1048SOL    HW114780   1.945   2.365   4.808 -0.6707  0.3447  1.0164
 1048SOL    HW214781   1.973   2.354   4.660  3.0112  0.8271  1.0504
 1049SOL     OW14782   1.479   1.254  13.448  0.0039 -0.4958 -0.3979
 1049SOL    HW114783   1.488   1.317  13.520 -1.7540 -1.6490  0.8399
 1049SOL    HW214784   1.570   1.224  13.441  0.5198  1.0415 -0.1850
 1050SOL     OW14785   2.877   3.726  14.517  0.3096  0.6541  0.0590
 1050SOL    HW114786   2.861   3.631  14.514 -1.4113  0.8712  1.9534
 1050SOL    HW214787   2.788   3.754  14.537  0.5410  0.0985  1.8797
 1051SOL     OW14788   4.006   2.100   8.019  0.2628  0.1898  0.0710
 1051SOL    HW114789   3.992   2.010   8.047  0.5380  0.0894 -0.1172
 1051SOL    HW214790   4.080   2.118   8.076  0.0265  3.2426 -0.5495
 1052SOL     OW14791   1.091   3.855   6.176  0.5399 -0.0977  0.1427
 1052SOL    HW114792   1.061   3.862   6.267 -0.8478 -0.5763 -0.2861
 1052SOL    HW214793   1.054   3.770   6.153 -2.1594  1.7197 -2.1053
 1053SOL     OW14794   3.640   0.913  15.792  0.2529 -0.2965  0.6139
 1053SOL    HW114795   3.644   0.937  15.700  0.7732  0.3679  0.8092
 1053SOL    HW214796   3.730   0.931  15.820  0.0997 -0.1713  1.0308
 1054SOL     OW14797   0.409   2.311  13.485  0.3636 -0.1628  0.5414
 1054SOL    HW114798   0.365   2.345  13.564  1.2223 -2.4183  2.0022
 1054SOL    HW214799   0.470   2.383  13.472  0.1508  0.0520  0.7247
 1055SOL     OW14800   0.234   3.388  16.288 -0.8234  0.5798  0.1842
 1055SOL    HW114801   0.279   3.437  16.358  0.9734  0.0900 -0.6336
 1055SOL    HW214802   0.282   3.412  16.209  0.4633  3.3485  1.7902
 1056SOL     OW14803   3.048   4.430   6.800 -0.2156 -0.0857  0.0587
 1056SOL    HW114804   3.054   4.341   6.835 -1.2978  0.4182  1.5239
 1056SOL    HW214805   3.133   4.438   6.758  0.7128 -3.6397  1.2508
 1057SOL     OW14806   0.860   4.014   5.279 -0.3485 -0.4433 -0.5191
 1057SOL    HW114807   0.855   3.919   5.286  3.4855 -0.6260 -0.0361
 1057SOL    HW214808   0.804   4.042   5.351  3.2491 -0.6334  2.3646
 1058SOL     OW14809   2.418   4.413  15.372 -0.6395  0.1133 -0.2906
 1058SOL    HW114810   2.350   4.347  15.356  0.0256 -0.6150 -0.0989
 1058SOL    HW214811   2.410   4.419  15.467  3.0501  0.8082 -0.0451
 1059SOL     OW14812   0.347   3.050   8.372 -0.2990  0.6022  0.2532
 1059SOL    HW114813   0.423   3.105   8.353 -1.1910  2.2544  1.4188
 1059SOL    HW214814   0.293   3.053   8.293  2.6197 -2.6786 -1.8290
 1060SOL     OW14815   2.589   2.926   3.917 -0.1459 -0.0962  0.0706
 1060SOL    HW114816   2.595   2.995   3.983  0.8240 -0.7582  0.6727
 1060SOL    HW214817   2.572   2.990   3.847 -0.5524 -0.5271 -0.2178
 1061SOL     OW14818   1.239   1.624   9.088 -0.1563  0.0314  0.3298
 1061SOL    HW114819   1.240   1.678   9.009  0.1145  2.5464  2.0251
 1061SOL    HW214820   1.320   1.574   9.076  0.0278 -0.1105  2.1182
 1062SOL     OW14821   2.839   1.803   8.004 -0.0660 -0.2887 -0.3533
 1062SOL    HW114822   2.876   1.853   8.078 -1.8932 -0.4891  0.6953
 1062SOL    HW214823   2.917   1.783   7.953  0.1988  0.0798 -0.0992
 1063SOL     OW14824   1.680   2.325   4.649 -0.6083 -0.3482  0.5092
 1063SOL    HW114825   1.679   2.335   4.554 -0.8810 -0.7283  0.4746
 1063SOL    HW214826   1.768   2.357   4.672 -0.5511  0.4957 -0.8957
 1064SOL     OW14827   2.414   2.850   8.164  0.0906  0.4868  0.8409
 1064SOL    HW114828   2.476   2.897   8.220  0.4273 -0.3430  1.1671
 1064SOL    HW214829   2.479   2.799   8.115 -2.4695 -2.0006 -0.0077
 1065SOL     OW14830   2.729   0.448   5.653  0.5373  0.2502 -0.6906
 1065SOL    HW114831   2.749   0.378   5.716  0.8698  0.7446 -0.2460
 1065SOL    HW214832   2.644   0.414   5.628  0.5178 -0.7386  0.7201
 1066SOL     OW14833   3.567   3.955   1.656  0.6311  0.3825 -0.0128
 1066SOL    HW114834   3.561   3.904   1.736  1.5464  0.0375 -0.1620
 1066SOL    HW214835   3.609   4.039   1.674 -0.7259  0.7845  1.2401
 1067SOL     OW14836   2.741   3.687   5.881 -0.4034  0.5182  0.0501
 1067SOL    HW114837   2.686   3.736   5.820 -0.2793  0.2108 -0.3034
 1067SOL    HW214838   2.726   3.597   5.851  0.8630  0.5043 -0.5017
 1068SOL     OW14839   3.853   3.550  13.980 -0.4806  0.0911 -0.2082
 1068SOL    HW114840   3.816   3.473  13.935  0.6209 -0.6245  0.0928
 1068SOL    HW214841   3.921   3.564  13.914 -1.4665  3.2553 -0.5233
 1069SOL     OW14842   2.570   2.414   3.882 -0.3733  0.4944 -0.2477
 1069SOL    HW114843   2.524   2.367   3.952 -1.9562  0.5911 -1.2236
 1069SOL    HW214844   2.527   2.500   3.877 -1.3331  0.1207  1.2467
 1070SOL     OW14845   3.664   1.992   5.523 -0.6935 -0.1329  0.5713
 1070SOL    HW114846   3.580   2.033   5.501 -0.6002 -0.6685 -0.7679
 1070SOL    HW214847   3.696   2.022   5.608 -3.2146 -0.6110  1.6667
 1071SOL     OW14848   0.870   3.780  11.543  0.4156  0.3439  0.1524
 1071SOL    HW114849   0.896   3.872  11.548  0.3274  0.4037 -0.5698
 1071SOL    HW214850   0.941   3.736  11.590 -0.5611 -0.7557  0.5972
 1072SOL     OW14851   1.237   1.721   8.440 -0.1061 -0.0912  0.2433
 1072SOL    HW114852   1.264   1.717   8.531  0.9225 -0.6858 -0.0929
 1072SOL    HW214853   1.248   1.631   8.410 -0.9855  0.0863 -0.6381
 1073SOL     OW14854   3.050   3.335   5.996  0.0156  0.5358 -0.2269
 1073SOL    HW114855   3.133   3.304   6.030 -0.0505  1.1006  0.4552
 1073SOL    HW214856   3.056   3.430   6.002  0.8387  0.3507  2.0023
 1074SOL     OW14857   4.239   4.279   2.737 -0.0845  0.5404 -0.3239
 1074SOL    HW114858   4.325   4.299   2.699  1.0419 -1.1118  1.3508
 1074SOL    HW214859   4.274   4.191   2.754  0.1543  0.3740 -1.6881
 1075SOL     OW14860   3.104   3.257   5.697 -0.5861  0.2083  0.7320
 1075SOL    HW114861   3.122   3.178   5.747  1.0536 -0.4265 -0.8604
 1075SOL    HW214862   3.080   3.316   5.769  0.9522  2.9730 -1.0045
 1076SOL     OW14863   0.655   3.830  13.411  0.1162 -0.1851 -0.4090
 1076SOL    HW114864   0.585   3.857  13.469 -1.8434 -0.9936 -2.3865
 1076SOL    HW214865   0.704   3.910  13.391 -0.2772 -0.0501 -0.8254
 1077SOL     OW14866   1.003   1.015  12.627 -0.1937  0.0803  0.3903
 1077SOL    HW114867   1.008   0.940  12.568  1.8145  0.4855  0.0265
 1077SOL    HW214868   1.098   1.014  12.642  0.0094  1.9935 -0.7912
 1078SOL     OW14869   3.693   1.183   9.459 -0.0261 -0.1036  0.1075
 1078SOL    HW114870   3.681   1.111   9.522 -0.8681 -0.2832 -0.2572
 1078SOL    HW214871   3.756   1.235   9.509 -1.3326  0.6044  1.0493
 1079SOL     OW14872   0.119   3.533   4.640 -0.0623 -0.3846 -0.2014
 1079SOL    HW114873   0.142   3.442   4.623 -0.3916 -0.2301 -1.4834
 1079SOL    HW214874   0.203   3.555   4.679 -0.9694  2.4214  0.1537
 1080SOL     OW14875   2.548   0.450   1.442  0.0903  0.2339  0.1577
 1080SOL    HW114876   2.555   0.487   1.529 -0.0193  0.2357  0.1661
 1080SOL    HW214877   2.573   0.523   1.386 -1.6718  0.0779 -0.8461
 1081SOL     OW14878   4.117   2.173  13.867  0.2020  0.5225  0.1597
 1081SOL    HW114879   4.117   2.106  13.935  0.9025  1.7722  1.3932
 1081SOL    HW214880   4.209   2.201  13.871  0.6156 -0.6178 -1.2258
 1082SOL     OW14881   3.195   1.334   2.025 -0.4182 -0.3281  0.4024
 1082SOL    HW114882   3.265   1.312   2.085  0.5319  2.1062  0.1859
 1082SOL    HW214883   3.203   1.269   1.955  3.3430  1.3261 -0.6823
 1083SOL     OW14884   1.525   0.819   9.550 -0.3298  0.2191 -0.1074
 1083SOL    HW114885   1.464   0.839   9.479 -0.4014  0.1518 -0.0642
 1083SOL    HW214886   1.569   0.904   9.553  0.4691 -0.1616 -1.3170
 1084SOL     OW14887   0.202   2.011   4.899  0.0002 -0.3567  0.7479
 1084SOL    HW114888   0.177   1.920   4.885  0.3231 -0.6379  1.9897
 1084SOL    HW214889   0.190   2.035   4.991  0.3597 -0.4352  0.8178
 1085SOL     OW14890   1.899   3.478   3.138 -0.1171 -0.1266 -0.3856
 1085SOL    HW114891   1.824   3.426   3.168 -1.2015  1.4586 -0.3779
 1085SOL    HW214892   1.962   3.409   3.160 -0.5750 -0.4227 -0.0094
 1086SOL     OW14893   0.132   2.573  11.246 -0.0080  0.2789  0.0596
 1086SOL    HW114894   0.105   2.582  11.338  0.2921  4.0741 -0.2345
 1086SOL    HW214895   0.220   2.535  11.248 -1.4562 -3.0717 -0.1114
 1087SOL     OW14896   3.365   1.176   7.565  1.0652  0.2651  0.8316
 1087SOL    HW114897   3.385   1.268   7.582 -0.1673  0.8427 -0.8802
 1087SOL    HW214898   3.323   1.148   7.646 -1.0205  2.0287  0.3653
 1088SOL     OW14899   3.375   2.940   9.533 -0.3677 -0.3037 -0.0644
 1088SOL    HW114900   3.384   2.870   9.468 -3.2833 -0.3113 -0.4560
 1088SOL    HW214901   3.309   2.898   9.588 -1.9709  0.4928 -1.3760
 1089SOL     OW14902   1.559   0.882   4.996  0.5779  0.1337  0.2149
 1089SOL    HW114903   1.537   0.963   5.042  1.0450  0.5842 -0.3695
 1089SOL    HW214904   1.655   0.887   4.993  0.3574  3.7684 -0.6102
 1090SOL     OW14905   1.475   1.188   4.503  0.3800 -0.2029  0.2232
 1090SOL    HW114906   1.498   1.155   4.416  1.2765  0.4498  0.2109
 1090SOL    HW214907   1.444   1.108   4.544 -1.3584  1.5893  2.3768
 1091SOL     OW14908   0.574   3.221   5.132 -0.5604  0.4781  0.6874
 1091SOL    HW114909   0.544   3.142   5.176  0.8163 -0.9435 -0.9086
 1091SOL    HW214910   0.494   3.272   5.118 -0.7835  0.0064  0.2417
 1092SOL     OW14911   3.681   0.818  11.820 -0.0584  0.1215  0.1546
 1092SOL    HW114912   3.669   0.738  11.769 -2.3121  1.2853 -1.1899
 1092SOL    HW214913   3.738   0.781  11.887 -0.3853 -0.3497  0.1679
 1093SOL     OW14914   3.782   3.945   0.724 -0.3074 -0.0723 -0.3113
 1093SOL    HW114915   3.712   3.972   0.664 -0.4709  0.9764  0.3456
 1093SOL    HW214916   3.831   3.889   0.665  0.0062 -1.2131  1.0256
 1094SOL     OW14917   3.053   2.338  14.355  0.5671 -0.5200  0.2897
 1094SOL    HW114918   2.992   2.401  14.316  1.2662 -0.3979 -0.5993
 1094SOL    HW214919   3.004   2.262  14.325  0.5600 -0.9401  1.3654
 1095SOL     OW14920   0.031   4.430   6.922 -0.4543  0.3054 -0.0342
 1095SOL    HW114921   0.120   4.418   6.955  0.0329 -0.7445 -1.7352
 1095SOL    HW214922   4.712   4.382   6.985 -0.9806  0.3430 -0.4643
 1096SOL     OW14923   1.061   2.101   7.892 -0.7411 -0.1464  0.9073
 1096SOL    HW114924   1.052   2.161   7.818 -1.6553  0.2547  1.3584
 1096SOL    HW214925   1.017   2.137   7.968 -0.7491  1.1016  0.3008
 1097SOL     OW14926   4.240   1.736  13.161  0.0322 -0.2309  0.7394
 1097SOL    HW114927   4.327   1.697  13.169  0.2261 -0.2239 -1.4144
 1097SOL    HW214928   4.193   1.676  13.219  1.0244 -0.6302  1.1214
 1098SOL     OW14929   3.712   0.948   8.984  0.2280 -0.4611  0.9416
 1098SOL    HW114930   3.696   0.959   9.078  1.6349 -2.9918  1.4846
 1098SOL    HW214931   3.624   0.976   8.959  0.6071  0.6299  0.8197
 1099SOL     OW14932   2.261   4.676   8.064  0.4288 -0.6050  0.4076
 1099SOL    HW114933   2.354   4.694   8.045 -0.1379  1.8844 -0.0542
 1099SOL    HW214934   2.265   4.583   8.087  1.4753 -0.5648  0.4285
 1100SOL     OW14935   0.376   2.022   7.443 -0.2025 -0.3421  0.4805
 1100SOL    HW114936   0.456   2.001   7.393 -0.1555  1.3254 -0.1535
 1100SOL    HW214937   0.304   1.990   7.389 -0.6074  0.9915  0.2291
 1101SOL     OW14938   3.006   0.405  10.419 -0.0939 -0.4242 -0.5760
 1101SOL    HW114939   2.987   0.399  10.513 -0.2707 -1.7764 -0.6992
 1101SOL    HW214940   3.082   0.461  10.431  0.4988 -1.3480 -0.0859
 1102SOL     OW14941   2.483   3.637   4.300 -0.1048 -0.0732 -0.3551
 1102SOL    HW114942   2.410   3.689   4.268 -2.0783 -1.8207  1.2241
 1102SOL    HW214943   2.437   3.579   4.362 -0.6994  1.1654  0.3533
 1103SOL     OW14944   1.281   4.734   6.259  0.9485  0.1019  0.3605
 1103SOL    HW114945   1.206   0.053   6.281  2.9547  1.7337  3.1134
 1103SOL    HW214946   1.296   4.696   6.345 -1.2398  0.6135  0.9609
 1104SOL     OW14947   1.213   1.657   3.956 -0.4691  0.0374 -0.2381
 1104SOL    HW114948   1.185   1.734   3.906  0.2323  0.6926  0.3809
 1104SOL    HW214949   1.128   1.614   3.956 -1.2216  1.5362 -0.1683
 1105SOL     OW14950   3.303   4.096  17.440  0.8863 -1.3758 -0.1004
 1105SOL    HW114951   3.241   4.026  17.459  0.5726 -1.1479 -0.2816
 1105SOL    HW214952   3.285   4.102  17.347 -1.2821 -3.7532  0.1709
 1106SOL     OW14953   2.559   3.047   0.363 -0.2216 -0.5119  0.4094
 1106SOL    HW114954   2.619   3.022   0.434  0.6734  0.3063 -0.0578
 1106SOL    HW214955   2.622   3.078   0.298  1.1258 -2.0674  0.9502
 1107SOL     OW14956   0.189   1.803  11.861 -0.2346 -0.2582 -0.2567
 1107SOL    HW114957   0.224   1.853  11.934 -1.7731  2.2661 -1.2383
 1107SOL    HW214958   0.266   1.810  11.804  0.3030  0.0452  0.5129
 1108SOL     OW14959   3.710   3.112   1.953 -0.0716  0.1483 -0.0831
 1108SOL    HW114960   3.795   3.073   1.970  0.0457  0.1466 -0.6763
 1108SOL    HW214961   3.657   3.082   2.028 -0.2274 -1.2176 -0.7337
 1109SOL     OW14962   2.007   1.046  15.830 -0.5614  0.4663  0.8384
 1109SOL    HW114963   2.102   1.036  15.836 -0.7077 -1.4278  0.0291
 1109SOL    HW214964   1.986   1.135  15.858 -1.6485 -0.0039  1.5074
 1110SOL     OW14965   4.705   1.650   0.876 -0.1161 -0.6582  0.1812
 1110SOL    HW114966   4.710   1.707   0.800  0.6080 -0.0532  0.6800
 1110SOL    HW214967   0.045   1.687   0.921 -0.1443  1.7927 -1.7994
 1111SOL     OW14968   1.792   2.641   3.460 -0.0427 -0.5630 -0.3173
 1111SOL    HW114969   1.880   2.678   3.467 -0.4402  0.3370 -0.0661
 1111SOL    HW214970   1.814   2.553   3.430  0.1747 -0.1503 -1.3565
 1112SOL     OW14971   0.665   3.487   8.807  0.3942 -0.0124  0.3053
 1112SOL    HW114972   0.705   3.441   8.881 -0.7063  3.3946  3.0238
 1112SOL    HW214973   0.589   3.525   8.852 -1.5801  0.3556 -3.3678
 1113SOL     OW14974   3.617   0.265  14.540  0.6708  0.0925  0.0667
 1113SOL    HW114975   3.679   0.204  14.500  0.8273  0.2990 -0.0023
 1113SOL    HW214976   3.630   0.345  14.489 -3.2752  1.5392  1.2842
 1114SOL     OW14977   1.780   0.946   6.933  0.1469 -0.0855  0.1193
 1114SOL    HW114978   1.686   0.949   6.915  0.3908 -3.0829 -1.6912
 1114SOL    HW214979   1.772   0.924   7.026  1.1931  1.8068  0.6650
 1115SOL     OW14980   4.325   4.109   7.989  0.3242  0.2119 -0.3449
 1115SOL    HW114981   4.276   4.027   7.988  1.5030 -0.5172  2.3914
 1115SOL    HW214982   4.417   4.084   7.989  0.2336 -0.1165 -0.0792
 1116SOL     OW14983   3.965   4.060   0.051  0.1977 -0.1165 -0.3952
 1116SOL    HW114984   4.039   4.015   0.093  0.2939 -0.2595 -0.7200
 1116SOL    HW214985   3.900   4.037   0.117  1.6097  2.4512  1.8711
 1117SOL     OW14986   3.363   1.440   7.680 -0.7279 -0.1136  0.1520
 1117SOL    HW114987   3.425   1.491   7.733  1.5282 -1.9113 -0.7610
 1117SOL    HW214988   3.296   1.437   7.748  0.6900  3.1541  1.7171
 1118SOL     OW14989   0.270   4.413   7.057  0.4931 -0.6347 -0.8000
 1118SOL    HW114990   0.258   4.319   7.072  0.4501 -0.7645 -1.6266
 1118SOL    HW214991   0.332   4.420   6.984  2.6697  1.6094  1.2659
 1119SOL     OW14992   2.952   3.044   4.077 -0.3324  0.6440 -0.2170
 1119SOL    HW114993   2.898   3.046   3.998  1.5488 -0.5239 -1.5306
 1119SOL    HW214994   2.899   2.994   4.139  0.1414 -0.2876 -0.5571
 1120SOL     OW14995   3.604   1.648   6.163  0.1871  0.6679  0.3782
 1120SOL    HW114996   3.551   1.717   6.204 -1.6410 -0.7574  0.4431
 1120SOL    HW214997   3.543   1.580   6.135  0.1671  1.2415 -0.9619
 1121SOL     OW14998   1.862   2.991   7.306 -0.0700  0.4237  0.5673
 1121SOL    HW114999   1.805   3.036   7.244  0.2228 -0.1973 -0.1397
 1121SOL    HW215000   1.797   2.969   7.373  0.4253 -0.4523  0.7592
 1122SOL     OW15001   0.545   1.759  12.793 -0.0372  0.2469  0.5896
 1122SOL    HW115002   0.535   1.789  12.883  0.0621  0.3529  0.5656
 1122SOL    HW215003   0.580   1.670  12.804  3.2873  1.5304  0.4706
 1123SOL     OW15004   0.719   3.272   4.912  0.0765 -0.2305  0.4176
 1123SOL    HW115005   0.685   3.230   4.991  1.3064 -0.3842  0.8670
 1123SOL    HW215006   0.807   3.235   4.901  0.4546  0.3532  1.4524
 1124SOL     OW15007   0.678   3.099   0.910  0.0079  0.1130  0.0053
 1124SOL    HW115008   0.589   3.076   0.935 -0.3428  1.1985 -0.2208
 1124SOL    HW215009   0.721   3.097   0.995 -1.7891  1.3012  0.9290
 1125SOL     OW15010   1.400   0.337   9.440  0.3439 -0.2183 -0.5370
 1125SOL    HW115011   1.455   0.368   9.511 -1.8618 -1.2816  1.6630
 1125SOL    HW215012   1.340   0.287   9.496  1.3006 -0.3169  0.3959
 1126SOL     OW15013   2.305   0.974  14.676 -0.0912 -0.5178 -0.3451
 1126SOL    HW115014   2.254   1.049  14.706  0.9180 -1.0183  2.6565
 1126SOL    HW215015   2.323   1.009  14.589 -0.0987  1.3562  0.4161
 1127SOL     OW15016   3.500   3.557   5.963 -0.4082 -0.0845  0.5237
 1127SOL    HW115017   3.430   3.521   5.907 -2.0624  0.5428  2.1823
 1127SOL    HW215018   3.451   3.553   6.045 -0.7827  3.5341  0.4746
 1128SOL     OW15019   3.499   1.254   6.145 -0.5554  0.3756 -0.1703
 1128SOL    HW115020   3.586   1.255   6.183 -0.6721 -0.9652  0.1240
 1128SOL    HW215021   3.475   1.163   6.157 -0.5531  0.5910  1.5102
 1129SOL     OW15022   3.279   3.648   4.584 -0.1541 -0.0701 -0.2200
 1129SOL    HW115023   3.364   3.611   4.607  0.2485  0.4129 -0.9510
 1129SOL    HW215024   3.293   3.736   4.550 -1.7677 -0.6091 -2.2503
 1130SOL     OW15025   3.630   2.819   6.232 -0.6906  0.0885 -0.7851
 1130SOL    HW115026   3.646   2.735   6.273 -0.9557  0.6015  0.3589
 1130SOL    HW215027   3.601   2.866   6.310 -1.1049  0.4725 -1.1675
 1131SOL     OW15028   1.124   0.691   4.718 -0.1935  0.4967  0.1229
 1131SOL    HW115029   1.050   0.728   4.765 -1.4643  0.2713 -1.7050
 1131SOL    HW215030   1.189   0.722   4.781 -1.3983 -1.4273  2.2783
 1132SOL     OW15031   4.327   0.159  11.089 -0.5398  0.0488  0.0449
 1132SOL    HW115032   4.234   0.154  11.068 -0.4183 -1.5719 -0.0455
 1132SOL    HW215033   4.329   0.222  11.161 -0.8166  0.1295 -0.0191
 1133SOL     OW15034   2.814   1.947   4.985  0.0294  0.1388 -0.1679
 1133SOL    HW115035   2.892   1.952   4.931  1.4765 -1.6714  1.7232
 1133SOL    HW215036   2.857   1.938   5.071  0.3895 -0.3627 -0.4015
 1134SOL     OW15037   1.689   4.507   9.546 -0.2440  0.4299  0.2772
 1134SOL    HW115038   1.652   4.524   9.459  0.9188  1.0260 -0.1032
 1134SOL    HW215039   1.668   4.593   9.582 -1.1347  0.3113  0.0363
 1135SOL     OW15040   3.315   3.759  11.545  0.0012 -0.7955 -0.3858
 1135SOL    HW115041   3.225   3.771  11.515  0.4937  0.4616 -1.3459
 1135SOL    HW215042   3.323   3.667  11.519  1.5631 -0.5610 -0.7263
 1136SOL     OW15043   3.438   3.910   3.605 -0.0754  0.1538  0.6243
 1136SOL    HW115044   3.448   3.832   3.659 -1.5368 -0.6525 -0.2483
 1136SOL    HW215045   3.425   3.973   3.676  1.0354  1.4286 -0.3143
 1137SOL     OW15046   1.923   4.551   4.961  0.2552  0.1859 -0.3274
 1137SOL    HW115047   1.989   4.558   4.892 -0.2463  0.5535 -0.7658
 1137SOL    HW215048   1.974   4.514   5.033  1.1148 -0.7078 -1.3957
 1138SOL     OW15049   2.755   3.626   2.771  0.3988 -0.3802  0.1823
 1138SOL    HW115050   2.813   3.632   2.695 -0.9070 -0.2481 -0.8080
 1138SOL    HW215051   2.744   3.712   2.811  0.5026 -0.8036  1.1298
 1139SOL     OW15052   0.001   3.488  17.671 -0.2425  0.0560 -0.6163
 1139SOL    HW115053   0.031   3.523   0.013  1.5517 -0.5569 -0.9900
 1139SOL    HW215054   4.666   3.430  17.700  1.5456 -1.8835 -0.1656
 1140SOL     OW15055   1.046   0.670  11.210 -0.1083  0.4669  0.1691
 1140SOL    HW115056   1.002   0.699  11.290 -1.0723 -0.8744  0.1313
 1140SOL    HW215057   1.027   0.748  11.159  0.0012  1.8082  2.1933
 1141SOL     OW15058   3.302   2.171   6.658 -0.1772  0.0449  0.1829
 1141SOL    HW115059   3.295   2.078   6.680  0.3109 -0.2640 -0.9499
 1141SOL    HW215060   3.277   2.173   6.566 -3.0553 -0.1595  0.9659
 1142SOL     OW15061   0.696   4.058   2.059  0.6986  0.2836  0.1741
 1142SOL    HW115062   0.702   4.017   2.146  0.6984  0.2280  0.1482
 1142SOL    HW215063   0.608   4.095   2.064  0.0197 -1.3475  0.4144
 1143SOL     OW15064   3.940   3.239   5.740  0.3384 -0.1253  0.3008
 1143SOL    HW115065   3.866   3.300   5.744 -0.3260 -0.9429  0.4457
 1143SOL    HW215066   3.940   3.208   5.649  2.3981 -1.5156  0.7760
 1144SOL     OW15067   2.200   2.262   2.924  0.6141 -0.1275 -0.3004
 1144SOL    HW115068   2.194   2.335   2.862 -1.6335  0.9130  1.1192
 1144SOL    HW215069   2.217   2.296   3.012  0.5085 -0.5073 -0.1325
 1145SOL     OW15070   2.072   4.319   7.265 -0.0859  0.1531  0.5905
 1145SOL    HW115071   2.041   4.313   7.355 -0.1624 -2.5784  0.3861
 1145SOL    HW215072   2.118   4.401   7.280  2.0011 -0.5799 -1.6892
 1146SOL     OW15073   3.658   2.784   2.480 -0.2442  0.1657  0.2446
 1146SOL    HW115074   3.672   2.696   2.515 -0.8274  0.1082  0.3309
 1146SOL    HW215075   3.685   2.769   2.389  0.3955 -1.0031  0.6264
 1147SOL     OW15076   3.346   1.028   4.991  0.4154 -0.1888  0.3086
 1147SOL    HW115077   3.419   0.970   5.012  1.4932  0.9415 -0.2785
 1147SOL    HW215078   3.361   1.095   5.058 -1.6879  0.1012  0.4712
 1148SOL     OW15079   0.718   0.940   2.352 -0.1123 -0.7608  0.1756
 1148SOL    HW115080   0.677   0.953   2.266 -2.0500 -0.5391  1.1237
 1148SOL    HW215081   0.647   0.890   2.393 -0.5266  0.0595  0.4635
 1149SOL     OW15082   4.267   2.709   2.900  0.3533  0.0629  0.3743
 1149SOL    HW115083   4.273   2.792   2.947 -2.5340  0.0797  0.7121
 1149SOL    HW215084   4.231   2.651   2.967 -3.2352  0.3857 -1.2578
 1150SOL     OW15085   2.749   2.111   7.288  0.5855  0.0705  0.0381
 1150SOL    HW115086   2.687   2.180   7.268  1.2371  0.8334  0.6729
 1150SOL    HW215087   2.795   2.147   7.363  0.9317  0.0896 -0.1805
 1151SOL     OW15088   3.602   2.423   2.865 -0.7868 -0.2090 -0.4570
 1151SOL    HW115089   3.694   2.447   2.875 -1.3101  1.5944  0.1386
 1151SOL    HW215090   3.605   2.340   2.818 -0.0910  0.0328 -0.8439
 1152SOL     OW15091   1.948   3.230  14.346 -0.3169  0.3473  0.2217
 1152SOL    HW115092   1.985   3.270  14.424 -2.3797  1.0629  0.8475
 1152SOL    HW215093   2.000   3.264  14.273  1.1152 -1.4943  0.3981
 1153SOL     OW15094   4.492   4.173   2.134  0.0841 -0.1152  0.1532
 1153SOL    HW115095   4.479   4.170   2.039  1.1497 -0.4032  0.0181
 1153SOL    HW215096   4.571   4.119   2.136  0.5781  0.5750 -0.3025
 1154SOL     OW15097   0.839   4.501  14.138 -0.3528 -0.8652 -0.2067
 1154SOL    HW115098   0.920   4.511  14.188 -1.4573 -1.1617  1.6390
 1154SOL    HW215099   0.870   4.429  14.084 -2.4984  0.2877 -2.9958
 1155SOL     OW15100   2.514   1.176   3.485  0.4450  0.6110 -0.3873
 1155SOL    HW115101   2.560   1.094   3.506  2.3623  1.8479  0.2249
 1155SOL    HW215102   2.518   1.176   3.389  5.9569 -1.5104 -0.1838
 1156SOL     OW15103   3.033   0.492   7.983  0.2956  0.1596  0.1138
 1156SOL    HW115104   3.013   0.573   8.029 -0.5525  0.6906 -1.1939
 1156SOL    HW215105   3.129   0.494   7.983  0.3070 -0.3794  0.1475
 1157SOL     OW15106   4.224   3.549  16.884  0.0142 -0.5913 -0.2673
 1157SOL    HW115107   4.309   3.585  16.857 -1.8071  2.6129 -1.8033
 1157SOL    HW215108   4.249   3.468  16.928  1.5528  0.3272  0.5935
 1158SOL     OW15109   1.198   1.208   9.104 -0.2513  0.1726 -0.2531
 1158SOL    HW115110   1.271   1.234   9.047  1.1253 -0.7537  1.0961
 1158SOL    HW215111   1.245   1.172   9.179 -1.3577 -2.5904 -0.8960
 1159SOL     OW15112   2.529   0.331   7.227  0.1730  0.4329  0.8607
 1159SOL    HW115113   2.481   0.248   7.228 -0.0681  0.5535 -1.0125
 1159SOL    HW215114   2.469   0.392   7.185  0.2145 -0.4788 -0.5201
 1160SOL     OW15115   4.645   2.958   2.130 -0.6177  0.0093 -0.2904
 1160SOL    HW115116   4.567   2.956   2.185 -1.2046  0.0551 -1.1214
 1160SOL    HW215117   4.619   2.986   2.042 -2.7616 -2.9030 -0.5772
 1161SOL     OW15118   3.063   3.286   9.044  0.1119  0.1510  0.1306
 1161SOL    HW115119   2.971   3.310   9.035  0.8570  2.4287 -1.3864
 1161SOL    HW215120   3.089   3.335   9.122  0.5329 -1.0074  0.7150
 1162SOL     OW15121   3.806   0.120   0.257 -0.1876  0.1140  0.6228
 1162SOL    HW115122   3.804   0.031   0.221 -0.4062  0.4281 -0.1373
 1162SOL    HW215123   3.877   0.154   0.204  0.8495  0.5931  2.3141
 1163SOL     OW15124   3.154   0.578   6.335 -0.7838  0.1833 -0.3329
 1163SOL    HW115125   3.077   0.635   6.324 -1.4488 -0.2254  2.1299
 1163SOL    HW215126   3.198   0.567   6.251 -0.9978  0.3174 -0.4662
 1164SOL     OW15127   2.924   0.451   2.244  0.6887  0.6026  0.0744
 1164SOL    HW115128   2.998   0.491   2.290  1.3607 -0.0911 -0.3956
 1164SOL    HW215129   2.969   0.431   2.162 -0.4000  3.9389 -1.3668
 1165SOL     OW15130   1.865   4.465   6.452 -0.3536 -0.7541  0.0441
 1165SOL    HW115131   1.874   4.515   6.534 -1.0224 -0.1932 -0.2284
 1165SOL    HW215132   1.783   4.505   6.423  0.6634  0.5478 -1.0242
 1166SOL     OW15133   0.729   2.529   7.942  0.3569  0.2970  0.1493
 1166SOL    HW115134   0.798   2.596   7.935  2.2125 -1.7336 -1.1505
 1166SOL    HW215135   0.678   2.556   7.866  1.1640  0.3357 -0.3835
 1167SOL     OW15136   0.390   0.950  14.219 -0.2416 -0.1796 -0.2991
 1167SOL    HW115137   0.348   1.001  14.150  0.6245 -0.3287 -0.9349
 1167SOL    HW215138   0.415   0.870  14.173  1.0341  1.2863 -2.1545
 1168SOL     OW15139   4.034   3.437  15.515 -0.2245  0.4143  0.2123
 1168SOL    HW115140   4.018   3.493  15.590 -0.4398  2.8080 -1.6325
 1168SOL    HW215141   4.032   3.500  15.443 -2.0637 -0.6343 -0.6442
 1169SOL     OW15142   2.388   0.630   0.189 -0.6039 -0.1236 -0.3675
 1169SOL    HW115143   2.468   0.661   0.232 -0.9438  0.3046 -0.0441
 1169SOL    HW215144   2.357   0.717   0.163  1.1235 -0.0185 -2.0558
 1170SOL     OW15145   4.066   2.209   4.531 -0.0252 -0.6989  0.4739
 1170SOL    HW115146   3.984   2.258   4.518  1.4180  1.7643  0.7032
 1170SOL    HW215147   4.043   2.118   4.515 -1.7168  0.1105 -1.7147
 1171SOL     OW15148   1.483   2.896   5.941 -0.0279  0.3953  0.3105
 1171SOL    HW115149   1.519   2.815   5.904 -3.9399 -0.4313 -1.6068
 1171SOL    HW215150   1.501   2.884   6.034  0.2933  0.3016  0.2380
 1172SOL     OW15151   2.158   4.481   6.151  0.1830  0.1354 -0.1577
 1172SOL    HW115152   2.134   4.570   6.177 -0.6782 -0.0740 -0.2455
 1172SOL    HW215153   2.072   4.450   6.123  0.5372 -2.1762  1.2769
 1173SOL     OW15154   2.021   3.068   7.083  0.0000 -0.1957 -0.5522
 1173SOL    HW115155   1.986   2.988   7.122 -1.1437  0.2558 -0.6300
 1173SOL    HW215156   2.006   3.141   7.144 -0.2378  0.9950 -2.0335
 1174SOL     OW15157   2.612   0.860  17.299  0.7244 -0.1061 -0.0729
 1174SOL    HW115158   2.670   0.887  17.371  2.7823 -1.6846 -1.1359
 1174SOL    HW215159   2.576   0.774  17.319  0.5023  0.1467  0.6024
 1175SOL     OW15160   1.252   1.012   4.300 -0.1783 -0.1843  0.2842
 1175SOL    HW115161   1.258   1.055   4.215 -0.5544 -1.4852 -0.3985
 1175SOL    HW215162   1.344   1.007   4.325  0.3417  4.3312 -0.8293
 1176SOL     OW15163   2.333   3.750   7.727 -0.3638 -0.2512 -0.5261
 1176SOL    HW115164   2.269   3.745   7.797  0.9928 -0.2227  0.7089
 1176SOL    HW215165   2.289   3.687   7.670  0.0602 -0.2434 -0.8689
 1177SOL     OW15166   3.558   3.940   0.928  0.8271  0.0438  0.0333
 1177SOL    HW115167   3.637   3.984   0.960  1.2212  1.4473 -2.8700
 1177SOL    HW215168   3.537   3.983   0.845  0.6925 -0.5035 -0.2159
 1178SOL     OW15169   3.715   2.800  11.089 -0.8035  0.1653  0.6516
 1178SOL    HW115170   3.708   2.895  11.079 -0.0707  0.4656  3.0808
 1178SOL    HW215171   3.727   2.767  11.000 -1.7922 -1.6259  1.1824
 1179SOL     OW15172   0.056   1.074   3.171  0.4051  0.0219  0.2652
 1179SOL    HW115173   0.067   1.099   3.263  0.7236 -0.1544  0.2752
 1179SOL    HW215174   0.065   0.979   3.181  2.7440  0.1420 -0.6611
 1180SOL     OW15175   4.116   1.835   3.976 -0.2306  0.1918  0.3204
 1180SOL    HW115176   4.069   1.764   4.021  2.6043 -0.4946  2.1490
 1180SOL    HW215177   4.192   1.785   3.947  0.6026  0.4239  2.1422
 1181SOL     OW15178   3.894   2.594   4.422 -0.1289  0.7811 -0.6323
 1181SOL    HW115179   3.892   2.499   4.416 -2.0179  0.6437  1.8029
 1181SOL    HW215180   3.985   2.610   4.400 -0.2103 -1.3590 -2.4572
 1182SOL     OW15181   0.169   3.584   6.172 -0.6141  0.0090  0.0770
 1182SOL    HW115182   0.256   3.617   6.195  0.0597 -2.0296  0.4077
 1182SOL    HW215183   0.138   3.522   6.238  0.6096 -0.4765  0.1875
 1183SOL     OW15184   1.406   1.422   0.657  0.0801  0.1284  0.0223
 1183SOL    HW115185   1.375   1.461   0.575 -1.1677 -0.2740  0.3000
 1183SOL    HW215186   1.401   1.500   0.712 -0.5128 -1.4159  2.1550
 1184SOL     OW15187   2.115   1.194   9.977 -0.1448 -0.3662  0.1029
 1184SOL    HW115188   2.189   1.134   9.964 -0.3146 -0.4405 -0.5408
 1184SOL    HW215189   2.134   1.278   9.935 -0.5799  0.1983  1.0263
 1185SOL     OW15190   0.642   0.100  13.507 -0.1105 -0.0121 -0.1282
 1185SOL    HW115191   0.602   0.023  13.546  2.0456 -2.1132 -2.0732
 1185SOL    HW215192   0.609   0.170  13.564  1.2522  0.8245 -0.3530
 1186SOL     OW15193   1.916   0.666  16.541 -0.3105 -0.0296  0.0607
 1186SOL    HW115194   1.984   0.671  16.473  1.2424  3.8509  1.8524
 1186SOL    HW215195   1.841   0.644  16.486  0.0077 -0.4985 -0.1861
 1187SOL     OW15196   4.052   0.132   0.097 -0.3113  0.0315  0.1029
 1187SOL    HW115197   3.991   0.162   0.029  1.1944  2.4900 -0.1932
 1187SOL    HW215198   4.127   0.136   0.038  0.7120  0.2665  1.4191
 1188SOL     OW15199   2.248   0.987   9.407  0.0503 -0.1065 -0.2983
 1188SOL    HW115200   2.207   0.902   9.389 -0.9625  0.3549 -0.2156
 1188SOL    HW215201   2.248   0.997   9.503 -2.1056 -0.9487 -0.2059
 1189SOL     OW15202   2.274   3.369  14.882  0.4869  0.2148  0.7185
 1189SOL    HW115203   2.332   3.441  14.907 -0.3546  1.3515 -0.6926
 1189SOL    HW215204   2.193   3.404  14.918  0.7618  2.7604 -1.1987
 1190SOL     OW15205   0.941   2.655   0.883  0.1430  0.1544  0.0743
 1190SOL    HW115206   0.995   2.577   0.879 -1.7879 -1.1428 -0.6813
 1190SOL    HW215207   0.864   2.650   0.825 -0.0027 -0.4804  0.3237
 1191SOL     OW15208   2.533   3.510   0.924 -0.0920  0.0546  0.2292
 1191SOL    HW115209   2.477   3.432   0.930  1.6071 -1.2539 -0.8488
 1191SOL    HW215210   2.611   3.479   0.968  1.5133  0.8164 -2.0449
 1192SOL     OW15211   4.149   2.595   4.348 -0.5844  0.1734 -0.0040
 1192SOL    HW115212   4.200   2.675   4.358 -3.0053  1.8135 -0.6980
 1192SOL    HW215213   4.186   2.549   4.273 -1.6289  2.4370 -1.9062
 1193SOL     OW15214   0.133   0.919   6.281 -0.2259  0.3566  0.2464
 1193SOL    HW115215   0.170   1.004   6.306  2.0101 -0.5573  0.0490
 1193SOL    HW215216   0.080   0.906   6.360 -0.0869 -3.6678 -0.3078
 1194SOL     OW15217   3.376   0.353   3.834 -1.3192 -0.2255 -0.6797
 1194SOL    HW115218   3.411   0.264   3.845 -0.2859  0.3875  1.0236
 1194SOL    HW215219   3.452   0.408   3.854 -0.9476 -0.6616 -0.8707
 1195SOL     OW15220   0.421   3.371  15.279  0.2182 -0.4799 -0.0005
 1195SOL    HW115221   0.343   3.374  15.224  0.7505  0.1544 -0.7330
 1195SOL    HW215222   0.425   3.275  15.282  1.7766 -0.4585 -1.3274
 1196SOL     OW15223   3.985   2.163   5.884 -0.1740 -0.2423 -0.0041
 1196SOL    HW115224   4.047   2.219   5.838  0.7086 -0.6606  0.6774
 1196SOL    HW215225   3.950   2.231   5.942  4.3978  1.9618  0.1467
 1197SOL     OW15226   2.321   1.481   9.101  0.0856  0.6255 -0.1281
 1197SOL    HW115227   2.284   1.542   9.164  0.0458  1.5084 -0.9986
 1197SOL    HW215228   2.341   1.541   9.029  1.0617  0.7215  0.2199
 1198SOL     OW15229   4.680   3.730  14.661  0.3510  0.5562  0.0901
 1198SOL    HW115230   4.705   3.689  14.744 -1.5190 -1.0946 -0.1783
 1198SOL    HW215231   0.006   3.692  14.599  2.7119  0.5711  2.4480
 1199SOL     OW15232   4.316   3.910   4.152 -0.3789  0.6491 -0.1189
 1199SOL    HW115233   4.399   3.907   4.199 -2.5942  0.0698  3.7809
 1199SOL    HW215234   4.279   3.987   4.197 -0.0030  2.1726 -2.3960
 1200SOL     OW15235   2.372   3.866   9.655 -0.3666 -0.0645 -0.1573
 1200SOL    HW115236   2.415   3.793   9.699  2.0056  1.8096  0.6297
 1200SOL    HW215237   2.295   3.876   9.711 -0.2172 -0.5251  0.1247
 1201SOL     OW15238   4.219   2.711   8.241  0.8693 -0.4845  0.3082
 1201SOL    HW115239   4.291   2.670   8.289  2.0463  2.2752  0.8836
 1201SOL    HW215240   4.160   2.636   8.238  0.7726 -0.3943 -0.0691
 1202SOL     OW15241   3.474   1.832   7.533 -0.3596 -0.8925  0.4093
 1202SOL    HW115242   3.407   1.764   7.537  1.4044 -2.6159  0.4481
 1202SOL    HW215243   3.475   1.841   7.437 -0.3883  1.3180  0.6134
 1203SOL     OW15244   2.776   3.936  14.902  0.1388  0.2331  0.1615
 1203SOL    HW115245   2.836   3.863  14.919  0.5602  0.5706  0.1091
 1203SOL    HW215246   2.829   3.982  14.837 -0.9794  0.7057 -0.4168
 1204SOL     OW15247   3.681   0.306  17.318 -0.7426  0.4987  0.9441
 1204SOL    HW115248   3.607   0.294  17.378 -0.9589 -0.0872  0.5532
 1204SOL    HW215249   3.658   0.251  17.243 -1.6688  3.3967 -0.8790
 1205SOL     OW15250   0.740   3.911   3.313 -0.2092  0.4793  0.3608
 1205SOL    HW115251   0.818   3.943   3.359 -0.4098  1.9694 -0.3435
 1205SOL    HW215252   0.681   3.975   3.351 -1.7678  0.6522 -2.3808
 1206SOL     OW15253   2.659   0.624   6.125  0.1245 -0.0756 -0.3685
 1206SOL    HW115254   2.597   0.689   6.094  0.2949  1.1159  1.7494
 1206SOL    HW215255   2.589   0.569   6.161  0.8407 -0.6739  0.1318
 1207SOL     OW15256   1.369   1.749   5.105  0.6257 -0.1896 -0.4857
 1207SOL    HW115257   1.370   1.845   5.102 -1.3105 -0.2382 -2.9345
 1207SOL    HW215258   1.396   1.729   5.016 -0.7699 -2.3988 -0.4184
 1208SOL     OW15259   2.327   1.227   7.074 -0.1357 -0.2181 -1.3440
 1208SOL    HW115260   2.233   1.231   7.056 -0.0934  3.9236 -0.6155
 1208SOL    HW215261   2.355   1.166   7.006 -0.9910 -2.5030  0.3316
 1209SOL     OW15262   0.092   1.913  15.768  0.2126  0.1674 -0.4055
 1209SOL    HW115263   0.162   1.852  15.790 -0.0432  0.8175  2.2926
 1209SOL    HW215264   0.136   1.972  15.707 -0.1921  0.0470 -0.8138
 1210SOL     OW15265   3.055   1.803   3.980 -0.5927 -0.2324  0.1987
 1210SOL    HW115266   3.026   1.778   3.893 -0.5042  0.5672 -0.0599
 1210SOL    HW215267   3.144   1.771   3.970 -0.1709  0.7265  0.8684
 1211SOL     OW15268   2.648   4.633   9.093  0.1152 -0.3599 -0.3612
 1211SOL    HW115269   2.730   4.608   9.050 -0.3977 -0.0385 -1.5116
 1211SOL    HW215270   2.584   4.619   9.024 -2.5971  1.1146  1.8829
 1212SOL     OW15271   1.107   0.466   1.232  0.2318 -0.3298 -0.4750
 1212SOL    HW115272   1.099   0.414   1.312  0.6290  1.7308  0.9030
 1212SOL    HW215273   1.055   0.417   1.168 -1.0281  1.3430 -0.7333
 1213SOL     OW15274   4.558   3.917  14.083  0.0740  0.4026 -0.5079
 1213SOL    HW115275   4.481   3.901  14.137  0.5861  1.1293  0.4223
 1213SOL    HW215276   4.625   3.939  14.147 -0.2169 -1.1247  0.3120
 1214SOL     OW15277   2.154   3.083   0.888  0.2652 -0.5964  0.3145
 1214SOL    HW115278   2.207   3.004   0.891  0.0010 -0.6710  2.5996
 1214SOL    HW215279   2.072   3.060   0.932 -0.8700 -0.1228 -1.5482
 1215SOL     OW15280   0.419   2.754   6.330  1.1388 -0.3285 -0.0064
 1215SOL    HW115281   0.444   2.714   6.247 -2.7475 -2.4250 -0.1512
 1215SOL    HW215282   0.430   2.849   6.321 -1.3489  0.0326  0.8080
 1216SOL     OW15283   4.323   2.316   3.562  0.3587 -0.4400 -0.4448
 1216SOL    HW115284   4.348   2.273   3.480  0.0540  0.2498 -0.8960
 1216SOL    HW215285   4.234   2.285   3.577  0.1383  0.2110 -0.4407
 1217SOL     OW15286   2.345   1.205   4.618  0.0062 -0.3799  0.2381
 1217SOL    HW115287   2.430   1.224   4.576  0.4883 -1.4901  0.7108
 1217SOL    HW215288   2.315   1.293   4.642 -1.4892 -1.5325  2.5135
 1218SOL     OW15289   2.169   2.126   8.648  0.2078  0.2318 -0.1243
 1218SOL    HW115290   2.140   2.198   8.704 -2.4011 -1.2753  0.4508
 1218SOL    HW215291   2.231   2.089   8.711  0.8956 -0.3679 -1.1667
 1219SOL     OW15292   4.610   4.036   6.795  0.5535  0.4356 -0.1671
 1219SOL    HW115293   4.578   4.120   6.828 -0.1160  0.5892 -1.1988
 1219SOL    HW215294   4.702   4.057   6.806  1.4155 -4.6326  2.5394
 1220SOL     OW15295   4.025   4.132   1.708 -0.0839 -0.4634  0.0935
 1220SOL    HW115296   4.071   4.090   1.781 -0.4200  0.1641  0.6633
 1220SOL    HW215297   4.094   4.177   1.659 -0.9359 -0.1035 -0.7874
 1221SOL     OW15298   2.373   0.387   9.012  0.1012 -0.0364 -0.3554
 1221SOL    HW115299   2.387   0.481   9.021  0.6562 -0.1468 -0.1123
 1221SOL    HW215300   2.445   0.353   8.958 -0.1754 -0.1768 -0.6404
 1222SOL     OW15301   2.448   3.333   3.702  0.0204  0.6565  0.0255
 1222SOL    HW115302   2.501   3.321   3.780 -3.2841 -2.3183  1.8595
 1222SOL    HW215303   2.410   3.420   3.701 -0.1498  0.5837  0.1633
 1223SOL     OW15304   3.309   3.067  10.215 -1.1452  0.3178  0.1445
 1223SOL    HW115305   3.276   3.036  10.130  2.6321  0.4737 -1.3981
 1223SOL    HW215306   3.353   2.986  10.244  0.3421  0.7232 -0.9653
 1224SOL     OW15307   0.405   2.489   3.666  0.4392  0.3897 -0.3998
 1224SOL    HW115308   0.469   2.556   3.692  2.7595 -1.9076 -0.1400
 1224SOL    HW215309   0.388   2.456   3.754 -0.6411 -0.8920 -1.0968
 1225SOL     OW15310   3.250   0.279   1.181 -0.2267 -0.2415  0.1899
 1225SOL    HW115311   3.203   0.351   1.222  0.4813  0.8469 -0.9289
 1225SOL    HW215312   3.254   0.300   1.088  1.5120  0.0653  0.3363
 1226SOL     OW15313   3.067   2.553   0.926 -0.1528  0.7480 -0.1574
 1226SOL    HW115314   3.042   2.610   0.853  1.1274  1.3291 -0.1428
 1226SOL    HW215315   3.132   2.601   0.977  1.0132 -0.4988 -0.4796
 1227SOL     OW15316   0.002   4.226   1.898 -0.0596 -0.3317  1.1033
 1227SOL    HW115317   4.661   4.212   1.843  1.7124  1.3176 -1.8083
 1227SOL    HW215318   4.710   4.306   1.942  3.4574  2.3464 -1.5644
 1228SOL     OW15319   0.094   0.603   7.861 -0.7825  0.1472 -0.8008
 1228SOL    HW115320   0.188   0.618   7.856 -0.5593 -0.5338  1.5540
 1228SOL    HW215321   0.082   0.590   7.767 -3.1686  1.1093 -0.6309
 1229SOL     OW15322   0.591   3.383   6.827  0.0409  0.5011 -0.3949
 1229SOL    HW115323   0.574   3.477   6.825 -1.2265  0.2769 -0.5323
 1229SOL    HW215324   0.525   3.363   6.894  0.5769  1.2895  0.3777
 1230SOL     OW15325   1.469   0.102   3.521 -0.0610  0.1723  0.1626
 1230SOL    HW115326   1.525   0.168   3.561  0.7143  1.0547 -2.3834
 1230SOL    HW215327   1.383   0.117   3.559  0.8965  2.6826  1.2672
 1231SOL     OW15328   4.153   0.263   5.500  0.2346 -0.1640  0.0649
 1231SOL    HW115329   4.145   0.340   5.443  0.6647  0.0345  0.2765
 1231SOL    HW215330   4.218   0.217   5.446 -0.1777 -1.0344  0.3122
 1232SOL     OW15331   4.049   0.737  14.642  0.6456  0.3166  0.0683
 1232SOL    HW115332   4.106   0.667  14.675 -0.2464 -0.0963  0.7113
 1232SOL    HW215333   4.037   0.716  14.549 -0.2514 -1.0355  0.5025
 1233SOL     OW15334   1.130   0.601  10.877 -0.4714  0.5337 -0.2646
 1233SOL    HW115335   1.079   0.543  10.821  0.0633 -0.1193 -0.0783
 1233SOL    HW215336   1.074   0.679  10.883 -1.3337 -0.0971 -0.1695
 1234SOL     OW15337   3.290   0.262   4.697 -0.2420  0.2760 -0.3543
 1234SOL    HW115338   3.361   0.303   4.647  0.0071  0.2024 -0.0622
 1234SOL    HW215339   3.211   0.308   4.669 -0.5295 -0.0049 -0.0043
 1235SOL     OW15340   2.075   4.555   3.805 -0.2667  0.1019 -0.5629
 1235SOL    HW115341   2.000   4.579   3.750 -0.3213 -1.0429 -0.9989
 1235SOL    HW215342   2.125   4.499   3.746  1.3436  0.8193  0.1058
 1236SOL     OW15343   1.832   1.624   6.525  0.1753 -0.1438 -0.3658
 1236SOL    HW115344   1.792   1.674   6.597 -0.1278 -0.7675 -0.1064
 1236SOL    HW215345   1.873   1.552   6.572 -3.8315 -2.0330  0.2526
 1237SOL     OW15346   4.042   3.991  16.734  0.2461  0.7403  0.6567
 1237SOL    HW115347   4.115   4.011  16.793 -0.1409  1.3002  0.9432
 1237SOL    HW215348   4.066   3.899  16.724  3.0062  1.5163  0.0535
 1238SOL     OW15349   0.785   3.079  12.021  0.1614 -0.0711 -0.2007
 1238SOL    HW115350   0.805   3.058  11.929  1.3528 -1.3233  0.3443
 1238SOL    HW215351   0.861   3.121  12.061  0.5532  0.5394 -1.5755
 1239SOL     OW15352   1.805   1.607   2.296  0.9515  0.2852 -0.0691
 1239SOL    HW115353   1.720   1.627   2.334 -0.0759  0.1959 -2.3515
 1239SOL    HW215354   1.823   1.695   2.265 -0.5276  0.2958 -0.8595
 1240SOL     OW15355   2.886   1.700   5.520  0.7800 -0.0514 -0.5915
 1240SOL    HW115356   2.807   1.733   5.563  0.1278 -2.0570 -0.2563
 1240SOL    HW215357   2.851   1.640   5.454 -1.1967  0.2119  0.2035
 1241SOL     OW15358   1.060   0.245   5.740 -0.1829 -0.0523  0.4935
 1241SOL    HW115359   1.117   0.220   5.813 -0.6873  0.2662  0.9972
 1241SOL    HW215360   1.099   0.191   5.671 -1.4330 -2.5018  1.6963
 1242SOL     OW15361   4.255   0.703  14.340  0.2277  0.0364 -0.2176
 1242SOL    HW115362   4.330   0.661  14.381 -1.3204 -2.2693  0.2625
 1242SOL    HW215363   4.230   0.633  14.280 -2.2811 -0.7993  1.7485
 1243SOL     OW15364   2.964   3.130   2.766  0.3729  0.1060  0.3364
 1243SOL    HW115365   3.056   3.147   2.748 -0.3974  4.4003  0.2766
 1243SOL    HW215366   2.978   3.076   2.843 -0.6622 -1.2657 -0.4508
 1244SOL     OW15367   1.635   2.950  17.262 -0.3850  0.1586  0.4678
 1244SOL    HW115368   1.700   2.962  17.331  2.0320 -1.0466 -1.5692
 1244SOL    HW215369   1.698   2.950  17.190 -1.5222 -1.4520 -0.5255
 1245SOL     OW15370   4.016   3.448   7.574 -0.0606 -0.1661 -0.9301
 1245SOL    HW115371   4.013   3.352   7.573 -2.0851 -0.1369  0.6586
 1245SOL    HW215372   4.103   3.458   7.537 -0.7665  2.6856 -1.7854
 1246SOL     OW15373   3.554   2.113   8.511  1.0724 -0.1230 -0.0771
 1246SOL    HW115374   3.614   2.170   8.464 -0.3573  2.0082  0.7126
 1246SOL    HW215375   3.561   2.158   8.595 -0.7525  2.5237 -1.3409
 1247SOL     OW15376   4.551   3.263   5.730  0.3637  0.0501 -0.2462
 1247SOL    HW115377   4.569   3.197   5.663  0.4573 -0.3887  0.2120
 1247SOL    HW215378   4.481   3.230   5.785  1.3369 -0.8784  0.4142
 1248SOL     OW15379   0.973   4.015  11.588  0.1146  0.0024  0.1222
 1248SOL    HW115380   0.971   4.099  11.541  0.9412 -0.1258 -0.1375
 1248SOL    HW215381   0.955   4.046  11.677 -0.1738  0.9820 -0.2685
 1249SOL     OW15382   2.360   2.170   8.387  0.0385  0.3868 -0.0934
 1249SOL    HW115383   2.370   2.232   8.459  1.9786  0.5387 -0.4794
 1249SOL    HW215384   2.278   2.124   8.398  0.2231 -0.6745 -3.0985
 1250SOL     OW15385   3.889   3.910  13.452  0.4786 -0.0370 -0.1040
 1250SOL    HW115386   3.851   3.983  13.501  0.3722  0.2450 -0.6086
 1250SOL    HW215387   3.831   3.903  13.376  1.2206 -0.0383 -0.6762
 1251SOL     OW15388   4.440   0.126   7.102  0.2870 -0.4067 -0.3487
 1251SOL    HW115389   4.355   0.103   7.139  0.1115  2.1761  0.8078
 1251SOL    HW215390   4.496   0.102   7.176 -0.3267 -0.5178  0.0755
 1252SOL     OW15391   3.451   1.784   2.138 -0.4604 -0.1980  0.0212
 1252SOL    HW115392   3.442   1.709   2.079  3.8941 -0.4546 -0.3095
 1252SOL    HW215393   3.363   1.822   2.146 -1.6046 -2.6324 -0.8991
 1253SOL     OW15394   2.903   2.598   1.226 -0.0820 -0.2126 -1.1994
 1253SOL    HW115395   2.970   2.538   1.193  0.5720  0.5759 -1.3212
 1253SOL    HW215396   2.933   2.601   1.317 -1.5766  0.7257 -0.7288
 1254SOL     OW15397   3.334   1.799   5.466  0.3550 -0.6307 -0.2649
 1254SOL    HW115398   3.349   1.745   5.388 -1.9665  0.1891 -1.2672
 1254SOL    HW215399   3.263   1.852   5.431 -0.6004 -1.5425  0.2727
 1255SOL     OW15400   3.467   3.773   6.302 -0.1267  0.1216  0.1005
 1255SOL    HW115401   3.484   3.700   6.362 -0.4548  0.7579  0.9597
 1255SOL    HW215402   3.510   3.847   6.343  1.1520 -0.3763 -0.3290
 1256SOL     OW15403   2.974   2.174  17.213  0.1345  0.4009 -0.1626
 1256SOL    HW115404   2.958   2.086  17.180 -0.5932  0.8804 -1.1016
 1256SOL    HW215405   2.888   2.213  17.229 -0.0644 -0.8126  1.7175
 1257SOL     OW15406   2.876   2.177   6.980  0.2612  0.0055  0.4524
 1257SOL    HW115407   2.864   2.105   7.042  0.2507 -0.1082  0.3202
 1257SOL    HW215408   2.834   2.141   6.901  1.4396  0.9066 -0.5861
 1258SOL     OW15409   2.151   1.954  14.580  0.4221  0.7436 -0.1178
 1258SOL    HW115410   2.082   1.995  14.633 -1.0758 -1.5673 -0.2887
 1258SOL    HW215411   2.104   1.956  14.497  0.1778  2.0648  0.0446
 1259SOL     OW15412   3.587   0.246  14.235  0.0786  0.0472 -0.2130
 1259SOL    HW115413   3.561   0.177  14.295 -0.7511 -1.2387 -2.0450
 1259SOL    HW215414   3.648   0.202  14.175 -1.9462 -2.8896 -0.1028
 1260SOL     OW15415   0.077   3.219   2.611  0.2308  0.3174  0.6973
 1260SOL    HW115416   0.036   3.217   2.525 -0.8850  0.8445  1.2117
 1260SOL    HW215417   0.169   3.204   2.589 -0.2391  1.1797 -1.8168
 1261SOL     OW15418   1.934   0.502   0.908  0.0709 -0.1223  0.5640
 1261SOL    HW115419   1.958   0.494   1.000 -1.7394  0.6382  1.1052
 1261SOL    HW215420   1.932   0.410   0.880  1.8455  0.2565 -0.7632
 1262SOL     OW15421   0.602   0.868   6.431 -0.7998  0.1951  0.0205
 1262SOL    HW115422   0.530   0.829   6.479 -1.1153  1.0284  0.2265
 1262SOL    HW215423   0.613   0.949   6.482  2.7690  2.0391 -3.6379
 1263SOL     OW15424   3.362   2.978  16.439  0.0446  0.1206  1.0558
 1263SOL    HW115425   3.453   2.996  16.462 -0.6696  1.4253  2.8609
 1263SOL    HW215426   3.338   2.917  16.509  0.8148  0.5959  1.7349
 1264SOL     OW15427   3.471   3.775  10.571  0.5672 -0.4261 -0.2583
 1264SOL    HW115428   3.452   3.681  10.563 -1.8284  0.0275  0.1226
 1264SOL    HW215429   3.470   3.800  10.479  1.8532  0.1384 -0.1044
 1265SOL     OW15430   2.556   2.554   2.641  0.2490 -0.7471 -0.9698
 1265SOL    HW115431   2.615   2.487   2.608  0.5192  0.1292 -2.2636
 1265SOL    HW215432   2.596   2.576   2.725 -1.2513  0.0821 -0.4645
 1266SOL     OW15433   0.688   2.519  12.491 -0.4497  0.1054  0.2839
 1266SOL    HW115434   0.731   2.563  12.563 -1.0590  3.0977 -1.1924
 1266SOL    HW215435   0.689   2.597  12.435 -0.6437 -0.4687 -0.5222
 1267SOL     OW15436   0.482   0.506   6.977  0.2099 -0.3786 -0.0001
 1267SOL    HW115437   0.438   0.432   7.018 -1.3889  0.1453 -0.7846
 1267SOL    HW215438   0.552   0.469   6.923  1.0322  0.6909  0.3336
 1268SOL     OW15439   2.784   2.959   2.122  0.0787  0.0767 -0.1189
 1268SOL    HW115440   2.866   2.983   2.080 -0.5718  0.0988 -1.3974
 1268SOL    HW215441   2.762   3.036   2.174  1.0839 -0.0595  0.5104
 1269SOL     OW15442   3.400   2.556   5.988 -0.3651  0.2545  0.7579
 1269SOL    HW115443   3.488   2.584   5.961 -0.9978  2.1019  0.6131
 1269SOL    HW215444   3.354   2.639   6.003  0.0313  0.4327  1.0021
 1270SOL     OW15445   3.781   0.804   3.571  0.6550 -0.2064 -0.0900
 1270SOL    HW115446   3.817   0.749   3.501 -0.2285  2.9020 -2.9750
 1270SOL    HW215447   3.791   0.894   3.542  2.0858 -1.1534 -2.5370
 1271SOL     OW15448   2.621   2.097   8.873  1.2832  0.0685  0.7112
 1271SOL    HW115449   2.663   2.127   8.793 -2.1283  2.3829 -0.1941
 1271SOL    HW215450   2.639   2.167   8.935  0.6751 -0.6706  1.7488
 1272SOL     OW15451   3.399   3.296  16.351 -0.3244 -0.0040 -0.1109
 1272SOL    HW115452   3.409   3.232  16.280  1.6112 -0.6464  0.7401
 1272SOL    HW215453   3.475   3.273  16.405  0.6134  1.4928 -0.7894
 1273SOL     OW15454   1.492   2.724  15.372 -0.2605 -0.5317  0.6972
 1273SOL    HW115455   1.530   2.803  15.334 -2.2915 -0.1725 -0.6430
 1273SOL    HW215456   1.400   2.748  15.360 -0.4583 -2.3161 -1.3979
 1274SOL     OW15457   2.623   0.986   5.222  0.2735 -0.2580  0.0669
 1274SOL    HW115458   2.718   0.974   5.227  0.1762 -0.4308  1.6328
 1274SOL    HW215459   2.595   0.925   5.290  0.5521  1.2835  1.5664
 1275SOL     OW15460   2.840   0.704   8.636 -0.0601 -0.0100 -0.1381
 1275SOL    HW115461   2.934   0.713   8.622 -0.2919  0.5170 -1.3536
 1275SOL    HW215462   2.825   0.754   8.715 -0.6278 -0.6591  0.1700
 1276SOL     OW15463   4.116   2.351   3.287  0.3128 -0.0107  0.6882
 1276SOL    HW115464   4.071   2.408   3.349 -0.2765  0.9474 -0.6187
 1276SOL    HW215465   4.077   2.266   3.308  0.4708 -0.3699 -0.4518
 1277SOL     OW15466   4.172   4.302  10.948  0.5733  0.1843 -0.2091
 1277SOL    HW115467   4.182   4.374  11.010  0.1798  0.9780 -1.0611
 1277SOL    HW215468   4.146   4.227  11.002 -0.7102  0.0161 -1.0621
 1278SOL     OW15469   1.581   4.692   4.276 -0.2411 -0.4939 -0.1571
 1278SOL    HW115470   1.640   4.728   4.343 -0.6569 -0.3545  0.1318
 1278SOL    HW215471   1.501   4.702   4.327  1.5886 -0.8405  2.8138
 1279SOL     OW15472   4.655   0.114   4.114  0.2052  0.3940  0.5003
 1279SOL    HW115473   4.725   0.078   4.168 -0.8099  1.0825  2.2748
 1279SOL    HW215474   4.704   0.137   4.035  0.9160  1.1045  1.1459
 1280SOL     OW15475   0.265   2.548   8.618  0.6501  0.4166 -0.4507
 1280SOL    HW115476   0.215   2.522   8.695 -0.4893  0.2333 -1.2640
 1280SOL    HW215477   0.276   2.639   8.647  0.9009  0.6051 -1.1278
 1281SOL     OW15478   3.762   1.546   6.966 -0.5530  0.6465 -0.0554
 1281SOL    HW115479   3.788   1.498   7.045 -0.4814 -2.0020 -1.6808
 1281SOL    HW215480   3.713   1.486   6.910  0.2947 -0.2615  0.1733
 1282SOL     OW15481   1.779   1.369   1.964  0.3938 -0.1900 -0.4533
 1282SOL    HW115482   1.721   1.444   1.977  1.0032 -0.0148  1.3435
 1282SOL    HW215483   1.836   1.394   1.891 -0.1267 -1.4235 -1.2742
 1283SOL     OW15484   4.735   1.568  15.833  0.2274 -0.4763 -0.2690
 1283SOL    HW115485   0.026   1.477  15.847 -1.3376 -1.1627 -1.7772
 1283SOL    HW215486   0.084   1.611  15.823 -0.0533  0.0556 -0.3517
 1284SOL     OW15487   1.392   3.033   7.795 -0.4504  0.3895 -0.2671
 1284SOL    HW115488   1.410   2.939   7.798 -0.2874  0.4075 -0.6285
 1284SOL    HW215489   1.298   3.041   7.812  0.1859  2.4907  2.2906
 1285SOL     OW15490   2.620   0.249   6.255 -0.5100 -0.0410 -0.1579
 1285SOL    HW115491   2.657   0.276   6.339  1.6574 -0.1535 -1.0917
 1285SOL    HW215492   2.595   0.158   6.276 -0.5423  0.2644  1.0971
 1286SOL     OW15493   4.364   3.880  14.288  0.1622  0.3440 -0.2511
 1286SOL    HW115494   4.298   3.818  14.255 -0.4002  0.5487  0.4903
 1286SOL    HW215495   4.401   3.830  14.361 -2.0614 -1.0405 -0.0806
 1287SOL     OW15496   0.329   2.784   8.752 -0.1149  0.4764 -0.3219
 1287SOL    HW115497   0.372   2.851   8.699 -0.7034  1.5913  0.6216
 1287SOL    HW215498   0.329   2.826   8.838  0.1987 -1.7061  0.7349
 1288SOL     OW15499   4.229   3.103   8.828 -0.0155 -0.7383  0.7110
 1288SOL    HW115500   4.310   3.094   8.778 -2.4700  0.8915 -3.6057
 1288SOL    HW215501   4.234   3.019   8.875  2.1400 -0.8712  0.2388
 1289SOL     OW15502   1.357   1.437   9.460 -0.2631 -0.4823  0.3652
 1289SOL    HW115503   1.334   1.529   9.474 -3.7636 -1.3204  0.1451
 1289SOL    HW215504   1.427   1.457   9.399  0.7002 -2.6236  0.7955
 1290SOL     OW15505   4.651   3.498  11.835  0.0547  0.4661  0.3410
 1290SOL    HW115506   4.627   3.471  11.746  0.0365  1.6478 -0.0092
 1290SOL    HW215507   4.710   3.569  11.809  2.2033 -0.7291  1.8997
 1291SOL     OW15508   4.569   0.470   8.563 -1.0883 -0.8675 -0.3896
 1291SOL    HW115509   4.659   0.444   8.579 -1.0815 -0.9924 -0.6340
 1291SOL    HW215510   4.542   0.385   8.530 -0.6356  0.1825 -3.4684
 1292SOL     OW15511   1.572   0.845   1.345 -0.2952  0.3389  0.0868
 1292SOL    HW115512   1.478   0.828   1.349 -0.7281  2.5604 -0.4109
 1292SOL    HW215513   1.602   0.779   1.407 -1.2962 -0.5411 -0.3698
 1293SOL     OW15514   4.513   0.832   3.498  0.4029 -0.0612 -0.1098
 1293SOL    HW115515   4.571   0.828   3.574 -2.1924 -3.5732  1.6944
 1293SOL    HW215516   4.524   0.742   3.466  0.5898 -1.9333  5.1896
 1294SOL     OW15517   2.459   3.843   9.005 -0.4036  0.0301 -0.8113
 1294SOL    HW115518   2.456   3.922   9.058  0.3056 -0.7033  0.3222
 1294SOL    HW215519   2.493   3.774   9.061  1.1092  0.9933 -0.5470
 1295SOL     OW15520   4.094   4.226   5.994  0.2286 -0.3896 -0.3264
 1295SOL    HW115521   4.165   4.161   5.994 -0.8021 -1.5371  2.2355
 1295SOL    HW215522   4.058   4.201   5.909 -0.3323  1.4814 -0.6243
 1296SOL     OW15523   4.530   3.250   3.352 -0.3276 -0.0368  0.1644
 1296SOL    HW115524   4.545   3.244   3.447  0.5639 -1.4620 -0.0684
 1296SOL    HW215525   4.569   3.336   3.340 -1.0869  0.5017  1.4986
 1297SOL     OW15526   1.698   1.487   3.538  0.9233 -0.2950  0.2623
 1297SOL    HW115527   1.747   1.419   3.584 -0.3331 -1.6275 -0.4102
 1297SOL    HW215528   1.757   1.519   3.469 -1.0725 -0.7997 -1.6607
 1298SOL     OW15529   3.112   0.923   7.205  0.0230  0.6066  0.6552
 1298SOL    HW115530   3.166   0.989   7.162 -1.1045  0.6215 -0.7428
 1298SOL    HW215531   3.168   0.885   7.272 -0.3065 -1.3959 -0.2101
 1299SOL     OW15532   1.271   2.002   9.106 -0.6151  0.0055  0.0193
 1299SOL    HW115533   1.222   2.084   9.103 -2.8044 -1.2659  0.5896
 1299SOL    HW215534   1.265   1.974   9.198  0.7401 -1.7937 -0.4446
 1300SOL     OW15535   3.970   0.502   4.458 -0.7063 -0.1346 -0.5969
 1300SOL    HW115536   3.957   0.591   4.424  1.0124 -0.0107 -0.9214
 1300SOL    HW215537   3.981   0.455   4.375 -0.6539 -3.1318  1.1385
 1301SOL     OW15538   0.484   2.335   7.200  0.3256  0.2074  0.2971
 1301SOL    HW115539   0.554   2.370   7.145  1.5487 -1.0538  1.0776
 1301SOL    HW215540   0.524   2.337   7.287  1.3084 -0.2635 -0.1481
 1302SOL     OW15541   3.816   4.296  13.993 -0.4961  0.5884 -0.2440
 1302SOL    HW115542   3.755   4.370  13.992 -0.6882  0.4074 -1.7216
 1302SOL    HW215543   3.902   4.329  14.016 -1.3023  3.7258 -1.7852
 1303SOL     OW15544   3.940   1.560   5.279  0.5446  0.0129  0.0890
 1303SOL    HW115545   3.994   1.602   5.346 -0.7718 -1.8053  2.2740
 1303SOL    HW215546   3.944   1.470   5.312  0.7405 -0.3275 -0.8750
 1304SOL     OW15547   3.257   2.257  14.186  0.0656  0.6692  0.3699
 1304SOL    HW115548   3.196   2.271  14.259  0.6184  1.9932  0.5741
 1304SOL    HW215549   3.207   2.297  14.115  0.3143 -1.6114 -1.0897
 1305SOL     OW15550   1.642   0.109  11.593 -0.1706 -0.8796  0.0188
 1305SOL    HW115551   1.725   0.063  11.581  0.1378  0.3954 -2.8423
 1305SOL    HW215552   1.590   0.034  11.620 -0.3865 -0.6073  0.3573
 1306SOL     OW15553   0.737   1.669  17.435 -0.0765 -0.1629 -0.8481
 1306SOL    HW115554   0.828   1.659  17.461  0.0552 -0.2650 -1.3516
 1306SOL    HW215555   0.745   1.758  17.402  0.5196  0.1514  0.1568
 1307SOL     OW15556   1.630   0.853   2.030  0.7975 -0.0206  0.6275
 1307SOL    HW115557   1.656   0.936   1.990 -0.9591  1.3591  2.3192
 1307SOL    HW215558   1.619   0.887   2.119  2.7002  0.6733  0.5818
 1308SOL     OW15559   3.253   4.390   0.658 -0.5138 -0.4899  0.1143
 1308SOL    HW115560   3.311   4.416   0.729  0.9783  0.1753 -1.3659
 1308SOL    HW215561   3.277   4.297   0.668 -0.1075 -0.3244  0.7144
 1309SOL     OW15562   3.341   4.660   7.840  0.3329  0.3417 -0.5059
 1309SOL    HW115563   3.250   4.690   7.848 -0.4598 -1.5043 -2.3985
 1309SOL    HW215564   3.368   4.708   7.762 -2.6494  1.1453 -1.0724
 1310SOL     OW15565   1.943   2.345  17.396  0.2297  0.0230  0.1568
 1310SOL    HW115566   2.036   2.359  17.411  0.3479 -0.5620 -0.0489
 1310SOL    HW215567   1.913   2.320  17.484 -0.5351  0.4348  0.0178
 1311SOL     OW15568   2.476   2.086   3.804 -0.2112 -1.1018 -0.3900
 1311SOL    HW115569   2.399   2.067   3.857 -0.7574 -1.9357 -1.4766
 1311SOL    HW215570   2.452   2.139   3.728  1.6983  0.4443  0.0846
 1312SOL     OW15571   3.973   4.149  10.125  0.2958 -0.0616  0.3202
 1312SOL    HW115572   4.039   4.126  10.190  0.5628  0.2927  0.1739
 1312SOL    HW215573   3.892   4.136  10.175  1.8623 -0.7946  2.6500
 1313SOL     OW15574   0.498   2.692   8.093 -0.4750  0.0267 -0.0278
 1313SOL    HW115575   0.547   2.615   8.062  1.5302  0.8959  0.9501
 1313SOL    HW215576   0.408   2.661   8.086 -0.5219  0.3462 -0.8172
 1314SOL     OW15577   2.109   3.810  11.796 -0.1150 -0.1018 -0.1754
 1314SOL    HW115578   2.190   3.821  11.745 -1.5833  1.1951 -2.2341
 1314SOL    HW215579   2.116   3.715  11.799 -0.6904 -0.2120 -2.1612
 1315SOL     OW15580   3.091   4.576   8.212  0.2350  0.0715  0.0950
 1315SOL    HW115581   3.085   4.666   8.244  0.9429  0.3960 -0.6888
 1315SOL    HW215582   3.017   4.546   8.265  1.5693  0.0874  2.0026
 1316SOL     OW15583   2.577   1.719   9.258 -0.7680  0.3760 -0.2339
 1316SOL    HW115584   2.658   1.668   9.258 -0.7038  0.4786 -0.5167
 1316SOL    HW215585   2.527   1.666   9.196 -1.3629  1.0976 -0.3768
 1317SOL     OW15586   0.567   1.071  13.485  0.2644 -0.0935 -0.2513
 1317SOL    HW115587   0.637   1.010  13.507 -0.9240 -2.1229 -2.0653
 1317SOL    HW215588   0.604   1.123  13.414  1.4816 -0.8707 -0.1774
 1318SOL     OW15589   4.356   0.013  13.257  0.2582 -0.4423 -0.0509
 1318SOL    HW115590   4.345   0.079  13.325 -1.4545  0.3142 -1.0538
 1318SOL    HW215591   4.288   0.047  13.199 -0.7922 -2.0281  0.2560
 1319SOL     OW15592   1.053   3.679   0.050 -0.3801 -0.0760 -0.2831
 1319SOL    HW115593   0.998   3.629  17.731  0.5546  0.9946 -1.9966
 1319SOL    HW215594   1.121   3.706  17.731 -0.3449 -0.2888 -0.3376
 1320SOL     OW15595   1.050   2.810  11.599  0.1714 -0.0763 -0.1922
 1320SOL    HW115596   1.127   2.821  11.544 -0.2401 -1.1678 -0.9825
 1320SOL    HW215597   1.008   2.746  11.543 -2.3604 -0.1253  1.7791
 1321SOL     OW15598   2.844   2.694   8.221  0.5858  0.5427  0.1439
 1321SOL    HW115599   2.849   2.616   8.166  2.0521  1.0548 -0.4387
 1321SOL    HW215600   2.935   2.711   8.242  1.1506 -1.2925 -0.7939
 1322SOL     OW15601   4.158   0.266  11.665  0.1367  0.0387 -0.1528
 1322SOL    HW115602   4.195   0.353  11.650  2.3981 -0.4449  2.6753
 1322SOL    HW215603   4.179   0.211  11.590  0.8324 -1.5252  1.1668
 1323SOL     OW15604   1.346   2.937   9.255 -0.3603 -0.0870  0.8037
 1323SOL    HW115605   1.349   2.929   9.351  0.9592  0.5711  0.8275
 1323SOL    HW215606   1.261   2.895   9.247 -0.2868 -0.1733  0.4855
 1324SOL     OW15607   1.141   1.222   4.487  0.4257  0.2024  0.1791
 1324SOL    HW115608   1.190   1.157   4.437 -3.2857 -2.7654  0.3129
 1324SOL    HW215609   1.120   1.185   4.572  0.2758 -1.0404 -0.3997
 1325SOL     OW15610   3.554   1.957  13.379 -0.0323  0.3958 -0.5451
 1325SOL    HW115611   3.647   1.938  13.387  0.1941  0.8222 -2.0862
 1325SOL    HW215612   3.536   2.038  13.426 -0.0254 -0.6942  1.3404
 1326SOL     OW15613   1.113   2.209  14.803  0.2726 -0.0472  0.4869
 1326SOL    HW115614   1.070   2.133  14.763  1.3627 -0.3364 -0.1306
 1326SOL    HW215615   1.192   2.173  14.842 -0.0684 -0.0052  1.2160
 1327SOL     OW15616   2.663   1.785  11.465 -0.0477  0.3198  0.1238
 1327SOL    HW115617   2.595   1.833  11.417 -1.4879 -0.0484  1.7706
 1327SOL    HW215618   2.618   1.747  11.541  0.6796 -1.7780 -0.4965
 1328SOL     OW15619   1.647   0.771   8.174 -0.5784  0.3956  0.7219
 1328SOL    HW115620   1.611   0.688   8.207 -2.5935  0.7796 -0.4940
 1328SOL    HW215621   1.685   0.810   8.252  1.2167  1.6811 -0.8236
 1329SOL     OW15622   1.115   3.984   4.470 -0.1207 -0.1152 -0.3033
 1329SOL    HW115623   1.053   3.915   4.446 -1.1857  0.3012  1.3284
 1329SOL    HW215624   1.084   4.052   4.409 -1.8388  1.7112  2.6196
 1330SOL     OW15625   3.670   2.811  11.600  0.3767  0.1429 -0.1257
 1330SOL    HW115626   3.705   2.839  11.516 -0.8542 -1.6295 -1.2274
 1330SOL    HW215627   3.723   2.731  11.608  0.2246 -0.0257 -0.7917
 1331SOL     OW15628   0.305   2.222   7.592  0.3803  0.1507 -0.0188
 1331SOL    HW115629   0.307   2.209   7.687 -0.2932 -0.5631 -0.1035
 1331SOL    HW215630   0.305   2.132   7.560  2.9140  0.1667  0.0034
 1332SOL     OW15631   0.565   3.880   5.188  0.3052 -0.2077 -0.1507
 1332SOL    HW115632   0.635   3.860   5.125  0.4746 -1.5838  0.4713
 1332SOL    HW215633   0.551   3.790   5.218  0.5278 -0.0155  0.5287
 1333SOL     OW15634   1.162   1.542   5.723 -0.2179  0.6086  0.0258
 1333SOL    HW115635   1.093   1.606   5.738 -1.2252 -0.2915 -0.7216
 1333SOL    HW215636   1.200   1.576   5.642  0.4183 -0.7538 -0.2617
 1334SOL     OW15637   3.081   2.775   4.278  0.1857 -0.5890 -0.2104
 1334SOL    HW115638   3.168   2.800   4.248  0.3973 -2.0631 -0.8034
 1334SOL    HW215639   3.060   2.838   4.346 -1.5013  0.4255 -1.6759
 1335SOL     OW15640   4.385   0.163   4.932 -0.1012 -0.4726 -0.1095
 1335SOL    HW115641   4.418   0.204   4.852  0.6357 -0.6969  0.0862
 1335SOL    HW215642   4.429   0.078   4.932 -0.3914 -0.6295  0.4017
 1336SOL     OW15643   1.978   1.284   4.561  0.4174  0.1461  0.1075
 1336SOL    HW115644   1.931   1.205   4.587  0.4356  0.5853  1.5088
 1336SOL    HW215645   2.030   1.250   4.488 -0.2621  0.6085 -0.5840
 1337SOL     OW15646   3.863   3.515   1.593 -0.3010  0.3077 -0.0956
 1337SOL    HW115647   3.848   3.586   1.530 -0.7883 -1.6747 -2.2296
 1337SOL    HW215648   3.890   3.440   1.540 -1.5121 -0.6433  0.6245
 1338SOL     OW15649   0.263   0.392   1.795 -0.1126  0.1672  0.3841
 1338SOL    HW115650   0.352   0.388   1.830 -0.3480 -0.0151  0.9744
 1338SOL    HW215651   0.265   0.471   1.741  3.1867  0.0774  0.3774
 1339SOL     OW15652   2.702   3.444   5.761  0.0444 -0.4912  0.2427
 1339SOL    HW115653   2.756   3.424   5.684  0.2945  0.0495  0.2816
 1339SOL    HW215654   2.613   3.453   5.727 -0.1050  3.0571  1.5917
 1340SOL     OW15655   3.042   3.611  10.404  0.3275  0.0739 -0.2876
 1340SOL    HW115656   3.103   3.546  10.438  0.1848 -0.6707 -1.4807
 1340SOL    HW215657   3.087   3.695  10.415  2.2552 -0.5960 -3.1702
 1341SOL     OW15658   3.700   4.634  17.648 -0.6231 -0.0311 -0.2485
 1341SOL    HW115659   3.652   4.714  17.666  1.9659  1.1841  1.3762
 1341SOL    HW215660   3.629   4.572  17.638 -1.9826  1.2648  1.3491
 1342SOL     OW15661   1.025   4.328   3.176  0.0680 -0.9945  0.0434
 1342SOL    HW115662   0.990   4.401   3.125 -0.2806 -0.6197  0.8201
 1342SOL    HW215663   1.085   4.376   3.232 -0.3945 -1.6105  1.0675
 1343SOL     OW15664   0.950   3.018  12.654 -0.1219 -0.3934  0.6315
 1343SOL    HW115665   0.993   3.066  12.725  0.7130 -2.7461  1.7290
 1343SOL    HW215666   0.931   2.938  12.703  0.2120 -1.5178 -1.0477
 1344SOL     OW15667   1.022   1.971   2.368 -0.1197  0.5204  0.3960
 1344SOL    HW115668   1.037   1.962   2.462  2.9877 -1.0144 -0.2642
 1344SOL    HW215669   0.926   1.969   2.367 -0.1232  1.7942 -0.6679
 1345SOL     OW15670   3.667   3.703   2.316 -0.2654 -0.3972  0.3752
 1345SOL    HW115671   3.650   3.784   2.267  1.3540 -0.9345 -1.0825
 1345SOL    HW215672   3.672   3.740   2.404 -1.1991  0.4299  0.0852
 1346SOL     OW15673   3.269   4.599  16.634  0.0960  0.3112 -0.1853
 1346SOL    HW115674   3.181   4.621  16.665 -0.6292 -1.1546 -1.1697
 1346SOL    HW215675   3.275   4.506  16.653  0.6382  0.6793  1.4025
 1347SOL     OW15676   4.291   0.240   1.171  0.2275  0.3836  0.0988
 1347SOL    HW115677   4.265   0.325   1.207 -0.6012  1.2128 -2.4512
 1347SOL    HW215678   4.210   0.217   1.125  1.4366  0.5777 -2.1278
 1348SOL     OW15679   3.441   0.389   4.515 -0.1467 -0.0316 -0.9331
 1348SOL    HW115680   3.477   0.327   4.451 -0.3664  0.2547 -1.3348
 1348SOL    HW215681   3.496   0.467   4.509  0.4160 -0.1347  2.7630
 1349SOL     OW15682   4.151   3.059   2.708  0.1735 -0.1156 -0.3282
 1349SOL    HW115683   4.223   3.038   2.648 -1.7684 -1.5194 -2.1723
 1349SOL    HW215684   4.191   3.120   2.770  0.9255 -2.5420  1.5783
 1350SOL     OW15685   1.224   1.807   3.281  0.4417 -0.3729 -0.1704
 1350SOL    HW115686   1.166   1.882   3.277 -1.4604 -1.8946 -1.1054
 1350SOL    HW215687   1.306   1.851   3.304 -0.1771  1.0841 -0.7833
 1351SOL     OW15688   2.248   2.007   1.808  1.1210  0.3832  0.1751
 1351SOL    HW115689   2.332   1.964   1.822  0.4479 -1.1524 -0.4258
 1351SOL    HW215690   2.274   2.078   1.750 -0.3836 -0.5431 -1.6445
 1352SOL     OW15691   3.210   3.799   5.562 -0.3583  0.3241 -0.1788
 1352SOL    HW115692   3.282   3.829   5.618 -0.9164  0.3953  0.4989
 1352SOL    HW215693   3.230   3.705   5.563  1.2238  0.6367 -2.0165
 1353SOL     OW15694   0.303   1.720   6.386  0.1809  0.0975  0.1327
 1353SOL    HW115695   0.339   1.635   6.361 -0.1125  0.1305 -0.4157
 1353SOL    HW215696   0.344   1.778   6.321  0.3586  0.9802  1.0289
 1354SOL     OW15697   1.229   3.599   6.358 -0.2682 -0.5534  0.3237
 1354SOL    HW115698   1.297   3.554   6.408  1.5013  0.3456 -1.2772
 1354SOL    HW215699   1.178   3.522   6.335 -2.4172  0.9490  0.0077
 1355SOL     OW15700   3.346   3.156   4.616 -0.3260  0.4868  0.0779
 1355SOL    HW115701   3.347   3.120   4.527  0.1478  1.9540 -0.5044
 1355SOL    HW215702   3.418   3.216   4.596  1.4443 -1.0437  1.6906
 1356SOL     OW15703   4.440   2.961   0.999  0.0605 -0.0343 -0.0492
 1356SOL    HW115704   4.381   2.912   0.942  0.3129 -0.8104  0.3632
 1356SOL    HW215705   4.529   2.935   0.976  0.1419 -0.8525  1.1991
 1357SOL     OW15706   1.589   2.644   7.428 -0.4576 -0.1999  0.7559
 1357SOL    HW115707   1.616   2.736   7.426 -0.6845 -0.0873  3.3000
 1357SOL    HW215708   1.552   2.635   7.516 -0.1250 -0.1682  0.9002
 1358SOL     OW15709   2.254   2.695   4.854  0.2463  0.4714 -0.6404
 1358SOL    HW115710   2.230   2.788   4.849  0.6568  0.4285 -3.4780
 1358SOL    HW215711   2.172   2.661   4.891  1.2472 -0.6484  0.5451
 1359SOL     OW15712   1.812   2.106   7.157 -0.0961 -0.2759 -0.1832
 1359SOL    HW115713   1.905   2.123   7.174  0.1414 -2.9945  1.3914
 1359SOL    HW215714   1.774   2.172   7.215  0.7779  1.2720 -1.3750
 1360SOL     OW15715   4.073   0.016  10.795 -0.1268 -0.0351  0.3665
 1360SOL    HW115716   4.149   4.695  10.807 -0.2050  0.2016  1.9068
 1360SOL    HW215717   4.100   0.094  10.746 -0.6190  1.0348  1.7854
 1361SOL     OW15718   0.616   3.525   9.359 -0.1777 -0.7712  0.4220
 1361SOL    HW115719   0.665   3.474   9.423  4.1002 -0.8845 -2.9636
 1361SOL    HW215720   0.535   3.541   9.407 -0.8543 -0.7615 -0.7200
 1362SOL     OW15721   3.488   2.486   5.270  0.1047  0.0815  0.2311
 1362SOL    HW115722   3.522   2.397   5.264 -1.0078 -0.2006 -1.9622
 1362SOL    HW215723   3.545   2.527   5.204 -0.9928  0.6136 -0.3889
 1363SOL     OW15724   4.720   3.374   2.804 -0.3660  0.1840  0.2057
 1363SOL    HW115725   0.061   3.405   2.851  0.1190  0.8026 -0.9755
 1363SOL    HW215726   0.016   3.306   2.745  0.1334 -0.2648  1.0075
 1364SOL     OW15727   0.375   0.209  16.280  0.2583 -0.1769 -0.4957
 1364SOL    HW115728   0.405   0.118  16.290  0.8079  0.3099  2.3050
 1364SOL    HW215729   0.452   0.256  16.313 -0.2286 -1.8002  2.9812
 1365SOL     OW15730   3.246   4.445  13.190  0.0331 -0.5365 -0.3835
 1365SOL    HW115731   3.283   4.450  13.278  3.6217  2.3377 -2.0578
 1365SOL    HW215732   3.248   4.539  13.172  2.5199 -0.3801  0.7113
 1366SOL     OW15733   2.930   2.912   8.841  0.3234  0.2881  0.7864
 1366SOL    HW115734   2.877   2.906   8.762  0.9859 -0.4174  0.4021
 1366SOL    HW215735   2.983   2.991   8.828  1.5150 -0.3545  1.7523
 1367SOL     OW15736   4.418   3.974  15.068 -0.4523  0.2063 -0.3871
 1367SOL    HW115737   4.449   3.958  15.157 -1.1599 -2.1783 -0.5705
 1367SOL    HW215738   4.463   4.054  15.042 -0.9786  1.3635  2.2743
 1368SOL     OW15739   1.301   1.582   8.726  0.4892  0.2579  0.1487
 1368SOL    HW115740   1.366   1.521   8.761 -1.9420 -2.2363  0.3882
 1368SOL    HW215741   1.308   1.667   8.768  0.2109  0.6782 -0.6550
 1369SOL     OW15742   0.647   3.014   4.306 -0.6000  0.2582  0.4724
 1369SOL    HW115743   0.581   2.980   4.246  0.7149 -0.8872 -0.3405
 1369SOL    HW215744   0.720   2.995   4.246  0.5346  0.7674  1.6892
 1370SOL     OW15745   3.563   2.380   1.800  0.4452 -0.0549  0.0988
 1370SOL    HW115746   3.537   2.428   1.879 -1.4356 -1.1686  0.1420
 1370SOL    HW215747   3.479   2.336   1.786  0.8059 -1.0629  1.1398
 1371SOL     OW15748   0.950   4.144   9.664  0.4934  0.2554 -0.2759
 1371SOL    HW115749   0.956   4.064   9.611  1.2347 -1.7771  2.8907
 1371SOL    HW215750   1.039   4.136   9.698 -0.2230 -0.8207  1.3301
 1372SOL     OW15751   0.969   3.981  13.257 -0.2918  0.0150 -0.4232
 1372SOL    HW115752   0.892   4.008  13.306  1.3011  2.8161  0.5528
 1372SOL    HW215753   0.963   3.886  13.256 -0.5519  0.0373 -1.3538
 1373SOL     OW15754   4.066   2.410   4.929  0.1682 -0.2429 -0.4389
 1373SOL    HW115755   4.054   2.489   4.982  0.4759  0.0598 -0.8147
 1373SOL    HW215756   3.977   2.387   4.902  0.2919 -0.2915 -0.8081
 1374SOL     OW15757   0.641   3.913   8.365 -0.0844 -0.1452 -0.1857
 1374SOL    HW115758   0.643   4.008   8.354 -2.9979 -0.0770 -0.1376
 1374SOL    HW215759   0.733   3.887   8.360  0.9090  3.2578  0.4169
 1375SOL     OW15760   3.037   3.557   5.789  0.0346 -0.0991 -0.4001
 1375SOL    HW115761   3.009   3.643   5.819 -1.4869 -1.4812  2.1513
 1375SOL    HW215762   3.004   3.566   5.700  0.6530 -0.8263 -0.7053
 1376SOL     OW15763   3.976   1.807   4.953  0.7497  0.0291  0.3282
 1376SOL    HW115764   3.969   1.903   4.955  3.9187  0.3028 -1.7186
 1376SOL    HW215765   3.978   1.784   5.046  1.1076 -0.0833  0.2895
 1377SOL     OW15766   3.742   0.412   4.072 -0.0561  0.8428 -0.0478
 1377SOL    HW115767   3.722   0.471   4.145  0.0627  1.9271 -0.8950
 1377SOL    HW215768   3.695   0.456   4.002  0.8432  0.6455 -0.7814
 1378SOL     OW15769   3.833   2.063   8.564 -0.1069 -0.2949  0.1810
 1378SOL    HW115770   3.763   2.128   8.554 -0.6598 -0.8100  0.6824
 1378SOL    HW215771   3.812   2.001   8.493 -2.8130 -0.2956  0.9717
 1379SOL     OW15772   4.438   2.171  12.967  0.1763  0.0489  1.1594
 1379SOL    HW115773   4.377   2.099  12.953  1.9246 -1.0977 -0.4362
 1379SOL    HW215774   4.517   2.119  12.952  2.2062  4.1398 -2.3791
 1380SOL     OW15775   2.646   4.393  10.324  0.4343 -0.3700 -0.1383
 1380SOL    HW115776   2.657   4.373  10.231  2.0844  3.0425 -0.6814
 1380SOL    HW215777   2.566   4.342  10.332  0.0476  1.2863  6.2902
 1381SOL     OW15778   2.331   1.468   7.515  0.0656 -0.2554  0.1123
 1381SOL    HW115779   2.249   1.420   7.502  0.9954 -1.1730 -2.4012
 1381SOL    HW215780   2.359   1.455   7.606  0.7215 -0.7924 -0.1655
 1382SOL     OW15781   0.577   0.314   4.285  0.2606 -0.5025 -0.0365
 1382SOL    HW115782   0.551   0.226   4.257 -0.6075 -0.7872  1.6682
 1382SOL    HW215783   0.575   0.303   4.380  1.1000 -2.9944 -0.3215
 1383SOL     OW15784   0.687   1.130   0.434 -0.5714 -0.2566  0.1814
 1383SOL    HW115785   0.593   1.128   0.422 -0.6700  1.0729  0.7767
 1383SOL    HW215786   0.700   1.206   0.491  0.3591  0.7666 -1.4050
 1384SOL     OW15787   0.668   0.753   5.384 -0.0792 -0.7054 -0.0311
 1384SOL    HW115788   0.580   0.761   5.347 -0.8350 -1.3866  1.6067
 1384SOL    HW215789   0.664   0.804   5.465  0.3202 -0.4417 -0.1805
 1385SOL     OW15790   1.445   3.140   7.539  0.1329  0.2014 -0.9253
 1385SOL    HW115791   1.450   3.094   7.623 -0.0903  1.7075 -0.0764
 1385SOL    HW215792   1.447   3.228   7.576  0.2474  0.4595 -1.5567
 1386SOL     OW15793   3.737   2.671  12.012  0.0605  0.3741 -0.1890
 1386SOL    HW115794   3.829   2.648  12.017  0.0182  0.8049  2.5939
 1386SOL    HW215795   3.698   2.658  12.099 -0.5655  0.9425 -0.3831
 1387SOL     OW15796   3.015   3.938  16.221 -0.2180  0.4321 -0.5393
 1387SOL    HW115797   3.095   3.990  16.212  0.9894 -1.5328 -1.1765
 1387SOL    HW215798   3.058   3.853  16.209 -0.7926 -0.1424  1.4856
 1388SOL     OW15799   3.671   1.595  12.199 -0.5431  0.1882 -0.0568
 1388SOL    HW115800   3.616   1.641  12.135 -0.4115  0.6761  0.1767
 1388SOL    HW215801   3.713   1.668  12.245 -2.2742  0.2033  1.5228
 1389SOL     OW15802   1.999   2.766   4.008  0.0465  0.3384  0.3707
 1389SOL    HW115803   1.985   2.766   4.103  2.2713  3.7323  0.7014
 1389SOL    HW215804   1.929   2.828   3.986  0.7271  1.3550  1.0541
 1390SOL     OW15805   1.427   1.551   3.453  0.5655  0.1038 -0.3841
 1390SOL    HW115806   1.441   1.642   3.481 -0.9260 -0.6657  2.8817
 1390SOL    HW215807   1.506   1.510   3.489  1.0189  0.5538 -0.8671
 1391SOL     OW15808   3.160   1.398   6.546  0.1897  0.4238 -0.3913
 1391SOL    HW115809   3.218   1.361   6.480  0.3738 -1.4632  0.8188
 1391SOL    HW215810   3.192   1.356   6.626 -0.2794  2.1356  0.7067
 1392SOL     OW15811   4.020   1.921   4.519 -0.2687 -0.4026 -0.4480
 1392SOL    HW115812   4.114   1.914   4.508 -0.6211 -3.3356 -1.5154
 1392SOL    HW215813   4.015   1.898   4.612 -1.0174  0.4148 -0.2791
 1393SOL     OW15814   1.998   1.358   1.293 -0.2594  0.0907 -0.6743
 1393SOL    HW115815   1.915   1.357   1.341 -1.1781 -1.1965 -2.2748
 1393SOL    HW215816   1.971   1.312   1.213  1.5132  0.0753 -1.2587
 1394SOL     OW15817   1.684   3.015  16.455  0.0933 -0.1609  0.0859
 1394SOL    HW115818   1.652   3.098  16.490 -0.0827  0.0067 -0.4710
 1394SOL    HW215819   1.766   3.003  16.503  1.3892  0.8466 -1.8870
 1395SOL     OW15820   3.111   2.653   8.275  0.1617  0.0554 -0.1997
 1395SOL    HW115821   3.185   2.695   8.231 -0.4527  0.4739 -0.8192
 1395SOL    HW215822   3.147   2.564   8.278  0.0466 -0.0575 -2.0786
 1396SOL     OW15823   2.151   3.406  15.405  0.0686 -0.1170 -0.0281
 1396SOL    HW115824   2.178   3.395  15.496 -0.6498  0.2970  0.2370
 1396SOL    HW215825   2.226   3.360  15.368  1.3398  0.5534  1.6564
 1397SOL     OW15826   0.681   3.072   1.670 -0.2675 -0.0280  0.0669
 1397SOL    HW115827   0.598   3.024   1.673 -1.8450  2.6859  0.1259
 1397SOL    HW215828   0.718   3.032   1.748 -0.2500 -0.5247 -0.1946
 1398SOL     OW15829   3.771   1.768   4.751  0.2950 -0.0527  0.2780
 1398SOL    HW115830   3.855   1.760   4.796  0.2764  0.9600  0.4916
 1398SOL    HW215831   3.762   1.863   4.749 -1.6081 -0.2122  0.9610
 1399SOL     OW15832   0.443   4.224   5.757  0.1146 -0.5788  0.1015
 1399SOL    HW115833   0.530   4.188   5.742  0.3558  0.7417 -1.6359
 1399SOL    HW215834   0.469   4.295   5.816 -1.9229 -0.0400  0.3472
 1400SOL     OW15835   1.993   0.351  16.992  0.1547 -0.2104  0.0889
 1400SOL    HW115836   1.971   0.321  17.080 -1.2439  0.1946 -0.1273
 1400SOL    HW215837   2.082   0.317  16.978  1.2758  2.2601  1.1677
 1401SOL     OW15838   0.627   0.254   6.547  0.1687  0.1935 -0.5037
 1401SOL    HW115839   0.628   0.300   6.462 -1.0170  0.8544 -0.1711
 1401SOL    HW215840   0.668   0.170   6.529  0.3260  0.2878 -0.5893
 1402SOL     OW15841   4.699   2.363  11.157 -0.2397  0.2729  0.1131
 1402SOL    HW115842   0.023   2.425  11.198 -0.6504  0.6525  0.1403
 1402SOL    HW215843   4.626   2.350  11.217  0.2606 -0.1046  0.6374
 1403SOL     OW15844   3.321   0.707   6.585 -0.8813  0.2092 -0.2725
 1403SOL    HW115845   3.309   0.612   6.596 -0.6480  0.3238  0.9470
 1403SOL    HW215846   3.339   0.721   6.677 -0.2647 -1.0085 -0.2110
 1404SOL     OW15847   3.864   3.633   0.234 -0.4643  0.4533  0.1985
 1404SOL    HW115848   3.858   3.727   0.218 -1.0146  0.1325 -1.5378
 1404SOL    HW215849   3.791   3.608   0.177 -1.8624  1.2936  1.6436
 1405SOL     OW15850   0.174   1.456   6.967  0.4039 -0.0734  0.3394
 1405SOL    HW115851   0.133   1.378   7.006 -2.4002  0.5938 -1.2195
 1405SOL    HW215852   0.163   1.448   6.872  0.4554  0.2193  0.3086
 1406SOL     OW15853   4.529   1.358  11.076  0.1557  0.4361  0.0630
 1406SOL    HW115854   4.624   1.354  11.088  0.1193  0.5779  0.4264
 1406SOL    HW215855   4.505   1.276  11.034 -0.8869  0.8963 -0.2470
 1407SOL     OW15856   1.995   1.106   2.623 -0.0808 -0.2982 -0.3228
 1407SOL    HW115857   2.073   1.088   2.570  0.1312  0.6222 -0.3239
 1407SOL    HW215858   1.915   1.080   2.579 -1.0019 -0.5184  1.4699
 1408SOL     OW15859   3.873   3.547   3.758  0.0732  0.4748  0.3724
 1408SOL    HW115860   3.962   3.581   3.744  0.0976 -0.2835 -1.3020
 1408SOL    HW215861   3.814   3.615   3.723  0.3061 -1.1200 -3.1385
 1409SOL     OW15862   4.581   2.203   4.527  0.0425 -0.0772  0.0871
 1409SOL    HW115863   4.558   2.110   4.532 -0.3828  0.0848  1.2097
 1409SOL    HW215864   4.497   2.246   4.514  1.2930  2.1249 -0.7122
 1410SOL     OW15865   3.530   1.775   5.668 -0.3414  0.3321  0.2675
 1410SOL    HW115866   3.462   1.752   5.605  2.1010  1.9893 -2.9969
 1410SOL    HW215867   3.499   1.865   5.677  0.8437  0.7398  0.2942
 1411SOL     OW15868   0.042   2.481  12.895 -0.0559 -0.3248  0.1929
 1411SOL    HW115869   0.082   2.552  12.845 -0.3032 -0.5360 -0.2993
 1411SOL    HW215870   0.064   2.503  12.986  1.1350  0.4363 -0.2852
 1412SOL     OW15871   0.947   3.359   3.426 -0.6725 -0.0712  0.3363
 1412SOL    HW115872   0.915   3.395   3.344  1.9259  2.7287  0.5302
 1412SOL    HW215873   0.974   3.437   3.475  0.4701  0.2788 -0.8661
 1413SOL     OW15874   2.468   4.205   6.137 -0.0892 -0.2516  0.2382
 1413SOL    HW115875   2.451   4.134   6.075 -0.9462  0.5752 -0.4778
 1413SOL    HW215876   2.394   4.203   6.197 -0.7741  0.2615 -0.5822
 1414SOL     OW15877   2.618   4.140   4.999  0.4519 -0.2743 -0.1423
 1414SOL    HW115878   2.705   4.175   4.984  0.8867 -0.7969  1.1529
 1414SOL    HW215879   2.598   4.200   5.071 -0.5979 -0.5261 -0.2299
 1415SOL     OW15880   0.539   4.311  12.131  0.4349 -0.1392  0.2761
 1415SOL    HW115881   0.535   4.248  12.059  1.4185 -0.9954  0.9725
 1415SOL    HW215882   0.459   4.294  12.181  0.8327  0.6072  1.1612
 1416SOL     OW15883   3.165   2.932   3.192 -0.4919  0.2673 -0.1629
 1416SOL    HW115884   3.232   2.977   3.141 -1.5639  1.8626 -0.1592
 1416SOL    HW215885   3.179   2.972   3.278  0.6755  0.3290 -0.3734
 1417SOL     OW15886   1.694   4.422   7.347 -0.2031  0.1503  0.6776
 1417SOL    HW115887   1.768   4.480   7.362  1.4573 -1.1996 -2.4170
 1417SOL    HW215888   1.669   4.412   7.439  1.3220  2.6375  1.3718
 1418SOL     OW15889   2.755   0.864   5.564 -0.0709  0.3091 -0.6527
 1418SOL    HW115890   2.719   0.792   5.615 -1.6923  0.8028 -1.1110
 1418SOL    HW215891   2.736   0.835   5.475 -0.5771  1.3240 -0.8706
 1419SOL     OW15892   4.453   4.328   4.192  0.1492  0.0689  0.1885
 1419SOL    HW115893   4.394   4.403   4.196 -1.6133 -1.2070 -1.3988
 1419SOL    HW215894   4.433   4.302   4.102  0.6520 -2.1363  0.6948
 1420SOL     OW15895   0.276   4.430  17.069 -0.5061  0.2329 -0.2645
 1420SOL    HW115896   0.213   4.437  17.141  2.2965  0.0441  2.1936
 1420SOL    HW215897   0.216   4.398  17.001 -1.8417  1.1034  0.4930
 1421SOL     OW15898   3.825   0.572  17.311 -0.0304  0.3430  0.3095
 1421SOL    HW115899   3.780   0.527  17.240  0.1104  0.9653 -0.1824
 1421SOL    HW215900   3.881   0.498  17.332 -2.3677 -1.7484 -0.8471
 1422SOL     OW15901   4.053   3.195   7.241 -0.3441 -0.0691  0.0888
 1422SOL    HW115902   4.114   3.133   7.201  1.5516  0.6836  1.8323
 1422SOL    HW215903   4.107   3.273   7.237 -1.6574  0.8875  1.2003
 1423SOL     OW15904   0.019   0.700   8.444  0.4909 -0.2399  0.2394
 1423SOL    HW115905   0.070   0.766   8.397 -1.1007  0.4679 -0.4758
 1423SOL    HW215906   4.672   0.711   8.397  0.4188  0.1777  0.4667
 1424SOL     OW15907   0.183   3.284   2.065  0.0808  1.1380  0.9128
 1424SOL    HW115908   0.225   3.203   2.095 -0.9184  0.7451  1.2618
 1424SOL    HW215909   0.214   3.289   1.975 -1.6964 -1.3671  0.1471
 1425SOL     OW15910   3.180   3.790   3.577 -0.0973 -0.2714 -0.6025
 1425SOL    HW115911   3.129   3.866   3.550 -1.4969 -0.1259  2.3808
 1425SOL    HW215912   3.172   3.736   3.499 -4.6352  2.1866 -1.8246
 1426SOL     OW15913   1.929   3.162   4.332  0.4266  0.2747  0.2547
 1426SOL    HW115914   1.899   3.076   4.361  2.3911  0.2740  2.2727
 1426SOL    HW215915   1.997   3.146   4.266  0.3392 -1.6515  0.6384
 1427SOL     OW15916   0.666   4.019   3.067  0.0226  0.2936 -0.1542
 1427SOL    HW115917   0.713   3.991   3.145 -2.0692 -0.3719  0.8618
 1427SOL    HW215918   0.716   3.971   3.001  0.5335 -0.3923  0.7543
 1428SOL     OW15919   1.786   2.206   3.098  0.6044  0.8695 -0.2535
 1428SOL    HW115920   1.794   2.255   3.016  1.5848 -1.6370 -1.6752
 1428SOL    HW215921   1.861   2.239   3.148 -1.5030  2.5450  1.7860
 1429SOL     OW15922   4.007   4.404   2.164  0.0617 -0.2175  0.4546
 1429SOL    HW115923   3.957   4.486   2.158 -2.1410 -1.4570  1.6381
 1429SOL    HW215924   3.937   4.339   2.175 -1.4599  1.3664  0.0566
 1430SOL     OW15925   0.935   3.809   0.569 -0.0052  0.0948  0.1555
 1430SOL    HW115926   0.975   3.723   0.581  1.1150  0.4085 -1.3020
 1430SOL    HW215927   0.962   3.831   0.480  1.7447 -2.7879 -0.0141
 1431SOL     OW15928   4.344   0.171   2.255 -0.3449  0.3577  0.2825
 1431SOL    HW115929   4.394   0.176   2.337  0.9133  0.4030 -0.4966
 1431SOL    HW215930   4.293   0.252   2.262 -0.2145  0.4461  0.2097
 1432SOL     OW15931   2.510   0.410  11.184 -0.3686 -0.1748  0.3371
 1432SOL    HW115932   2.495   0.502  11.207 -0.2932  0.1249 -0.8237
 1432SOL    HW215933   2.599   0.405  11.218 -0.5887  1.0486  1.1097
 1433SOL     OW15934   3.609   3.783  17.155  0.0450  0.8226 -0.1159
 1433SOL    HW115935   3.616   3.835  17.235 -1.8075  0.5954  0.1907
 1433SOL    HW215936   3.517   3.757  17.162  0.7015 -1.2790  0.4181
 1434SOL     OW15937   2.434   2.074  11.624 -0.2562 -0.0499 -0.0665
 1434SOL    HW115938   2.413   2.154  11.576  1.9920 -1.0639 -2.7688
 1434SOL    HW215939   2.511   2.044  11.577  0.0126 -1.1659  1.1056
 1435SOL     OW15940   0.477   3.787   2.544 -0.5657 -0.5925 -0.1055
 1435SOL    HW115941   0.479   3.845   2.620 -1.3796 -0.2455 -0.3520
 1435SOL    HW215942   0.563   3.808   2.508 -0.7388  1.8054  0.8413
 1436SOL     OW15943   2.355   3.327   3.090  0.0569  0.0889  0.0404
 1436SOL    HW115944   2.330   3.234   3.082 -0.9059  0.3532 -0.0186
 1436SOL    HW215945   2.374   3.338   3.183 -1.0855 -0.4146  0.3354
 1437SOL     OW15946   2.399   1.854   8.498  0.0245  0.0217 -0.3778
 1437SOL    HW115947   2.356   1.808   8.426  1.3890 -1.3333 -0.3187
 1437SOL    HW215948   2.320   1.879   8.547 -0.1700  0.7925 -1.0686
 1438SOL     OW15949   2.515   0.601   1.661 -0.5719  0.2969 -0.3542
 1438SOL    HW115950   2.420   0.606   1.660 -0.6908 -1.5518  3.7361
 1438SOL    HW215951   2.542   0.677   1.714 -1.7739 -0.2477  1.0453
 1439SOL     OW15952   4.516   1.841  12.679  0.5718  0.2053  0.1781
 1439SOL    HW115953   4.435   1.858  12.631 -0.2007 -0.3085  1.3018
 1439SOL    HW215954   4.534   1.935  12.680  1.3778  0.0547 -0.2643
 1440SOL     OW15955   0.812   2.804   4.828  0.0124 -0.0273 -0.3078
 1440SOL    HW115956   0.753   2.806   4.752  0.0593  2.6758 -0.2643
 1440SOL    HW215957   0.755   2.802   4.905  0.1513  2.5425 -0.1583
 1441SOL     OW15958   3.257   3.855  16.971  0.2774  0.2550  0.3255
 1441SOL    HW115959   3.196   3.804  16.918 -0.7036  0.9799  0.7640
 1441SOL    HW215960   3.265   3.793  17.044 -0.0187 -0.0737  0.0813
 1442SOL     OW15961   2.277   2.452   5.530 -0.2944  0.2642 -0.4126
 1442SOL    HW115962   2.281   2.496   5.615  1.4245 -1.5350  0.4344
 1442SOL    HW215963   2.312   2.364   5.545  0.1670  0.2603 -1.5617
 1443SOL     OW15964   1.051   2.002   8.504 -0.5166  0.0810  0.2180
 1443SOL    HW115965   1.061   1.971   8.414  0.0670  0.5690  0.1115
 1443SOL    HW215966   0.958   2.021   8.505 -0.3012  1.1788  2.0478
 1444SOL     OW15967   4.502   4.728   3.073  0.0341 -0.3347 -0.1440
 1444SOL    HW115968   4.514   0.060   3.007 -0.9682  0.0488  0.0715
 1444SOL    HW215969   4.408   4.709   3.074 -0.1757  0.6700 -2.8114
 1445SOL     OW15970   1.891   4.375  11.295  0.4417 -0.1847  0.1508
 1445SOL    HW115971   1.867   4.283  11.284  1.3718 -0.3884 -0.0985
 1445SOL    HW215972   1.950   4.377  11.370  1.0134 -1.7465 -0.2689
 1446SOL     OW15973   2.846   1.372  11.216  0.1669 -0.5403  0.0388
 1446SOL    HW115974   2.843   1.320  11.296  1.3850 -0.7673 -0.0746
 1446SOL    HW215975   2.936   1.364  11.185  0.1787  1.9483 -0.5842
 1447SOL     OW15976   4.589   4.148  11.635 -0.1597  1.0433  0.3921
 1447SOL    HW115977   4.527   4.200  11.687 -0.2134  2.2590 -0.8732
 1447SOL    HW215978   4.585   4.188  11.548 -0.7773 -1.0622 -0.5406
 1448SOL     OW15979   4.357   2.865   1.878 -0.3952 -0.5611 -0.2866
 1448SOL    HW115980   4.394   2.900   1.796 -4.6640 -0.9984 -2.4198
 1448SOL    HW215981   4.413   2.919   1.933  1.0415  0.8930 -3.1594
 1449SOL     OW15982   1.663   1.864   4.538  0.3767 -0.4801  0.3158
 1449SOL    HW115983   1.578   1.882   4.578  1.5133  0.2129  2.4151
 1449SOL    HW215984   1.712   1.856   4.620 -0.2244  1.7664  0.8875
 1450SOL     OW15985   1.540   0.549   1.586  0.0005 -0.1824 -0.3699
 1450SOL    HW115986   1.534   0.591   1.672 -1.0802  1.6277 -1.3102
 1450SOL    HW215987   1.446   0.537   1.573 -0.1947  1.3028 -0.3697
 1451SOL     OW15988   0.656   1.359   3.095 -0.1194  0.6197  0.6781
 1451SOL    HW115989   0.563   1.353   3.118 -0.3221 -0.6906 -0.4589
 1451SOL    HW215990   0.651   1.311   3.012  1.2002  0.6131  0.5984
 1452SOL     OW15991   0.119   4.229   2.788 -0.6377  0.4341 -0.0908
 1452SOL    HW115992   0.085   4.268   2.868 -0.3482  0.4902  0.0066
 1452SOL    HW215993   0.215   4.233   2.794 -0.6340  1.2156 -0.7058
 1453SOL     OW15994   3.187   3.756   7.743  0.5187 -0.0431 -0.1509
 1453SOL    HW115995   3.169   3.759   7.649 -3.1367 -0.7669  0.5154
 1453SOL    HW215996   3.138   3.832   7.775  3.7911  0.7284  2.9927
 1454SOL     OW15997   3.961   3.405   2.591  0.3173  0.0815 -0.2419
 1454SOL    HW115998   3.925   3.485   2.630  1.0572  0.6131 -0.6436
 1454SOL    HW215999   3.995   3.376   2.675  1.0635  2.9868  0.4768
 1455SOL     OW16000   4.014   4.654  16.282 -0.1602  0.1101 -0.9775
 1455SOL    HW116001   3.944   4.614  16.231 -2.4015  1.5833  0.9115
 1455SOL    HW216002   3.979   4.712  16.350  0.5346  0.4021 -0.8675
 1456SOL     OW16003   0.848   1.974   4.513 -0.1024 -0.0168 -0.0386
 1456SOL    HW116004   0.863   1.880   4.524  1.7648  0.2798 -0.1156
 1456SOL    HW216005   0.919   1.992   4.452  0.2780 -0.3693  0.2972
 1457SOL     OW16006   0.382   1.824  14.113 -0.3205 -0.0548 -0.4215
 1457SOL    HW116007   0.476   1.818  14.098 -0.3394  1.0208 -0.9911
 1457SOL    HW216008   0.365   1.785  14.199  1.0396 -1.7433 -0.9147
 1458SOL     OW16009   2.701   2.708   0.773 -0.5730 -0.3728 -0.0771
 1458SOL    HW116010   2.653   2.626   0.759 -0.7573 -0.1088 -0.9908
 1458SOL    HW216011   2.672   2.736   0.860  1.5508  0.2646  0.4235
 1459SOL     OW16012   1.928   1.994  14.379  0.6728 -0.3080 -0.3014
 1459SOL    HW116013   1.926   2.085  14.350 -0.5904 -0.2258  0.0410
 1459SOL    HW216014   1.835   1.987  14.400  0.7427  2.4728  0.8345
 1460SOL     OW16015   0.385   4.121   1.560 -0.0692  0.0865 -0.7243
 1460SOL    HW116016   0.292   4.143   1.549  0.1049  0.0990 -2.2802
 1460SOL    HW216017   0.417   4.199   1.605 -0.2040 -1.7261  2.4830
 1461SOL     OW16018   1.418   2.137   4.334 -0.4747  0.5885  0.6150
 1461SOL    HW116019   1.428   2.043   4.320 -3.7301  0.4681 -0.7226
 1461SOL    HW216020   1.352   2.135   4.403 -0.4657 -2.2572  0.5594
 1462SOL     OW16021   2.313   2.562   3.547  0.6207  0.1927  0.2334
 1462SOL    HW116022   2.402   2.574   3.515 -0.2988 -0.1729 -2.4691
 1462SOL    HW216023   2.312   2.603   3.634  0.4286  3.0622 -1.1249
 1463SOL     OW16024   2.853   3.577   4.500 -0.2201  0.8515  0.2590
 1463SOL    HW116025   2.786   3.508   4.494  0.0917  0.6559 -0.9584
 1463SOL    HW216026   2.928   3.530   4.463 -0.4571  1.0394 -0.4591
 1464SOL     OW16027   4.671   0.206   5.060 -0.1567 -0.0082  0.1394
 1464SOL    HW116028   4.712   0.125   5.031  0.6635  0.6722 -0.6119
 1464SOL    HW216029   4.581   0.178   5.076 -0.3159  0.8015  0.6340
 1465SOL     OW16030   2.560   1.367   8.491  0.4500 -0.3199  0.4799
 1465SOL    HW116031   2.542   1.292   8.547  0.2806 -0.1800  0.6127
 1465SOL    HW216032   2.489   1.422   8.524  0.6567  1.2580 -1.6947
 1466SOL     OW16033   2.757   2.208  11.048  0.2606  0.1189 -0.1943
 1466SOL    HW116034   2.748   2.118  11.079 -0.2286  1.1852  2.7693
 1466SOL    HW216035   2.698   2.263  11.100  1.3127  1.8178 -0.7942
 1467SOL     OW16036   0.785   3.713   5.334 -0.2009 -0.1404 -0.0162
 1467SOL    HW116037   0.719   3.659   5.290 -0.1318  0.6983 -1.1519
 1467SOL    HW216038   0.873   3.682   5.312 -0.6533 -1.6430  0.2566
 1468SOL     OW16039   2.381   4.568  17.586 -0.0689 -0.2172  0.4334
 1468SOL    HW116040   2.448   4.608  17.641  1.2379 -0.4389 -1.0126
 1468SOL    HW216041   2.374   4.635  17.518 -0.2779 -0.0647  0.6032
 1469SOL     OW16042   0.651   2.695   3.066  0.6043 -0.2441 -0.0940
 1469SOL    HW116043   0.591   2.676   2.994  1.2067 -2.1742 -0.0861
 1469SOL    HW216044   0.701   2.769   3.033  0.0282  1.2554  2.4051
 1470SOL     OW16045   4.303   3.520   5.898  0.4431 -0.2655  0.1844
 1470SOL    HW116046   4.317   3.498   5.805  0.7813  1.7770 -0.2310
 1470SOL    HW216047   4.365   3.458   5.936  0.8106 -0.4178 -0.6610
 1471SOL     OW16048   0.632   2.400   6.004  0.4480  0.0647  0.6968
 1471SOL    HW116049   0.594   2.322   5.964 -2.6477  2.3280 -0.7240
 1471SOL    HW216050   0.717   2.360   6.025  1.0113  1.3074  0.7385
 1472SOL     OW16051   1.313   2.275  11.753 -0.5769 -0.0582  0.5347
 1472SOL    HW116052   1.328   2.189  11.712 -1.2698 -1.2750  2.8412
 1472SOL    HW216053   1.345   2.253  11.840  0.9037  0.6713  0.1683
 1473SOL     OW16054   3.110   0.846   8.923 -0.3636 -0.0004  0.3647
 1473SOL    HW116055   3.108   0.936   8.958  2.2010 -0.7516  2.4475
 1473SOL    HW216056   3.146   0.858   8.835  1.0259 -1.7669  0.7144
 1474SOL     OW16057   1.801   4.734   2.662  0.5943 -0.4613  0.6278
 1474SOL    HW116058   1.744   4.698   2.730 -1.0207 -1.3840 -1.2169
 1474SOL    HW216059   1.820   0.083   2.703  2.1752 -0.6162  0.1902
 1475SOL     OW16060   0.142   3.965   6.078 -0.0454 -0.3125 -0.0987
 1475SOL    HW116061   0.072   3.903   6.098 -0.3239  0.2924  0.8166
 1475SOL    HW216062   0.133   3.973   5.983 -1.9546  0.8596  0.1763
 1476SOL     OW16063   4.585   4.303   7.618 -0.4100  0.1936  0.1264
 1476SOL    HW116064   4.629   4.219   7.626  1.7410  1.3648  0.7039
 1476SOL    HW216065   4.607   4.342   7.703 -2.3200  1.5175  0.0263
 1477SOL     OW16066   0.787   2.294  13.220  0.3261 -0.1106  0.0129
 1477SOL    HW116067   0.835   2.340  13.151  1.3879 -0.8698  0.2544
 1477SOL    HW216068   0.820   2.345  13.293 -1.6382 -0.7804  1.3612
 1478SOL     OW16069   2.873   2.234   5.155  0.4422  0.5875 -0.7743
 1478SOL    HW116070   2.860   2.298   5.085  1.1440  1.6039  0.0267
 1478SOL    HW216071   2.890   2.296   5.227 -1.4022  0.1502  0.0526
 1479SOL     OW16072   3.955   3.778   8.300 -0.9158 -0.8086 -0.4121
 1479SOL    HW116073   3.944   3.826   8.217  1.4206  2.6575  1.2797
 1479SOL    HW216074   4.042   3.742   8.287 -0.7210 -0.9743  1.4011
 1480SOL     OW16075   4.543   3.346   1.818 -0.1259  0.3260 -0.0530
 1480SOL    HW116076   4.450   3.349   1.796 -0.4852 -0.9661  1.2190
 1480SOL    HW216077   4.566   3.420   1.762  0.4948  1.5034  1.7339
 1481SOL     OW16078   2.263   4.007  17.127  0.1311  0.3652  0.2339
 1481SOL    HW116079   2.203   3.999  17.202 -0.4465 -0.1028 -0.2752
 1481SOL    HW216080   2.257   4.096  17.093 -1.8129 -0.4897 -1.6254
 1482SOL     OW16081   4.112   0.663   5.130  0.6124 -0.0120  1.0396
 1482SOL    HW116082   4.034   0.660   5.075  0.0382 -3.2230  2.0171
 1482SOL    HW216083   4.185   0.635   5.075 -0.0702  0.8870 -0.3014
 1483SOL     OW16084   0.811   0.217   4.803 -1.1473 -0.2689  0.4683
 1483SOL    HW116085   0.805   0.311   4.786  3.4549  0.1508  1.4299
 1483SOL    HW216086   0.735   0.192   4.856 -1.2907  1.2048  0.9669
 1484SOL     OW16087   0.863   0.953  12.859 -0.7254  0.5802 -0.3169
 1484SOL    HW116088   0.938   0.962  12.919 -1.5229  2.5325  0.3913
 1484SOL    HW216089   0.916   0.980  12.784 -0.2095 -1.5759 -0.7267
 1485SOL     OW16090   0.338   2.104  15.160 -0.2859  0.2878  0.3740
 1485SOL    HW116091   0.364   2.100  15.068 -1.4315 -0.0401  0.0625
 1485SOL    HW216092   0.256   2.154  15.156 -2.9170 -3.9048  2.5345
 1486SOL     OW16093   4.233   0.970  10.956  0.0378 -0.3288  0.2358
 1486SOL    HW116094   4.264   1.048  10.911  3.1907 -1.6401  0.1093
 1486SOL    HW216095   4.185   1.016  11.025 -1.2569 -2.5559  0.8277
 1487SOL     OW16096   3.866   0.794   5.800  0.4763  0.5922  0.3087
 1487SOL    HW116097   3.914   0.815   5.880  1.2689 -0.0698  0.0085
 1487SOL    HW216098   3.792   0.756   5.846  0.4171  1.5775  1.0308
 1488SOL     OW16099   1.824   3.589   2.661 -0.3799  0.1684 -0.3605
 1488SOL    HW116100   1.766   3.555   2.729  0.4036  0.4683  0.4697
 1488SOL    HW216101   1.758   3.583   2.592  1.8692 -0.3793 -2.4396
 1489SOL     OW16102   1.707   3.925   5.436  0.3609  0.0854  0.4194
 1489SOL    HW116103   1.784   3.979   5.451 -0.9352  3.0622 -3.4565
 1489SOL    HW216104   1.673   3.937   5.524 -1.2224 -1.9947  0.1032
 1490SOL     OW16105   3.575   2.825  12.850 -0.1406 -0.0104  0.1413
 1490SOL    HW116106   3.644   2.782  12.799  1.8348  2.5348  0.6395
 1490SOL    HW216107   3.564   2.777  12.932 -1.5479 -0.3885 -0.2697
 1491SOL     OW16108   0.521   2.693   6.579  0.3532 -0.0944 -0.3401
 1491SOL    HW116109   0.549   2.784   6.579 -0.3098  0.1111  0.4404
 1491SOL    HW216110   0.482   2.678   6.493 -1.0978 -3.1093  0.8290
 1492SOL     OW16111   2.840   3.396   5.194 -0.4124 -0.2224  0.1512
 1492SOL    HW116112   2.786   3.450   5.135 -2.0146 -0.5335  1.3289
 1492SOL    HW216113   2.832   3.444   5.277 -1.7165 -2.0049  1.0575
 1493SOL     OW16114   0.623   4.577   3.975  0.2775  0.2806 -0.8184
 1493SOL    HW116115   0.711   4.550   4.001 -0.6031 -0.9740  0.8773
 1493SOL    HW216116   0.629   4.672   3.964  1.8575  0.1025 -1.4350
 1494SOL     OW16117   2.185   3.386   5.522  0.2505 -0.3517 -0.1013
 1494SOL    HW116118   2.102   3.434   5.523 -0.3930 -1.5069  2.5043
 1494SOL    HW216119   2.202   3.372   5.429 -1.5809  0.4078 -0.5426
 1495SOL     OW16120   1.851   4.667  11.512  0.2479 -0.3535  0.4764
 1495SOL    HW116121   1.911   4.642  11.442  0.1386  2.3556 -0.5456
 1495SOL    HW216122   1.859   4.591  11.570 -0.3443  0.3855  1.5213
 1496SOL     OW16123   1.866   2.174   2.056  0.0876 -0.0139 -0.0853
 1496SOL    HW116124   1.911   2.211   1.980  1.2745  0.4279  0.8424
 1496SOL    HW216125   1.934   2.108   2.069 -2.4092 -1.7040  4.2832
 1497SOL     OW16126   0.280   3.299   3.125 -0.0312  0.4048 -0.4507
 1497SOL    HW116127   0.281   3.351   3.206  2.1916 -1.6074  0.7904
 1497SOL    HW216128   0.195   3.258   3.144  0.0563  0.1798 -0.5493
 1498SOL     OW16129   0.903   4.603   3.910  0.0851  0.2294 -0.1530
 1498SOL    HW116130   0.866   4.671   3.852  1.2413  1.4203  0.5191
 1498SOL    HW216131   0.921   4.657   3.987  0.2477 -0.6552  0.4275
 1499SOL     OW16132   2.575   1.308  17.281  0.2866  0.1743 -0.0315
 1499SOL    HW116133   2.537   1.370  17.342  1.2652  0.0824  0.6709
 1499SOL    HW216134   2.658   1.342  17.248  1.2910 -0.9658  1.3394
 1500SOL     OW16135   2.880   1.286   8.481 -0.3083  0.4220 -0.1951
 1500SOL    HW116136   2.792   1.253   8.500 -0.8565  2.4421  0.7435
 1500SOL    HW216137   2.887   1.337   8.562 -0.6015 -0.2035  0.2289
 1501SOL     OW16138   1.921   2.127  11.123  0.0638  0.2255  0.1501
 1501SOL    HW116139   1.998   2.163  11.167 -0.1487 -0.8733  1.3873
 1501SOL    HW216140   1.916   2.179  11.042 -1.2114 -1.1650 -0.6671
 1502SOL     OW16141   0.475   2.997   3.199  0.2406  0.6190 -0.3518
 1502SOL    HW116142   0.403   2.953   3.244  0.4480 -1.9360 -2.5299
 1502SOL    HW216143   0.550   2.962   3.246  0.2350  0.4897 -0.4389
 1503SOL     OW16144   3.692   3.518  14.460  0.1021 -0.0697 -0.1041
 1503SOL    HW116145   3.637   3.588  14.425 -1.4537 -1.7537 -1.0213
 1503SOL    HW216146   3.632   3.444  14.450 -2.9965  2.6216 -1.5766
 1504SOL     OW16147   0.676   4.657   5.160 -0.2891  0.2480  0.6581
 1504SOL    HW116148   0.678   4.629   5.252 -1.0199  0.2143  0.6592
 1504SOL    HW216149   0.761   4.623   5.131 -0.2462  1.6774 -0.8500
 1505SOL     OW16150   0.180   0.628   8.638  0.0852 -0.2697  0.1324
 1505SOL    HW116151   0.129   0.644   8.559  0.4850 -0.5564 -0.1809
 1505SOL    HW216152   0.262   0.667   8.610  1.6047 -3.4723  0.1924
 1506SOL     OW16153   0.123   1.120  13.572 -0.1894  0.0792 -0.3219
 1506SOL    HW116154   0.175   1.104  13.651  0.4038  0.1671 -0.6883
 1506SOL    HW216155   0.181   1.094  13.500  1.0478 -1.9629  1.4247
 1507SOL     OW16156   1.941   0.881   6.451  0.0287  0.2670  0.6552
 1507SOL    HW116157   1.887   0.897   6.373  1.6874  1.0569 -0.3331
 1507SOL    HW216158   1.999   0.822   6.403  0.8505  1.8883 -0.3582
 1508SOL     OW16159   2.670   0.650   4.688 -0.5352 -0.1277  0.5222
 1508SOL    HW116160   2.638   0.738   4.707 -0.2946  0.3353 -1.2005
 1508SOL    HW216161   2.626   0.601   4.757  2.1241 -0.7006  1.8164
 1509SOL     OW16162   1.231   0.041   9.153 -0.4691 -0.3032  0.1639
 1509SOL    HW116163   1.250   0.025   9.246  0.7214 -0.9563 -0.1945
 1509SOL    HW216164   1.265   0.130   9.147 -0.9116 -0.1350  0.1469
 1510SOL     OW16165   1.804   4.185  17.467 -0.0921 -0.6841  0.6551
 1510SOL    HW116166   1.900   4.192  17.469 -0.3309  2.9089 -1.2029
 1510SOL    HW216167   1.783   4.093  17.486 -1.9224 -0.8003 -2.0485
 1511SOL     OW16168   1.616   1.251   8.490  0.3013  0.3354  0.0273
 1511SOL    HW116169   1.630   1.295   8.573  0.1231 -0.9823  0.7576
 1511SOL    HW216170   1.693   1.194   8.486 -0.2651 -0.4197 -0.1597
 1512SOL     OW16171   0.208   2.609   8.328 -0.2629  0.0077  0.4727
 1512SOL    HW116172   0.173   2.558   8.400  1.3000 -0.5334  0.8484
 1512SOL    HW216173   0.264   2.676   8.368  1.0649 -1.2468  0.6795
 1513SOL     OW16174   2.986   4.478   5.100 -0.2451 -0.4775 -0.1633
 1513SOL    HW116175   3.035   4.558   5.117 -1.7197  0.4247 -0.1045
 1513SOL    HW216176   2.900   4.508   5.068 -0.4492  0.7699  1.5769
 1514SOL     OW16177   1.543   2.373   4.371  0.1745 -0.2817  0.7362
 1514SOL    HW116178   1.475   2.412   4.317  0.9717  0.3067  0.1492
 1514SOL    HW216179   1.517   2.281   4.370  1.8247 -0.7591  1.1543
 1515SOL     OW16180   2.765   4.455   0.031 -0.0329 -0.3950 -0.0778
 1515SOL    HW116181   2.678   4.415   0.041 -0.6682  1.5431  2.0875
 1515SOL    HW216182   2.764   4.513   0.107 -0.8468  0.4356 -0.7301
 1516SOL     OW16183   3.852   2.492  11.106 -0.5259 -0.5419  0.5628
 1516SOL    HW116184   3.801   2.478  11.026  0.8262  2.3134 -0.7911
 1516SOL    HW216185   3.938   2.513  11.070 -0.9792 -0.4958 -0.4838
 1517SOL     OW16186   0.382   1.700   2.367  0.2558 -0.0721  0.3632
 1517SOL    HW116187   0.344   1.689   2.454 -0.7229  1.1218  0.0731
 1517SOL    HW216188   0.474   1.715   2.389  0.4200 -0.5780  0.0358
 1518SOL     OW16189   3.410   1.670   5.174 -0.7033 -0.5254  0.4301
 1518SOL    HW116190   3.494   1.667   5.219 -0.3481 -1.2713 -0.2760
 1518SOL    HW216191   3.447   1.693   5.089 -4.3791 -1.1284 -1.3610
 1519SOL     OW16192   1.498   3.824   3.716 -0.3883  0.6388 -0.2603
 1519SOL    HW116193   1.491   3.915   3.744  3.1137  0.7166  0.3040
 1519SOL    HW216194   1.533   3.838   3.628 -0.4404 -1.4686 -0.6293
 1520SOL     OW16195   3.010   2.976  16.203 -0.4343  0.3245 -0.1154
 1520SOL    HW116196   3.085   2.977  16.143 -1.4610 -0.5222 -1.4137
 1520SOL    HW216197   3.045   2.960  16.290  1.5507 -0.5091 -1.0530
 1521SOL     OW16198   2.650   3.894   4.110  0.2597  0.1111 -0.3398
 1521SOL    HW116199   2.736   3.936   4.101  1.2259 -2.4516 -2.9966
 1521SOL    HW216200   2.614   3.929   4.192 -1.4210 -0.6630 -0.7691
 1522SOL     OW16201   2.858   4.187  16.776 -0.5820 -0.2840  0.3396
 1522SOL    HW116202   2.806   4.178  16.696 -0.9492 -1.0667  0.6646
 1522SOL    HW216203   2.825   4.113  16.828 -0.4534 -0.8389 -0.3618
 1523SOL     OW16204   3.379   1.879  11.782 -0.3096  0.6075  0.0506
 1523SOL    HW116205   3.471   1.858  11.766 -0.8516 -0.2224 -1.9718
 1523SOL    HW216206   3.351   1.800  11.737 -3.0651  0.7594  1.4524
 1524SOL     OW16207   3.403   4.678   5.263  0.3716  0.6539  0.0091
 1524SOL    HW116208   3.435   0.022   5.306 -0.7559 -0.4379  2.8379
 1524SOL    HW216209   3.440   4.699   5.177 -2.6706  0.6176 -1.3098
 1525SOL     OW16210   0.686   3.028  10.210  0.1980 -0.0006  0.4596
 1525SOL    HW116211   0.707   2.971  10.136 -0.5158 -1.2282  1.2166
 1525SOL    HW216212   0.748   2.988  10.271  0.7580 -1.9442 -1.3826
 1526SOL     OW16213   2.339   0.303   9.565  0.2079 -0.3016  0.2067
 1526SOL    HW116214   2.350   0.317   9.471  3.8861 -0.2253  0.6502
 1526SOL    HW216215   2.379   0.218   9.582 -0.4124 -0.7597 -0.5830
 1527SOL     OW16216   1.855   3.690   5.211 -0.5263 -0.5997  0.1467
 1527SOL    HW116217   1.845   3.679   5.306  0.3592 -0.2852  0.2788
 1527SOL    HW216218   1.899   3.607   5.193  1.6750  0.6011  0.0150
 1528SOL     OW16219   4.052   3.632   1.771 -0.0358 -0.3465  0.1588
 1528SOL    HW116220   4.043   3.716   1.726 -0.7993 -0.7596 -0.4653
 1528SOL    HW216221   3.979   3.580   1.736 -1.3218  1.9879 -0.5918
 1529SOL     OW16222   1.524   3.471   5.618 -0.4381  0.1102 -0.5479
 1529SOL    HW116223   1.573   3.424   5.686  0.6686 -0.2653 -1.6116
 1529SOL    HW216224   1.501   3.554   5.658 -1.4117 -0.2719 -0.3137
 1530SOL     OW16225   1.878   4.637   3.652  0.0150  0.1809  0.4418
 1530SOL    HW116226   1.915   4.725   3.641 -4.3449  1.6083 -2.6795
 1530SOL    HW216227   1.880   4.621   3.557 -2.1099 -1.6081  0.7117
 1531SOL     OW16228   0.379   2.301   2.101  0.5935 -0.1233  0.4416
 1531SOL    HW116229   0.300   2.284   2.050 -0.1153  2.1853  0.7639
 1531SOL    HW216230   0.344   2.340   2.181 -0.6283 -0.3656  0.0102
 1532SOL     OW16231   2.845   4.690   7.977  0.3736 -0.2903  0.5792
 1532SOL    HW116232   2.890   4.610   7.948 -0.5751 -0.2795 -0.9356
 1532SOL    HW216233   2.780   4.713   7.911  0.2432  1.0178  1.1731
 1533SOL     OW16234   4.000   4.191   7.123 -0.4535  0.2598 -0.4910
 1533SOL    HW116235   4.041   4.227   7.202  2.3502  1.4161 -2.4394
 1533SOL    HW216236   4.025   4.259   7.060  0.7607  0.5357  0.2813
 1534SOL     OW16237   1.458   2.936   0.921  0.5181  0.3236  0.0609
 1534SOL    HW116238   1.495   3.024   0.922 -1.2323  1.0669  0.1050
 1534SOL    HW216239   1.382   2.954   0.976  1.0945  1.7307  0.3875
 1535SOL     OW16240   1.113   1.645   5.183 -0.4366 -0.2478 -0.8257
 1535SOL    HW116241   1.205   1.646   5.154 -0.1991  0.7109 -0.0466
 1535SOL    HW216242   1.065   1.694   5.117 -1.4882  0.9779  0.8734
 1536SOL     OW16243   2.077   0.532  10.894  0.0693 -0.2576 -0.0563
 1536SOL    HW116244   2.037   0.510  10.978  1.3483 -2.5266 -0.0340
 1536SOL    HW216245   2.164   0.554  10.928  0.3087 -3.3622  1.3932
 1537SOL     OW16246   3.821   1.527   5.968  0.3510  0.1442  0.1127
 1537SOL    HW116247   3.736   1.563   5.946 -0.4734 -0.5939  2.1003
 1537SOL    HW216248   3.822   1.563   6.057 -1.6122 -0.0602  0.2085
 1538SOL     OW16249   3.292   1.646   7.137  0.4118 -0.5508 -0.0812
 1538SOL    HW116250   3.263   1.640   7.046 -1.3259  0.3809  0.4169
 1538SOL    HW216251   3.325   1.556   7.141 -1.8525 -1.4121 -0.1842
 1539SOL     OW16252   2.390   1.456   8.135  0.2771  0.0050  0.2146
 1539SOL    HW116253   2.323   1.458   8.203 -1.2190 -1.1731 -1.2104
 1539SOL    HW216254   2.365   1.369   8.103  2.4988 -1.2615  1.9748
 1540SOL     OW16255   4.283   0.854   5.794  0.0135 -0.2100  0.0361
 1540SOL    HW116256   4.251   0.902   5.718  1.2922 -1.2330 -1.1634
 1540SOL    HW216257   4.223   0.779   5.800 -0.4191  0.3025  1.9631
 1541SOL     OW16258   1.612   2.061   0.902 -0.3840  0.3998  0.0787
 1541SOL    HW116259   1.589   1.988   0.844 -0.2184 -0.1687  0.7314
 1541SOL    HW216260   1.588   2.025   0.987  1.5960 -0.7464  0.1506
 1542SOL     OW16261   0.828   2.301   9.258 -0.0438 -0.0715 -0.4123
 1542SOL    HW116262   0.758   2.237   9.269 -1.7426  1.9201  0.2541
 1542SOL    HW216263   0.782   2.347   9.188 -2.4609 -1.9290 -0.0374
 1543SOL     OW16264   1.385   2.407   5.581 -0.6687 -0.0608 -0.0549
 1543SOL    HW116265   1.307   2.451   5.617  0.8619  0.3997  2.7203
 1543SOL    HW216266   1.349   2.379   5.497  0.7033  0.3739 -0.7718
 1544SOL     OW16267   2.835   2.749   5.362  0.0251  0.4209  0.2576
 1544SOL    HW116268   2.856   2.680   5.424 -0.1530  0.5451  0.4536
 1544SOL    HW216269   2.745   2.721   5.345  0.2646 -1.4650  2.1995
 1545SOL     OW16270   2.386   0.060   9.329 -0.1269  0.7479  0.0249
 1545SOL    HW116271   2.330   0.078   9.254 -1.0860  0.6645  0.7206
 1545SOL    HW216272   2.323   0.012   9.382 -2.4491  1.8513 -1.7043
 1546SOL     OW16273   2.521   1.956   6.924 -0.2924  0.1488 -0.4901
 1546SOL    HW116274   2.471   1.875   6.913  3.3556 -2.4228  1.7550
 1546SOL    HW216275   2.468   2.001   6.989 -1.2656 -1.9366  0.1864
 1547SOL     OW16276   2.725   1.009  13.987 -0.0615 -0.0058  0.6886
 1547SOL    HW116277   2.813   1.007  14.024  0.2676  0.5835 -0.0453
 1547SOL    HW216278   2.734   0.949  13.912  0.4031  0.9274 -0.0077
 1548SOL     OW16279   1.325   4.059   6.442  0.4620  0.2100 -0.5916
 1548SOL    HW116280   1.357   4.130   6.498  4.4782 -0.5157 -1.9869
 1548SOL    HW216281   1.289   4.099   6.364  0.0049 -0.3695 -0.6755
 1549SOL     OW16282   0.804   0.286  13.045  0.4840 -0.2343  0.1332
 1549SOL    HW116283   0.850   0.362  13.081  0.7655 -0.7760  0.9050
 1549SOL    HW216284   0.832   0.230  13.117 -1.9992 -1.3166  0.2504
 1550SOL     OW16285   3.772   3.298  13.318  0.2324 -0.1433  0.6280
 1550SOL    HW116286   3.855   3.329  13.354  0.4402 -0.4516  0.4084
 1550SOL    HW216287   3.801   3.215  13.281 -0.5128  0.9975 -2.4398
 1551SOL     OW16288   4.461   1.386  13.258  0.3715 -0.3415  0.2913
 1551SOL    HW116289   4.466   1.458  13.195 -0.5577  0.0445  0.6741
 1551SOL    HW216290   4.489   1.315  13.200 -3.0283 -0.7310 -0.8530
 1552SOL     OW16291   0.484   0.819   6.010  0.2141 -0.0654 -0.2206
 1552SOL    HW116292   0.429   0.820   5.931  1.4856  1.4419 -1.0962
 1552SOL    HW216293   0.417   0.852   6.069  0.4132  0.5443 -0.3393
 1553SOL     OW16294   4.228   2.721   3.451  0.1227 -0.4924 -0.7407
 1553SOL    HW116295   4.146   2.671   3.457  0.7640 -1.6541 -1.7073
 1553SOL    HW216296   4.270   2.668   3.383  1.3843  0.7769 -0.9276
 1554SOL     OW16297   4.244   4.017  10.228 -0.7428  0.2028 -0.3533
 1554SOL    HW116298   4.268   3.964  10.152  1.0947  1.2853 -0.5123
 1554SOL    HW216299   4.335   4.042  10.241 -1.2683  0.1177  3.5581
 1555SOL     OW16300   2.577   1.697   2.257  0.5549 -0.2715 -0.0354
 1555SOL    HW116301   2.550   1.688   2.348  2.0184 -1.7303  0.2648
 1555SOL    HW216302   2.506   1.652   2.212  0.9833 -0.6198 -0.3681
 1556SOL     OW16303   1.453   0.825  15.461  0.0477  0.0937 -0.3347
 1556SOL    HW116304   1.483   0.802  15.549 -0.0501 -0.1299 -0.3587
 1556SOL    HW216305   1.386   0.885  15.492  2.0025  1.7251  0.7108
 1557SOL     OW16306   3.809   3.331  16.394 -0.2201  0.6898  0.1615
 1557SOL    HW116307   3.839   3.415  16.361  0.4547  0.3445 -0.1097
 1557SOL    HW216308   3.868   3.272  16.347 -1.2567 -0.8820  0.8383
 1558SOL     OW16309   3.602   1.600  17.041  0.0153 -0.3535  0.7742
 1558SOL    HW116310   3.676   1.644  17.082  0.7334 -1.1255  0.3068
 1558SOL    HW216311   3.635   1.516  17.008 -1.3333 -1.2630  1.6953
 1559SOL     OW16312   4.139   1.249   8.220  0.0253  0.0253  0.4583
 1559SOL    HW116313   4.077   1.178   8.201  1.8287 -0.8373 -2.2842
 1559SOL    HW216314   4.213   1.188   8.219 -0.0316 -0.0346 -0.2428
 1560SOL     OW16315   4.650   2.723   4.086  0.0173 -0.1348 -0.6542
 1560SOL    HW116316   4.571   2.772   4.064  1.5711  2.5601 -0.2968
 1560SOL    HW216317   4.714   2.793   4.073  2.2201 -1.5915  2.3910
 1561SOL     OW16318   3.815   1.893   5.337  0.1496 -0.0436 -0.5959
 1561SOL    HW116319   3.878   1.882   5.408 -1.1991  2.6623  1.0373
 1561SOL    HW216320   3.739   1.917   5.392 -0.9063 -0.2439 -1.9664
 1562SOL     OW16321   4.395   1.433  12.232  0.5056  0.0567  0.0928
 1562SOL    HW116322   4.476   1.481  12.248  0.7453 -0.4238  0.3191
 1562SOL    HW216323   4.389   1.387  12.316 -0.3269 -2.6537 -1.4368
 1563SOL     OW16324   3.118   3.980   8.296  0.5228  0.8099  0.0400
 1563SOL    HW116325   3.162   3.988   8.381  1.1822  0.4269 -0.2669
 1563SOL    HW216326   3.053   3.914   8.321  1.8988 -0.1744  1.0216
 1564SOL     OW16327   1.639   2.216  13.598  0.3685  0.1383  0.4231
 1564SOL    HW116328   1.601   2.150  13.657  1.9834  0.1806  1.5064
 1564SOL    HW216329   1.698   2.264  13.655  0.5590  1.3015 -0.7518
 1565SOL     OW16330   1.940   3.217   0.433  0.2012  0.0476 -0.0846
 1565SOL    HW116331   1.852   3.221   0.471  0.6793 -0.4267  1.0597
 1565SOL    HW216332   1.993   3.215   0.512  0.6731 -0.0067 -0.3998
 1566SOL     OW16333   2.732   0.028   1.070  0.0798 -0.2196  0.0546
 1566SOL    HW116334   2.806   0.087   1.077 -0.1773  0.1694 -0.4999
 1566SOL    HW216335   2.687   0.052   1.151 -1.8134 -2.4062 -0.3262
 1567SOL     OW16336   2.466   4.625   6.760 -0.2411 -0.0730  0.3291
 1567SOL    HW116337   2.459   4.538   6.799  3.5514 -0.3335  0.3517
 1567SOL    HW216338   2.436   4.608   6.670 -0.5661 -0.0099  0.4236
 1568SOL     OW16339   4.217   3.249   2.485  0.2867  0.3628  0.2540
 1568SOL    HW116340   4.175   3.308   2.548  1.7342  0.8808  0.7375
 1568SOL    HW216341   4.211   3.294   2.401 -0.2469  1.2379  0.7670
 1569SOL     OW16342   2.393   1.537   4.684  0.6321  0.0468 -0.2958
 1569SOL    HW116343   2.343   1.576   4.755  2.0041  0.8849  0.2259
 1569SOL    HW216344   2.328   1.540   4.614 -0.5690  1.0220  0.8630
 1570SOL     OW16345   2.754   2.139   3.852 -0.4453 -0.2545 -0.1160
 1570SOL    HW116346   2.778   2.055   3.893 -0.4282 -0.3334 -0.2876
 1570SOL    HW216347   2.659   2.126   3.856 -0.7691  2.8955  2.0844
 1571SOL     OW16348   1.496   0.621   7.047  0.0178  0.0305  0.0249
 1571SOL    HW116349   1.474   0.684   7.116 -1.7548 -0.8956  0.3003
 1571SOL    HW216350   1.416   0.568   7.048  1.2996 -1.8965  0.5442
 1572SOL     OW16351   1.091   2.908   9.678 -0.0601  0.5315 -0.1514
 1572SOL    HW116352   1.115   2.927   9.587 -0.8231 -1.3274 -0.7355
 1572SOL    HW216353   1.163   2.852   9.706 -0.9679 -2.1801 -3.3317
 1573SOL     OW16354   0.094   0.353  12.189  0.2983  0.4614  0.7391
 1573SOL    HW116355   0.091   0.275  12.133  1.2758  0.5081  0.6250
 1573SOL    HW216356   0.187   0.354  12.211  0.2272 -0.6977  1.0904
 1574SOL     OW16357   2.716   0.255   0.559  0.4998 -0.1603 -0.0934
 1574SOL    HW116358   2.743   0.177   0.608  0.2621 -0.9917 -1.2930
 1574SOL    HW216359   2.635   0.220   0.521 -0.8605  2.1537  0.6970
 1575SOL     OW16360   0.904   1.861   6.650  0.4203 -0.3937  0.2613
 1575SOL    HW116361   0.985   1.826   6.688 -0.0160 -0.1451  1.4139
 1575SOL    HW216362   0.900   1.833   6.559 -2.1809 -0.0845  0.2708
 1576SOL     OW16363   1.911   1.130   9.699 -0.2678 -0.1604  0.7051
 1576SOL    HW116364   1.822   1.122   9.734 -0.7808  0.1198 -0.5062
 1576SOL    HW216365   1.899   1.214   9.654 -3.2724  0.9022  3.5091
 1577SOL     OW16366   1.984   0.881   0.592 -0.5943  0.3378  0.1059
 1577SOL    HW116367   1.931   0.814   0.636 -0.6595  0.7529  0.6619
 1577SOL    HW216368   1.952   0.958   0.639  1.6941 -0.3297  2.7989
 1578SOL     OW16369   1.477   1.123   1.767 -0.3746  0.2633  0.4122
 1578SOL    HW116370   1.433   1.167   1.694 -2.8541 -2.7390  0.0872
 1578SOL    HW216371   1.414   1.057   1.796 -0.6923  1.0899  1.6103
 1579SOL     OW16372   4.157   0.296  12.933 -0.3691  0.3360 -0.0183
 1579SOL    HW116373   4.099   0.331  12.865 -0.0470  1.3805  0.2357
 1579SOL    HW216374   4.134   0.337  13.017  2.0661  0.1941  0.7035
 1580SOL     OW16375   0.141   0.150   5.528  0.8856  0.3075 -0.2352
 1580SOL    HW116376   0.216   0.110   5.570  1.0254  0.9249  0.0952
 1580SOL    HW216377   0.075   0.081   5.539  0.4355  0.9320  0.9605
 1581SOL     OW16378   0.394   2.200   5.830 -0.1258  0.5044 -0.0588
 1581SOL    HW116379   0.313   2.181   5.878  0.8777 -1.5714  0.8365
 1581SOL    HW216380   0.462   2.148   5.872 -0.3642 -0.4912 -0.9019
 1582SOL     OW16381   4.676   1.328  14.401  0.3900  0.4870 -0.3004
 1582SOL    HW116382   4.596   1.289  14.438 -0.7467  1.4837 -1.7229
 1582SOL    HW216383   4.733   1.256  14.430  0.9037  0.6770 -0.8528
 1583SOL     OW16384   1.248   2.950   7.034 -0.4492 -0.0989 -0.0162
 1583SOL    HW116385   1.189   2.948   7.109 -1.7082  0.2001 -1.0113
 1583SOL    HW216386   1.262   3.040   7.003  1.0023 -0.6311 -0.9068
 1584SOL     OW16387   4.538   3.976   7.399 -0.1693  0.0839  0.0236
 1584SOL    HW116388   4.482   3.898   7.395  0.1378 -0.1191 -0.3376
 1584SOL    HW216389   4.506   4.029   7.326 -1.8647  1.6229  1.8734
 1585SOL     OW16390   2.584   2.520  15.372  0.0407 -0.2067 -0.2751
 1585SOL    HW116391   2.663   2.519  15.426  0.8189 -1.5547 -1.4534
 1585SOL    HW216392   2.611   2.565  15.292 -0.7412 -2.4471 -1.7819
 1586SOL     OW16393   1.925   4.371   4.331  0.0495 -0.0289  0.2989
 1586SOL    HW116394   1.949   4.390   4.241 -2.0885  3.1278  0.4014
 1586SOL    HW216395   1.833   4.347   4.332 -0.1408  0.6278 -1.1211
 1587SOL     OW16396   0.741   4.193   8.253  0.1192 -0.2261 -0.1509
 1587SOL    HW116397   0.800   4.152   8.315  0.1320  0.9802  0.6317
 1587SOL    HW216398   0.721   4.282   8.283  2.8310 -0.2538  1.7133
 1588SOL     OW16399   4.709   1.475   5.678  0.1521  0.4001 -0.3785
 1588SOL    HW116400   4.636   1.517   5.631 -0.9296  0.5409  1.4321
 1588SOL    HW216401   4.733   1.405   5.617  1.1386  0.6104 -0.2292
 1589SOL     OW16402   0.147   3.498   7.293  0.2522 -0.3919 -0.3314
 1589SOL    HW116403   0.119   3.581   7.332 -1.1056 -0.7706 -0.5275
 1589SOL    HW216404   0.067   3.473   7.246  0.9645 -1.0207 -1.2235
 1590SOL     OW16405   0.555   2.985  17.171 -0.1718  0.3352 -0.5878
 1590SOL    HW116406   0.535   3.079  17.173  1.4981  0.6916 -0.9414
 1590SOL    HW216407   0.629   2.974  17.111  0.9081 -1.3003  1.0206
 1591SOL     OW16408   0.842   0.283   6.178 -0.2795 -0.3012 -0.0560
 1591SOL    HW116409   0.748   0.302   6.172 -0.5773 -2.1665 -1.2168
 1591SOL    HW216410   0.862   0.343   6.250  0.4234  0.6654 -1.0487
 1592SOL     OW16411   0.967   3.522   5.259 -0.0751  0.3513  0.4240
 1592SOL    HW116412   0.947   3.430   5.275  0.7198 -0.1425 -1.5109
 1592SOL    HW216413   1.046   3.504   5.208 -1.3231  0.3108 -1.4917
 1593SOL     OW16414   2.896   3.146  14.566 -0.0955  0.9195 -0.5341
 1593SOL    HW116415   2.904   3.126  14.659  0.1418 -2.2413 -1.2333
 1593SOL    HW216416   2.951   3.074  14.534 -0.0607  0.8556 -0.3312
 1594SOL     OW16417   3.479   4.458   8.805 -0.1975  0.5473  0.3153
 1594SOL    HW116418   3.434   4.540   8.828 -2.8129 -0.9401  0.5000
 1594SOL    HW216419   3.454   4.406   8.881  0.1725 -0.5795 -0.3392
 1595SOL     OW16420   2.448   3.523   6.784 -0.6414  0.3090 -0.1374
 1595SOL    HW116421   2.521   3.462   6.770  0.5374  1.1670  2.2181
 1595SOL    HW216422   2.371   3.468   6.792 -1.1553  1.5363  3.5998
 1596SOL     OW16423   1.864   1.742   6.119 -0.0104 -0.3729  0.7185
 1596SOL    HW116424   1.898   1.781   6.200 -0.9444  1.8005  0.0752
 1596SOL    HW216425   1.835   1.657   6.150  0.2563 -1.4494 -2.0343
 1597SOL     OW16426   4.603   0.196   8.141  0.1788  0.0533 -0.6751
 1597SOL    HW116427   4.569   0.281   8.170  0.2258 -0.5048  1.0244
 1597SOL    HW216428   4.524   0.145   8.156 -0.7690  1.9703  0.8262
 1598SOL     OW16429   4.379   2.796   3.996 -0.6263  0.5806 -0.7866
 1598SOL    HW116430   4.353   2.768   3.908 -1.4386 -1.2269  0.0411
 1598SOL    HW216431   4.404   2.887   3.982  2.0196  0.0776  0.7996
 1599SOL     OW16432   1.624   3.888   3.501 -0.5912 -0.1141 -0.0257
 1599SOL    HW116433   1.609   3.840   3.419  0.9290 -1.6206  0.5810
 1599SOL    HW216434   1.611   3.977   3.469  0.9608  0.0741 -0.1299
 1600SOL     OW16435   2.053   0.293   4.036  0.4448 -0.4514 -0.5299
 1600SOL    HW116436   2.127   0.262   4.089  0.8019 -0.5701 -1.0992
 1600SOL    HW216437   2.041   0.213   3.986  0.8150 -0.0077 -1.3200
 1601SOL     OW16438   4.079   2.005   0.604  0.1770 -0.3864  0.2426
 1601SOL    HW116439   4.144   1.955   0.554  1.1994  1.2434 -0.0307
 1601SOL    HW216440   4.003   1.994   0.547 -0.1853  1.0780  0.4445
 1602SOL     OW16441   1.023   4.464  12.578 -0.0054  0.1386 -0.2009
 1602SOL    HW116442   0.929   4.483  12.571 -0.1842 -0.1461  1.4440
 1602SOL    HW216443   1.037   4.442  12.670 -0.0505 -0.1344 -0.2580
 1603SOL     OW16444   1.189   3.158   4.994 -0.2424 -0.5458  1.5875
 1603SOL    HW116445   1.120   3.124   4.937 -1.0466  0.5797  1.8727
 1603SOL    HW216446   1.126   3.186   5.061 -0.7206  0.1604  0.8415
 1604SOL     OW16447   4.331   2.898  17.517  0.5885 -0.3561  0.1122
 1604SOL    HW116448   4.369   2.863  17.437  0.6809  0.5847 -0.2598
 1604SOL    HW216449   4.297   2.819  17.558 -1.7400  0.4200 -0.3497
 1605SOL     OW16450   3.042   3.232   3.171 -0.1466 -0.4190 -0.5976
 1605SOL    HW116451   3.072   3.153   3.217  0.4615 -0.0703 -0.4094
 1605SOL    HW216452   3.007   3.205   3.086  1.6279 -0.3496 -1.3564
 1606SOL     OW16453   3.946   2.148   1.523  0.1513 -1.1509 -0.1913
 1606SOL    HW116454   4.025   2.101   1.550  0.2166 -2.0046 -1.9395
 1606SOL    HW216455   3.935   2.205   1.599 -1.6440  0.2426 -1.4974
 1607SOL     OW16456   3.828   1.135   4.074 -0.0117  0.1612  0.1916
 1607SOL    HW116457   3.884   1.091   4.138  0.3645 -2.1895 -1.7502
 1607SOL    HW216458   3.832   1.225   4.105  0.0923  0.5158 -0.8388
 1608SOL     OW16459   4.620   2.835   4.712  0.0758  0.1009 -0.3610
 1608SOL    HW116460   4.571   2.766   4.757  2.8369 -1.1765  0.6734
 1608SOL    HW216461   4.684   2.856   4.780  0.7001 -2.5662 -0.1407
 1609SOL     OW16462   4.175   1.834   6.725 -0.7091 -0.1300  0.1436
 1609SOL    HW116463   4.158   1.893   6.652  0.0080 -0.9381 -0.6773
 1609SOL    HW216464   4.087   1.809   6.753 -1.8268  0.4146 -2.9074
 1610SOL     OW16465   2.645   3.308  15.030 -0.4486 -0.3616  0.5256
 1610SOL    HW116466   2.563   3.357  15.039  0.0740  0.2591  1.8418
 1610SOL    HW216467   2.692   3.329  15.111 -0.7927 -0.5204  0.7653
 1611SOL     OW16468   2.880   2.831  12.056  0.1534 -0.0470  0.0445
 1611SOL    HW116469   2.942   2.778  12.106 -0.4697  0.5703  1.4742
 1611SOL    HW216470   2.899   2.917  12.091 -0.1309  0.2290 -0.4757
 1612SOL     OW16471   3.494   0.547   9.032 -0.0085  0.0786 -0.0131
 1612SOL    HW116472   3.447   0.501   9.100  0.2706  0.2487  0.2933
 1612SOL    HW216473   3.485   0.481   8.963  0.2653  1.1790 -1.1113
 1613SOL     OW16474   2.019   0.868   4.751 -0.3905  0.1436  0.5168
 1613SOL    HW116475   2.035   0.773   4.750  2.4901  0.6227 -0.6395
 1613SOL    HW216476   2.095   0.898   4.700  0.5427 -1.3362  1.0414
 1614SOL     OW16477   1.567   1.520   9.297 -0.1741 -0.1219 -0.1804
 1614SOL    HW116478   1.654   1.482   9.285 -0.1801 -0.6925  1.5300
 1614SOL    HW216479   1.545   1.517   9.204  1.2804  2.2307 -0.5854
 1615SOL     OW16480   3.831   0.302  10.671 -0.2903  0.1426  0.0726
 1615SOL    HW116481   3.926   0.294  10.663  0.0802  3.0079  1.4033
 1615SOL    HW216482   3.797   0.245  10.602  1.1492 -0.2724 -0.2857
 1616SOL     OW16483   1.769   1.055  10.590  0.5428 -0.3212  0.1165
 1616SOL    HW116484   1.849   1.103  10.610  0.7750  0.1576 -1.9766
 1616SOL    HW216485   1.766   0.992  10.663 -2.8289  0.8674  1.0230
 1617SOL     OW16486   0.862   3.418  14.357 -0.0768 -0.0689  0.4772
 1617SOL    HW116487   0.799   3.399  14.426  1.6677  0.2060  2.1608
 1617SOL    HW216488   0.936   3.445  14.413  0.6773  0.2994 -0.7003
 1618SOL     OW16489   4.104   1.379   4.383  0.7459 -0.2088 -0.6426
 1618SOL    HW116490   4.134   1.329   4.459 -1.6213  2.7969  2.3015
 1618SOL    HW216491   4.061   1.454   4.425  0.6240 -0.1010 -0.9578
 1619SOL     OW16492   3.088   0.540  12.169  0.2139 -0.0984  0.1534
 1619SOL    HW116493   3.047   0.483  12.104  0.1053  0.8849 -0.6276
 1619SOL    HW216494   3.098   0.624  12.124 -1.7218  0.1790  0.2549
 1620SOL     OW16495   1.103   3.447   2.203  0.0019  0.1903 -0.4679
 1620SOL    HW116496   1.062   3.468   2.287 -0.0238 -0.6329 -0.2764
 1620SOL    HW216497   1.165   3.520   2.201  0.3835 -0.0783  1.5189
 1621SOL     OW16498   0.440   4.058   7.695 -0.3026  0.3035  0.1957
 1621SOL    HW116499   0.362   4.113   7.689  0.7255  1.7815  0.1546
 1621SOL    HW216500   0.505   4.120   7.729 -0.9187  2.8911 -3.3952
 1622SOL     OW16501   1.656   2.517  12.440 -0.3434 -0.3557  0.1571
 1622SOL    HW116502   1.616   2.603  12.430 -0.6215 -0.3996  0.9411
 1622SOL    HW216503   1.720   2.513  12.368  0.7349 -1.6972  1.1909
 1623SOL     OW16504   3.392   4.047   5.685 -0.4223  0.5204  0.1378
 1623SOL    HW116505   3.483   4.025   5.703 -0.5676 -2.3588 -2.6298
 1623SOL    HW216506   3.360   4.053   5.775 -1.0254 -1.3417  0.0559
 1624SOL     OW16507   1.935   1.383   7.423  0.6398  0.0101  0.9702
 1624SOL    HW116508   2.001   1.413   7.360  0.2611 -2.7382 -0.7196
 1624SOL    HW216509   1.869   1.452   7.433  2.8186  2.0931  0.8421
 1625SOL     OW16510   3.031   1.562  11.410  0.2101 -0.1100  0.0977
 1625SOL    HW116511   2.992   1.586  11.495  0.1722  1.5394 -0.3782
 1625SOL    HW216512   2.981   1.481  11.405  1.6045 -1.0383  1.2497
 1626SOL     OW16513   0.392   2.809  11.263  0.1070  0.0557 -0.0322
 1626SOL    HW116514   0.412   2.771  11.348  1.4911  0.1017 -0.3492
 1626SOL    HW216515   0.301   2.834  11.281  0.5153  1.3022  0.3076
 1627SOL     OW16516   2.787   2.513   2.475  0.3962 -0.2250 -0.3015
 1627SOL    HW116517   2.874   2.521   2.515 -0.5134 -1.4590  1.9079
 1627SOL    HW216518   2.783   2.599   2.433  0.9014 -0.0703 -0.0273
 1628SOL     OW16519   1.132   2.441   3.794  0.0429  0.4671  0.4733
 1628SOL    HW116520   1.088   2.385   3.730 -2.5690  0.2985  2.4352
 1628SOL    HW216521   1.218   2.467   3.762 -0.6785  0.7495 -1.2773
 1629SOL     OW16522   3.431   0.852  17.392 -0.0105  0.2866 -0.0392
 1629SOL    HW116523   3.446   0.946  17.403  1.5115  0.4400 -3.5004
 1629SOL    HW216524   3.483   0.833  17.315 -0.0114 -1.1521  0.3264
 1630SOL     OW16525   0.533   2.937   4.812 -0.1203 -0.1655  0.0503
 1630SOL    HW116526   0.477   2.997   4.764 -1.2127 -0.0261  1.4855
 1630SOL    HW216527   0.535   2.869   4.745 -1.3020  1.4795 -1.6306
 1631SOL     OW16528   3.861   2.859  16.158  0.3390 -0.3214  0.3318
 1631SOL    HW116529   3.907   2.897  16.233 -2.3677 -2.9443  3.3287
 1631SOL    HW216530   3.924   2.894  16.095 -0.9281  0.7269 -0.3697
 1632SOL     OW16531   3.673   3.348   8.933  0.4229 -0.2966  0.0242
 1632SOL    HW116532   3.731   3.412   8.974 -1.2448  2.5032 -1.9695
 1632SOL    HW216533   3.590   3.352   8.980 -0.5942 -2.0768 -1.5914
 1633SOL     OW16534   1.495   2.742   7.700  0.0203 -0.4449  0.4984
 1633SOL    HW116535   1.564   2.761   7.764  1.0480  0.7873 -0.9518
 1633SOL    HW216536   1.435   2.692   7.754 -0.6399 -0.2274 -0.0432
 1634SOL     OW16537   0.747   0.987   9.295 -0.2753  0.3123  0.0918
 1634SOL    HW116538   0.661   1.014   9.329  0.3135  1.6263  0.5397
 1634SOL    HW216539   0.756   0.897   9.326  0.1980 -0.0451 -1.0447
 1635SOL     OW16540   1.941   1.130   4.314 -0.5346 -0.2116  0.9231
 1635SOL    HW116541   2.027   1.124   4.273 -1.3454  1.6613 -0.9884
 1635SOL    HW216542   1.903   1.048   4.280 -0.0446  0.3552 -0.9657
 1636SOL     OW16543   3.409   1.771  13.246 -0.6873 -0.1648  0.1389
 1636SOL    HW116544   3.449   1.823  13.315 -2.2192  1.4854 -0.1959
 1636SOL    HW216545   3.460   1.791  13.168  0.4820 -0.3417  0.8741
 1637SOL     OW16546   2.715   1.179  16.410  0.0173 -0.1576  0.9257
 1637SOL    HW116547   2.791   1.196  16.467  0.3143 -1.0041  0.7836
 1637SOL    HW216548   2.645   1.194  16.475 -0.7047  1.3868 -0.2153
 1638SOL     OW16549   1.031   0.508   2.229  0.4654  0.1337 -0.1873
 1638SOL    HW116550   1.002   0.594   2.261 -0.1913 -0.2091  0.1492
 1638SOL    HW216551   1.092   0.483   2.298 -2.1432  1.2136  2.5090
 1639SOL     OW16552   4.186   4.199   4.781  0.2149 -0.1661 -0.5107
 1639SOL    HW116553   4.231   4.201   4.865  0.7471  0.1418 -0.8043
 1639SOL    HW216554   4.100   4.162   4.804 -0.4595  1.7853  0.1417
 1640SOL     OW16555   1.017   3.733  13.434  0.4232 -0.3663  0.4300
 1640SOL    HW116556   0.984   3.782  13.510 -0.8026  0.3825 -0.5865
 1640SOL    HW216557   1.082   3.794  13.398  0.2350 -0.5956 -0.2832
 1641SOL     OW16558   4.558   0.274   9.355  0.2395  0.0602 -0.4299
 1641SOL    HW116559   4.542   0.199   9.299 -0.4030  1.4040 -2.0534
 1641SOL    HW216560   4.466   0.292   9.374  0.0220 -0.4194 -1.0430
 1642SOL     OW16561   3.193   0.940  10.632 -0.2665  0.3101  0.1765
 1642SOL    HW116562   3.166   0.948  10.541 -1.5251  4.7340  0.9263
 1642SOL    HW216563   3.258   0.870  10.630 -0.4082  0.0994  3.3310
 1643SOL     OW16564   3.001   2.383   1.766  0.1153  0.7738  0.4007
 1643SOL    HW116565   2.962   2.372   1.852 -1.0879 -0.2883 -0.2757
 1643SOL    HW216566   3.061   2.456   1.782  1.1880 -0.2766  1.2266
 1644SOL     OW16567   3.710   2.198  12.108 -0.4565 -0.3868 -0.0137
 1644SOL    HW116568   3.804   2.184  12.094  0.0509  0.5463  2.4882
 1644SOL    HW216569   3.674   2.198  12.020  1.2860 -1.9186 -0.7382
 1645SOL     OW16570   2.746   1.840   3.339 -0.0893  0.1010  0.4813
 1645SOL    HW116571   2.665   1.872   3.378  1.0613  2.1835  1.1775
 1645SOL    HW216572   2.778   1.919   3.296  0.5246  0.2412  1.1847
 1646SOL     OW16573   3.098   1.284   7.258 -0.7197  0.0457  0.3934
 1646SOL    HW116574   3.081   1.241   7.342 -3.4703  0.4152  0.0245
 1646SOL    HW216575   3.035   1.356   7.261 -0.4821  0.1719  2.3888
 1647SOL     OW16576   0.250   0.477   2.383  0.5422 -0.4132  0.1421
 1647SOL    HW116577   0.323   0.416   2.374  0.8820  0.2925 -1.9152
 1647SOL    HW216578   0.274   0.550   2.326  1.6264 -0.2893  0.7619
 1648SOL     OW16579   4.385   2.509   4.663  0.3570  0.3382 -0.0123
 1648SOL    HW116580   4.377   2.436   4.602 -0.8493 -0.1408  0.7319
 1648SOL    HW216581   4.432   2.465   4.733 -1.2571  1.7161  1.9265
 1649SOL     OW16582   0.518   1.702   9.402 -0.7119  0.2066 -0.8414
 1649SOL    HW116583   0.434   1.741   9.428 -0.9085 -1.8311  1.5975
 1649SOL    HW216584   0.565   1.769   9.352  3.0234 -1.7243  0.0614
 1650SOL     OW16585   4.700   2.239  16.354  0.1291 -0.1090 -0.4028
 1650SOL    HW116586   4.727   2.272  16.440  0.3297 -1.2549 -0.0232
 1650SOL    HW216587   4.607   2.263  16.354  0.4384  1.1068 -1.4204
 1651SOL     OW16588   2.780   0.630  16.461 -0.3819  0.9272  0.7858
 1651SOL    HW116589   2.863   0.625  16.509  0.3060  2.6668 -0.2080
 1651SOL    HW216590   2.754   0.722  16.452 -1.5528  0.4577 -0.6396
 1652SOL     OW16591   0.941   3.889   9.041 -0.2384 -0.3695 -0.6248
 1652SOL    HW116592   0.921   3.869   8.950  0.7707  1.9523 -1.3363
 1652SOL    HW216593   0.892   3.970   9.046  0.6693  0.0570  1.3806
 1653SOL     OW16594   0.824   2.988   9.775 -0.3244 -0.7679 -0.0044
 1653SOL    HW116595   0.792   3.048   9.708  0.6398  1.6961  1.7730
 1653SOL    HW216596   0.919   2.987   9.762 -0.3573 -0.0332 -0.3263
 1654SOL     OW16597   1.799   2.835   4.859  0.1942  0.2568 -0.0265
 1654SOL    HW116598   1.861   2.787   4.805  0.7610  1.0644 -0.0987
 1654SOL    HW216599   1.746   2.760   4.886 -0.5968  1.3977  1.5546
 1655SOL     OW16600   1.666   0.794   6.606 -0.3804 -0.2653 -0.4834
 1655SOL    HW116601   1.603   0.863   6.588  0.5634  0.4985 -0.8836
 1655SOL    HW216602   1.736   0.822   6.547 -0.0785  0.5549  0.2791
 1656SOL     OW16603   0.528   0.212   6.196  0.6739 -0.0268 -0.4623
 1656SOL    HW116604   0.492   0.202   6.108  1.4567 -1.2599 -0.6390
 1656SOL    HW216605   0.547   0.121   6.221 -1.8805 -0.6693 -0.8786
 1657SOL     OW16606   4.262   1.142   7.822 -0.6739  0.1541  0.0190
 1657SOL    HW116607   4.232   1.062   7.866  0.4948 -1.1296 -1.5372
 1657SOL    HW216608   4.180   1.185   7.848 -0.6144 -0.1013  0.6303
 1658SOL     OW16609   4.547   1.652   7.211  0.4432 -0.1663  0.0045
 1658SOL    HW116610   4.526   1.745   7.201  1.0264  0.1468  1.7246
 1658SOL    HW216611   4.636   1.652   7.175 -0.5302  2.2600 -2.3811
 1659SOL     OW16612   0.803   3.811  12.443 -0.2079  0.5292  0.1667
 1659SOL    HW116613   0.830   3.762  12.521 -2.8682 -1.8085 -0.3582
 1659SOL    HW216614   0.709   3.816  12.463 -0.7188 -0.0386 -2.0941
 1660SOL     OW16615   0.013   4.442   2.519  0.1294  0.2662  0.3653
 1660SOL    HW116616   4.664   4.414   2.487  0.0493 -0.1714  0.9538
 1660SOL    HW216617   0.080   4.393   2.471 -0.8956 -1.5348  0.7624
 1661SOL     OW16618   3.492   3.007   3.494 -0.0391  0.2044  0.0679
 1661SOL    HW116619   3.559   2.951   3.455  0.9682 -0.0775  2.1859
 1661SOL    HW216620   3.430   2.936   3.512 -1.0741  1.0663 -0.0775
 1662SOL     OW16621   3.789   2.229   2.162 -0.0080 -0.1873 -0.3020
 1662SOL    HW116622   3.745   2.203   2.243  1.2641 -0.5989  0.2567
 1662SOL    HW216623   3.755   2.159   2.106  0.0815 -0.4130 -0.0734
 1663SOL     OW16624   2.777   0.294  16.847 -0.1569  0.0955 -0.6254
 1663SOL    HW116625   2.709   0.316  16.784 -0.9613 -0.3913  0.0588
 1663SOL    HW216626   2.786   0.380  16.888 -2.4194 -0.5306  1.2007
 1664SOL     OW16627   3.661   2.584   8.702 -0.6787 -1.0834 -0.0683
 1664SOL    HW116628   3.609   2.616   8.628  0.7104  1.3368  0.0087
 1664SOL    HW216629   3.748   2.621   8.688 -1.2754  0.0255 -0.8800
 1665SOL     OW16630   2.731   4.141   3.208 -0.6656  0.2646 -0.0185
 1665SOL    HW116631   2.742   4.048   3.225  0.4510  0.7536  1.9035
 1665SOL    HW216632   2.811   4.170   3.164  0.1060  0.2573  1.3679
 1666SOL     OW16633   1.115   3.608   6.742  1.0210  0.0387  0.2862
 1666SOL    HW116634   1.051   3.614   6.671 -1.6281 -0.1171  2.6473
 1666SOL    HW216635   1.160   3.692   6.735  1.5343 -0.2726 -0.1456
 1667SOL     OW16636   0.305   4.495   6.255  0.1059 -0.6739  0.0539
 1667SOL    HW116637   0.290   4.462   6.343  1.0423 -3.4754 -0.8459
 1667SOL    HW216638   0.363   4.424   6.227  0.0244  0.2683 -2.4734
 1668SOL     OW16639   0.643   1.865  14.017  0.4672  0.3212 -0.2252
 1668SOL    HW116640   0.602   1.947  13.990  0.7735  1.2133  2.0489
 1668SOL    HW216641   0.723   1.872  13.966  1.3244 -0.2603  1.0489
 1669SOL     OW16642   0.765   4.702   1.834 -0.2028 -0.2038  0.5125
 1669SOL    HW116643   0.693   4.706   1.896 -0.7186  0.1860 -0.1085
 1669SOL    HW216644   0.721   4.692   1.750  0.1590  0.7665  0.2056
 1670SOL     OW16645   0.073   2.356   4.540  0.1565 -0.5576  0.4118
 1670SOL    HW116646   0.116   2.273   4.561  0.8201 -0.7705 -1.8343
 1670SOL    HW216647   4.723   2.319   4.519  1.2621 -2.1692 -1.3116
 1671SOL     OW16648   3.675   2.130  13.603 -0.0539  0.0742  0.7097
 1671SOL    HW116649   3.631   2.183  13.537 -0.2203 -1.7539 -0.6288
 1671SOL    HW216650   3.758   2.174  13.620  0.0087  0.9977 -1.9736
 1672SOL     OW16651   3.002   2.467   1.498  0.2784 -0.2787 -0.2562
 1672SOL    HW116652   3.012   2.381   1.458 -0.7993 -0.9692  0.9376
 1672SOL    HW216653   3.009   2.452   1.593  2.6447  1.7183 -0.1412
 1673SOL     OW16654   1.391   4.151   3.539 -0.5628 -0.2952  0.4814
 1673SOL    HW116655   1.386   4.179   3.447  0.8335  2.6558  1.3156
 1673SOL    HW216656   1.472   4.191   3.570 -0.1673 -0.3349 -0.5009
 1674SOL     OW16657   4.634   4.646   5.711  0.1540  0.0955 -0.2510
 1674SOL    HW116658   4.655   4.632   5.619 -3.6333  1.5609 -1.3323
 1674SOL    HW216659   4.639   4.554   5.739 -0.6163  0.1626  0.0975
 1675SOL     OW16660   0.370   0.669   2.652  0.2772 -0.4138 -0.4803
 1675SOL    HW116661   0.310   0.738   2.624  0.3395 -0.3610 -0.4830
 1675SOL    HW216662   0.349   0.677   2.745  1.9880 -2.6582  0.0912
 1676SOL     OW16663   2.883   1.303   1.978  0.0827  0.2676  0.6149
 1676SOL    HW116664   2.969   1.309   2.019 -0.0270 -2.4170  1.2304
 1676SOL    HW216665   2.892   1.345   1.892  1.4744 -1.2808 -0.0095
 1677SOL     OW16666   0.810   3.638   8.548 -0.1125 -0.0585 -0.2495
 1677SOL    HW116667   0.720   3.670   8.542 -0.4268 -1.0868 -1.1635
 1677SOL    HW216668   0.836   3.651   8.457  1.5773  0.1277  0.2650
 1678SOL     OW16669   4.182   0.760   3.771 -0.4318  0.1882  0.6485
 1678SOL    HW116670   4.250   0.740   3.835 -1.1121  0.9299  1.5838
 1678SOL    HW216671   4.187   0.684   3.713 -1.6211 -0.5690  1.5365
 1679SOL     OW16672   2.828   2.144   0.917 -0.7274  0.4115  0.7167
 1679SOL    HW116673   2.816   2.237   0.936 -0.6725  1.0894 -2.6135
 1679SOL    HW216674   2.922   2.158   0.904 -0.9659  1.2671 -0.0691
 1680SOL     OW16675   0.632   0.890  16.619  0.0084 -0.1903 -0.1322
 1680SOL    HW116676   0.705   0.939  16.658  1.4827 -1.3621 -1.4098
 1680SOL    HW216677   0.567   0.959  16.605 -1.0728 -0.6794  2.6032
 1681SOL     OW16678   1.023   0.261   8.168 -0.4207  1.1890  0.1463
 1681SOL    HW116679   0.990   0.172   8.165 -0.7183  1.2586  1.5956
 1681SOL    HW216680   0.996   0.300   8.084  0.8459 -1.1004 -1.3197
 1682SOL     OW16681   4.116   4.046   7.416 -0.3429  0.4265 -0.3629
 1682SOL    HW116682   4.038   4.006   7.456  0.4767  0.7559  1.5594
 1682SOL    HW216683   4.074   4.122   7.376 -0.5348  0.6297  0.2250
 1683SOL     OW16684   4.507   0.490   6.515 -0.1207 -0.0236 -0.2092
 1683SOL    HW116685   4.467   0.515   6.598  1.8168 -0.8958  0.9819
 1683SOL    HW216686   4.506   0.394   6.521 -0.7120  0.2073  3.3372
 1684SOL     OW16687   1.306   0.233   0.969  0.1975  0.2983 -0.0304
 1684SOL    HW116688   1.265   0.161   0.921 -0.3709  1.0708 -0.6859
 1684SOL    HW216689   1.394   0.196   0.979  0.8803  2.1365  0.7993
 1685SOL     OW16690   3.654   2.615   5.114 -0.5539 -0.3274 -0.0849
 1685SOL    HW116691   3.647   2.668   5.034 -2.5695 -0.8505 -0.2642
 1685SOL    HW216692   3.746   2.629   5.133 -0.9514  3.5353 -1.0728
 1686SOL     OW16693   2.440   4.108   8.552 -0.2493  0.0290 -0.1584
 1686SOL    HW116694   2.359   4.067   8.522  0.4193 -1.4714  0.1183
 1686SOL    HW216695   2.463   4.046   8.621  2.9109  1.8368  0.4339
 1687SOL     OW16696   1.262   4.188   3.789 -0.3261  0.5343 -0.4176
 1687SOL    HW116697   1.267   4.283   3.794  1.6732  0.3586  0.7579
 1687SOL    HW216698   1.303   4.176   3.703 -0.2996  1.3762 -0.5205
 1688SOL     OW16699   3.335   1.959   8.726  0.2647  0.0178  0.1753
 1688SOL    HW116700   3.329   1.880   8.780  2.2213  0.0764  0.4764
 1688SOL    HW216701   3.271   2.024   8.754 -1.4046 -1.3790 -0.3719
 1689SOL     OW16702   4.069   1.936   9.110  0.2827  0.9092  0.2907
 1689SOL    HW116703   4.025   1.872   9.167 -1.0255  0.4190 -1.2439
 1689SOL    HW216704   4.006   2.008   9.113  0.9570  1.6332 -3.0880
 1690SOL     OW16705   1.369   3.019   5.627 -0.4682 -0.5414 -0.3312
 1690SOL    HW116706   1.337   3.092   5.574 -1.5689 -0.7871 -0.0032
 1690SOL    HW216707   1.451   3.004   5.580  1.0884  2.7031  1.3154
 1691SOL     OW16708   3.640   2.682  13.346  0.2144 -0.0648 -0.5480
 1691SOL    HW116709   3.733   2.702  13.355 -0.0514  1.6506 -1.5784
 1691SOL    HW216710   3.638   2.612  13.411  0.8029  1.8413  1.5258
 1692SOL     OW16711   1.450   3.259   5.089 -1.1398 -0.5978  0.4934
 1692SOL    HW116712   1.438   3.354   5.100 -2.2537 -0.8165  1.1321
 1692SOL    HW216713   1.387   3.232   5.022  0.7001 -1.3764 -0.9296
 1693SOL     OW16714   0.484   3.097   0.618 -0.0846  0.5409  0.1286
 1693SOL    HW116715   0.488   3.091   0.714  2.0677 -1.2917 -0.0773
 1693SOL    HW216716   0.441   3.182   0.612 -0.8699  0.0328 -1.4067
 1694SOL     OW16717   3.476   0.657   8.218 -0.1835 -0.2206  0.0722
 1694SOL    HW116718   3.479   0.636   8.311 -0.7507 -1.8094 -0.2556
 1694SOL    HW216719   3.558   0.617   8.188  0.5405  2.7436 -1.8564
 1695SOL     OW16720   0.394   1.232   1.246  0.4687 -0.0643 -0.2026
 1695SOL    HW116721   0.300   1.221   1.256  0.4664 -2.2095 -2.6207
 1695SOL    HW216722   0.417   1.303   1.306  0.2155 -0.9314  0.9162
 1696SOL     OW16723   1.098   0.648   8.181 -0.7407 -0.1293  0.6529
 1696SOL    HW116724   1.190   0.675   8.181 -1.2322  1.5379  1.0278
 1696SOL    HW216725   1.056   0.721   8.136 -0.3618  0.3108  1.0064
 1697SOL     OW16726   1.708   1.458   0.757 -0.5528 -0.3202  0.4007
 1697SOL    HW116727   1.742   1.386   0.705 -0.7167 -0.2198  0.1472
 1697SOL    HW216728   1.620   1.460   0.717  0.4137 -1.1494 -1.7739
 1698SOL     OW16729   1.630   1.940  11.274  0.3270 -0.3759 -0.0261
 1698SOL    HW116730   1.613   2.029  11.304  2.8348  0.0210  0.1775
 1698SOL    HW216731   1.546   1.896  11.285 -1.1318  2.2836 -0.5452
 1699SOL     OW16732   1.736   2.886  11.035  0.1493  0.3241 -0.0187
 1699SOL    HW116733   1.821   2.898  11.077  0.8706  2.7255 -2.1058
 1699SOL    HW216734   1.748   2.931  10.951 -1.3749 -2.4845 -1.7382
 1700SOL     OW16735   0.990   0.422   4.183  0.1280 -0.6795  0.0991
 1700SOL    HW116736   1.045   0.419   4.261 -0.2932 -2.1807  0.3392
 1700SOL    HW216737   0.939   0.501   4.203 -1.1027 -0.9616 -1.8085
 1701SOL     OW16738   3.826   3.846  16.899 -0.5851 -0.5702  0.4157
 1701SOL    HW116739   3.907   3.811  16.935 -0.6244 -2.1924 -1.0575
 1701SOL    HW216740   3.800   3.917  16.958 -1.3677 -0.1241 -0.4638
 1702SOL     OW16741   1.933   2.147   6.440  0.5978  0.1484 -0.4366
 1702SOL    HW116742   2.011   2.116   6.487  1.3796 -0.1519 -1.9565
 1702SOL    HW216743   1.927   2.085   6.368  2.3079 -1.3026  0.6620
 1703SOL     OW16744   0.690   3.219   8.123  0.1225  0.7063  0.6479
 1703SOL    HW116745   0.704   3.125   8.109 -1.1550  0.3596  1.6813
 1703SOL    HW216746   0.598   3.236   8.101  0.0347  0.9293  1.1900
 1704SOL     OW16747   2.407   3.575  16.423 -0.0294  0.3314 -0.3943
 1704SOL    HW116748   2.464   3.501  16.404  0.8708  0.9749 -0.1950
 1704SOL    HW216749   2.382   3.601  16.334  0.7755  2.1447 -0.0936
 1705SOL     OW16750   0.852   3.095   0.724  0.4286 -0.1837 -0.2542
 1705SOL    HW116751   0.914   3.047   0.779  0.1299  1.2569  1.3258
 1705SOL    HW216752   0.774   3.085   0.779 -0.3927 -0.9258 -1.5501
 1706SOL     OW16753   4.081   4.573  11.676  0.1614  0.0199 -0.4859
 1706SOL    HW116754   4.157   4.567  11.734  0.5671 -0.4021 -1.0576
 1706SOL    HW216755   4.067   4.479  11.660 -0.0575  0.0744 -0.6203
 1707SOL     OW16756   2.426   1.704  11.653  0.0683 -0.3780  0.1561
 1707SOL    HW116757   2.338   1.743  11.656 -0.1012 -0.8011  0.6440
 1707SOL    HW216758   2.450   1.710  11.745  3.0804  0.3858 -0.6904
 1708SOL     OW16759   2.154   4.455  11.201  0.5428  0.4726  0.5127
 1708SOL    HW116760   2.147   4.549  11.185  1.1198  0.4249 -0.0177
 1708SOL    HW216761   2.059   4.443  11.202  0.7229 -0.8963  0.3514
 1709SOL     OW16762   1.641   2.713   7.931  0.5292  0.3448  0.2586
 1709SOL    HW116763   1.653   2.754   8.016 -0.2392 -1.7567  1.3824
 1709SOL    HW216764   1.688   2.630   7.932 -1.3732 -0.7306  1.0644
 1710SOL     OW16765   3.187   2.434   0.238  0.4089  0.3115  0.4373
 1710SOL    HW116766   3.193   2.424   0.143 -0.3760 -0.4869  0.4727
 1710SOL    HW216767   3.253   2.502   0.253  1.0591  0.1817 -1.9048
 1711SOL     OW16768   2.367   2.039  13.735 -0.1987  0.7385  0.1338
 1711SOL    HW116769   2.421   2.031  13.814  1.1447 -0.6422 -0.9067
 1711SOL    HW216770   2.357   1.950  13.700  0.1713  1.7547 -2.4851
 1712SOL     OW16771   4.340   1.509   5.216 -0.1057  0.1204 -0.3072
 1712SOL    HW116772   4.377   1.577   5.159 -0.8511  1.0423  0.3037
 1712SOL    HW216773   4.274   1.562   5.259  1.5300  1.1052  0.9966
 1713SOL     OW16774   0.915   2.623   4.046 -0.2376 -0.8631  0.2929
 1713SOL    HW116775   0.888   2.564   4.117 -0.7316 -0.3642  0.5164
 1713SOL    HW216776   0.837   2.621   3.990  0.9200  0.0873 -1.3535
 1714SOL     OW16777   1.881   1.858   2.206  0.0024 -0.3508  0.4649
 1714SOL    HW116778   1.892   1.809   2.125 -0.3185 -0.0488  0.2402
 1714SOL    HW216779   1.975   1.863   2.222 -0.3054  2.8425  1.4370
 1715SOL     OW16780   1.500   0.723   1.814  0.3034  0.4583  0.6606
 1715SOL    HW116781   1.528   0.778   1.887 -0.0572  1.0007  0.3940
 1715SOL    HW216782   1.416   0.757   1.784 -0.2269 -1.8330 -0.4847
 1716SOL     OW16783   3.151   4.050   3.028  0.1031  0.1261 -0.4129
 1716SOL    HW116784   3.246   4.048   3.016  0.1393 -0.2155 -0.0790
 1716SOL    HW216785   3.135   3.957   3.012  0.4084  0.2141 -1.2070
 1717SOL     OW16786   0.819   1.949   7.777  0.1327 -0.6251 -0.0025
 1717SOL    HW116787   0.911   1.958   7.803  0.1902 -0.7397 -0.1665
 1717SOL    HW216788   0.790   1.903   7.855  2.5206 -1.0413  0.6346
 1718SOL     OW16789   2.907   1.055   4.948  0.4471 -0.3023 -0.0566
 1718SOL    HW116790   2.925   1.086   4.860 -0.7458  1.1625  0.2244
 1718SOL    HW216791   2.819   1.020   4.938  0.8525 -1.3502 -0.0410
 1719SOL     OW16792   3.669   3.498   1.806  0.1187 -0.1728  0.2842
 1719SOL    HW116793   3.665   3.589   1.837  2.6959 -0.2430  0.8237
 1719SOL    HW216794   3.710   3.507   1.719  0.5829  0.9787  0.6210
 1720SOL     OW16795   3.900   1.679   2.533  0.8676  0.6260 -0.0933
 1720SOL    HW116796   3.921   1.767   2.564 -0.2922  0.3675  1.3975
 1720SOL    HW216797   3.980   1.657   2.484 -0.2949  0.9336 -2.1033
 1721SOL     OW16798   3.184   4.432   5.324  0.3745 -0.1057  0.0043
 1721SOL    HW116799   3.136   4.510   5.297  1.2075  0.7189  0.9340
 1721SOL    HW216800   3.254   4.415   5.260 -2.1527  1.0993 -3.1088
 1722SOL     OW16801   2.686   3.696  17.728 -0.0788  0.3358  0.6441
 1722SOL    HW116802   2.608   3.747   0.008 -1.2105 -1.1927  0.1902
 1722SOL    HW216803   2.679   3.720  17.635 -2.5538 -2.3000  0.1390
 1723SOL     OW16804   0.458   4.566   2.830 -0.3248  0.4603  0.1171
 1723SOL    HW116805   0.363   4.563   2.814 -0.0539  2.6225 -1.8242
 1723SOL    HW216806   0.464   4.551   2.924  1.1304  0.8169  0.0748
 1724SOL     OW16807   0.766   3.662   9.017 -0.0166 -0.5543  0.3022
 1724SOL    HW116808   0.839   3.725   9.013 -0.5087 -0.2278 -3.7593
 1724SOL    HW216809   0.758   3.638   8.924  2.5186 -1.2921  0.2487
 1725SOL     OW16810   3.947   2.885  17.126  0.0014 -0.2418  0.3823
 1725SOL    HW116811   3.854   2.883  17.152 -0.3766 -1.0728 -1.0888
 1725SOL    HW216812   3.978   2.867  17.215  2.7215 -0.1293 -0.5671
 1726SOL     OW16813   0.932   4.227  16.859  0.0214 -0.2277  1.1432
 1726SOL    HW116814   0.900   4.253  16.946  2.4542  2.2047  1.3144
 1726SOL    HW216815   0.872   4.276  16.803  1.8253  0.6370 -0.0203
 1727SOL     OW16816   3.198   4.529  17.502 -0.8453 -0.3107 -0.1857
 1727SOL    HW116817   3.222   4.503  17.591 -2.7088  0.1791  0.4378
 1727SOL    HW216818   3.276   4.500  17.453 -2.1889  1.6550 -3.4952
 1728SOL     OW16819   0.286   3.423  13.957  0.4243  0.4909 -0.8623
 1728SOL    HW116820   0.371   3.443  13.996  0.1382  0.1974 -0.0945
 1728SOL    HW216821   0.252   3.511  13.942 -1.4871 -0.5635 -2.6673
 1729SOL     OW16822   2.503   4.217   2.572 -0.0383  0.1241 -0.2185
 1729SOL    HW116823   2.573   4.224   2.637  0.0262  1.3599 -0.4158
 1729SOL    HW216824   2.524   4.134   2.530 -1.2120 -2.2099  3.8485
 1730SOL     OW16825   2.893   3.612   0.857 -0.0560  0.3451  0.6478
 1730SOL    HW116826   2.857   3.643   0.774 -0.1581 -0.9524  0.2094
 1730SOL    HW216827   2.914   3.699   0.891 -2.3569  0.7226  1.1181
 1731SOL     OW16828   1.095   0.664   6.247 -0.0012  0.3227 -0.8076
 1731SOL    HW116829   1.174   0.610   6.240 -1.2548 -1.5813 -0.3494
 1731SOL    HW216830   1.106   0.723   6.172  1.4004 -2.2295 -2.6547
 1732SOL     OW16831   0.013   4.734  14.924  0.8098  0.3491 -0.6053
 1732SOL    HW116832   4.666   0.045  14.935  0.8497  0.4744 -0.8532
 1732SOL    HW216833   4.729   4.681  14.847  2.2890  0.0603 -0.7967
 1733SOL     OW16834   2.332   1.691   8.896 -0.5647 -0.1724 -0.1250
 1733SOL    HW116835   2.402   1.743   8.856 -0.2620 -0.9742 -0.6319
 1733SOL    HW216836   2.281   1.745   8.957  1.4238  1.3551  0.1721
 1734SOL     OW16837   3.009   2.494   4.518 -0.2960  0.1826  0.1208
 1734SOL    HW116838   2.964   2.437   4.455 -0.4274  0.6237 -0.1787
 1734SOL    HW216839   2.940   2.506   4.584  0.1806  0.8822  0.4908
 1735SOL     OW16840   2.420   2.461   6.535  0.5839  0.0404 -0.0541
 1735SOL    HW116841   2.344   2.436   6.588 -1.2117 -1.0721 -3.1325
 1735SOL    HW216842   2.462   2.530   6.586 -0.0417  1.7861 -1.9174
 1736SOL     OW16843   4.208   4.494  11.140 -0.5247  0.8518 -0.0240
 1736SOL    HW116844   4.192   4.479  11.233 -2.3939 -1.2377 -0.6927
 1736SOL    HW216845   4.293   4.539  11.139  0.5803 -1.1869  1.1813
 1737SOL     OW16846   4.683   2.973   5.888 -0.7374 -0.1028  0.0824
 1737SOL    HW116847   4.611   2.913   5.868 -1.2435 -0.1966  2.2286
 1737SOL    HW216848   4.666   3.045   5.826 -1.4385 -0.1512  0.2226
 1738SOL     OW16849   3.528   2.892   1.428 -0.1773  0.4924 -0.6976
 1738SOL    HW116850   3.487   2.976   1.407  1.1210  1.6526  1.4601
 1738SOL    HW216851   3.602   2.911   1.486 -0.2025  0.4307 -0.6453
 1739SOL     OW16852   2.326   4.702  11.028 -0.3909 -0.0572 -0.4530
 1739SOL    HW116853   2.233   4.716  11.041 -0.7531 -2.3792 -0.5434
 1739SOL    HW216854   2.349   0.029  10.959 -0.0215  1.9819  1.5220
 1740SOL     OW16855   2.834   1.676   6.788  0.4233 -0.3565  0.4508
 1740SOL    HW116856   2.787   1.594   6.803 -0.3386 -0.1418 -0.7361
 1740SOL    HW216857   2.849   1.682   6.694 -3.5827  0.9470 -0.1378
 1741SOL     OW16858   4.018   0.186  11.023 -0.2591  0.4364 -0.2283
 1741SOL    HW116859   3.925   0.207  11.021 -0.5090 -0.7019 -0.2367
 1741SOL    HW216860   4.014   0.121  10.953 -2.5115  1.6530 -1.2192
 1742SOL     OW16861   0.266   2.652   3.090  0.1121 -0.3237 -0.0621
 1742SOL    HW116862   0.194   2.640   3.152  1.1466 -1.1203  0.9731
 1742SOL    HW216863   0.226   2.702   3.019  0.0272 -1.3421 -0.7354
 1743SOL     OW16864   0.827   0.884  10.403 -0.1344 -0.0526 -0.0980
 1743SOL    HW116865   0.890   0.841  10.461 -0.3340  0.6978  0.6766
 1743SOL    HW216866   0.880   0.957  10.371  1.3016 -1.3919 -0.7735
 1744SOL     OW16867   0.249   2.049   8.759 -0.6102 -0.1505 -0.7247
 1744SOL    HW116868   0.278   1.962   8.783 -1.1507 -0.2764 -0.5305
 1744SOL    HW216869   0.214   2.083   8.841  0.9874 -0.1684 -0.0336
 1745SOL     OW16870   2.199   2.336  17.150 -0.1215  0.3025 -0.7172
 1745SOL    HW116871   2.190   2.426  17.117  1.1337  1.1804  1.3179
 1745SOL    HW216872   2.106   2.318  17.162 -0.0085  0.3205  0.1574
 1746SOL     OW16873   3.987   4.070  17.363  0.3406  0.0586  0.1582
 1746SOL    HW116874   4.034   4.029  17.291  0.7575 -1.3313  1.2015
 1746SOL    HW216875   4.039   4.027  17.432  3.5148 -0.8561 -2.8305
 1747SOL     OW16876   4.614   1.781   1.309  0.2709 -0.5532  0.0925
 1747SOL    HW116877   4.636   1.868   1.342  1.4182 -0.8980  0.2303
 1747SOL    HW216878   4.556   1.748   1.378  0.4896 -0.9240  0.0977
 1748SOL     OW16879   2.471   0.176   6.792 -0.1775 -0.6609 -0.4586
 1748SOL    HW116880   2.514   0.180   6.878  0.7821 -2.3924 -0.8580
 1748SOL    HW216881   2.481   0.082   6.784 -1.2264 -0.8687  0.6021
 1749SOL     OW16882   3.579   1.480   3.137 -0.5564  0.0240 -0.3281
 1749SOL    HW116883   3.646   1.424   3.097 -0.2868  0.5363 -0.5884
 1749SOL    HW216884   3.500   1.471   3.085  0.3994  0.1868 -1.8288
 1750SOL     OW16885   4.247   2.940   4.970 -0.2527  0.0463  0.2497
 1750SOL    HW116886   4.207   3.027   4.968  0.4147  0.3380 -0.1630
 1750SOL    HW216887   4.340   2.963   4.969 -0.1949 -0.1699  0.7541
 1751SOL     OW16888   3.785   2.914   4.252  0.6328  0.1913  0.0201
 1751SOL    HW116889   3.733   2.834   4.250  0.2364  0.4182  1.3016
 1751SOL    HW216890   3.780   2.922   4.157  0.3826  1.5072  0.1443
 1752SOL     OW16891   2.276   2.872  16.198  0.1530 -0.0825  0.2637
 1752SOL    HW116892   2.239   2.825  16.123  0.5013  2.5341 -1.5797
 1752SOL    HW216893   2.197   2.918  16.226 -1.1636 -1.0791 -1.8050
 1753SOL     OW16894   4.012   0.975   2.168 -1.0185  0.5996 -0.1405
 1753SOL    HW116895   4.013   0.893   2.119 -1.7010 -0.9067  2.4119
 1753SOL    HW216896   3.919   0.997   2.163 -0.7000  2.1076  0.3910
 1754SOL     OW16897   3.978   3.963   4.721  0.3722  0.2843 -0.3973
 1754SOL    HW116898   4.012   3.892   4.667 -0.1590  1.0087 -1.6807
 1754SOL    HW216899   3.964   4.032   4.657 -2.8926  0.9586  1.0497
 1755SOL     OW16900   0.235   1.450   2.513  0.0329 -0.2637  0.2978
 1755SOL    HW116901   0.319   1.412   2.538  0.2822 -0.1616 -0.3847
 1755SOL    HW216902   0.244   1.544   2.529 -0.4584  0.1535 -1.9958
 1756SOL     OW16903   3.057   4.408   2.697 -0.3473  0.3920  0.7643
 1756SOL    HW116904   3.055   4.336   2.635  1.3353 -0.3814  1.5905
 1756SOL    HW216905   3.136   4.386   2.746  0.5042  1.2072 -0.2551
 1757SOL     OW16906   0.842   4.152   9.007  1.1986  0.1992 -0.0830
 1757SOL    HW116907   0.809   4.240   9.027 -0.3850 -0.2477 -0.7132
 1757SOL    HW216908   0.888   4.164   8.924  1.1881 -0.6702 -0.2122
 1758SOL     OW16909   4.000   2.252   5.558 -0.3178  0.6970 -0.7402
 1758SOL    HW116910   3.946   2.330   5.548  0.8590  1.6541  0.3550
 1758SOL    HW216911   4.050   2.281   5.635 -0.2039  1.4208 -1.0888
 1759SOL     OW16912   1.401   0.645   5.766  0.2192  0.1650 -0.3649
 1759SOL    HW116913   1.318   0.606   5.739 -0.2297  0.6495  0.3253
 1759SOL    HW216914   1.422   0.697   5.689  1.6952 -1.8023 -1.2897
 1760SOL     OW16915   3.046   4.285   4.772 -0.8237 -0.1921  0.3800
 1760SOL    HW116916   2.999   4.217   4.723 -0.2982  0.2334 -0.7307
 1760SOL    HW216917   3.110   4.320   4.710  0.2102 -3.2225 -0.2482
 1761SOL     OW16918   3.053   3.243   6.567 -0.0601  0.2203  0.4439
 1761SOL    HW116919   3.062   3.157   6.608  1.5502  1.2243  2.2066
 1761SOL    HW216920   3.081   3.216   6.480 -0.6358 -1.8704  0.8996
 1762SOL     OW16921   1.303   0.736  12.377  0.3933 -0.3509  0.2395
 1762SOL    HW116922   1.226   0.790  12.393  1.7123  1.4464  0.5308
 1762SOL    HW216923   1.261   0.651  12.390 -0.1130 -0.0049  0.8330
 1763SOL     OW16924   0.730   3.472   3.289  0.2105  0.1953 -0.5814
 1763SOL    HW116925   0.733   3.480   3.193 -1.2816  0.7746 -0.5951
 1763SOL    HW216926   0.690   3.386   3.299 -0.5412  0.4946 -1.0154
 1764SOL     OW16927   1.746   3.168   8.615 -0.7595 -0.4103 -0.1086
 1764SOL    HW116928   1.658   3.157   8.580 -0.2237 -0.6056 -1.3896
 1764SOL    HW216929   1.741   3.253   8.659  0.9362 -0.2842 -0.1379
 1765SOL     OW16930   4.225   4.148   5.328 -0.4175 -0.1800 -0.2924
 1765SOL    HW116931   4.271   4.132   5.410  0.0071  0.4124 -0.4078
 1765SOL    HW216932   4.157   4.081   5.330 -2.9667  2.3570 -1.3618
 1766SOL     OW16933   0.215   2.933   7.399  0.3996 -0.4665  0.4649
 1766SOL    HW116934   0.274   2.883   7.455  0.3029  1.7108  2.4915
 1766SOL    HW216935   0.285   2.969   7.346  0.5930  0.6085  1.4679
 1767SOL     OW16936   3.539   2.158  11.800 -0.2669 -0.1489 -0.6165
 1767SOL    HW116937   3.616   2.102  11.813 -1.1941 -1.0286  1.1417
 1767SOL    HW216938   3.463   2.099  11.807 -1.2643  1.1057 -0.7562
 1768SOL     OW16939   3.713   1.992  11.191  0.9122 -0.0976  0.1923
 1768SOL    HW116940   3.659   2.055  11.143  2.0089  1.1119  0.5460
 1768SOL    HW216941   3.797   2.011  11.149  1.0598  0.5623  0.7952
 1769SOL     OW16942   2.383   4.584  11.535 -0.6669  0.1029 -0.2207
 1769SOL    HW116943   2.341   4.662  11.570  2.9128  1.2284  1.5713
 1769SOL    HW216944   2.429   4.605  11.454  1.0258 -2.4542  0.0546
 1770SOL     OW16945   3.757   4.124   9.216  0.0494  0.8810 -0.2109
 1770SOL    HW116946   3.807   4.044   9.229  1.7115  2.2551  1.7002
 1770SOL    HW216947   3.745   4.139   9.309 -2.7118 -0.0647 -0.4190
 1771SOL     OW16948   2.764   4.497   5.727 -0.1061  0.1234  0.0131
 1771SOL    HW116949   2.838   4.438   5.740 -1.2730 -2.0578 -3.3548
 1771SOL    HW216950   2.765   4.533   5.816  1.4220  1.5756 -0.5812
 1772SOL     OW16951   3.403   0.969   7.903 -0.6297 -0.4130 -0.1976
 1772SOL    HW116952   3.495   0.942   7.897  0.0757  1.7686  0.8088
 1772SOL    HW216953   3.411   1.039   7.968  1.9212  1.5579 -2.5707
 1773SOL     OW16954   1.069   1.072   3.295  0.5065 -0.4134 -0.3572
 1773SOL    HW116955   1.093   1.027   3.376 -0.8095 -1.2106 -0.4080
 1773SOL    HW216956   1.129   1.146   3.285 -1.3066  0.7395 -2.7386
 1774SOL     OW16957   3.956   3.737  14.915 -0.2903  0.5199 -0.8441
 1774SOL    HW116958   3.895   3.674  14.876 -0.8278 -0.0221  0.8338
 1774SOL    HW216959   3.986   3.779  14.835 -0.6601  2.9846  0.3220
 1775SOL     OW16960   3.281   0.036   6.069 -0.2989 -0.2734 -0.4183
 1775SOL    HW116961   3.262   4.681   6.046 -0.9400 -0.3589  0.4140
 1775SOL    HW216962   3.249   0.053   6.158  1.5579  0.6684  0.0653
 1776SOL     OW16963   4.601   2.665  13.566  0.2056 -0.4953  0.6288
 1776SOL    HW116964   4.605   2.637  13.474  0.6513 -2.1182  1.1412
 1776SOL    HW216965   4.515   2.706  13.572  1.0830  0.8349  4.0028
 1777SOL     OW16966   1.517   2.837   8.151 -0.0317  0.4565  0.0606
 1777SOL    HW116967   1.493   2.870   8.237  1.6237  0.5884  0.4669
 1777SOL    HW216968   1.518   2.919   8.101 -2.1503  1.8911  2.3995
 1778SOL     OW16969   3.045   3.062   6.920 -0.1230  0.2006 -0.3991
 1778SOL    HW116970   3.067   3.016   7.001  1.1924  1.2142 -0.1831
 1778SOL    HW216971   3.028   3.152   6.948  0.7766  0.5179 -0.8571
 1779SOL     OW16972   1.672   3.053  11.510 -0.0893 -0.5821  0.0774
 1779SOL    HW116973   1.661   2.991  11.438 -0.8114 -2.3983  1.7849
 1779SOL    HW216974   1.656   3.128  11.452 -1.0524 -1.4351 -0.7649
 1780SOL     OW16975   3.927   4.619  17.498  1.0975 -0.0692 -0.5942
 1780SOL    HW116976   3.967   4.649  17.579  0.0897  1.3432 -0.6127
 1780SOL    HW216977   3.847   4.578  17.530  2.0678 -1.3606  0.1675
 1781SOL     OW16978   1.596   0.225   7.425 -0.2001 -0.1076  0.2242
 1781SOL    HW116979   1.509   0.194   7.448 -0.3178 -0.2319 -0.3981
 1781SOL    HW216980   1.583   0.252   7.335 -0.6991  0.7242  0.5515
 1782SOL     OW16981   4.327   4.200   0.671  0.3499  0.0776 -0.3777
 1782SOL    HW116982   4.272   4.171   0.744  1.4267 -1.2820 -0.1296
 1782SOL    HW216983   4.413   4.162   0.684 -0.1747 -1.2844 -0.9518
 1783SOL     OW16984   4.731   3.637   3.892  0.8277 -0.0002  0.2763
 1783SOL    HW116985   0.050   3.620   3.815 -1.9219 -1.2272 -1.4012
 1783SOL    HW216986   4.694   3.724   3.879 -1.0686 -0.8818 -0.1056
 1784SOL     OW16987   0.292   4.644   3.304 -0.4520 -0.2700  0.0179
 1784SOL    HW116988   0.309   4.623   3.396  1.9719  0.0162 -0.3591
 1784SOL    HW216989   0.201   4.617   3.294 -0.9814  0.7744  2.1320
 1785SOL     OW16990   2.069   2.989  13.694  0.0466 -0.3155  0.4665
 1785SOL    HW116991   2.010   3.053  13.734 -1.1275 -1.0234 -0.1183
 1785SOL    HW216992   2.068   2.919  13.759 -0.1670  0.9735  1.8266
 1786SOL     OW16993   4.406   4.683  16.242  0.1438 -0.3504 -0.9625
 1786SOL    HW116994   4.373   4.594  16.254 -0.3119 -0.2695 -1.6566
 1786SOL    HW216995   4.361   4.735  16.308 -1.2229 -1.3565 -1.0990
 1787SOL     OW16996   2.168   4.562   8.792 -0.3806  0.5559 -0.2257
 1787SOL    HW116997   2.198   4.563   8.883  0.2657 -1.3389 -0.4312
 1787SOL    HW216998   2.229   4.502   8.749  1.8255  3.0044 -0.5441
 1788SOL     OW16999   0.455   2.560   3.311  0.1623  0.3052  0.2951
 1788SOL    HW117000   0.398   2.617   3.363 -1.0886  0.0603 -0.7946
 1788SOL    HW217001   0.465   2.611   3.230  2.5291  0.7178  0.8712
 1789SOL     OW17002   0.983   1.036   0.031 -0.6180 -0.1445 -0.6583
 1789SOL    HW117003   0.897   1.000   0.008 -0.0801 -1.4766 -0.5751
 1789SOL    HW217004   0.952   1.077   0.113  3.6577  2.1846 -0.1990
 1790SOL     OW17005   1.712   2.179  12.765  0.0908  0.3330 -0.1052
 1790SOL    HW117006   1.653   2.126  12.818 -2.4489  1.3234 -1.9651
 1790SOL    HW217007   1.754   2.244  12.821  1.8590 -1.5014  0.7246
 1791SOL     OW17008   2.791   0.159   9.934 -0.0336 -0.2697  0.4332
 1791SOL    HW117009   2.762   0.236   9.983  0.2578  0.7257 -0.9546
 1791SOL    HW217010   2.883   0.149   9.959 -0.3700 -3.2882  0.4989
 1792SOL     OW17011   1.955   2.064  13.619 -0.3861  0.1587 -0.0941
 1792SOL    HW117012   1.901   2.058  13.541 -0.1217  0.3332 -0.2923
 1792SOL    HW217013   2.030   2.018  13.582  0.4629  1.3981  0.0586
 1793SOL     OW17014   1.141   2.461   7.692 -0.2314  0.2516  0.2595
 1793SOL    HW117015   1.097   2.543   7.713 -0.6496  0.0683  0.0917
 1793SOL    HW217016   1.069   2.398   7.697  0.5984 -0.6864  0.3779
 1794SOL     OW17017   4.232   0.264   3.014  0.0754  0.8572  0.0737
 1794SOL    HW117018   4.327   0.263   3.004 -0.0486 -0.4938 -0.9896
 1794SOL    HW217019   4.198   0.225   2.933  0.2371 -0.6657  0.7407
 1795SOL     OW17020   0.294   4.454  10.461 -0.2725 -0.0698 -0.2080
 1795SOL    HW117021   0.206   4.418  10.459 -0.5894  0.5888  2.7738
 1795SOL    HW217022   0.325   4.419  10.544  1.1586 -1.1416 -1.1768
 1796SOL     OW17023   4.369   3.765   5.502 -0.6519  0.2292  0.3371
 1796SOL    HW117024   4.399   3.791   5.415  0.6555  0.1714  0.7585
 1796SOL    HW217025   4.457   3.765   5.541 -1.0464  0.2621  1.2340
 1797SOL     OW17026   3.628   3.513   7.583  0.3428  0.6425  0.4065
 1797SOL    HW117027   3.547   3.493   7.536  2.8266 -0.3077 -3.5139
 1797SOL    HW217028   3.658   3.423   7.596 -0.4602  0.5824  1.8021
 1798SOL     OW17029   0.095   2.118  16.163  0.7869  0.3836 -0.0696
 1798SOL    HW117030   0.032   2.054  16.133  1.3123  0.1559 -0.6710
 1798SOL    HW217031   0.046   2.176  16.221  1.1287  0.3920  0.2132
 1799SOL     OW17032   3.223   2.657  16.373  0.1930  0.1113 -0.0431
 1799SOL    HW117033   3.144   2.700  16.403  0.4199  0.7037 -0.2943
 1799SOL    HW217034   3.267   2.733  16.334  0.9557  0.4599  1.4873
 1800SOL     OW17035   1.905   0.519  11.128 -0.5355  0.0497  0.0824
 1800SOL    HW117036   1.971   0.538  11.194  1.1314  0.3633 -1.6491
 1800SOL    HW217037   1.848   0.454  11.169  0.3586 -0.1310  1.0061
 1801SOL     OW17038   0.928   2.420  15.071 -0.0062 -0.1368  0.3987
 1801SOL    HW117039   0.917   2.329  15.043 -3.1942 -0.1924  1.9215
 1801SOL    HW217040   0.837   2.448  15.071  0.2229  0.6067 -1.3479
 1802SOL     OW17041   3.378   0.679   8.704 -0.2557  0.4918 -0.1430
 1802SOL    HW117042   3.308   0.649   8.762 -1.5513  1.7581 -1.0844
 1802SOL    HW217043   3.454   0.652   8.756 -1.7101 -1.0133  1.2391
 1803SOL     OW17044   1.735   1.432   6.961  0.2537 -0.3348 -0.3349
 1803SOL    HW117045   1.749   1.379   7.039  1.8629  0.0020 -0.3857
 1803SOL    HW217046   1.697   1.508   7.006  0.1268 -1.5318  1.5911
 1804SOL     OW17047   0.019   1.549  14.288 -0.5412 -0.1445 -0.2507
 1804SOL    HW117048   0.005   1.458  14.316  2.7587 -0.2721  0.9765
 1804SOL    HW217049   4.663   1.574  14.274 -0.0003  1.6038 -0.5930
 1805SOL     OW17050   2.946   0.474  16.229 -0.4539  0.6273 -0.5575
 1805SOL    HW117051   2.925   0.486  16.136  2.3979 -0.4008 -1.3426
 1805SOL    HW217052   2.895   0.399  16.256  0.0617  0.9165  1.2305
 1806SOL     OW17053   1.984   3.542   4.680  0.4549 -0.1401  0.0199
 1806SOL    HW117054   1.924   3.578   4.616 -0.0390 -0.0711  0.5235
 1806SOL    HW217055   1.929   3.536   4.758 -0.2534 -0.4023 -0.4963
 1807SOL     OW17056   3.821   2.971   1.213  0.0485 -0.0649  0.1220
 1807SOL    HW117057   3.833   3.059   1.249  1.1202  0.5514 -1.7145
 1807SOL    HW217058   3.842   2.932   1.297  1.4561  2.0573  0.7482
 1808SOL     OW17059   2.034   1.836   0.114 -0.1051  0.0628 -0.4185
 1808SOL    HW117060   2.092   1.765   0.086 -1.7737 -0.7996 -1.7024
 1808SOL    HW217061   2.075   1.866   0.195 -0.2865  0.2337 -0.3902
 1809SOL     OW17062   4.488   4.079  16.957 -0.4608  0.1762  0.8069
 1809SOL    HW117063   4.471   4.105  17.047 -1.0745 -0.5383  0.9001
 1809SOL    HW217064   4.572   4.035  16.971 -0.3531  0.1511  0.0799
 1810SOL     OW17065   1.382   0.713   9.744  0.5035  0.7072  1.1208
 1810SOL    HW117066   1.409   0.760   9.665  0.8170  1.8120  1.8761
 1810SOL    HW217067   1.467   0.678   9.771 -0.0213 -0.2279  1.5555
 1811SOL     OW17068   4.106   0.128   1.823  0.3249 -0.2491 -0.1200
 1811SOL    HW117069   4.140   0.216   1.810  1.2422 -0.6947 -0.7183
 1811SOL    HW217070   4.079   0.138   1.914 -0.5177 -2.3710 -0.1207
 1812SOL     OW17071   1.161   0.963   5.615 -0.3944 -0.4945  0.2657
 1812SOL    HW117072   1.194   1.053   5.608 -0.3823 -0.3433  2.2376
 1812SOL    HW217073   1.238   0.915   5.584 -0.5341 -1.0435  0.7488
 1813SOL     OW17074   3.158   4.343  10.514 -0.2776 -0.6490  0.1063
 1813SOL    HW117075   3.143   4.248  10.510 -1.2099 -0.5763  2.0025
 1813SOL    HW217076   3.202   4.345  10.599 -3.2505 -0.4492  1.6047
 1814SOL     OW17077   1.230   0.476   5.013 -0.7482  0.0170  1.0629
 1814SOL    HW117078   1.308   0.437   5.052  1.4291  1.7602 -1.6465
 1814SOL    HW217079   1.239   0.563   5.053 -0.4962 -1.3459  3.9823
 1815SOL     OW17080   4.320   4.665  10.818 -0.9768 -0.3867  0.1362
 1815SOL    HW117081   4.372   4.596  10.858  0.8274  2.3404  2.5122
 1815SOL    HW217082   4.383   0.001  10.816 -0.8425 -0.4420  2.0746
 1816SOL     OW17083   1.805   4.247   3.401  0.0371  0.0254 -0.8033
 1816SOL    HW117084   1.780   4.272   3.490  0.1359  0.0612 -0.7851
 1816SOL    HW217085   1.859   4.170   3.423  0.4242  0.7833  0.9046
 1817SOL     OW17086   1.834   2.464   7.694  0.8646  0.0045  0.0121
 1817SOL    HW117087   1.823   2.424   7.607 -0.2806  1.4606 -0.5229
 1817SOL    HW217088   1.915   2.421   7.720 -0.4147  0.1808  4.1901
 1818SOL     OW17089   0.300   1.483  16.647 -0.3252 -0.2846 -0.5117
 1818SOL    HW117090   0.382   1.441  16.671  0.6894  0.7550 -2.1349
 1818SOL    HW217091   0.329   1.531  16.569  0.1156  2.6086  1.4180
 1819SOL     OW17092   3.298   4.204   7.962  0.1653 -0.7648  0.1558
 1819SOL    HW117093   3.230   4.262   7.997  0.1520  0.2687 -1.5804
 1819SOL    HW217094   3.344   4.262   7.901  1.8170 -0.6685  1.5004
 1820SOL     OW17095   1.083   3.215   9.033 -0.1163 -0.1608  0.2559
 1820SOL    HW117096   1.056   3.129   8.998  0.0064  0.7928 -2.1794
 1820SOL    HW217097   1.124   3.187   9.115  1.5499  0.5552 -0.3416
 1821SOL     OW17098   4.722   0.740   8.818  0.3096 -0.0634 -0.1933
 1821SOL    HW117099   0.027   0.727   8.903 -1.4728  0.7017  0.7729
 1821SOL    HW217100   0.055   0.717   8.754  0.6003  1.2009 -0.3205
 1822SOL     OW17101   4.474   3.487  11.604 -0.0130 -0.0444 -0.6341
 1822SOL    HW117102   4.404   3.451  11.550 -0.5114 -0.6988  0.4448
 1822SOL    HW217103   4.426   3.494  11.686  0.9095  2.8849 -0.3272
 1823SOL     OW17104   0.489   2.588   8.913  0.3675  0.0345  0.1869
 1823SOL    HW117105   0.400   2.570   8.945  0.0317  3.4490  1.1958
 1823SOL    HW217106   0.458   2.626   8.831 -0.8239  0.4589  0.8403
 1824SOL     OW17107   1.727   3.886   7.316  0.1151 -0.2102  0.6115
 1824SOL    HW117108   1.760   3.941   7.245 -1.8256 -0.0026 -0.1216
 1824SOL    HW217109   1.768   3.804   7.288  0.9934  0.3886  0.1494
 1825SOL     OW17110   2.899   4.575   4.791  0.6517 -0.2657 -0.2051
 1825SOL    HW117111   2.934   4.664   4.793  0.0630  0.0137 -2.6781
 1825SOL    HW217112   2.959   4.531   4.731  1.3704 -0.3887  0.6036
 1826SOL     OW17113   4.323   0.953   9.092 -0.3672  0.3729  0.3873
 1826SOL    HW117114   4.316   0.893   9.018  3.6556  2.1456 -1.4250
 1826SOL    HW217115   4.400   0.934   9.145 -0.9314  1.2842  1.5115
 1827SOL     OW17116   1.980   3.033   8.585  0.4263 -0.0045 -0.0546
 1827SOL    HW117117   1.923   3.109   8.594 -0.5646 -0.6950 -0.4808
 1827SOL    HW217118   1.949   3.010   8.497 -0.3410  1.9568 -0.2958
 1828SOL     OW17119   3.854   3.642   7.664  0.6840 -0.0358 -0.1900
 1828SOL    HW117120   3.910   3.598   7.601 -0.6114 -0.3186 -1.1457
 1828SOL    HW217121   3.767   3.619   7.629 -0.3941 -0.0950  2.5261
 1829SOL     OW17122   3.734   0.465   7.940  0.1642  0.0083 -0.0679
 1829SOL    HW117123   3.746   0.553   7.904 -0.6232 -0.3700 -1.2355
 1829SOL    HW217124   3.814   0.463   7.993 -1.4123  0.8761  2.3553
 1830SOL     OW17125   2.604   1.470   6.031 -0.7718  0.2912  0.2945
 1830SOL    HW117126   2.580   1.553   5.989  0.8593 -0.8732 -2.9861
 1830SOL    HW217127   2.562   1.407   5.972 -1.4541 -1.0705  2.2519
 1831SOL     OW17128   3.811   0.995  10.406 -0.0074 -0.2047  0.3805
 1831SOL    HW117129   3.796   0.903  10.426 -0.4292 -0.1703  0.2231
 1831SOL    HW217130   3.815   1.033  10.493 -0.6311  0.5989  0.0602
 1832SOL     OW17131   3.515   0.210   1.288 -0.0899  0.1581 -0.2106
 1832SOL    HW117132   3.504   0.214   1.383  0.7693 -0.9007 -0.0568
 1832SOL    HW217133   3.426   0.228   1.258 -0.5000 -0.5337  0.5678
 1833SOL     OW17134   2.886   1.182  12.742  0.1630  0.2138  0.7088
 1833SOL    HW117135   2.951   1.240  12.781 -1.4599  0.3744  3.1566
 1833SOL    HW217136   2.939   1.103  12.732 -2.0661 -1.2912  0.8932
 1834SOL     OW17137   2.769   3.991   5.621  0.3467  0.1951  0.2142
 1834SOL    HW117138   2.864   3.991   5.635  0.3287  3.8531  0.4631
 1834SOL    HW217139   2.768   4.032   5.534 -1.3866  0.9951  0.6067
 1835SOL     OW17140   3.735   3.035   9.016 -0.3719  0.4977  0.6541
 1835SOL    HW117141   3.747   2.998   9.103  0.8796  2.8066  1.4770
 1835SOL    HW217142   3.784   3.117   9.014  0.9968 -0.3473  0.4428
 1836SOL     OW17143   1.415   0.860   5.571 -0.2141 -0.0761  0.5487
 1836SOL    HW117144   1.434   0.904   5.488 -1.1029 -1.1507 -0.2355
 1836SOL    HW217145   1.503   0.841   5.604  0.6172 -0.7327 -2.0158
 1837SOL     OW17146   4.514   2.523   8.014  0.4404 -0.0511  0.0309
 1837SOL    HW117147   4.460   2.484   7.946 -0.1705 -0.8312  0.9531
 1837SOL    HW217148   4.518   2.614   7.986  1.8290  0.4522  1.8081
 1838SOL     OW17149   3.686   1.191   5.352  0.2857 -1.0839 -0.2339
 1838SOL    HW117150   3.613   1.184   5.292  0.4074  0.3479 -0.5501
 1838SOL    HW217151   3.668   1.280   5.385 -1.6126 -0.6934 -2.3569
 1839SOL     OW17152   0.424   3.744  16.328 -0.5644 -0.2139 -0.7675
 1839SOL    HW117153   0.351   3.733  16.267 -0.2425  1.4771 -1.4410
 1839SOL    HW217154   0.466   3.659  16.314 -2.4941 -1.3390  0.2429
 1840SOL     OW17155   2.556   3.868   2.278 -0.2937 -0.1996 -0.2700
 1840SOL    HW117156   2.555   3.964   2.280  0.4736 -0.2323  1.7461
 1840SOL    HW217157   2.596   3.856   2.192 -0.6615  1.8710 -0.7462
 1841SOL     OW17158   1.394   4.132   8.433 -0.3307  0.0360 -0.0015
 1841SOL    HW117159   1.428   4.043   8.434 -0.1642  0.1315  2.2168
 1841SOL    HW217160   1.403   4.142   8.528  0.3594  2.5807 -0.3257
 1842SOL     OW17161   2.616   0.868  16.439  0.5041  0.4709 -0.0213
 1842SOL    HW117162   2.595   0.899  16.527  0.3061  0.1935  0.0303
 1842SOL    HW217163   2.555   0.915  16.383  1.2021  2.2950  0.7472
 1843SOL     OW17164   4.286   4.107  14.883  0.4367  0.0904  0.4790
 1843SOL    HW117165   4.236   4.147  14.954  0.6017 -3.8351  2.8109
 1843SOL    HW217166   4.323   4.031  14.928 -1.1562 -1.2602 -0.5091
 1844SOL     OW17167   1.755   3.436  10.132 -0.0758  0.2170 -0.2737
 1844SOL    HW117168   1.789   3.496  10.198  0.2880  1.2576 -1.4229
 1844SOL    HW217169   1.689   3.387  10.182 -0.9806  1.1868 -0.4973
 1845SOL     OW17170   1.403   1.983  11.707 -0.2727  0.2191  0.6716
 1845SOL    HW117171   1.495   2.011  11.708 -0.6252  1.5742 -1.8805
 1845SOL    HW217172   1.384   1.952  11.795  0.0959 -0.6555  0.4464
 1846SOL     OW17173   2.788   3.832   2.931  0.0100  0.3134 -0.0623
 1846SOL    HW117174   2.701   3.836   2.972  0.0932  0.6068  0.0865
 1846SOL    HW217175   2.839   3.804   3.006 -2.8991 -2.4010  0.9063
 1847SOL     OW17176   1.356   0.274   9.173 -0.7243  0.1477  0.0874
 1847SOL    HW117177   1.373   0.304   9.262 -0.1858  0.9100 -0.2777
 1847SOL    HW217178   1.298   0.346   9.147 -0.4639  0.3972  0.1954
 1848SOL     OW17179   0.634   2.595   3.979  0.4343 -0.0210 -0.1602
 1848SOL    HW117180   0.551   2.560   3.946 -0.8378  0.4169  2.5134
 1848SOL    HW217181   0.606   2.680   4.014  0.1609  0.1014 -0.6759
 1849SOL     OW17182   3.453   3.807  10.304 -0.0265  0.2812 -0.1731
 1849SOL    HW117183   3.485   3.886  10.260  1.4584 -1.0723 -1.5295
 1849SOL    HW217184   3.370   3.792  10.260 -0.4725  1.7937  0.1452
 1850SOL     OW17185   0.371   1.480   5.548 -0.4153  0.1830 -0.4055
 1850SOL    HW117186   0.372   1.495   5.643  1.7407 -0.3296 -0.3559
 1850SOL    HW217187   0.464   1.474   5.528 -0.2291 -1.7342  1.0859
 1851SOL     OW17188   0.179   2.630   4.114 -0.1212 -0.4115 -0.4347
 1851SOL    HW117189   0.208   2.721   4.122  2.9773 -1.3991 -0.3141
 1851SOL    HW217190   0.085   2.644   4.127  0.1445 -0.5091  1.7153
 1852SOL     OW17191   2.857   2.983   5.212  0.3657 -0.4942 -0.3006
 1852SOL    HW117192   2.844   3.067   5.256 -0.0459 -0.7065 -0.0196
 1852SOL    HW217193   2.862   2.923   5.287  1.3528  2.7128  2.1791
 1853SOL     OW17194   1.598   4.548  13.296  1.0428  0.4130 -0.0496
 1853SOL    HW117195   1.680   4.573  13.254 -0.2267 -1.7846 -3.8549
 1853SOL    HW217196   1.629   4.549  13.386  0.2994 -4.9589  0.2522
 1854SOL     OW17197   3.057   0.929  11.082 -0.0814  0.3835  0.4693
 1854SOL    HW117198   3.073   0.868  11.010 -0.6777  0.5040  0.2361
 1854SOL    HW217199   3.098   1.012  11.058 -1.9462  0.8061 -1.1952
 1855SOL     OW17200   1.987   2.067  16.564 -0.0570 -0.0343 -0.4467
 1855SOL    HW117201   1.909   2.056  16.619  0.1057  1.7200  0.1299
 1855SOL    HW217202   2.051   2.030  16.625  0.0361 -2.1545 -1.8332
 1856SOL     OW17203   3.287   2.876  10.556  0.8775 -0.6496 -0.1665
 1856SOL    HW117204   3.319   2.855  10.468  0.6822  0.5283 -0.5213
 1856SOL    HW217205   3.367   2.902  10.601  0.1498 -0.7347  1.1961
 1857SOL     OW17206   0.198   2.161  15.912 -0.5541 -0.4678 -0.0752
 1857SOL    HW117207   0.283   2.117  15.907 -0.5776 -0.5235  0.0157
 1857SOL    HW217208   0.172   2.142  16.003  2.2025 -1.9763  0.3963
 1858SOL     OW17209   0.913   0.824   6.487  0.0656 -0.0140  0.2261
 1858SOL    HW117210   1.000   0.841   6.451  0.4095  0.8392  1.4365
 1858SOL    HW217211   0.871   0.906   6.462 -0.6452  0.3974  2.8114
 1859SOL     OW17212   2.061   1.299  15.623  0.1036 -0.1081  0.7642
 1859SOL    HW117213   2.026   1.338  15.543 -1.5513 -0.9354  1.0879
 1859SOL    HW217214   2.123   1.235  15.589  1.5021  2.4516 -1.4667
 1860SOL     OW17215   3.302   2.215   7.197 -0.6940 -0.3196  0.1815
 1860SOL    HW117216   3.297   2.294   7.251 -1.2858 -1.7643  2.2609
 1860SOL    HW217217   3.289   2.159   7.274  0.1519 -1.1233 -0.2643
 1861SOL     OW17218   4.125   3.476  12.729  0.3562  0.2469  0.0620
 1861SOL    HW117219   4.082   3.448  12.648  0.4913  0.8049 -0.2103
 1861SOL    HW217220   4.180   3.545  12.691  1.2709  0.1523  1.1917
 1862SOL     OW17221   4.574   2.586  13.308 -0.1534  0.0363  0.3392
 1862SOL    HW117222   4.625   2.506  13.305  0.6795  0.5620  0.5203
 1862SOL    HW217223   4.482   2.559  13.316  0.0330 -0.1217  1.9269
 1863SOL     OW17224   4.284   3.813   1.151 -0.3371  0.0092  0.1827
 1863SOL    HW117225   4.289   3.905   1.124 -0.4846 -0.2102 -0.5997
 1863SOL    HW217226   4.203   3.802   1.200 -0.7474  1.0549 -0.2721
 1864SOL     OW17227   1.767   2.298  13.012  0.1667  0.4373 -0.1383
 1864SOL    HW117228   1.784   2.207  13.038  0.8116  0.5396 -0.2145
 1864SOL    HW217229   1.691   2.319  13.067  0.1112 -0.9675  0.3248
 1865SOL     OW17230   2.537   3.566   0.649  0.0778 -0.0731  0.2923
 1865SOL    HW117231   2.446   3.544   0.629  0.7705 -1.3238 -1.4820
 1865SOL    HW217232   2.540   3.540   0.741  2.7727 -2.9133 -0.5907
 1866SOL     OW17233   2.685   2.074   4.158 -0.0553  0.1651  0.0555
 1866SOL    HW117234   2.762   2.127   4.180  1.8653 -2.1541 -1.0072
 1866SOL    HW217235   2.728   1.994   4.128 -1.5252 -0.9927  1.0238
 1867SOL     OW17236   4.029   3.724  17.025 -0.1853  0.4498 -0.1421
 1867SOL    HW117237   4.065   3.643  16.991 -0.2323 -1.3285  4.0413
 1867SOL    HW217238   4.110   3.765  17.058  0.9529 -0.7861 -1.4624
 1868SOL     OW17239   2.932   1.239   6.637 -0.2175 -0.0043  0.3406
 1868SOL    HW117240   2.920   1.295   6.713  1.6951  2.0770 -0.8978
 1868SOL    HW217241   2.948   1.156   6.684  1.6597  0.6658  0.8836
 1869SOL     OW17242   1.669   0.061   9.616 -0.4134  0.4128  0.6566
 1869SOL    HW117243   1.739   0.080   9.679 -0.7959  2.3717  0.4928
 1869SOL    HW217244   1.605   0.118   9.660 -1.4674  0.3876 -0.8555
 1870SOL     OW17245   4.304   3.232  15.099 -0.1937  0.1686  0.3799
 1870SOL    HW117246   4.321   3.261  15.009 -0.5134  2.6111  1.0894
 1870SOL    HW217247   4.251   3.153  15.088  0.9992 -0.7978  1.5447
 1871SOL     OW17248   1.309   3.224   7.007 -0.0877 -0.0112  0.5554
 1871SOL    HW117249   1.308   3.209   7.102  0.0953 -0.3097  0.5090
 1871SOL    HW217250   1.250   3.300   7.006 -2.0385 -1.5903 -2.2932
 1872SOL     OW17251   4.419   3.978   0.077  0.0011  0.2839  0.6120
 1872SOL    HW117252   4.433   3.919   0.151  1.8298  1.0408  0.8547
 1872SOL    HW217253   4.337   4.023   0.098 -0.2445 -0.8013  1.9468
 1873SOL     OW17254   0.415   0.869  10.925  0.2022 -0.5357  0.5964
 1873SOL    HW117255   0.431   0.869  10.831 -0.3995  1.4972  0.4877
 1873SOL    HW217256   0.453   0.955  10.944 -0.8712  0.4148 -1.5839
 1874SOL     OW17257   1.521   1.330   4.918  0.2061 -0.5578  0.2893
 1874SOL    HW117258   1.587   1.366   4.859  1.8874 -1.4317  1.6395
 1874SOL    HW217259   1.575   1.333   4.997 -2.3722 -2.6863  2.1478
 1875SOL     OW17260   2.421   0.821  10.456 -0.0272  0.2818 -0.2531
 1875SOL    HW117261   2.466   0.827  10.372  0.3842  1.3007  0.0332
 1875SOL    HW217262   2.340   0.871  10.448 -0.4069 -0.2090  0.5599
 1876SOL     OW17263   2.161   3.106  17.077  0.3593 -0.6794  0.2495
 1876SOL    HW117264   2.214   3.179  17.045  0.6803 -0.8279  0.4440
 1876SOL    HW217265   2.225   3.057  17.129  0.5057  0.7690  1.4309
 1877SOL     OW17266   2.235   2.944  12.587 -0.1820 -0.2356  0.4034
 1877SOL    HW117267   2.246   2.866  12.641 -0.7452 -1.6584 -1.5056
 1877SOL    HW217268   2.260   2.908  12.501  2.1659  1.5532  0.3414
 1878SOL     OW17269   4.390   2.199   8.817 -0.3879 -0.2497  0.4032
 1878SOL    HW117270   4.377   2.123   8.873 -0.6993 -1.1878 -0.9347
 1878SOL    HW217271   4.336   2.173   8.742 -1.4552  2.4804  0.2187
 1879SOL     OW17272   1.562   3.315   2.546  0.0472  0.4035  0.0260
 1879SOL    HW117273   1.652   3.304   2.517 -0.6336 -3.9074 -0.5683
 1879SOL    HW217274   1.518   3.232   2.525  2.4162 -1.2422  1.5271
 1880SOL     OW17275   2.324   0.890  16.128 -0.1829  0.0531  0.3231
 1880SOL    HW117276   2.389   0.945  16.170 -1.0460  2.0467 -0.9518
 1880SOL    HW217277   2.353   0.802  16.151 -2.5809 -0.6013  0.8790
 1881SOL     OW17278   0.418   1.700   4.927  0.4906  0.5746 -0.1675
 1881SOL    HW117279   0.456   1.622   4.968  0.9582 -0.3908 -2.3913
 1881SOL    HW217280   0.464   1.689   4.843 -2.5611 -2.1075 -1.5172
 1882SOL     OW17281   1.401   2.562   3.143  0.3871 -0.4821  0.1839
 1882SOL    HW117282   1.475   2.577   3.202  0.7742  0.4839 -0.5381
 1882SOL    HW217283   1.367   2.651   3.139  2.5732  0.2705 -1.9117
 1883SOL     OW17284   4.219   1.694  12.658 -0.1345  0.1513  0.8626
 1883SOL    HW117285   4.226   1.733  12.570 -1.3519  0.1607  0.7680
 1883SOL    HW217286   4.217   1.771  12.714  1.3403  1.0785 -0.3641
 1884SOL     OW17287   3.162   2.030   7.035 -0.2636  0.0162  0.4923
 1884SOL    HW117288   3.215   2.096   7.078  1.9266 -0.8666 -0.8737
 1884SOL    HW217289   3.161   1.958   7.098  0.0950  0.3829  0.9077
 1885SOL     OW17290   3.751   1.202   6.270  0.1534  0.4370  0.0627
 1885SOL    HW117291   3.767   1.111   6.248 -1.4267 -0.4428  2.5669
 1885SOL    HW217292   3.767   1.205   6.365 -0.6957  0.4628  0.1979
 1886SOL     OW17293   2.265   1.163   1.242 -0.4318  0.4851 -0.0208
 1886SOL    HW117294   2.200   1.093   1.244 -0.2143  0.2997  0.7740
 1886SOL    HW217295   2.304   1.164   1.155 -2.6093 -0.4758 -0.9889
 1887SOL     OW17296   2.672   2.676   6.341  0.4511 -0.2549  0.1281
 1887SOL    HW117297   2.764   2.701   6.331  0.3487 -0.0701 -0.3721
 1887SOL    HW217298   2.682   2.623   6.420  0.9457 -2.2476 -1.2894
 1888SOL     OW17299   1.972   0.374   8.792 -0.0966  0.1884 -0.3750
 1888SOL    HW117300   2.009   0.366   8.880 -0.7898  0.8081 -0.0201
 1888SOL    HW217301   1.932   0.288   8.778  0.3635  0.0047 -0.5349
 1889SOL     OW17302   3.771   1.345   4.250  0.3547 -0.3203 -0.2520
 1889SOL    HW117303   3.779   1.430   4.294  1.7859 -0.2028 -0.7127
 1889SOL    HW217304   3.687   1.313   4.281  1.4611 -1.5580  1.4420
 1890SOL     OW17305   3.320   1.966   6.006  0.8307  0.0535 -0.5773
 1890SOL    HW117306   3.275   1.903   5.950  1.3468 -0.7158 -0.1222
 1890SOL    HW217307   3.278   2.047   5.978 -1.5731 -1.4662 -1.4333
 1891SOL     OW17308   1.547   1.879  13.154  0.2124  0.2885  0.4036
 1891SOL    HW117309   1.550   1.958  13.100 -0.5679 -0.3504 -0.5850
 1891SOL    HW217310   1.501   1.913  13.230  0.4914 -0.1649  0.7719
 1892SOL     OW17311   3.211   1.646  10.537  0.5203  0.3021  0.0362
 1892SOL    HW117312   3.289   1.624  10.488  0.1532  0.1519 -0.4786
 1892SOL    HW217313   3.154   1.689  10.473  0.6210 -0.2747 -0.4346
 1893SOL     OW17314   2.790   1.450   2.933  0.5157  0.6491  0.3025
 1893SOL    HW117315   2.843   1.496   2.869 -0.8030  1.2393 -0.3544
 1893SOL    HW217316   2.761   1.523   2.989  2.8126  0.4336  1.7766
 1894SOL     OW17317   1.999   4.080  12.762 -0.7213  0.1884 -0.4793
 1894SOL    HW117318   2.051   4.154  12.728  0.6409 -0.2606  0.6146
 1894SOL    HW217319   2.010   4.088  12.856 -1.0246  0.0836 -0.4360
 1895SOL     OW17320   3.751   3.594   5.846 -0.5967 -0.1063  0.4062
 1895SOL    HW117321   3.660   3.567   5.852 -0.6574  0.4754  2.0978
 1895SOL    HW217322   3.778   3.568   5.934  0.4822  0.4714  0.2599
 1896SOL     OW17323   2.560   4.523   9.603  0.2346  0.2226  0.7612
 1896SOL    HW117324   2.538   4.607   9.644 -3.7123 -1.2449  1.6784
 1896SOL    HW217325   2.557   4.547   9.510  0.0590  1.1817  1.0091
 1897SOL     OW17326   2.749   4.412   4.122 -0.5755 -0.0177 -0.4133
 1897SOL    HW117327   2.662   4.449   4.141  0.5345  1.2217  2.2302
 1897SOL    HW217328   2.804   4.446   4.193 -1.9041 -1.0731  1.1182
 1898SOL     OW17329   4.017   2.086   3.262  0.4782 -0.6148 -0.4139
 1898SOL    HW117330   4.095   2.039   3.231  0.9632 -0.0085 -0.0822
 1898SOL    HW217331   3.981   2.031   3.332  2.0488 -2.1421 -0.8101
 1899SOL     OW17332   1.488   2.203   5.723  0.3326 -0.1955 -0.0168
 1899SOL    HW117333   1.427   2.246   5.664  0.4117  0.5655  0.4483
 1899SOL    HW217334   1.512   2.270   5.788  0.3041 -0.3943  0.2011
 1900SOL     OW17335   2.840   3.087  11.687 -0.0358 -0.1068  0.5398
 1900SOL    HW117336   2.813   3.050  11.772  0.1065 -1.3343  0.0507
 1900SOL    HW217337   2.858   3.007  11.638 -2.0957 -1.7680  2.4628
 1901SOL     OW17338   1.851   1.944  14.664  0.4664  0.3927  0.5989
 1901SOL    HW117339   1.780   1.981  14.717  1.5699  1.8533  1.0794
 1901SOL    HW217340   1.852   1.999  14.586 -1.6950 -0.3290  0.0706
 1902SOL     OW17341   3.684   2.579   3.831  0.1170 -0.4639  0.7580
 1902SOL    HW117342   3.626   2.544   3.898 -0.7098  0.6246  0.6071
 1902SOL    HW217343   3.711   2.497   3.789 -1.1115 -0.6233  0.2970
 1903SOL     OW17344   2.853   1.662   3.806  0.1937 -0.1792  0.1547
 1903SOL    HW117345   2.864   1.684   3.714 -0.1411 -1.7513 -0.2622
 1903SOL    HW217346   2.858   1.567   3.806 -0.2648 -0.2070  0.8096
 1904SOL     OW17347   3.659   3.013  16.524  0.3017 -0.2006  0.4591
 1904SOL    HW117348   3.658   3.002  16.429  3.0629 -1.0303  0.5006
 1904SOL    HW217349   3.696   2.930  16.555  3.6552  0.5282 -1.5166
 1905SOL     OW17350   2.980   2.127  15.637 -0.3973  0.1344  0.6285
 1905SOL    HW117351   2.932   2.127  15.554 -0.3712 -0.4791  0.6113
 1905SOL    HW217352   3.025   2.211  15.638  0.4325 -0.2875 -1.2414
 1906SOL     OW17353   0.679   1.648   3.084  0.3378 -0.3751  0.2865
 1906SOL    HW117354   0.766   1.673   3.053 -0.4159 -0.3611 -1.8114
 1906SOL    HW217355   0.683   1.553   3.099  0.2909 -0.5805 -1.0301
 1907SOL     OW17356   1.159   2.533   5.750 -0.2378  0.3088  0.5316
 1907SOL    HW117357   1.194   2.538   5.839  0.9403  0.8904  0.0397
 1907SOL    HW217358   1.066   2.524   5.769 -0.4485  0.4046 -0.4330
 1908SOL     OW17359   1.602   4.506   9.197 -0.8033  0.3786  0.1987
 1908SOL    HW117360   1.516   4.504   9.156 -0.4831  0.4227 -0.4787
 1908SOL    HW217361   1.571   4.588   9.237  0.2277  1.6463 -1.6176
 1909SOL     OW17362   0.814   0.220   4.156  0.6178  0.0266 -0.0753
 1909SOL    HW117363   0.890   0.277   4.165  0.3145  0.2869  0.8575
 1909SOL    HW217364   0.765   0.267   4.224 -0.2007 -0.1238 -0.5589
 1910SOL     OW17365   2.130   2.106   5.529  0.1402  0.0218  0.0619
 1910SOL    HW117366   2.136   2.115   5.433  0.6692  1.4240  0.2183
 1910SOL    HW217367   2.074   2.029   5.535  0.4456 -0.2685 -0.8244
 1911SOL     OW17368   1.889   1.158   6.064 -0.4236 -0.3037  0.3799
 1911SOL    HW117369   1.886   1.232   6.125 -0.1157  0.2808 -0.3251
 1911SOL    HW217370   1.938   1.198   5.993  0.3845 -0.8456  0.6435
 1912SOL     OW17371   2.603   1.653   2.797  0.3521  0.3969  0.0565
 1912SOL    HW117372   2.637   1.667   2.885  0.9809 -1.3842  0.0904
 1912SOL    HW217373   2.562   1.568   2.809  1.9018 -0.0940  1.8569
 1913SOL     OW17374   2.371   0.822  10.878  0.0725  0.4513  0.4413
 1913SOL    HW117375   2.433   0.895  10.875  0.3468  0.2035  0.0642
 1913SOL    HW217376   2.291   0.865  10.851 -0.1022  0.1408  0.4634
 1914SOL     OW17377   4.662   1.324   5.193 -0.0486 -0.0956  0.7130
 1914SOL    HW117378   4.674   1.239   5.152 -2.7480 -0.4512  0.6962
 1914SOL    HW217379   4.569   1.328   5.215 -0.1494  0.1051  0.2504
 1915SOL     OW17380   3.196   0.672   2.601  0.4660  0.4209  0.1784
 1915SOL    HW117381   3.155   0.758   2.613  1.6375  0.9771  0.1855
 1915SOL    HW217382   3.148   0.612   2.659  2.0648  0.1770  1.2317
 1916SOL     OW17383   3.877   1.225   5.697  0.3750 -0.0057 -0.1126
 1916SOL    HW117384   3.926   1.259   5.772  0.9028  0.7795 -0.8148
 1916SOL    HW217385   3.917   1.259   5.616 -0.9088 -0.6914 -1.0208
 1917SOL     OW17386   3.241   1.656  11.241 -0.0668  0.1502 -0.3494
 1917SOL    HW117387   3.288   1.657  11.324 -1.0539 -0.6751  0.2299
 1917SOL    HW217388   3.153   1.653  11.280 -0.4329  1.5168 -1.0653
 1918SOL     OW17389   4.698   2.968   7.787  0.4475 -0.5298 -0.0962
 1918SOL    HW117390   4.714   3.010   7.702 -2.9151  1.6276  0.3135
 1918SOL    HW217391   4.673   3.050   7.831 -1.6474 -0.9092 -0.5641
 1919SOL     OW17392   1.392   2.443   3.700 -0.0042  0.1608  0.1509
 1919SOL    HW117393   1.422   2.352   3.700 -1.3431 -0.2843  1.4109
 1919SOL    HW217394   1.360   2.449   3.610 -1.5118 -3.0085  0.4428
 1920SOL     OW17395   0.544   2.258   4.100 -0.2053  0.4811 -0.2121
 1920SOL    HW117396   0.606   2.202   4.147 -1.6290 -0.3478  0.6853
 1920SOL    HW217397   0.472   2.270   4.162 -0.0674  2.8096 -0.4899
 1921SOL     OW17398   3.621   2.685   5.903 -0.9318 -0.2496  0.3141
 1921SOL    HW117399   3.690   2.744   5.934 -0.0829 -1.1657  0.1684
 1921SOL    HW217400   3.611   2.713   5.812  0.8452  0.2843  0.2843
 1922SOL     OW17401   3.556   0.006   5.006 -0.1493  0.5048  0.4479
 1922SOL    HW117402   3.633   4.731   5.061 -0.4462 -1.6278  0.4495
 1922SOL    HW217403   3.594   0.060   4.937 -2.7436  1.6399 -0.1072
 1923SOL     OW17404   1.702   0.702   2.851 -0.3262 -0.5016  0.0812
 1923SOL    HW117405   1.612   0.714   2.821 -1.4364  0.7678  3.9236
 1923SOL    HW217406   1.730   0.790   2.878  0.2187 -1.5408  2.9216
 1924SOL     OW17407   1.693   4.188   7.185  0.5543 -0.0625 -0.5638
 1924SOL    HW117408   1.697   4.235   7.268  1.0569 -1.2282  0.0781
 1924SOL    HW217409   1.647   4.257   7.137  3.0121 -0.8392 -4.0063
 1925SOL     OW17410   0.540   0.116   7.235  0.0112  0.4009 -0.6736
 1925SOL    HW117411   0.509   0.033   7.197 -1.3398  0.4133  0.4278
 1925SOL    HW217412   0.512   0.180   7.170  1.2132 -0.3588 -1.9458
 1926SOL     OW17413   4.692   3.277   4.087  0.2499 -0.1623 -0.0675
 1926SOL    HW117414   4.713   3.282   4.181  1.3632 -0.5210 -0.3004
 1926SOL    HW217415   4.660   3.364   4.067  1.8543  0.4150 -0.1017
 1927SOL     OW17416   0.688   3.794   8.065 -0.1704  0.0452 -0.2056
 1927SOL    HW117417   0.601   3.832   8.051 -0.3745 -0.1196  0.6230
 1927SOL    HW217418   0.670   3.762   8.153  0.1982  1.6833  0.4790
 1928SOL     OW17419   1.480   1.533   9.020  0.1200 -0.1420 -0.2481
 1928SOL    HW117420   1.542   1.598   8.986  1.7254 -0.4481  2.0747
 1928SOL    HW217421   1.502   1.456   8.968 -3.4416 -0.9273 -0.5869
 1929SOL     OW17422   0.113   2.539   7.809 -0.0801  0.2179 -0.9734
 1929SOL    HW117423   0.039   2.599   7.802  0.1449  0.7085  0.9570
 1929SOL    HW217424   0.131   2.553   7.902 -2.3621 -2.0549 -0.1870
 1930SOL     OW17425   3.222   4.124  16.494 -0.1709 -0.3207 -0.6032
 1930SOL    HW117426   3.234   4.113  16.400  0.7602  0.4216 -0.5729
 1930SOL    HW217427   3.147   4.067  16.509 -0.5224  0.1084 -0.7347
 1931SOL     OW17428   4.702   3.872   4.060  0.2647 -0.0683  0.2735
 1931SOL    HW117429   0.046   3.925   4.061  0.0260  0.3021 -0.0057
 1931SOL    HW217430   4.656   3.917   3.989  0.9811 -0.8640 -0.6856
 1932SOL     OW17431   3.860   1.673   7.456  0.1579 -0.9629  0.0392
 1932SOL    HW117432   3.795   1.622   7.407 -1.1203  0.6752 -0.0003
 1932SOL    HW217433   3.860   1.748   7.397  4.2371 -0.1878  1.0399
 1933SOL     OW17434   3.206   2.918   5.784 -0.2083  0.2727  0.0107
 1933SOL    HW117435   3.221   2.914   5.690  2.8879  0.5919  0.4983
 1933SOL    HW217436   3.116   2.948   5.774 -1.2529 -2.5728  0.7780
 1934SOL     OW17437   1.723   4.543   6.716  0.0978 -0.6188  0.3516
 1934SOL    HW117438   1.759   4.625   6.750 -0.9568 -1.2440  2.9612
 1934SOL    HW217439   1.793   4.481   6.739  1.8303 -0.0046 -3.2573
 1935SOL     OW17440   2.198   0.818   9.040  0.7626  0.1619 -0.0952
 1935SOL    HW117441   2.131   0.766   8.995  0.1191  1.4540 -0.6191
 1935SOL    HW217442   2.201   0.896   8.985 -1.4941 -1.2675 -2.2816
 1936SOL     OW17443   3.568   3.901  16.910  0.0838  0.2583  0.4181
 1936SOL    HW117444   3.656   3.896  16.872  0.7107 -3.7988  2.3987
 1936SOL    HW217445   3.583   3.856  16.993 -0.5529 -2.6371 -1.0371
 1937SOL     OW17446   3.054   0.062   1.890 -0.3637 -0.1802  0.2678
 1937SOL    HW117447   3.011   4.723   1.932 -1.0423 -0.3569 -0.7280
 1937SOL    HW217448   2.979   0.121   1.898 -0.3981 -0.4376  1.8285
 1938SOL     OW17449   2.801   0.922   4.261 -0.3236  0.5503  1.1451
 1938SOL    HW117450   2.888   0.887   4.283 -0.4645  0.5514  1.6973
 1938SOL    HW217451   2.746   0.878   4.325 -0.5722 -0.5160  0.1990
 1939SOL     OW17452   1.965   0.743   4.391 -0.2151 -0.0875  0.3915
 1939SOL    HW117453   1.967   0.648   4.382  0.9412  0.0405 -0.8146
 1939SOL    HW217454   2.058   0.765   4.396 -0.0636 -0.5231 -0.4298
 1940SOL     OW17455   3.610   0.437   2.913 -0.4708 -0.0631 -0.2516
 1940SOL    HW117456   3.623   0.483   2.996 -0.3693 -0.5580  0.0064
 1940SOL    HW217457   3.547   0.500   2.877  0.8686  2.2044  1.3809
 1941SOL     OW17458   2.331   2.281   3.610 -0.1453 -0.0238  0.0512
 1941SOL    HW117459   2.337   2.373   3.585 -2.5419  0.8701  2.6740
 1941SOL    HW217460   2.238   2.258   3.602  0.3710 -1.8356 -0.7288
 1942SOL     OW17461   1.156   0.717   7.352 -0.2021 -0.1998 -0.1673
 1942SOL    HW117462   1.202   0.783   7.404 -1.4319  0.3701  0.1852
 1942SOL    HW217463   1.204   0.634   7.349 -1.6930 -1.1949  3.9344
 1943SOL     OW17464   4.360   1.642   6.744 -0.0529  0.0361 -0.7833
 1943SOL    HW117465   4.278   1.631   6.791  0.1928  1.0793 -0.1021
 1943SOL    HW217466   4.348   1.728   6.703  0.6064  0.6594  0.3323
 1944SOL     OW17467   1.301   0.203   4.918 -0.2405  0.0266 -0.0844
 1944SOL    HW117468   1.235   0.252   4.870  1.7864  0.0899 -2.7980
 1944SOL    HW217469   1.342   0.146   4.854  0.5552 -0.0842  0.5172
 1945SOL     OW17470   4.617   2.347   6.037 -0.2888 -0.1992  0.0126
 1945SOL    HW117471   4.582   2.280   6.096 -0.4833  1.7644  2.1301
 1945SOL    HW217472   4.571   2.314   5.960 -0.3216  1.2323 -0.5843
 1946SOL     OW17473   2.983   2.437  13.731 -0.0322 -0.6055  0.3648
 1946SOL    HW117474   2.934   2.506  13.686 -0.4793 -2.9259 -2.7368
 1946SOL    HW217475   3.006   2.374  13.662 -1.7575 -0.6336 -0.1751
 1947SOL     OW17476   3.579   0.295   2.501 -0.1609  0.3615  0.0793
 1947SOL    HW117477   3.650   0.304   2.437 -0.0677 -1.6414 -0.1138
 1947SOL    HW217478   3.555   0.202   2.497  0.2076  0.2524  0.3948
 1948SOL     OW17479   4.334   0.469  14.843 -0.3292 -0.1060  0.4220
 1948SOL    HW117480   4.277   0.403  14.803 -0.5732  0.2713  0.1461
 1948SOL    HW217481   4.401   0.486  14.776 -0.3673 -0.3168  0.3277
 1949SOL     OW17482   4.272   4.238  14.392  0.0836 -0.3363  0.5706
 1949SOL    HW117483   4.363   4.218  14.370 -0.4356  1.0418 -2.7239
 1949SOL    HW217484   4.251   4.168  14.454 -2.7117 -1.2967 -1.4404
 1950SOL     OW17485   3.636   3.252   3.972  0.0376 -0.4250 -0.6327
 1950SOL    HW117486   3.576   3.327   3.980  2.7259  1.6775 -0.1101
 1950SOL    HW217487   3.614   3.228   3.882  0.1586 -0.8413 -0.5533
 1951SOL     OW17488   0.042   1.393   2.321  0.2085 -0.2157  0.1746
 1951SOL    HW117489   0.098   1.393   2.399 -1.3454 -1.7571  1.2746
 1951SOL    HW217490   0.028   1.486   2.301  3.0505  0.2458  0.2845
 1952SOL     OW17491   4.359   3.395  10.161  0.0572  0.4003 -0.3833
 1952SOL    HW117492   4.358   3.342  10.240  1.3447  0.3361 -0.4153
 1952SOL    HW217493   4.270   3.373  10.133  0.3663  0.7226 -1.6293
 1953SOL     OW17494   3.710   0.188  15.417 -0.4264 -0.0690 -0.0837
 1953SOL    HW117495   3.700   0.093  15.427 -0.5524 -0.2382 -1.7246
 1953SOL    HW217496   3.628   0.215  15.376 -1.6376 -2.4242  0.7958
 1954SOL     OW17497   2.122   0.485   5.518 -0.2536  0.2633  0.4974
 1954SOL    HW117498   2.170   0.527   5.589 -0.7019  0.2913  0.7804
 1954SOL    HW217499   2.188   0.426   5.481 -1.0619 -0.7328  0.6302
 1955SOL     OW17500   3.567   1.584   5.878  0.1597  0.2117  0.2452
 1955SOL    HW117501   3.547   1.643   5.805 -1.4819 -1.3550 -0.5909
 1955SOL    HW217502   3.531   1.628   5.955  0.9116 -0.1961  0.8212
 1956SOL     OW17503   1.346   2.378   2.926  0.6623 -0.2540  1.0978
 1956SOL    HW117504   1.253   2.361   2.942 -0.4326  0.6640 -4.2306
 1956SOL    HW217505   1.370   2.432   3.001 -1.8304 -0.7286  2.2503
 1957SOL     OW17506   0.246   1.554   8.140 -0.0348  0.0819  0.8321
 1957SOL    HW117507   0.173   1.603   8.178  2.5558  2.7940  2.2741
 1957SOL    HW217508   0.223   1.566   8.047 -0.0399 -1.8914  0.5709
 1958SOL     OW17509   2.078   3.751   6.610 -0.0834  0.3091 -0.1042
 1958SOL    HW117510   2.158   3.785   6.651 -1.0194  0.9596  1.1994
 1958SOL    HW217511   2.066   3.674   6.665 -0.8674 -0.0464 -0.7783
 1959SOL     OW17512   1.242   3.105  14.646  0.3012  0.4090 -0.6637
 1959SOL    HW117513   1.151   3.111  14.675  0.1110  0.0276 -1.1836
 1959SOL    HW217514   1.291   3.076  14.723  2.4582  0.3163 -2.0771
 1960SOL     OW17515   0.764   0.719   0.226  0.0646 -0.3982 -0.3751
 1960SOL    HW117516   0.757   0.789   0.161  0.4655 -0.2198 -0.2297
 1960SOL    HW217517   0.827   0.752   0.290  0.0888 -0.2787 -0.4608
 1961SOL     OW17518   3.210   2.464   7.652  0.0130 -0.4863  0.0292
 1961SOL    HW117519   3.244   2.542   7.696  0.7322 -1.5614  1.3984
 1961SOL    HW217520   3.115   2.477   7.651 -0.1245 -1.4307  0.8053
 1962SOL     OW17521   0.734   1.733   9.060 -0.0624  0.1457 -0.0442
 1962SOL    HW117522   0.725   1.808   9.118 -0.4974 -0.6917  0.9855
 1962SOL    HW217523   0.798   1.679   9.107 -0.6188 -0.5169 -0.0479
 1963SOL     OW17524   2.482   0.093   3.796 -0.4093 -0.3234 -0.0826
 1963SOL    HW117525   2.447   0.023   3.741 -1.0265 -0.5672  0.6169
 1963SOL    HW217526   2.566   0.054   3.818  0.6683  1.5351 -0.9402
 1964SOL     OW17527   0.701   1.711   8.312  0.0313  0.2346  0.4382
 1964SOL    HW117528   0.659   1.625   8.308 -0.5113  0.5116  0.1649
 1964SOL    HW217529   0.774   1.692   8.371  0.1232  0.3111  0.3496
 1965SOL     OW17530   2.716   2.245  12.812  0.2617  0.4432 -0.1508
 1965SOL    HW117531   2.624   2.219  12.814  0.8232 -1.5209  0.4057
 1965SOL    HW217532   2.752   2.167  12.856  0.0364  0.3182 -0.1879
 1966SOL     OW17533   1.497   2.909   2.701  0.4218 -0.0163 -0.8388
 1966SOL    HW117534   1.556   2.847   2.744 -0.2154 -2.0018 -2.7774
 1966SOL    HW217535   1.476   2.871   2.616 -1.2665 -0.5065 -0.1987
 1967SOL     OW17536   3.720   2.605  12.270  0.1933  0.0763  0.0564
 1967SOL    HW117537   3.774   2.624  12.347  2.8822 -1.4933 -1.4821
 1967SOL    HW217538   3.729   2.511  12.255 -0.8033  0.1717 -1.1360
 1968SOL     OW17539   3.208   1.130   0.222  0.0759 -0.2199 -0.2500
 1968SOL    HW117540   3.262   1.161   0.149 -0.9860 -0.0731 -0.9781
 1968SOL    HW217541   3.127   1.114   0.172 -1.8794  1.0174  2.5119
 1969SOL     OW17542   3.278   0.249  16.533  0.4145  0.3481 -0.3101
 1969SOL    HW117543   3.288   0.225  16.441 -2.5681  2.4701 -1.2135
 1969SOL    HW217544   3.186   0.273  16.542  0.1873 -0.0492 -1.6926
 1970SOL     OW17545   3.473   0.091   7.646 -0.4591 -0.3366  0.4930
 1970SOL    HW117546   3.407   0.127   7.586  1.6685 -0.7163 -2.1154
 1970SOL    HW217547   3.500   0.169   7.694  2.1029  1.7461 -4.2433
 1971SOL     OW17548   4.251   2.057   3.788  0.0334 -0.2763 -0.0817
 1971SOL    HW117549   4.282   2.024   3.704 -0.1153 -3.0945  0.9686
 1971SOL    HW217550   4.168   2.010   3.798 -0.2234  0.1841 -0.0675
 1972SOL     OW17551   2.139   2.562   7.170 -0.1870  0.2531  0.6433
 1972SOL    HW117552   2.166   2.512   7.093  0.1027  0.6157  0.5070
 1972SOL    HW217553   2.088   2.638   7.143 -0.7739 -0.4375 -0.1974
 1973SOL     OW17554   2.926   4.039   0.583 -0.1820  0.4448 -0.0730
 1973SOL    HW117555   3.006   4.075   0.621  0.6125  0.8327 -2.0867
 1973SOL    HW217556   2.945   3.945   0.591 -3.8316 -0.3510 -0.9687
 1974SOL     OW17557   3.915   1.319   5.440  0.7673  0.2322 -0.3825
 1974SOL    HW117558   3.982   1.259   5.406  0.3003 -0.7766  0.5071
 1974SOL    HW217559   3.836   1.266   5.427  0.3449  1.5076 -3.0253
 1975SOL     OW17560   4.634   3.561   7.999  0.0578 -0.2849 -0.0209
 1975SOL    HW117561   4.591   3.501   8.060 -1.0987  0.8786  0.2981
 1975SOL    HW217562   4.564   3.621   7.974 -0.9818 -0.8046  1.6372
 1976SOL     OW17563   0.128   2.505  16.233 -0.2616  0.0942 -0.9784
 1976SOL    HW117564   0.065   2.435  16.213  0.3418 -0.0133 -2.5047
 1976SOL    HW217565   0.120   2.509  16.328 -0.1938 -0.4420 -0.9481
 1977SOL     OW17566   0.814   0.036   0.904 -0.5465 -0.0388 -0.6231
 1977SOL    HW117567   0.795   4.682   0.930  1.1837 -0.6737 -1.5111
 1977SOL    HW217568   0.805   0.030   0.809  1.4819  0.0701 -0.8292
 1978SOL     OW17569   4.258   3.038   7.080  0.5953  0.1414 -0.4200
 1978SOL    HW117570   4.227   2.947   7.083  0.5848  0.1146 -1.3351
 1978SOL    HW217571   4.289   3.049   6.990  1.8795  1.3916  0.1850
 1979SOL     OW17572   2.157   2.705   1.572  0.3124 -0.1663 -0.0986
 1979SOL    HW117573   2.130   2.708   1.664  0.1298  0.3399 -0.1708
 1979SOL    HW217574   2.138   2.613   1.551  0.9792 -0.7586  1.8684
 1980SOL     OW17575   3.980   0.122   3.934  0.4256 -0.7276 -0.6491
 1980SOL    HW117576   3.915   0.192   3.931  0.9938 -0.1970 -0.6798
 1980SOL    HW217577   3.992   0.106   3.840 -0.3209 -0.8623 -0.7158
 1981SOL     OW17578   2.002   3.066  11.073  0.1190 -0.2452  0.4387
 1981SOL    HW117579   1.950   3.144  11.057  2.9536  0.8954 -3.1264
 1981SOL    HW217580   2.030   3.081  11.163  0.6357 -0.9786  0.3983
 1982SOL     OW17581   2.183   1.264   7.488 -0.3744  0.0558 -0.0891
 1982SOL    HW117582   2.152   1.181   7.524 -0.2731 -0.6606 -1.6577
 1982SOL    HW217583   2.096   1.288   7.456  0.8310  2.0409 -1.8695
 1983SOL     OW17584   3.476   2.185  12.258  0.0955  0.0204 -0.2624
 1983SOL    HW117585   3.560   2.183  12.213  0.3838  1.0741  0.2411
 1983SOL    HW217586   3.455   2.277  12.275  1.2531  0.2888 -0.2481
 1984SOL     OW17587   1.193   3.800   7.039 -0.2452  0.5299  0.3481
 1984SOL    HW117588   1.242   3.854   6.977  1.8882 -3.0746 -1.0940
 1984SOL    HW217589   1.258   3.774   7.105 -0.8295 -0.3283  0.5740
 1985SOL     OW17590   2.982   4.065   6.565 -0.1808  0.2071 -0.2933
 1985SOL    HW117591   2.943   4.123   6.630 -3.5623 -2.4018 -0.0055
 1985SOL    HW217592   2.952   4.090   6.478  1.5401  2.4511 -0.2293
 1986SOL     OW17593   0.045   4.426   0.690  0.1843 -0.2429 -0.1292
 1986SOL    HW117594   0.085   4.376   0.762 -0.7083 -1.4713 -0.4912
 1986SOL    HW217595   0.071   4.368   0.618  0.1408 -2.1344  1.3761
 1987SOL     OW17596   0.665   2.539   6.749 -0.1933  0.0719  0.1777
 1987SOL    HW117597   0.686   2.462   6.697 -0.1752  0.3347 -0.1991
 1987SOL    HW217598   0.622   2.591   6.681 -1.4734 -0.8889  0.2488
 1988SOL     OW17599   4.524   2.211  15.982 -0.0758 -0.0876  0.5052
 1988SOL    HW117600   4.553   2.299  16.003  1.1294 -0.0521 -1.3175
 1988SOL    HW217601   4.484   2.230  15.896 -0.7826  0.6516  0.9962
 1989SOL     OW17602   3.702   4.296  16.121 -0.2623  0.6645 -0.2567
 1989SOL    HW117603   3.786   4.265  16.154 -0.6217  0.1404  0.1665
 1989SOL    HW217604   3.709   4.390  16.138  6.0493  0.6264 -2.6847
 1990SOL     OW17605   2.761   3.803   7.354  0.3333 -0.2870  0.1849
 1990SOL    HW117606   2.725   3.715   7.357 -2.3313  0.8006  0.2080
 1990SOL    HW217607   2.744   3.840   7.441 -0.6225 -1.0066  0.2914
 1991SOL     OW17608   3.128   2.787   1.327  0.2552 -0.2094 -0.2109
 1991SOL    HW117609   3.143   2.825   1.413 -2.7369  1.1395 -0.2656
 1991SOL    HW217610   3.121   2.868   1.276  1.3923 -1.0739 -1.7496
 1992SOL     OW17611   2.025   4.701  11.185 -0.1935  0.0757 -0.1456
 1992SOL    HW117612   2.027   0.014  11.102  0.2028  0.5511  0.1432
 1992SOL    HW217613   2.070   0.026  11.243 -1.8139  0.9941  0.1258
 1993SOL     OW17614   3.505   0.189   5.327 -0.3933  0.4514 -0.1090
 1993SOL    HW117615   3.523   0.174   5.420 -0.6841 -0.8499 -0.2697
 1993SOL    HW217616   3.577   0.251   5.313  0.0244 -0.5272 -2.2782
 1994SOL     OW17617   2.538   2.961   7.499  0.8038  0.1299 -0.2900
 1994SOL    HW117618   2.523   2.876   7.457  1.6252 -0.3188  0.3066
 1994SOL    HW217619   2.465   2.955   7.560 -0.6074  1.5031 -1.8714
 1995SOL     OW17620   0.017   0.601   7.144 -0.4146  0.7218  0.8864
 1995SOL    HW117621   0.033   0.684   7.189 -1.4545  2.3195 -1.6669
 1995SOL    HW217622   0.098   0.591   7.095 -0.6641 -1.3238  0.8786
 1996SOL     OW17623   4.444   4.344   5.825  0.6300  0.0738  0.5314
 1996SOL    HW117624   4.419   4.284   5.894  1.0543 -2.3524 -1.4174
 1996SOL    HW217625   4.364   4.349   5.773  1.4504 -1.1089 -0.8315
 1997SOL     OW17626   3.007   1.268  11.458 -0.2292 -0.3806 -0.4671
 1997SOL    HW117627   3.011   1.173  11.464 -0.4591 -0.4468 -1.5189
 1997SOL    HW217628   3.099   1.288  11.443  0.0469 -0.0038  1.6607
 1998SOL     OW17629   2.877   0.933   5.306  0.0563  0.6619  0.4988
 1998SOL    HW117630   2.937   1.002   5.275 -0.4383  0.1621 -1.6197
 1998SOL    HW217631   2.845   0.961   5.391  2.1150 -0.1747  1.5367
 1999SOL     OW17632   0.805   0.877   3.778  0.1472 -0.3029  0.1287
 1999SOL    HW117633   0.845   0.963   3.769 -1.4711  0.0608 -3.3859
 1999SOL    HW217634   0.858   0.830   3.714  0.7613 -0.9582  1.1238
 2000SOL     OW17635   1.347   0.469   4.759  0.5129  0.1520  0.0545
 2000SOL    HW117636   1.411   0.399   4.743  0.4832  0.0685  0.2997
 2000SOL    HW217637   1.321   0.453   4.849  0.3402 -1.5201 -0.2998
 2001SOL     OW17638   0.096   4.405   3.255 -0.2341 -0.7385  0.2076
 2001SOL    HW117639   0.085   4.408   3.160 -0.3211 -0.0890  0.2423
 2001SOL    HW217640   0.106   4.310   3.262 -1.2728 -0.7945  0.9227
 2002SOL     OW17641   3.371   1.451   2.331  0.9334 -0.1122  0.3283
 2002SOL    HW117642   3.352   1.362   2.359 -0.1652 -0.3151 -1.0999
 2002SOL    HW217643   3.281   1.481   2.319 -0.0200 -2.4754  1.6283
 2003SOL     OW17644   1.974   4.609  15.706  0.4094  0.2147  0.4879
 2003SOL    HW117645   2.037   4.648  15.768  0.0839 -0.0030  0.9589
 2003SOL    HW217646   1.995   4.656  15.625 -2.1665  0.2129 -0.1717
 2004SOL     OW17647   0.172   1.897   6.060  0.6065 -0.4096  0.2779
 2004SOL    HW117648   0.189   1.803   6.049 -2.0295 -0.8081 -0.4521
 2004SOL    HW217649   0.085   1.900   6.099  1.3659  2.3109  1.7636
 2005SOL     OW17650   3.902   3.640   6.629 -0.2154  0.4007 -0.0970
 2005SOL    HW117651   3.850   3.719   6.646 -0.3709  0.5187 -1.1456
 2005SOL    HW217652   3.979   3.692   6.653  0.2548 -1.0614  1.5648
 2006SOL     OW17653   3.687   4.159  17.458 -0.0392 -0.1315 -0.2365
 2006SOL    HW117654   3.701   4.064  17.453  0.3848 -0.0705 -0.1760
 2006SOL    HW217655   3.772   4.198  17.476  0.3599 -0.7086 -0.8656
 2007SOL     OW17656   2.426   3.722   2.695  0.3176 -0.3795 -0.4289
 2007SOL    HW117657   2.408   3.678   2.778 -0.5026 -1.8044 -1.3545
 2007SOL    HW217658   2.341   3.729   2.652  0.1328 -1.1204 -0.1754
 2008SOL     OW17659   1.822   1.518  17.582  0.2443 -0.4568 -0.2194
 2008SOL    HW117660   1.911   1.547  17.600 -0.3465  0.8390  0.5968
 2008SOL    HW217661   1.781   1.553  17.661 -0.0382 -1.1546 -0.0543
 2009SOL     OW17662   4.125   2.428   7.389 -0.6889 -0.0732 -0.3643
 2009SOL    HW117663   4.157   2.344   7.419  1.6601  0.2585 -1.9236
 2009SOL    HW217664   4.030   2.414   7.394 -1.2424  3.5151 -0.3052
 2010SOL     OW17665   3.513   2.152  12.817 -0.0889 -0.0734  0.1942
 2010SOL    HW117666   3.551   2.156  12.904 -0.9509 -0.3308  0.5818
 2010SOL    HW217667   3.493   2.058  12.821  2.4801 -0.5938  0.3856
 2011SOL     OW17668   2.134   4.314  16.630  0.1947  0.2593  0.1828
 2011SOL    HW117669   2.049   4.297  16.671  1.2093 -1.3729  1.5640
 2011SOL    HW217670   2.110   4.312  16.537  0.5521  0.8352  0.0758
 2012SOL     OW17671   2.210   1.653   6.657  0.0368  0.1497 -0.0065
 2012SOL    HW117672   2.146   1.637   6.726  1.6221  0.3883  1.5419
 2012SOL    HW217673   2.237   1.567   6.624 -0.6943 -0.3066  0.5966
 2013SOL     OW17674   0.500   1.763   4.634  0.2734  1.4699 -0.4863
 2013SOL    HW117675   0.513   1.843   4.582 -0.9418  1.5348 -0.6785
 2013SOL    HW217676   0.410   1.749   4.606  0.1772  0.3512  0.3766
 2014SOL     OW17677   3.656   2.156   7.740 -0.2858  0.1903 -0.0059
 2014SOL    HW117678   3.642   2.069   7.702  0.5592 -0.3761  0.9852
 2014SOL    HW217679   3.751   2.167   7.739  0.0411 -2.7312 -0.0270
 2015SOL     OW17680   1.621   1.854   3.541 -0.0489 -0.0454  0.8113
 2015SOL    HW117681   1.715   1.874   3.546  0.3327 -0.7300 -2.8885
 2015SOL    HW217682   1.594   1.837   3.631 -0.7093 -4.1706 -0.1435
 2016SOL     OW17683   3.248   0.366   0.915  0.7885 -0.1041 -0.1700
 2016SOL    HW117684   3.333   0.398   0.885 -0.7402  3.2926 -0.9352
 2016SOL    HW217685   3.187   0.376   0.842 -1.1497 -1.3175  1.2720
 2017SOL     OW17686   2.268   2.931   7.369 -0.3039 -0.0612 -0.6012
 2017SOL    HW117687   2.294   2.983   7.293  1.8203 -1.3831 -0.7753
 2017SOL    HW217688   2.342   2.871   7.383  0.3377  1.0421  0.7868
 2018SOL     OW17689   3.343   1.498  17.097  0.8717 -0.9024  0.3453
 2018SOL    HW117690   3.435   1.512  17.075  0.4958 -1.1566 -1.4189
 2018SOL    HW217691   3.327   1.585  17.134  1.0680 -0.9939  0.6401
 2019SOL     OW17692   0.880   2.983  11.360 -0.3568 -0.1360  0.2828
 2019SOL    HW117693   0.817   2.937  11.415 -0.3587 -0.4676 -0.0009
 2019SOL    HW217694   0.922   2.904  11.327 -0.5519 -0.5030  0.9138
 2020SOL     OW17695   1.285   1.274   3.761 -0.2746 -0.0814  0.3078
 2020SOL    HW117696   1.252   1.316   3.682 -1.2354 -1.0192  0.2093
 2020SOL    HW217697   1.209   1.227   3.795 -1.8600  2.4907  0.3606
 2021SOL     OW17698   0.706   2.816  11.472  0.5514 -0.5734  0.2376
 2021SOL    HW117699   0.738   2.749  11.412 -0.6800 -0.3702 -0.6522
 2021SOL    HW217700   0.611   2.804  11.481  0.0616  2.7572 -0.3911
 2022SOL     OW17701   1.062   4.420   4.603 -0.1202  0.6057  0.8556
 2022SOL    HW117702   0.985   4.471   4.627 -0.7312  0.8689 -1.7096
 2022SOL    HW217703   1.059   4.417   4.508  2.1493 -0.5240  0.8078
 2023SOL     OW17704   2.813   1.573  16.172  0.4590 -0.9530  0.3038
 2023SOL    HW117705   2.744   1.515  16.142  1.0949 -1.7045  0.2974
 2023SOL    HW217706   2.831   1.622  16.092  1.5507 -0.9426  0.5514
 2024SOL     OW17707   4.103   0.214   6.152  0.1038  0.7866  0.0607
 2024SOL    HW117708   4.193   0.242   6.138 -0.1044  1.6611  0.4881
 2024SOL    HW217709   4.115   0.140   6.212 -0.9442  1.4428  1.0713
 2025SOL     OW17710   0.665   0.416   6.793 -0.4092 -0.2833 -0.3239
 2025SOL    HW117711   0.708   0.484   6.742 -0.7243  0.2271  0.0927
 2025SOL    HW217712   0.656   0.352   6.722 -0.5562 -0.0435 -0.5202
 2026SOL     OW17713   4.004   2.206   5.295 -0.0967  0.3126  0.5901
 2026SOL    HW117714   3.993   2.300   5.285  1.2861  0.6432  2.2179
 2026SOL    HW217715   4.011   2.202   5.390  1.6912 -0.6853  0.4197
 2027SOL     OW17716   3.707   1.583  13.061 -0.9121  0.2144  0.1316
 2027SOL    HW117717   3.727   1.612  13.150 -3.6485 -0.6869  1.0490
 2027SOL    HW217718   3.657   1.657  13.029 -0.8873  0.4311  0.5898
 2028SOL     OW17719   2.883   1.511   7.419  0.7804  0.1011  0.5063
 2028SOL    HW117720   2.804   1.565   7.419  0.0754 -0.9447  0.0062
 2028SOL    HW217721   2.920   1.536   7.504 -1.1387  0.5467  1.2009
 2029SOL     OW17722   3.603   0.833  14.985  0.4287 -0.0883 -0.1221
 2029SOL    HW117723   3.655   0.784  15.049 -0.0763 -0.3105  0.1118
 2029SOL    HW217724   3.642   0.794  14.907 -1.4066  2.4347 -2.3244
 2030SOL     OW17725   2.530   3.565   4.789 -0.3255 -0.4970 -0.6008
 2030SOL    HW117726   2.531   3.502   4.716  0.3385 -1.0775 -0.0926
 2030SOL    HW217727   2.442   3.552   4.825  0.3563  0.6960  1.4855
 2031SOL     OW17728   4.456   3.411   2.674 -0.4263  0.1381 -0.0323
 2031SOL    HW117729   4.549   3.417   2.694 -0.2155  0.1921 -1.0338
 2031SOL    HW217730   4.450   3.430   2.581 -0.4422 -1.8076 -0.4390
 2032SOL     OW17731   4.236   0.216  12.677 -0.9281 -0.3068  0.2552
 2032SOL    HW117732   4.273   0.127  12.677  0.8609  0.4319  0.8453
 2032SOL    HW217733   4.262   0.243  12.765 -1.4228 -0.3571  0.4135
 2033SOL     OW17734   3.149   1.159   5.504  0.0499  0.3264  0.3952
 2033SOL    HW117735   3.220   1.134   5.445  1.0075 -0.2098  1.7638
 2033SOL    HW217736   3.183   1.129   5.589  1.7341 -0.4125 -0.5525
 2034SOL     OW17737   2.927   1.963   2.801  0.1588  0.5397 -0.6479
 2034SOL    HW117738   2.960   1.882   2.762 -0.7167 -0.0979 -0.0620
 2034SOL    HW217739   2.840   1.971   2.761 -0.1128  0.3924 -0.0871
 2035SOL     OW17740   2.375   3.710   8.535  0.1925  0.0260  0.5828
 2035SOL    HW117741   2.328   3.642   8.488  0.0928  0.8692 -0.5368
 2035SOL    HW217742   2.330   3.791   8.511  1.2883  0.4486 -0.0606
 2036SOL     OW17743   1.442   4.651  12.766  0.5130  0.1223  0.5031
 2036SOL    HW117744   1.451   4.693  12.681 -0.2261  0.1929  0.4600
 2036SOL    HW217745   1.451   4.560  12.736 -1.3152  0.6026 -1.4679
 2037SOL     OW17746   2.391   3.622   3.045 -0.3244  0.7217  0.3440
 2037SOL    HW117747   2.390   3.654   3.135  3.4424  0.5739  0.4134
 2037SOL    HW217748   2.387   3.527   3.057 -0.3092  0.4225 -1.8838
 2038SOL     OW17749   0.143   2.394  14.728  0.3572  0.2176  0.1103
 2038SOL    HW117750   0.206   2.342  14.677  0.3554  1.0979 -0.7897
 2038SOL    HW217751   0.125   2.340  14.805 -1.6623 -0.3835 -0.7792
 2039SOL     OW17752   0.948   2.462  14.055 -0.4377  0.0738  0.0985
 2039SOL    HW117753   0.980   2.374  14.035  2.9713  1.8027 -2.0235
 2039SOL    HW217754   0.891   2.437  14.127 -1.7653 -2.0598 -1.6934
 2040SOL     OW17755   4.575   1.545   6.886  0.3225 -0.5161  0.0825
 2040SOL    HW117756   4.508   1.591   6.836 -0.7868 -1.1100  1.0239
 2040SOL    HW217757   4.649   1.597   6.856  1.3447 -1.0711  1.6566
 2041SOL     OW17758   2.942   3.003   5.770  0.0800 -0.1980  0.2077
 2041SOL    HW117759   2.866   3.027   5.824  1.0076  0.4397  1.2242
 2041SOL    HW217760   2.903   2.988   5.684  0.4525 -0.3180  0.0615
 2042SOL     OW17761   3.415   0.006  11.833 -0.6198  0.2516 -0.6327
 2042SOL    HW117762   3.486   4.723  11.894  1.0931  2.2885 -2.0029
 2042SOL    HW217763   3.381   4.654  11.814 -0.9821  0.2638 -0.0118
 2043SOL     OW17764   0.956   3.235   2.152  0.0519 -0.1522  0.2006
 2043SOL    HW117765   0.868   3.270   2.132  1.7791  3.1842 -1.6371
 2043SOL    HW217766   1.000   3.320   2.163 -1.4227  0.2923  2.5640
 2044SOL     OW17767   1.415   4.148  12.627  0.0182 -0.4410  0.5455
 2044SOL    HW117768   1.384   4.115  12.711 -1.5286 -0.4389 -0.0214
 2044SOL    HW217769   1.460   4.068  12.600  0.7415 -0.6283  2.3148
 2045SOL     OW17770   0.901   0.647   7.390  0.6493 -0.1199  0.0659
 2045SOL    HW117771   0.885   0.727   7.440  1.7647 -1.1737  2.0997
 2045SOL    HW217772   0.986   0.674   7.354  0.3614 -0.6734 -1.0526
 2046SOL     OW17773   2.323   4.068  13.782 -0.3708 -0.3077  0.8022
 2046SOL    HW117774   2.402   4.087  13.832  0.2492  1.1969 -0.7380
 2046SOL    HW217775   2.333   4.122  13.703 -0.7010 -0.5356  0.6033
 2047SOL     OW17776   4.285   0.447   0.066  0.1400 -0.6099  0.3837
 2047SOL    HW117777   4.332   0.377   0.020 -1.1819 -0.4044 -1.2961
 2047SOL    HW217778   4.211   0.458   0.006 -1.2602 -0.9633  2.0571
 2048SOL     OW17779   0.837   1.422  13.168  0.3012 -0.1127  0.0839
 2048SOL    HW117780   0.829   1.507  13.124  0.5815  0.0430  0.3289
 2048SOL    HW217781   0.876   1.458  13.248 -1.2570  0.0254  0.7637
 2049SOL     OW17782   1.353   1.341   4.709 -0.1087 -0.3032 -0.1832
 2049SOL    HW117783   1.420   1.346   4.777 -0.0352  3.5176 -0.5398
 2049SOL    HW217784   1.401   1.288   4.645 -1.0618 -0.1882 -0.9915
 2050SOL     OW17785   3.638   2.357   3.687 -0.2375 -0.8106 -0.2152
 2050SOL    HW117786   3.665   2.325   3.601  1.1598 -0.5805  0.1307
 2050SOL    HW217787   3.546   2.382   3.679 -0.4429 -1.2537  0.7159
 2051SOL     OW17788   4.467   2.759   6.930  0.3189 -0.3473  0.0990
 2051SOL    HW117789   4.486   2.667   6.915  0.7464 -0.0940 -0.9517
 2051SOL    HW217790   4.372   2.769   6.937  0.0861 -1.7226 -0.9659
 2052SOL     OW17791   1.486   2.432   9.095 -0.0500 -0.1833 -0.1963
 2052SOL    HW117792   1.475   2.422   9.000  1.6325  1.7239 -0.5919
 2052SOL    HW217793   1.566   2.383   9.111  0.5250  0.1431 -2.0518
 2053SOL     OW17794   3.926   1.193   2.774 -0.2051  0.1328 -0.3216
 2053SOL    HW117795   3.969   1.108   2.769 -1.7280 -0.4849 -2.9228
 2053SOL    HW217796   4.005   1.247   2.766  0.1142 -0.0756  1.4944
 2054SOL     OW17797   2.896   1.294   2.521  0.3602 -0.3782  0.0633
 2054SOL    HW117798   2.971   1.343   2.555  0.2217 -0.2049  0.1162
 2054SOL    HW217799   2.865   1.350   2.450 -0.1813 -0.4148  0.2728
 2055SOL     OW17800   4.284   0.989  17.091  0.0897 -0.1826  0.2236
 2055SOL    HW117801   4.341   1.065  17.077  0.4085 -0.5286 -0.3275
 2055SOL    HW217802   4.235   0.984  17.009 -0.0170 -1.0421  0.3443
 2056SOL     OW17803   2.048   1.258   7.051  0.3075  0.6836  0.5382
 2056SOL    HW117804   2.069   1.344   7.085 -1.1872  1.5339 -0.6944
 2056SOL    HW217805   1.957   1.244   7.078  0.8743 -1.2246  1.4765
 2057SOL     OW17806   0.911   2.790   1.120  0.0207  0.1349  0.1109
 2057SOL    HW117807   0.944   2.743   1.044  4.3618  0.7504  1.5984
 2057SOL    HW217808   0.986   2.773   1.178  0.2576  0.1851 -0.1807
 2058SOL     OW17809   0.729   1.508   7.805  0.4575 -0.0028 -0.1206
 2058SOL    HW117810   0.817   1.473   7.788  0.4003 -0.9506  1.5759
 2058SOL    HW217811   0.713   1.549   7.720 -0.3060 -0.4154 -0.1694
 2059SOL     OW17812   4.688   0.844   7.848 -0.4587 -0.6555 -0.2236
 2059SOL    HW117813   4.715   0.754   7.865  0.0166 -0.5889 -0.6331
 2059SOL    HW217814   4.729   0.885   7.924  0.0373 -0.3919 -0.6269
 2060SOL     OW17815   0.396   1.140   7.710  0.2936 -0.0033 -0.1696
 2060SOL    HW117816   0.346   1.120   7.789 -0.5465  0.2745 -0.6361
 2060SOL    HW217817   0.379   1.232   7.693  2.0845 -0.1677 -2.8783
 2061SOL     OW17818   3.056   1.546   3.289 -0.1511  0.0527 -0.0251
 2061SOL    HW117819   3.093   1.634   3.297  0.5434 -0.0961 -1.5542
 2061SOL    HW217820   2.983   1.548   3.351  0.2748 -2.3118  0.5384
 2062SOL     OW17821   4.641   3.257   0.094  0.2435 -0.1457  0.2137
 2062SOL    HW117822   4.574   3.232   0.158  1.6408 -2.5453  0.7125
 2062SOL    HW217823   4.718   3.248   0.151  0.3428 -0.8108 -0.0302
 2063SOL     OW17824   0.042   3.746   1.984 -0.5176 -0.0931  0.1870
 2063SOL    HW117825   0.012   3.758   2.075 -0.5685  1.9824 -0.0866
 2063SOL    HW217826   0.043   3.651   1.974  1.0625  0.4094 -4.2547
 2064SOL     OW17827   3.116   3.191   4.234  0.2238  0.7819 -0.2608
 2064SOL    HW117828   3.059   3.143   4.175  0.2634  0.3678  0.0366
 2064SOL    HW217829   3.134   3.271   4.184 -0.4281  0.0585 -1.6505
 2065SOL     OW17830   2.733   1.951  11.103  0.2328 -0.3286  0.3517
 2065SOL    HW117831   2.758   1.948  11.010  1.3200  0.8846  0.6136
 2065SOL    HW217832   2.790   1.881  11.136 -1.7154 -3.1624 -2.2588
 2066SOL     OW17833   2.475   3.849   3.858 -0.6854  0.5295 -0.0254
 2066SOL    HW117834   2.500   3.928   3.809 -1.2594  1.1559  0.6861
 2066SOL    HW217835   2.499   3.879   3.946  0.1970 -1.6954  0.4978
 2067SOL     OW17836   0.022   3.726   7.398 -0.2487 -0.1616 -0.2263
 2067SOL    HW117837   4.736   3.749   7.308 -0.0473 -2.0311 -0.7382
 2067SOL    HW217838   4.672   3.710   7.438 -0.4231  0.5145 -0.3194
 2068SOL     OW17839   1.195   2.303   4.268 -0.0809  0.0522  0.4471
 2068SOL    HW117840   1.246   2.241   4.216 -2.3849 -1.2331 -0.2891
 2068SOL    HW217841   1.167   2.359   4.195 -2.2089 -1.8115 -0.1539
 2069SOL     OW17842   3.181   1.307   9.497  0.6245 -0.0623  0.3285
 2069SOL    HW117843   3.166   1.391   9.454 -2.5081 -0.4816  0.5659
 2069SOL    HW217844   3.276   1.312   9.505  0.8042 -1.4199 -0.9767
 2070SOL     OW17845   4.007   4.513   3.479 -0.0255 -1.0274  0.0572
 2070SOL    HW117846   3.956   4.594   3.487  1.3549 -0.1857  0.4777
 2070SOL    HW217847   4.005   4.498   3.384 -0.7727  0.7238 -0.2159
 2071SOL     OW17848   2.120   1.436  11.685 -0.0028  0.0421 -0.5625
 2071SOL    HW117849   2.113   1.531  11.691  0.5400 -0.0573  1.6012
 2071SOL    HW217850   2.203   1.418  11.729 -0.4361  0.7922  0.5421
 2072SOL     OW17851   0.113   1.316   4.258 -0.5968  0.0509 -0.4466
 2072SOL    HW117852   0.167   1.318   4.337  2.6468  3.6900 -2.7854
 2072SOL    HW217853   0.172   1.342   4.188  0.7557  0.6459  0.9152
 2073SOL     OW17854   2.289   4.147   6.512  0.7127 -0.0730  0.1784
 2073SOL    HW117855   2.362   4.089   6.489 -1.0716 -2.5878  0.7865
 2073SOL    HW217856   2.217   4.084   6.505  1.1985 -0.6084  0.0291
 2074SOL     OW17857   3.992   1.884   7.598  0.0613 -0.1566  0.2896
 2074SOL    HW117858   3.938   1.813   7.563 -1.3872  1.3895 -0.5901
 2074SOL    HW217859   3.978   1.875   7.693  2.2211 -0.1653  0.6040
 2075SOL     OW17860   1.438   3.399   2.800  0.1334 -0.1256  0.2772
 2075SOL    HW117861   1.452   3.492   2.781 -1.6024 -0.5706 -3.0969
 2075SOL    HW217862   1.471   3.359   2.720  0.0466  1.6976 -0.6688
 2076SOL     OW17863   2.843   1.624   9.231 -0.0757  0.0235  0.2787
 2076SOL    HW117864   2.920   1.658   9.276 -0.5519  1.5870 -0.1073
 2076SOL    HW217865   2.845   1.531   9.257 -0.1618 -0.2280 -0.6136
 2077SOL     OW17866   4.715   4.387   4.313  0.3530 -0.0913 -0.6190
 2077SOL    HW117867   4.684   4.458   4.370  0.6130  1.4515 -2.3755
 2077SOL    HW217868   4.640   4.347   4.270  0.1951 -0.5689  0.1119
 2078SOL     OW17869   0.019   2.972  10.598  0.7822 -0.0749  0.0061
 2078SOL    HW117870   4.712   2.914  10.662 -0.6828  0.4105 -0.5456
 2078SOL    HW217871   0.014   2.916  10.521 -0.1966 -0.6494  0.4856
 2079SOL     OW17872   2.995   1.502   4.457 -0.3106 -0.0378 -0.1620
 2079SOL    HW117873   3.004   1.531   4.547  1.8731  1.1726 -0.7664
 2079SOL    HW217874   2.901   1.513   4.442 -0.5985 -0.0376  1.6657
 2080SOL     OW17875   1.238   4.015   4.116 -0.4279  0.7878  0.2077
 2080SOL    HW117876   1.230   3.924   4.144 -2.0192  0.9491  0.3078
 2080SOL    HW217877   1.171   4.014   4.048 -1.7659 -0.3800  1.5429
 2081SOL     OW17878   2.256   3.570   4.757 -0.3938  0.0293 -0.0850
 2081SOL    HW117879   2.277   3.662   4.745  3.1356 -0.8585 -0.5869
 2081SOL    HW217880   2.161   3.581   4.745 -0.0810  0.1348 -2.3940
 2082SOL     OW17881   3.738   3.547   0.757 -0.3970 -0.0756  0.2944
 2082SOL    HW117882   3.676   3.592   0.699 -1.1814 -0.0085  1.1797
 2082SOL    HW217883   3.802   3.517   0.693  0.2062  1.5849  0.1259
 2083SOL     OW17884   1.323   2.022   4.812  0.0646  0.2807  0.4449
 2083SOL    HW117885   1.243   2.062   4.846 -0.8331 -0.7204 -0.4802
 2083SOL    HW217886   1.354   1.971   4.886 -1.5505 -0.7002  0.4481
 2084SOL     OW17887   3.607   4.317   1.914  0.0553  0.1737 -0.5336
 2084SOL    HW117888   3.651   4.270   1.985 -0.9197  2.5638  1.6537
 2084SOL    HW217889   3.639   4.270   1.837  1.7682 -0.4128  0.5543
 2085SOL     OW17890   3.484   3.693   0.909  0.1419  0.5044 -0.2439
 2085SOL    HW117891   3.550   3.626   0.927  1.6268  2.0045 -0.0505
 2085SOL    HW217892   3.529   3.776   0.919 -1.5510  0.8274  4.8818
 2086SOL     OW17893   1.412   0.565   8.019 -0.3525 -0.8987  0.2476
 2086SOL    HW117894   1.493   0.552   7.970 -0.9561 -1.7687 -0.5119
 2086SOL    HW217895   1.363   0.491   7.984 -0.8394 -1.0081  1.1504
 2087SOL     OW17896   0.273   2.088  12.657 -0.0423  0.3680 -0.1441
 2087SOL    HW117897   0.331   2.160  12.632  0.3052  0.2673  0.3845
 2087SOL    HW217898   0.204   2.142  12.696  0.6037 -1.5575  3.6609
 2088SOL     OW17899   1.644   3.966   6.791 -0.5649 -0.4332 -0.2179
 2088SOL    HW117900   1.556   3.996   6.768 -0.7693 -0.3362  0.6849
 2088SOL    HW217901   1.682   4.053   6.796 -1.4195 -0.1083  0.6547
 2089SOL     OW17902   2.853   2.148   4.459 -0.3502  0.1286 -0.2554
 2089SOL    HW117903   2.874   2.059   4.430 -1.6331 -0.1163 -0.4283
 2089SOL    HW217904   2.884   2.146   4.550  0.1205 -1.0932 -0.4440
 2090SOL     OW17905   3.230   4.465   4.917 -0.2957 -0.3794 -0.1105
 2090SOL    HW117906   3.140   4.488   4.942 -0.4821 -0.1602 -0.9658
 2090SOL    HW217907   3.208   4.387   4.864  1.3773 -0.0439 -1.2864
 2091SOL     OW17908   1.156   2.466   4.063  0.2677 -0.1212  0.4517
 2091SOL    HW117909   1.094   2.536   4.040 -0.8382 -1.1345  0.3535
 2091SOL    HW217910   1.134   2.408   3.990  3.6323  3.1726 -3.1326
 2092SOL     OW17911   0.223   0.572   6.940 -0.3610  0.0851  0.1871
 2092SOL    HW117912   0.192   0.491   6.899 -0.0006 -0.4224  0.9202
 2092SOL    HW217913   0.317   0.557   6.945 -0.8759 -2.3512  2.2369
 2093SOL     OW17914   0.718   3.280  10.290  0.1004  0.1434  0.5277
 2093SOL    HW117915   0.698   3.189  10.265  0.5980  1.0000 -2.9611
 2093SOL    HW217916   0.726   3.312  10.200  0.6643 -3.6648 -0.8062
 2094SOL     OW17917   0.729   3.878   1.143  0.4517  0.4416  0.4987
 2094SOL    HW117918   0.820   3.909   1.135  0.2650  0.2559 -2.2954
 2094SOL    HW217919   0.745   3.825   1.221 -0.4894 -0.9577 -0.2738
 2095SOL     OW17920   0.263   1.131   7.285 -0.4439 -0.7158 -0.1805
 2095SOL    HW117921   0.171   1.106   7.290 -0.5646 -0.2611 -0.0493
 2095SOL    HW217922   0.261   1.163   7.195 -4.1433  0.0576  0.1741
 2096SOL     OW17923   4.467   1.784   2.831  0.2763  0.7087  0.8067
 2096SOL    HW117924   4.443   1.692   2.844  1.0832  0.4506  0.4059
 2096SOL    HW217925   4.533   1.798   2.899  1.9396 -1.8585 -0.2780
 2097SOL     OW17926   1.774   1.754  13.241 -0.2567 -0.0155 -0.0213
 2097SOL    HW117927   1.739   1.668  13.263 -1.8057  1.3861  2.8740
 2097SOL    HW217928   1.700   1.797  13.198  0.0193 -0.3910 -0.8862
 2098SOL     OW17929   3.600   0.606  15.265 -0.0763 -0.3383  0.2898
 2098SOL    HW117930   3.604   0.531  15.206 -0.0141 -0.5919  0.6197
 2098SOL    HW217931   3.515   0.595  15.308 -1.6396  3.1080 -1.9088
 2099SOL     OW17932   1.814   3.267   6.708  0.4093 -0.0231 -0.0300
 2099SOL    HW117933   1.748   3.295   6.771  1.9312 -1.5528  2.2436
 2099SOL    HW217934   1.792   3.174   6.714 -0.1379  0.1371  0.3739
 2100SOL     OW17935   3.811   0.687  15.412 -0.5362 -0.7276 -0.6975
 2100SOL    HW117936   3.840   0.598  15.429 -0.3807 -0.2894  1.2825
 2100SOL    HW217937   3.730   0.680  15.360 -0.9381 -0.0705 -0.1669
 2101SOL     OW17938   1.928   3.322   2.460 -0.4246  0.1728 -0.2616
 2101SOL    HW117939   1.966   3.317   2.548 -1.4374  1.0434  0.2242
 2101SOL    HW217940   2.008   3.346   2.412  0.6341 -0.5668  1.1183
 2102SOL     OW17941   2.868   0.093   0.747 -0.3247 -0.1631 -0.4360
 2102SOL    HW117942   2.777   0.064   0.755 -0.5590  0.0895 -2.3168
 2102SOL    HW217943   2.913   0.010   0.762 -2.7165 -1.6675 -1.5899
 2103SOL     OW17944   3.611   0.379  15.097  0.1635  0.2069 -0.1638
 2103SOL    HW117945   3.693   0.330  15.098 -0.2793 -0.5280  0.4715
 2103SOL    HW217946   3.583   0.364  15.007 -0.5710 -2.0743  0.4453
 2104SOL     OW17947   2.419   4.251  15.950  0.0553 -1.0945 -0.5447
 2104SOL    HW117948   2.495   4.309  15.946  0.1242 -1.2393 -1.3395
 2104SOL    HW217949   2.440   4.206  16.032 -0.2630  0.1078  0.2003
 2105SOL     OW17950   4.364   1.366   3.391  0.4059  0.1039  0.3925
 2105SOL    HW117951   4.352   1.350   3.484 -1.2281 -0.8819  0.0152
 2105SOL    HW217952   4.420   1.290   3.373  0.3607 -0.2045  1.5567
 2106SOL     OW17953   1.919   1.420   1.747 -0.0339 -0.8089  0.3633
 2106SOL    HW117954   1.924   1.427   1.652  0.9848  2.3030  0.6401
 2106SOL    HW217955   2.011   1.425   1.772  0.0023 -0.2612  0.0980
 2107SOL     OW17956   1.968   4.382   5.434  0.0546  0.3025  0.0797
 2107SOL    HW117957   1.981   4.321   5.506  1.9085 -0.1694 -0.6692
 2107SOL    HW217958   1.903   4.439   5.477 -1.8769 -0.2795 -2.0539
 2108SOL     OW17959   3.645   2.939   2.730 -0.0833  0.4639  0.1646
 2108SOL    HW117960   3.722   2.981   2.692  1.1009 -1.0735  0.8549
 2108SOL    HW217961   3.632   2.872   2.663  0.0122  0.5053  0.1049
 2109SOL     OW17962   1.435   1.118   8.249 -0.3935  0.1837  0.8836
 2109SOL    HW117963   1.441   1.212   8.233  0.4778  0.2088  1.3397
 2109SOL    HW217964   1.402   1.078   8.168  0.5810  0.6813  0.2512
 2110SOL     OW17965   3.454   4.252   2.235 -0.2152  0.3551  0.5108
 2110SOL    HW117966   3.386   4.245   2.303 -0.6529 -0.7804 -0.0392
 2110SOL    HW217967   3.455   4.346   2.222  3.9186  0.1293 -0.8162
 2111SOL     OW17968   3.345   2.680   8.083 -0.7149  0.6938  0.7562
 2111SOL    HW117969   3.334   2.670   7.988  0.1957 -0.5274  0.7729
 2111SOL    HW217970   3.431   2.636   8.088 -1.1413 -0.2917 -0.3213
 2112SOL     OW17971   2.871   1.388   3.453 -0.6345 -0.3266  0.2233
 2112SOL    HW117972   2.856   1.403   3.546 -2.8753  2.7328 -0.6056
 2112SOL    HW217973   2.902   1.298   3.451 -1.0978 -0.4944  0.7767
 2113SOL     OW17974   4.266   2.998   2.441  0.1436 -0.0309 -0.6024
 2113SOL    HW117975   4.257   3.092   2.451  0.3945 -0.1575  0.7733
 2113SOL    HW217976   4.178   2.973   2.470 -0.1235  1.1858 -0.3924
 2114SOL     OW17977   2.142   2.858   8.098  0.0380  0.1555  0.0571
 2114SOL    HW117978   2.236   2.845   8.114 -0.4516 -1.1558  1.7908
 2114SOL    HW217979   2.107   2.850   8.186 -0.4926 -0.7271 -0.2353
 2115SOL     OW17980   1.854   4.481   2.316  0.2097  0.4823  0.0699
 2115SOL    HW117981   1.840   4.405   2.260  0.6195 -0.1092  0.7664
 2115SOL    HW217982   1.783   4.541   2.293  0.6450  0.9796  0.0171
 2116SOL     OW17983   3.638   2.752   7.716 -0.1585  0.9399  0.1090
 2116SOL    HW117984   3.699   2.692   7.675 -0.9273  0.2349  0.0045
 2116SOL    HW217985   3.688   2.832   7.731  1.2092 -0.1493  1.3804
 2117SOL     OW17986   2.056   4.331   2.660 -0.4652  0.1358  0.3891
 2117SOL    HW117987   2.004   4.410   2.644 -1.9295 -0.8300  0.3649
 2117SOL    HW217988   2.122   4.345   2.592  0.6257 -0.3625  1.3693
 2118SOL     OW17989   4.128   1.660   8.388  0.2158 -0.3583 -0.2107
 2118SOL    HW117990   4.093   1.575   8.362 -1.7958  0.4842 -0.2668
 2118SOL    HW217991   4.110   1.670   8.481  1.3754 -0.5039  0.0259
 2119SOL     OW17992   3.144   3.610  16.611  0.5047  0.4835  0.5490
 2119SOL    HW117993   3.183   3.559  16.540 -0.5270  1.4592 -0.7318
 2119SOL    HW217994   3.126   3.539  16.672  0.1910  1.4503  1.5728
 2120SOL     OW17995   2.457   1.932   9.457  0.6129  0.3747 -0.2155
 2120SOL    HW117996   2.475   2.025   9.441  1.1747  0.8808  3.4873
 2120SOL    HW217997   2.533   1.883   9.425  1.7461  0.2252  2.7889
 2121SOL     OW17998   1.161   0.843   0.154  0.0429  0.3373  0.3802
 2121SOL    HW117999   1.113   0.842   0.236  2.4045  1.8996  1.7577
 2121SOL    HW218000   1.109   0.904   0.100  0.9461  1.0406  0.3031
 2122SOL     OW18001   2.097   4.116   5.863 -0.3974 -0.1288 -0.2746
 2122SOL    HW118002   2.182   4.075   5.848  0.7783  2.6398 -1.1966
 2122SOL    HW218003   2.108   4.147   5.953 -0.8773  0.8653 -0.5529
 2123SOL     OW18004   3.496   3.803   8.008 -0.6573 -0.5714 -0.1714
 2123SOL    HW118005   3.528   3.818   8.097 -0.9832  0.3939 -0.2183
 2123SOL    HW218006   3.501   3.889   7.967 -2.2370  0.1380  1.1253
 2124SOL     OW18007   0.537   2.634   6.110 -0.2574 -0.1060 -0.1324
 2124SOL    HW118008   0.555   2.690   6.034 -1.6842 -0.8461 -1.0250
 2124SOL    HW218009   0.569   2.550   6.076 -0.8382 -0.4270  0.1116
 2125SOL     OW18010   1.978   2.707   1.821 -0.1858 -0.5922 -0.0477
 2125SOL    HW118011   1.958   2.627   1.774  2.3530  0.3688 -2.7670
 2125SOL    HW218012   2.020   2.682   1.904  0.1115 -2.4448 -0.7716
 2126SOL     OW18013   2.058   3.973  13.907 -0.0648  0.6242  0.3782
 2126SOL    HW118014   2.006   3.902  13.870  1.9308 -0.4486 -0.3737
 2126SOL    HW218015   2.130   3.925  13.948  0.8713 -0.4284 -2.5211
 2127SOL     OW18016   1.089   3.895   5.822 -0.0853  0.1217 -0.1874
 2127SOL    HW118017   1.139   3.852   5.891  0.7739  0.9145 -0.3101
 2127SOL    HW218018   1.152   3.948   5.773 -0.6999 -0.5510 -1.7034
 2128SOL     OW18019   2.663   1.936  16.180 -0.2846  0.2691 -0.3511
 2128SOL    HW118020   2.669   1.996  16.254  2.9442 -0.4449 -0.0203
 2128SOL    HW218021   2.732   1.976  16.126  0.5665  0.1253  0.6368
 2129SOL     OW18022   3.716   1.750   7.880 -0.1163 -0.2984  0.3865
 2129SOL    HW118023   3.786   1.688   7.900  0.9545  0.4594 -0.9445
 2129SOL    HW218024   3.762   1.818   7.830  2.2451 -0.2587  2.6140
 2130SOL     OW18025   3.636   0.569   4.258  0.2297 -0.0746  0.0683
 2130SOL    HW118026   3.656   0.575   4.351  1.5264  2.8158 -0.3925
 2130SOL    HW218027   3.643   0.660   4.230  2.6137 -0.0303  0.7920
 2131SOL     OW18028   0.160   4.072  14.530  0.6192  0.3118  0.4220
 2131SOL    HW118029   0.127   4.161  14.540  1.0714  0.2533  2.5019
 2131SOL    HW218030   0.176   4.050  14.622  1.4433 -1.5805 -0.1859
 2132SOL     OW18031   4.131   0.371  15.477  0.2304 -0.7831  0.3245
 2132SOL    HW118032   4.226   0.383  15.467  0.1825 -0.2747  0.4501
 2132SOL    HW218033   4.143   0.322  15.558  1.0560  0.4497  0.9581
 2133SOL     OW18034   0.148   4.621  15.150 -0.0064  0.7284  0.3201
 2133SOL    HW118035   0.092   4.615  15.073  1.8088 -2.6223 -0.7205
 2133SOL    HW218036   0.121   4.704  15.190 -0.7290  1.1598 -1.0633
 2134SOL     OW18037   3.048   0.747  16.568  0.1229  0.2818 -0.2240
 2134SOL    HW118038   3.139   0.777  16.562 -0.3235  1.5562 -0.6490
 2134SOL    HW218039   2.994   0.815  16.528 -0.3190  0.1066  0.0817
 2135SOL     OW18040   1.098   2.765   4.808 -0.5227  0.1678  0.0522
 2135SOL    HW118041   1.003   2.772   4.814 -0.6292 -0.3808 -0.8552
 2135SOL    HW218042   1.116   2.792   4.718 -2.0517 -1.0525 -0.6272
 2136SOL     OW18043   3.020   0.559   1.030  0.0060 -0.6551 -0.3183
 2136SOL    HW118044   3.055   0.487   0.978  0.3238  0.1854 -1.2699
 2136SOL    HW218045   3.053   0.632   0.978  1.8048 -0.6414  0.8570
 2137SOL     OW18046   2.435   2.411   4.895 -0.0751  0.2017  0.5815
 2137SOL    HW118047   2.356   2.358   4.909  1.1265 -0.7773  3.5856
 2137SOL    HW218048   2.414   2.479   4.960  0.3357  0.5171  0.3815
 2138SOL     OW18049   4.203   0.826   4.900  0.0450 -0.1712  0.2266
 2138SOL    HW118050   4.158   0.761   4.847  1.4326 -0.6788 -0.3316
 2138SOL    HW218051   4.293   0.800   4.880 -0.1693  0.2930 -1.2989
 2139SOL     OW18052   1.034   3.286   6.565 -0.0625 -0.2845 -0.2818
 2139SOL    HW118053   0.976   3.215   6.534 -0.7755  1.6523 -3.3577
 2139SOL    HW218054   1.011   3.294   6.658  0.9834 -1.7997  0.1002
 2140SOL     OW18055   1.411   1.605  11.783 -0.6123 -0.1559  0.4330
 2140SOL    HW118056   1.325   1.642  11.764  0.5774  1.1783 -2.3712
 2140SOL    HW218057   1.452   1.607  11.696  0.1175 -1.7559  0.7439
 2141SOL     OW18058   0.067   4.662   2.298  0.3644 -0.2301  0.2119
 2141SOL    HW118059   0.146   4.669   2.351  0.8527  0.8309 -0.6395
 2141SOL    HW218060   0.107   4.645   2.213  0.3149  1.4708 -0.1606
 2142SOL     OW18061   2.531   3.777  15.080 -0.3622  0.1472  0.1526
 2142SOL    HW118062   2.556   3.786  15.172 -0.4904  0.3098  0.1725
 2142SOL    HW218063   2.472   3.850  15.060  0.8745  0.8934 -0.7548
 2143SOL     OW18064   1.624   2.810   5.186  0.1071  0.0038 -0.0623
 2143SOL    HW118065   1.573   2.858   5.120 -1.9225  0.9120  2.1675
 2143SOL    HW218066   1.559   2.806   5.256 -0.6541 -0.8212 -0.8067
 2144SOL     OW18067   4.469   2.972   6.641 -0.8294  0.4190  0.4307
 2144SOL    HW118068   4.406   2.920   6.591  1.2322  1.5240 -3.3314
 2144SOL    HW218069   4.413   3.029   6.693 -0.5998  2.1434 -1.2187
 2145SOL     OW18070   1.784   1.200   5.364 -0.2806  0.1954  0.1523
 2145SOL    HW118071   1.721   1.128   5.365 -0.8103  0.6542  0.1888
 2145SOL    HW218072   1.789   1.227   5.456  0.1237 -0.6280  0.3725
 2146SOL     OW18073   2.936   3.812   4.331 -0.0900 -0.0768  0.2304
 2146SOL    HW118074   2.996   3.826   4.405 -1.4801  0.0596  1.3228
 2146SOL    HW218075   2.890   3.737   4.368  0.5656 -1.1870 -1.2022
 2147SOL     OW18076   0.735   3.515   2.694 -0.3779 -0.1630  0.1159
 2147SOL    HW118077   0.767   3.494   2.782 -0.4789  1.1123  0.4585
 2147SOL    HW218078   0.649   3.474   2.697 -0.1398 -0.6806 -0.0419
 2148SOL     OW18079   0.107   2.433   8.810 -0.1492  0.3920 -0.3535
 2148SOL    HW118080   0.057   2.501   8.856  0.9613  0.2221  1.1228
 2148SOL    HW218081   0.051   2.357   8.826  0.8958 -0.9665 -3.2855
 2149SOL     OW18082   3.971   3.181  13.599 -0.2956  0.1490  0.1431
 2149SOL    HW118083   3.977   3.275  13.581 -0.6354 -0.2621 -2.1304
 2149SOL    HW218084   3.901   3.176  13.664  2.4497 -1.4499  2.9751
 2150SOL     OW18085   1.900   0.157   1.868 -0.5666 -0.4166  0.3586
 2150SOL    HW118086   1.848   0.126   1.942  0.7629  1.4591  2.0812
 2150SOL    HW218087   1.976   0.100   1.881 -0.4782 -0.2470  0.5905
 2151SOL     OW18088   2.419   1.442   3.466  0.1064  0.3032 -0.5734
 2151SOL    HW118089   2.464   1.490   3.535 -0.0358 -0.2246 -0.1146
 2151SOL    HW218090   2.447   1.352   3.483 -0.8536  0.4018  1.5248
 2152SOL     OW18091   1.466   1.952   8.699 -0.0074 -0.0373  0.6684
 2152SOL    HW118092   1.547   1.942   8.648 -0.5912  0.4769 -0.3729
 2152SOL    HW218093   1.438   2.034   8.659  0.7513 -0.7056 -1.2660
 2153SOL     OW18094   1.127   4.665  13.665 -0.1242 -0.2963 -0.0636
 2153SOL    HW118095   1.058   4.648  13.601  1.0930  2.8835 -2.2450
 2153SOL    HW218096   1.073   4.680  13.742  0.4549  2.6741 -0.2361
 2154SOL     OW18097   0.321   0.799   7.768 -0.3978  0.6752  0.5235
 2154SOL    HW118098   0.340   0.891   7.784  1.6489  0.3711 -0.1125
 2154SOL    HW218099   0.307   0.798   7.673  1.3165 -1.0707  0.2943
 2155SOL     OW18100   2.211   3.043   2.447 -0.3192  0.0296  0.2963
 2155SOL    HW118101   2.122   3.031   2.479  0.6444 -0.9233  2.5880
 2155SOL    HW218102   2.194   3.131   2.411 -1.0245 -0.3651 -0.3424
 2156SOL     OW18103   2.085   2.711   3.424  0.4344  0.4584  0.0432
 2156SOL    HW118104   2.108   2.788   3.476 -0.2253 -0.6420  1.9477
 2156SOL    HW218105   2.146   2.646   3.458  0.5518 -0.1627 -1.3534
 2157SOL     OW18106   3.245   3.588   5.234 -0.5155 -0.1938 -0.0415
 2157SOL    HW118107   3.336   3.568   5.211 -0.3282 -0.1199  0.6279
 2157SOL    HW218108   3.212   3.609   5.147  1.5958 -0.5822 -0.9352
 2158SOL     OW18109   1.646   4.610   1.802  0.6184  0.4589 -0.4116
 2158SOL    HW118110   1.589   4.551   1.852 -0.1987  0.7596 -1.0040
 2158SOL    HW218111   1.598   4.679   1.757 -0.1240 -1.5537 -2.6877
 2159SOL     OW18112   3.957   2.466   3.744  0.7438 -0.5540  0.1646
 2159SOL    HW118113   3.911   2.384   3.724  0.1926 -0.3596  0.6523
 2159SOL    HW218114   4.020   2.439   3.811  1.1498  1.1106  0.4533
 2160SOL     OW18115   4.228   4.595   8.024  0.7408  0.4152  0.4467
 2160SOL    HW118116   4.253   4.506   8.050  0.2549  0.4458  1.0267
 2160SOL    HW218117   4.199   4.579   7.934  1.2719 -1.5825  0.6304
 2161SOL     OW18118   2.264   0.129   8.374  0.3432  0.3106  0.1938
 2161SOL    HW118119   2.220   0.202   8.330  0.2009  0.2307  0.2035
 2161SOL    HW218120   2.347   0.172   8.392  0.4822  0.5095 -0.8952
 2162SOL     OW18121   1.913   0.715   5.187  0.2003 -0.4911  0.3060
 2162SOL    HW118122   1.853   0.654   5.143  0.5911 -0.6805  0.0320
 2162SOL    HW218123   1.891   0.797   5.142  1.3831  0.0364  0.7113
 2163SOL     OW18124   2.650   3.362   3.006 -0.4451  0.1131  0.1825
 2163SOL    HW118125   2.600   3.284   3.031 -0.7837 -0.2266 -1.5284
 2163SOL    HW218126   2.600   3.384   2.927  0.2723  2.4061  0.3734
 2164SOL     OW18127   0.549   2.983   6.542  0.5304  0.0777 -0.7597
 2164SOL    HW118128   0.577   2.969   6.452 -1.2828 -0.7271 -1.1965
 2164SOL    HW218129   0.510   3.070   6.534 -0.6906 -0.5467 -1.5722
 2165SOL     OW18130   3.868   0.096   1.265  0.2567  0.5767  0.7077
 2165SOL    HW118131   3.796   0.138   1.312 -1.6899  0.5083 -2.2315
 2165SOL    HW218132   3.937   0.140   1.316  0.5816  0.4794  0.3542
 2166SOL     OW18133   4.382   1.584  11.104 -0.0612 -0.2907  0.2924
 2166SOL    HW118134   4.464   1.533  11.106 -0.0055 -0.2531 -0.8585
 2166SOL    HW218135   4.319   1.516  11.081  0.8259 -0.3597 -1.9611
 2167SOL     OW18136   4.172   3.957   7.687 -0.3847 -0.2698 -0.0181
 2167SOL    HW118137   4.223   3.983   7.610 -1.1287  0.5082 -0.2469
 2167SOL    HW218138   4.086   3.951   7.646 -1.6102 -0.3673  2.5457
 2168SOL     OW18139   1.216   1.301   7.262 -0.1664 -0.0208  0.1290
 2168SOL    HW118140   1.248   1.344   7.341  0.2320 -0.8233  0.4045
 2168SOL    HW218141   1.133   1.266   7.296  1.8278 -2.1361  2.8510
 2169SOL     OW18142   0.692   2.873   8.909 -0.3015 -0.2282 -0.3495
 2169SOL    HW118143   0.737   2.914   8.835 -1.0930 -1.6817 -1.6463
 2169SOL    HW218144   0.704   2.780   8.891 -0.0621 -0.0150 -1.2882
 2170SOL     OW18145   0.389   2.509   2.856 -0.4526  0.9857 -0.2585
 2170SOL    HW118146   0.340   2.495   2.937  0.7778  1.9633  0.6529
 2170SOL    HW218147   0.321   2.498   2.790  0.9067  2.2591 -1.8804
 2171SOL     OW18148   0.724   4.067   3.861  0.4042 -0.0645  0.0625
 2171SOL    HW118149   0.805   4.042   3.816  0.2383  0.0295 -0.2918
 2171SOL    HW218150   0.688   3.978   3.859 -0.3911  0.2386  1.3331
 2172SOL     OW18151   4.019   3.237   1.744 -0.3424 -0.0138  0.0761
 2172SOL    HW118152   3.985   3.169   1.801 -0.7941 -1.6887 -2.1943
 2172SOL    HW218153   4.032   3.306   1.809 -0.4241  0.2769 -0.2143
 2173SOL     OW18154   2.146   4.213   3.979 -0.4353  0.4897  0.5231
 2173SOL    HW118155   2.168   4.253   4.063 -0.5819  1.8663 -0.0883
 2173SOL    HW218156   2.146   4.121   4.004  0.0402 -0.3215 -2.4486
 2174SOL     OW18157   2.877   0.490   2.631  0.1782 -0.0815  0.0145
 2174SOL    HW118158   2.902   0.407   2.592  1.4789  0.4057 -0.1931
 2174SOL    HW218159   2.827   0.473   2.711  0.0693  0.1636  0.0002
 2175SOL     OW18160   0.159   1.869   3.751 -0.6747 -0.7917  0.4040
 2175SOL    HW118161   0.238   1.870   3.697 -0.8283 -1.9600  0.1658
 2175SOL    HW218162   0.197   1.842   3.835 -0.2496 -0.0895  0.4386
 2176SOL     OW18163   1.173   3.361   7.472 -0.3946  0.4661 -0.3608
 2176SOL    HW118164   1.222   3.381   7.552  2.3426  2.6700 -2.5832
 2176SOL    HW218165   1.108   3.295   7.494  0.5486 -0.3934 -0.1242
 2177SOL     OW18166   1.620   1.482   6.399  0.2993  0.2183 -0.7439
 2177SOL    HW118167   1.678   1.557   6.413 -2.1419  1.7868  0.7999
 2177SOL    HW218168   1.679   1.406   6.407  0.6889  0.5676 -0.3253
 2178SOL     OW18169   2.504   4.550   7.140 -0.0635 -0.2704  0.3095
 2178SOL    HW118170   2.441   4.495   7.094  0.5339  0.8174 -1.7832
 2178SOL    HW218171   2.529   4.612   7.072  2.1815 -0.7552  0.6634
 2179SOL     OW18172   1.854   4.260  16.644 -0.3072 -0.1256  0.1419
 2179SOL    HW118173   1.819   4.333  16.594  0.9777  0.5128  0.1905
 2179SOL    HW218174   1.790   4.263  16.715 -0.3356 -1.8188  0.1900
 2180SOL     OW18175   0.001   2.516  10.221 -0.7490 -0.0882 -0.5193
 2180SOL    HW118176   0.074   2.576  10.199 -2.0835  0.4259 -3.5375
 2180SOL    HW218177   4.734   2.518  10.316 -1.2625  3.7867 -0.5998
 2181SOL     OW18178   0.343   4.255   5.120 -0.3217 -0.7623 -0.1157
 2181SOL    HW118179   0.335   4.327   5.182 -1.7209 -1.6763  0.7589
 2181SOL    HW218180   0.432   4.266   5.084  0.6302 -1.4838  2.0455
 2182SOL     OW18181   3.226   2.829  17.085 -0.1864  0.1946 -0.3476
 2182SOL    HW118182   3.239   2.903  17.027  2.4242  1.0080  1.2533
 2182SOL    HW218183   3.142   2.800  17.049  0.4519 -0.2507 -1.4938
 2183SOL     OW18184   4.200   0.769   4.495  0.1575  0.0083 -0.2219
 2183SOL    HW118185   4.165   0.737   4.578  0.3051  1.7184  0.5163
 2183SOL    HW218186   4.133   0.749   4.430 -0.3837 -0.7603  0.5782
 2184SOL     OW18187   1.951   2.417   2.319  0.0126  0.0457  0.4024
 2184SOL    HW118188   2.010   2.460   2.380 -1.7571 -1.7266  3.3328
 2184SOL    HW218189   1.982   2.332   2.287 -1.8084 -1.5244  2.8224
 2185SOL     OW18190   1.756   2.977   6.812  0.4082 -0.4275 -0.3526
 2185SOL    HW118191   1.691   2.953   6.746  0.6136 -1.4859 -0.1580
 2185SOL    HW218192   1.791   2.892   6.839  1.8859  0.4823  0.5732
 2186SOL     OW18193   0.803   1.881   3.426  0.0122  0.4438 -0.5353
 2186SOL    HW118194   0.769   1.967   3.400  1.1927  1.3555  0.9337
 2186SOL    HW218195   0.897   1.894   3.422  0.3022 -0.4323  3.3815
 2187SOL     OW18196   2.204   1.076   2.043  0.3131 -0.1548 -0.2287
 2187SOL    HW118197   2.136   1.075   2.111  1.1366 -0.1253  0.5992
 2187SOL    HW218198   2.243   0.990   2.059 -2.2942 -1.1343  0.9212
 2188SOL     OW18199   4.029   2.411   8.329 -0.7486  0.4549 -0.1740
 2188SOL    HW118200   4.030   2.361   8.411  2.5965  1.0751  0.1830
 2188SOL    HW218201   4.106   2.464   8.349 -0.4638  0.4631 -1.3060
 2189SOL     OW18202   1.263   0.357   3.271  0.2232  0.3048 -0.0031
 2189SOL    HW118203   1.348   0.384   3.237  0.4003 -0.4125 -0.1209
 2189SOL    HW218204   1.262   0.263   3.251 -0.8185  0.4427 -0.6443
 2190SOL     OW18205   4.349   3.572  14.597 -0.1034 -0.4662  0.3723
 2190SOL    HW118206   4.380   3.587  14.507  1.5457  0.7892  1.1354
 2190SOL    HW218207   4.363   3.656  14.640 -1.2601  0.0057 -0.1876
 2191SOL     OW18208   3.709   2.698  15.167 -0.4003  0.3263 -0.3662
 2191SOL    HW118209   3.624   2.739  15.148  0.3956  2.1852  0.0945
 2191SOL    HW218210   3.703   2.687  15.261 -0.6157  0.8443 -0.3220
 2192SOL     OW18211   1.966   4.410   4.075 -0.7790 -0.2122 -0.1064
 2192SOL    HW118212   2.013   4.352   4.016 -0.1922  0.9251 -0.7637
 2192SOL    HW218213   2.009   4.489   4.042 -0.7882 -0.2144 -0.1239
 2193SOL     OW18214   0.308   0.019   2.467 -0.4664 -0.0174 -0.0333
 2193SOL    HW118215   0.268   4.706   2.539 -0.3331 -2.1822 -1.4118
 2193SOL    HW218216   0.369   0.079   2.510 -0.5533 -1.0742  1.5431
 2194SOL     OW18217   0.343   3.630   9.445 -0.0736 -0.2034  0.0881
 2194SOL    HW118218   0.256   3.597   9.424 -2.0064  3.5104  2.2835
 2194SOL    HW218219   0.336   3.592   9.532 -1.2525  0.6192  0.3478
 2195SOL     OW18220   4.693   2.815  10.838  0.0532 -0.6794 -0.0914
 2195SOL    HW118221   4.633   2.868  10.891 -0.1929 -0.2943 -0.7633
 2195SOL    HW218222   0.016   2.778  10.904 -1.1097 -0.5745  1.0162
 2196SOL     OW18223   4.241   4.110   2.269 -0.4753  0.5635 -0.0351
 2196SOL    HW118224   4.209   4.168   2.338 -1.6004 -0.8205  0.6041
 2196SOL    HW218225   4.294   4.173   2.220  0.7351 -0.5285 -0.1393
 2197SOL     OW18226   2.509   4.199   3.049 -0.2245 -0.0731 -0.0173
 2197SOL    HW118227   2.447   4.157   3.109  1.1420  0.0962  1.5302
 2197SOL    HW218228   2.583   4.218   3.107 -0.2233  0.9890 -0.3649
 2198SOL     OW18229   2.508   0.501   3.673 -0.9479 -0.1196 -0.4861
 2198SOL    HW118230   2.484   0.448   3.749 -1.4761  0.7403 -0.0659
 2198SOL    HW218231   2.596   0.466   3.660  0.3058  2.3637  1.4688
 2199SOL     OW18232   1.173   0.936   8.374 -0.1679  0.3288 -0.0996
 2199SOL    HW118233   1.203   0.873   8.309  0.2741  1.3820 -0.9216
 2199SOL    HW218234   1.255   0.967   8.414  0.3506  0.7423 -1.4929
 2200SOL     OW18235   1.827   4.199  12.540 -0.3968 -0.0079  0.2030
 2200SOL    HW118236   1.874   4.171  12.618 -0.4098  2.6270  1.1273
 2200SOL    HW218237   1.858   4.131  12.480 -0.4957 -0.1557  0.3177
 2201SOL     OW18238   0.691   0.542   5.085 -0.7443  0.3600 -0.1300
 2201SOL    HW118239   0.785   0.536   5.065 -0.5126 -0.8445  1.3012
 2201SOL    HW218240   0.691   0.536   5.181  0.1312  1.3099 -0.0598
 2202SOL     OW18241   3.166   3.141  12.391  0.3942  0.2800 -0.1312
 2202SOL    HW118242   3.139   3.050  12.400  2.2331 -0.0833  1.7214
 2202SOL    HW218243   3.251   3.141  12.347  0.4072 -2.9310 -0.1141
 2203SOL     OW18244   4.086   1.196  16.276 -0.0680  0.1537  0.3856
 2203SOL    HW118245   4.161   1.207  16.335  0.0781 -0.2144  0.2713
 2203SOL    HW218246   4.019   1.263  16.293 -0.6258 -0.0098 -1.1469
 2204SOL     OW18247   2.967   2.252   5.591  0.1620 -0.1449  0.1622
 2204SOL    HW118248   2.997   2.343   5.595  1.2074 -0.3686 -2.4044
 2204SOL    HW218249   3.044   2.205   5.559  0.4693  1.1141 -0.9668
 2205SOL     OW18250   3.672   3.659  15.263  0.3604  0.4052  0.0502
 2205SOL    HW118251   3.745   3.718  15.244  0.2383  0.8351  0.9280
 2205SOL    HW218252   3.638   3.700  15.342  2.8255  2.3544  0.0753
 2206SOL     OW18253   0.474   3.297   7.989  0.5295 -0.3927 -0.2882
 2206SOL    HW118254   0.435   3.304   7.902 -0.7786  0.1571  0.3407
 2206SOL    HW218255   0.405   3.341   8.040  0.1174 -0.4946 -0.7652
 2207SOL     OW18256   2.747   2.696   3.634 -0.3289 -0.0291 -0.2374
 2207SOL    HW118257   2.813   2.666   3.695 -0.0998  0.1024 -0.4197
 2207SOL    HW218258   2.688   2.746   3.691 -0.5414 -1.7990  1.0816
 2208SOL     OW18259   0.506   1.611   4.343  0.0925  0.7214  0.1407
 2208SOL    HW118260   0.555   1.681   4.301  0.7368 -0.5629 -1.2632
 2208SOL    HW218261   0.580   1.573   4.392 -0.6350  1.3948  1.7585
 2209SOL     OW18262   2.255   0.659   3.323 -0.7666 -0.7233 -0.1832
 2209SOL    HW118263   2.293   0.703   3.247 -1.8274 -1.1281 -0.9369
 2209SOL    HW218264   2.309   0.584   3.349  0.9661  0.5371 -0.1312
 2210SOL     OW18265   2.277   1.641   4.240  0.1376  0.1763  0.5315
 2210SOL    HW118266   2.236   1.573   4.186 -1.5052  2.3123 -0.9105
 2210SOL    HW218267   2.345   1.664   4.177 -0.2802  1.2141  0.4602
 2211SOL     OW18268   2.967   0.334   4.180 -0.1687 -0.2467 -0.3935
 2211SOL    HW118269   2.987   0.415   4.133 -1.0523  0.4619  0.4326
 2211SOL    HW218270   2.890   0.292   4.142 -1.2059  2.6959 -1.5416
 2212SOL     OW18271   3.322   0.320   1.858 -0.3744  0.2626 -0.3237
 2212SOL    HW118272   3.286   0.342   1.772  1.9122  1.7369 -0.9064
 2212SOL    HW218273   3.356   0.231   1.849  1.0342  0.9306 -1.7856
 2213SOL     OW18274   0.114   4.073   5.360  0.1127  0.0728  0.1173
 2213SOL    HW118275   0.151   4.124   5.432 -1.1315 -0.3725  1.0761
 2213SOL    HW218276   0.186   4.068   5.298 -0.7849  0.9271 -0.9930
 2214SOL     OW18277   3.498   2.652   8.475  0.3194  0.0339  0.3215
 2214SOL    HW118278   3.549   2.712   8.421  0.2943 -2.2057 -2.2290
 2214SOL    HW218279   3.476   2.588   8.408 -0.4144  0.2075  0.3994
 2215SOL     OW18280   0.686   0.363   5.936 -0.8459  0.1295 -0.0119
 2215SOL    HW118281   0.640   0.283   5.959 -0.9211  0.2558  0.2798
 2215SOL    HW218282   0.631   0.434   5.971  0.1347 -1.0780  3.9785
 2216SOL     OW18283   4.519   1.662  14.181  0.3371  0.0225  0.5569
 2216SOL    HW118284   4.506   1.734  14.244 -2.9746 -0.6944  0.6631
 2216SOL    HW218285   4.440   1.681  14.131  0.5737  0.8893  0.5062
 2217SOL     OW18286   3.510   2.724   1.114  0.3253 -0.8509  0.9618
 2217SOL    HW118287   3.568   2.796   1.089  0.2743 -0.9895  0.4559
 2217SOL    HW218288   3.534   2.654   1.054 -2.2553  0.4370 -1.5372
 2218SOL     OW18289   0.141   3.528   7.870 -0.2703 -0.3943 -0.3064
 2218SOL    HW118290   0.133   3.445   7.823  2.5780 -0.5375 -0.5464
 2218SOL    HW218291   0.056   3.536   7.913 -0.5428 -0.4373 -0.8338
 2219SOL     OW18292   4.602   0.253  10.649 -0.0635 -0.0831 -0.0233
 2219SOL    HW118293   4.576   0.205  10.728  0.8521  1.0188  0.9552
 2219SOL    HW218294   4.696   0.238  10.661  0.3384  1.9993 -0.4561
 2220SOL     OW18295   3.664   3.905   2.501 -0.1122 -0.0691  0.6156
 2220SOL    HW118296   3.635   3.888   2.591  0.6233  2.3114  1.3018
 2220SOL    HW218297   3.752   3.939   2.516 -1.2023  2.8927  0.4558
 2221SOL     OW18298   4.446   4.267   3.909  0.5746  0.5030 -0.6178
 2221SOL    HW118299   4.530   4.287   3.951 -0.0750 -1.2352  1.4977
 2221SOL    HW218300   4.457   4.187   3.859 -1.1436 -0.2853  0.2829
 2222SOL     OW18301   2.168   1.359   0.059  0.6887  0.1219  0.0487
 2222SOL    HW118302   2.090   1.304   0.059 -0.4595  1.7494  0.4759
 2222SOL    HW218303   2.141   1.445   0.091  0.4610  0.3573 -0.7866
 2223SOL     OW18304   3.736   3.501  14.907 -0.2411  0.0977 -0.5637
 2223SOL    HW118305   3.807   3.489  14.970 -0.1951  1.7400 -0.3151
 2223SOL    HW218306   3.755   3.434  14.841 -1.4550  1.0063 -1.8282
 2224SOL     OW18307   3.528   2.484  15.114 -0.2289  0.2407  0.1933
 2224SOL    HW118308   3.535   2.572  15.152  0.4651 -1.4210  3.8901
 2224SOL    HW218309   3.613   2.498  15.071 -0.0868 -0.9736  0.0800
 2225SOL     OW18310   0.147   3.802   5.836  0.4158 -0.4332 -0.3532
 2225SOL    HW118311   0.220   3.863   5.847  0.4324 -0.9123  2.2536
 2225SOL    HW218312   0.183   3.731   5.783  1.3219 -0.3928  0.2077
 2226SOL     OW18313   1.482   1.271   6.860 -0.0181 -0.2551  0.3586
 2226SOL    HW118314   1.387   1.284   6.858  0.0021 -0.2873 -0.6880
 2226SOL    HW218315   1.506   1.334   6.929  0.8456  0.9033 -1.0163
 2227SOL     OW18316   1.553   2.344   6.434  0.1766 -0.0012 -0.1481
 2227SOL    HW118317   1.552   2.311   6.344  4.0120 -3.1125  0.9666
 2227SOL    HW218318   1.533   2.437   6.427  1.4038  0.2643 -0.0277
 2228SOL     OW18319   0.189   2.806   9.010 -0.0244  0.5963 -0.0832
 2228SOL    HW118320   0.229   2.747   9.075 -0.9862 -1.0309 -0.9815
 2228SOL    HW218321   0.261   2.869   9.004 -0.3279  0.9842  0.3745
 2229SOL     OW18322   0.444   4.084   7.293 -0.5535 -0.0167  0.2166
 2229SOL    HW118323   0.403   4.112   7.211  0.8275  0.3796 -0.3318
 2229SOL    HW218324   0.383   4.016   7.325 -0.3604 -0.0179  0.5835
 2230SOL     OW18325   2.989   0.371  15.487  0.4986  0.4385  0.9745
 2230SOL    HW118326   2.975   0.284  15.451  2.1220 -0.0932  1.6253
 2230SOL    HW218327   3.083   0.381  15.497  0.5625  2.3311 -1.5395
 2231SOL     OW18328   3.261   4.498   6.655  0.6471 -0.2220  0.3270
 2231SOL    HW118329   3.316   4.568   6.692  2.4249 -0.1401 -2.4064
 2231SOL    HW218330   3.325   4.427   6.658 -0.2325 -1.0121  0.0819
 2232SOL     OW18331   2.712   3.118   0.167 -0.2073 -0.3755  0.0732
 2232SOL    HW118332   2.720   3.207   0.201 -0.7034 -0.8100  1.3179
 2232SOL    HW218333   2.803   3.090   0.161 -0.5239 -1.4145  0.1592
 2233SOL     OW18334   0.262   2.716  14.511 -0.0746 -0.3702  0.2737
 2233SOL    HW118335   0.343   2.750  14.472 -0.2454  1.9096  1.9482
 2233SOL    HW218336   0.242   2.794  14.562  2.1680  0.2138  0.2396
 2234SOL     OW18337   4.407   3.988  12.084  0.2227 -0.3543 -0.0133
 2234SOL    HW118338   4.492   4.030  12.070  0.4318 -1.5076 -2.3029
 2234SOL    HW218339   4.382   4.023  12.169  1.9177 -1.9404  1.1570
 2235SOL     OW18340   1.317   4.647  12.367 -0.2160 -0.0201  0.5370
 2235SOL    HW118341   1.229   4.681  12.384  0.1203  1.2773 -0.2620
 2235SOL    HW218342   1.310   4.556  12.396  0.5340 -0.1627  0.2701
 2236SOL     OW18343   4.081   1.480   3.368 -0.4085 -0.4754  0.2917
 2236SOL    HW118344   4.061   1.396   3.409 -2.0476  0.0114  0.4789
 2236SOL    HW218345   4.177   1.482   3.369 -0.3782 -2.6550  2.0787
 2237SOL     OW18346   3.016   4.431  14.740 -0.2671 -0.3464 -0.2955
 2237SOL    HW118347   3.038   4.338  14.736  2.4156  0.1748  2.6955
 2237SOL    HW218348   3.008   4.455  14.833  0.0940  1.3564 -0.7063
 2238SOL     OW18349   0.990   3.817   0.305  0.5272 -0.2519 -0.8342
 2238SOL    HW118350   1.008   3.901   0.262  0.2992 -0.1877 -0.8064
 2238SOL    HW218351   1.015   3.759   0.233  0.8430  0.1154 -1.0229
 2239SOL     OW18352   2.126   0.727  16.714 -0.2072 -0.0197  0.1683
 2239SOL    HW118353   2.040   0.720  16.674  0.0540 -1.2652 -0.1753
 2239SOL    HW218354   2.132   0.821  16.730  3.2290  0.0107 -1.3476
 2240SOL     OW18355   3.530   4.120  16.677  0.2739 -0.4317  0.7684
 2240SOL    HW118356   3.616   4.119  16.719  0.3839  0.1503  0.5584
 2240SOL    HW218357   3.562   4.097  16.590 -0.3553 -0.7825  0.6311
 2241SOL     OW18358   4.010   4.636   4.122  0.1038 -0.3258  0.4647
 2241SOL    HW118359   3.986   4.695   4.050  2.4688  1.7118  1.3862
 2241SOL    HW218360   3.944   4.661   4.187 -0.2272  3.5990 -1.4097
 2242SOL     OW18361   2.223   0.111   0.845  0.7774  0.4813 -0.1729
 2242SOL    HW118362   2.268   0.168   0.783 -1.4917 -0.1832 -2.4372
 2242SOL    HW218363   2.286   0.116   0.916 -0.3081 -0.4473  0.8486
 2243SOL     OW18364   0.694   2.114   9.445  0.2666  0.1465 -0.3531
 2243SOL    HW118365   0.628   2.157   9.390  2.3644  1.2047 -2.0592
 2243SOL    HW218366   0.646   2.129   9.526 -0.3061 -0.0347 -0.6546
 2244SOL     OW18367   2.723   4.579   5.987 -0.0763 -0.1437  0.0520
 2244SOL    HW118368   2.770   4.634   6.049 -1.3513 -0.1236  1.0037
 2244SOL    HW218369   2.641   4.569   6.034  0.9467  1.2844  2.1165
 2245SOL     OW18370   1.206   0.733   3.346  0.3059 -0.6654 -0.2793
 2245SOL    HW118371   1.137   0.673   3.317  1.3855 -2.2950  0.5403
 2245SOL    HW218372   1.162   0.798   3.400 -1.6067 -2.3044  0.1506
 2246SOL     OW18373   3.137   3.237   9.636 -0.5278 -0.5634  0.5342
 2246SOL    HW118374   3.116   3.172   9.569  1.3715 -0.4079 -0.2023
 2246SOL    HW218375   3.101   3.319   9.601  0.6102 -0.5498 -0.5986
 2247SOL     OW18376   3.669   2.354   7.339 -0.1621 -0.2311 -0.1567
 2247SOL    HW118377   3.615   2.418   7.386  1.8619  0.3987  1.3152
 2247SOL    HW218378   3.742   2.358   7.401  1.0348 -1.3248 -1.5156
 2248SOL     OW18379   4.005   1.790   3.056 -0.2784  0.0966  0.2938
 2248SOL    HW118380   3.999   1.856   2.987  3.3894  1.2015  1.0507
 2248SOL    HW218381   4.094   1.759   3.042 -0.3621 -0.2186  0.4688
 2249SOL     OW18382   2.621   2.368   3.621  0.4534 -0.1813  0.0920
 2249SOL    HW118383   2.557   2.298   3.630  1.3475 -1.2185 -1.6988
 2249SOL    HW218384   2.625   2.395   3.712  3.3653 -0.7638  0.1576
 2250SOL     OW18385   1.551   0.446   3.558  0.3872 -0.0134  0.1219
 2250SOL    HW118386   1.464   0.406   3.556  0.7061 -0.7260  0.4344
 2250SOL    HW218387   1.542   0.483   3.646  0.4478 -0.3498  0.2705
 2251SOL     OW18388   0.037   0.461   2.656  0.0101 -0.0734  0.0604
 2251SOL    HW118389   0.049   0.537   2.713 -0.5932  2.3917 -3.1210
 2251SOL    HW218390   0.100   0.396   2.687 -0.0878 -0.7235 -1.1040
 2252SOL     OW18391   3.646   3.122   5.889  0.7221 -0.5163 -0.1059
 2252SOL    HW118392   3.591   3.055   5.930  1.4806 -0.5970  0.7760
 2252SOL    HW218393   3.664   3.180   5.963 -1.3208 -1.2728  1.0017
 2253SOL     OW18394   3.113   3.346   1.780  0.1348  0.3949 -0.1463
 2253SOL    HW118395   3.149   3.347   1.692  2.2025 -0.0505  0.6859
 2253SOL    HW218396   3.183   3.399   1.819 -0.3660 -0.1420  1.4933
 2254SOL     OW18397   1.114   0.190  11.031 -0.2608 -0.0615 -0.1927
 2254SOL    HW118398   1.153   0.231  10.954  0.2963 -0.5739 -0.1867
 2254SOL    HW218399   1.191   0.204  11.086 -0.0653 -0.9163 -0.2387
 2255SOL     OW18400   1.297   0.552   6.776  0.0041  0.2663  0.3846
 2255SOL    HW118401   1.389   0.573   6.792  0.0822 -1.9311  2.7730
 2255SOL    HW218402   1.281   0.621   6.711  0.7663 -0.5394 -0.6753
 2256SOL     OW18403   0.008   3.253  16.303 -0.1755  0.0271 -0.4688
 2256SOL    HW118404   0.087   3.307  16.294 -0.0829 -0.3178 -1.6019
 2256SOL    HW218405   4.686   3.315  16.259 -1.4599  0.1274  1.3786
 2257SOL     OW18406   3.503   1.477   6.593  0.3333 -0.6407  0.0486
 2257SOL    HW118407   3.544   1.550   6.545  0.9184 -0.1719  1.2518
 2257SOL    HW218408   3.434   1.451   6.533 -0.6918  2.6947 -0.2243
 2258SOL     OW18409   2.441   4.198   7.931  0.1961 -0.4498 -0.0908
 2258SOL    HW118410   2.524   4.182   7.977  1.6571  2.2201 -1.8330
 2258SOL    HW218411   2.455   4.143   7.854  1.9890  0.3431 -0.3233
 2259SOL     OW18412   2.435   2.470   8.336  0.2113 -0.8553  0.0548
 2259SOL    HW118413   2.510   2.530   8.338 -1.8815  1.8181 -0.8404
 2259SOL    HW218414   2.486   2.393   8.314  3.4261  1.3057 -0.0817
 2260SOL     OW18415   1.963   2.767   7.747 -0.1480  0.5601  0.2147
 2260SOL    HW118416   1.881   2.718   7.747  0.2230 -0.0549  0.6381
 2260SOL    HW218417   1.991   2.764   7.656 -0.9767 -0.1925 -0.0151
 2261SOL     OW18418   3.845   2.068   7.050  0.0870  0.1065 -0.1592
 2261SOL    HW118419   3.795   2.002   7.002  1.0998 -0.2218 -0.7625
 2261SOL    HW218420   3.770   2.081   7.108 -1.1357 -1.3099 -1.4061
 2262SOL     OW18421   0.548   0.688  15.277 -0.3758  1.0356  0.0258
 2262SOL    HW118422   0.530   0.674  15.184 -0.4688 -0.2797  0.2319
 2262SOL    HW218423   0.487   0.756  15.303 -2.8311 -0.2129 -2.5287
 2263SOL     OW18424   1.881   2.090   9.583 -0.2435  0.7778 -0.6287
 2263SOL    HW118425   1.936   2.168   9.580 -1.9470  1.9587 -1.9032
 2263SOL    HW218426   1.931   2.022   9.627 -2.8854 -0.7502  0.0104
 2264SOL     OW18427   2.110   2.688   3.142 -0.1987  0.4484 -0.0709
 2264SOL    HW118428   2.184   2.742   3.116 -0.5452  1.1047  0.3168
 2264SOL    HW218429   2.085   2.715   3.230 -0.4025 -1.7784  0.5508
 2265SOL     OW18430   3.589   0.240  11.549  0.0010 -0.1534 -0.1398
 2265SOL    HW118431   3.541   0.242  11.467  2.4213 -0.1926 -1.5819
 2265SOL    HW218432   3.655   0.173  11.529 -0.1070 -0.5240  0.7608
 2266SOL     OW18433   3.878   2.236  15.537  0.2000  0.2771 -0.5963
 2266SOL    HW118434   3.837   2.294  15.472 -1.2436 -0.0046  0.0525
 2266SOL    HW218435   3.913   2.180  15.468 -0.3658 -1.6026  0.6450
 2267SOL     OW18436   3.139   3.754   0.671 -0.5895 -0.1248  1.3355
 2267SOL    HW118437   3.098   3.670   0.651 -0.2435 -0.8757  3.7795
 2267SOL    HW218438   3.112   3.781   0.759 -0.9184  0.9353  0.9091
 2268SOL     OW18439   3.663   2.333  15.829 -0.1084  1.0655  0.0456
 2268SOL    HW118440   3.702   2.253  15.794 -2.4080  0.6751 -1.5927
 2268SOL    HW218441   3.570   2.316  15.820  0.2271 -0.3643 -0.7811
 2269SOL     OW18442   2.754   3.422   1.081  0.3677  0.0730 -0.3090
 2269SOL    HW118443   2.845   3.443   1.062  0.9329 -2.3301 -0.1512
 2269SOL    HW218444   2.774   3.349   1.139  1.8470  0.6278 -0.1233
 2270SOL     OW18445   0.978   2.878   3.961  0.3118 -0.2154 -0.4450
 2270SOL    HW118446   1.066   2.866   3.925  0.0625  1.8652 -1.7806
 2270SOL    HW218447   0.953   2.793   3.997 -1.2178  0.1605 -0.6175
 2271SOL     OW18448   2.391   0.764  16.900  0.4565 -0.3341 -0.0308
 2271SOL    HW118449   2.447   0.813  16.840  2.1794  0.0610  1.9403
 2271SOL    HW218450   2.328   0.831  16.926 -1.1579 -2.5372  1.7586
 2272SOL     OW18451   1.915   1.054   3.086  0.3737 -0.1389  0.3670
 2272SOL    HW118452   1.932   1.116   3.157 -1.6091 -1.3188  1.8776
 2272SOL    HW218453   1.951   1.098   3.009 -1.0742 -0.3851 -0.4452
 2273SOL     OW18454   3.197   3.000   2.221  0.0676 -0.3451  0.1579
 2273SOL    HW118455   3.255   3.038   2.155  1.0931 -1.4254  0.4489
 2273SOL    HW218456   3.159   3.075   2.267  1.9562 -0.3142  1.6647
 2274SOL     OW18457   2.141   3.207   3.645  0.0596 -0.1815 -0.0350
 2274SOL    HW118458   2.150   3.301   3.659  2.7091 -0.7370  2.0330
 2274SOL    HW218459   2.156   3.182   3.737 -1.8353 -0.9710  0.0614
 2275SOL     OW18460   2.744   3.274   4.344 -0.2754 -0.1047 -0.3372
 2275SOL    HW118461   2.721   3.197   4.291  1.3531  0.9411 -2.5975
 2275SOL    HW218462   2.791   3.321   4.275 -0.2520 -0.6195 -0.6777
 2276SOL     OW18463   2.182   4.176   6.219 -0.0166  0.1096 -0.1825
 2276SOL    HW118464   2.145   4.261   6.196 -1.1466  0.1276  1.6832
 2276SOL    HW218465   2.152   4.147   6.305  1.7640 -0.5066  0.2312
 2277SOL     OW18466   3.887   0.859   6.801  0.5442  0.4173  0.5719
 2277SOL    HW118467   3.833   0.795   6.756 -0.0133  0.3902  1.2907
 2277SOL    HW218468   3.930   0.907   6.730 -0.8839  2.2601  0.9449
 2278SOL     OW18469   0.799   4.356   6.231  1.1136 -0.1514  0.4714
 2278SOL    HW118470   0.818   4.396   6.316 -0.4336  1.5429  0.0242
 2278SOL    HW218471   0.865   4.388   6.169  1.5143 -2.8171 -0.4751
 2279SOL     OW18472   2.954   0.388  11.979 -0.1151  0.2829  0.5456
 2279SOL    HW118473   2.908   0.336  12.045  0.8279 -0.8358  0.3247
 2279SOL    HW218474   3.017   0.327  11.939  0.7626  1.4281  0.1706
 2280SOL     OW18475   2.545   0.760   1.344  0.7962 -0.0400 -0.1916
 2280SOL    HW118476   2.555   0.830   1.279  2.1235  0.9207  1.0604
 2280SOL    HW218477   2.482   0.796   1.406 -0.9633 -1.6285 -1.0518
 2281SOL     OW18478   4.068   0.988   8.711 -0.1325 -0.0960  0.5035
 2281SOL    HW118479   3.992   0.962   8.659 -0.9263  4.1131 -0.4540
 2281SOL    HW218480   4.095   0.898   8.732  0.9617 -0.1435 -1.0852
 2282SOL     OW18481   0.999   1.502   6.700 -0.2194 -0.6367 -0.3671
 2282SOL    HW118482   1.055   1.511   6.624 -0.6138  0.4122 -0.5356
 2282SOL    HW218483   1.039   1.575   6.747  0.0408 -0.2907 -1.1324
 2283SOL     OW18484   0.854   1.205   2.148  0.1740  0.2610  0.6759
 2283SOL    HW118485   0.864   1.233   2.239  0.6856  1.4774  0.2434
 2283SOL    HW218486   0.923   1.253   2.102 -0.7932  0.4994 -0.5204
 2284SOL     OW18487   3.033   3.501   6.502  0.3964 -0.1127  0.4792
 2284SOL    HW118488   3.063   3.420   6.544  0.4152 -0.3631 -0.0203
 2284SOL    HW218489   2.956   3.510   6.559  1.1740 -1.5606  1.7628
 2285SOL     OW18490   1.264   3.186  13.962 -0.3948  0.1867 -0.6102
 2285SOL    HW118491   1.337   3.236  13.927 -1.0549  0.5937 -1.3822
 2285SOL    HW218492   1.197   3.254  13.953 -1.0216 -0.2054  0.9463
 2286SOL     OW18493   2.043   0.740   5.906 -0.1936 -0.3995 -0.2258
 2286SOL    HW118494   2.098   0.789   5.967 -2.0529 -1.2330  2.1237
 2286SOL    HW218495   1.954   0.773   5.913 -0.6913 -2.0846  1.5694
 2287SOL     OW18496   1.300   2.600   6.031  0.3733 -0.0128 -0.0891
 2287SOL    HW118497   1.348   2.670   6.074 -0.2946  0.5358 -0.2429
 2287SOL    HW218498   1.241   2.563   6.098 -1.3899  0.1776 -1.5321
 2288SOL     OW18499   2.780   0.029   7.684  0.1322  0.3374 -0.0313
 2288SOL    HW118500   2.808   0.121   7.680  2.1483 -0.3123 -0.6708
 2288SOL    HW218501   2.685   0.036   7.680  0.2175  1.4125 -0.2747
 2289SOL     OW18502   2.184   0.868   7.256  0.3949  0.3365 -0.0704
 2289SOL    HW118503   2.228   0.933   7.311  0.7714 -0.7346  0.8982
 2289SOL    HW218504   2.163   0.921   7.180 -1.3206  1.0523  0.8935
 2290SOL     OW18505   3.361   2.332  11.406 -0.1764  0.2641 -1.0524
 2290SOL    HW118506   3.304   2.400  11.371 -0.1694  1.1236  0.5930
 2290SOL    HW218507   3.354   2.345  11.501 -0.6276 -0.1910 -1.0238
 2291SOL     OW18508   1.746   4.325   8.649  0.2564  0.0808 -0.4312
 2291SOL    HW118509   1.780   4.335   8.560 -0.0409  2.0434 -0.3099
 2291SOL    HW218510   1.786   4.399   8.694  0.5636 -0.8935  0.9088
 2292SOL     OW18511   2.274   1.712   5.988  0.2551  0.0883 -0.3487
 2292SOL    HW118512   2.349   1.715   5.928  0.3544 -0.0177 -0.2295
 2292SOL    HW218513   2.255   1.618   5.995  2.2610 -0.3423 -0.5186
 2293SOL     OW18514   2.840   0.465   7.533 -0.2581  0.2452 -0.1409
 2293SOL    HW118515   2.905   0.536   7.538  1.0138 -0.9658  0.7887
 2293SOL    HW218516   2.762   0.520   7.536 -1.7407 -1.8072 -1.8651
 2294SOL     OW18517   1.030   1.248   5.344 -0.1925  0.1142  0.8598
 2294SOL    HW118518   0.956   1.304   5.319  1.9916  2.7980  0.3441
 2294SOL    HW218519   0.979   1.177   5.383 -0.4348 -0.7284 -0.9702
 2295SOL     OW18520   3.860   2.536   2.998 -0.0940  0.5350  0.0524
 2295SOL    HW118521   3.927   2.513   2.933 -0.0540  1.6175 -0.2967
 2295SOL    HW218522   3.865   2.464   3.060  1.3556 -0.3111 -1.0400
 2296SOL     OW18523   1.380   2.153   8.486  0.4126  0.5138  0.5342
 2296SOL    HW118524   1.395   2.241   8.454  1.3218  0.5296  0.9879
 2296SOL    HW218525   1.286   2.137   8.478 -0.0933  1.8210  3.5568
 2297SOL     OW18526   3.478   3.407   3.603 -0.3787  0.4764 -0.0614
 2297SOL    HW118527   3.392   3.407   3.561 -0.7254  3.0927  0.6695
 2297SOL    HW218528   3.529   3.359   3.538 -0.8851 -3.0242  2.1175
 2298SOL     OW18529   1.352   3.115   6.773  0.5139 -0.0843 -0.2342
 2298SOL    HW118530   1.333   3.197   6.729 -2.8515 -0.8055 -0.1028
 2298SOL    HW218531   1.352   3.153   6.861  0.0783  0.7270 -0.5824
 2299SOL     OW18532   2.764   0.495   0.456 -0.5727  0.0382 -0.5269
 2299SOL    HW118533   2.781   0.467   0.366  1.7267 -2.5836  0.7367
 2299SOL    HW218534   2.750   0.411   0.501  0.1623  0.5457  0.6164
 2300SOL     OW18535   4.334   2.561   2.078  0.1791 -0.6520  0.4814
 2300SOL    HW118536   4.363   2.625   2.013 -0.6940  0.0378  0.7631
 2300SOL    HW218537   4.400   2.578   2.146  0.9317 -2.1077  0.1219
 2301SOL     OW18538   3.246   0.549   9.467  0.2846  0.4715  0.4386
 2301SOL    HW118539   3.298   0.525   9.543 -0.5772  0.3371  0.9893
 2301SOL    HW218540   3.158   0.532   9.501  0.4899  0.6989  1.0964
 2302SOL     OW18541   0.402   1.371   3.233  0.4672 -0.0249  0.2704
 2302SOL    HW118542   0.410   1.410   3.320  3.0049  3.0481 -1.3222
 2302SOL    HW218543   0.324   1.415   3.199  0.5229 -1.5119 -1.8162
 2303SOL     OW18544   0.743   1.748   3.950  0.0168  0.3997 -0.0183
 2303SOL    HW118545   0.780   1.806   3.883 -0.2664 -0.7026 -1.1228
 2303SOL    HW218546   0.758   1.662   3.910 -1.7738 -0.0654  0.3006
 2304SOL     OW18547   4.256   1.853   7.480  0.3818 -0.2103  0.2003
 2304SOL    HW118548   4.180   1.888   7.526 -0.5875 -1.4010 -0.4985
 2304SOL    HW218549   4.231   1.820   7.393  0.7846  1.0948 -0.4170
 2305SOL     OW18550   3.111   2.862  12.375 -0.5737 -0.3336 -0.0040
 2305SOL    HW118551   3.119   2.792  12.310 -1.0186  0.9721 -1.4956
 2305SOL    HW218552   3.027   2.843  12.416 -0.9708 -0.9501 -1.0876
 2306SOL     OW18553   2.062   3.339   2.695 -0.3260 -0.2492  0.4055
 2306SOL    HW118554   2.004   3.311   2.766 -0.0302 -1.7681  0.0483
 2306SOL    HW218555   2.134   3.381   2.742 -1.1037  0.0653  1.3109
 2307SOL     OW18556   0.241   2.478   9.127 -0.1720  0.1233 -0.2258
 2307SOL    HW118557   0.309   2.506   9.189  0.3812  1.0725 -1.2513
 2307SOL    HW218558   0.164   2.501   9.178  1.1052  1.6139  1.0527
 2308SOL     OW18559   2.104   2.034   2.048 -0.6010  0.4013 -0.4637
 2308SOL    HW118560   2.125   2.012   1.957  0.7988  1.4202 -0.3969
 2308SOL    HW218561   2.131   1.948   2.081  0.7592 -0.0231 -2.6649
 2309SOL     OW18562   2.033   3.728   5.546 -0.3588 -0.0168  0.3287
 2309SOL    HW118563   2.127   3.711   5.545 -0.7899 -2.4140  0.3164
 2309SOL    HW218564   2.006   3.644   5.583 -0.9131  0.2577  0.5582
 2310SOL     OW18565   1.364   4.447   3.807 -0.1127  0.3999  0.0017
 2310SOL    HW118566   1.343   4.535   3.776  0.4634  0.2675 -0.7564
 2310SOL    HW218567   1.454   4.430   3.781  0.2448  0.2918  1.3205
 2311SOL     OW18568   0.685   3.770   7.479  0.0077 -0.6454 -1.1407
 2311SOL    HW118569   0.708   3.678   7.472  1.3903 -0.5277  2.2812
 2311SOL    HW218570   0.601   3.764   7.524  0.2627 -1.5957 -0.7889
 2312SOL     OW18571   1.201   0.406   4.339 -0.3886  0.0928 -0.2948
 2312SOL    HW118572   1.154   0.324   4.356  0.7788 -0.0807  2.1234
 2312SOL    HW218573   1.283   0.393   4.387 -0.5504  1.5499  0.3742
 2313SOL     OW18574   3.515   0.348   7.738  0.0653 -0.2573 -0.9370
 2313SOL    HW118575   3.549   0.424   7.691  0.4483  1.1414  1.5787
 2313SOL    HW218576   3.560   0.366   7.821  0.9937 -0.2266 -1.4447
 2314SOL     OW18577   2.137   1.308   9.030  0.5136  0.3779 -0.8016
 2314SOL    HW118578   2.215   1.363   9.042  2.0082 -1.5096 -1.8502
 2314SOL    HW218579   2.133   1.284   9.122  0.6284  1.1889 -0.5837
 2315SOL     OW18580   1.768   1.578   7.431  0.0091  0.5861  0.3007
 2315SOL    HW118581   1.736   1.597   7.519 -0.2529  0.3088  0.2632
 2315SOL    HW218582   1.698   1.617   7.378 -1.0904 -0.6400  0.8584
 2316SOL     OW18583   3.895   3.134   8.516 -0.0004 -0.7677  0.4865
 2316SOL    HW118584   3.954   3.149   8.590 -0.3470  1.6532  0.2629
 2316SOL    HW218585   3.937   3.060   8.473  1.0316  0.6825 -0.9854
 2317SOL     OW18586   0.120   4.119   6.754 -0.5672  0.5308 -0.1928
 2317SOL    HW118587   0.102   4.206   6.718  2.3044  1.9965  1.8712
 2317SOL    HW218588   0.191   4.094   6.694 -1.7575 -1.6352 -0.6899
 2318SOL     OW18589   3.376   2.526   6.779 -0.1254  0.3105 -0.3603
 2318SOL    HW118590   3.336   2.534   6.866 -0.6938  3.0615 -0.8464
 2318SOL    HW218591   3.417   2.610   6.757 -0.1139  0.3932 -0.0130
 2319SOL     OW18592   2.868   2.759   2.828 -0.1123 -0.2531 -0.3082
 2319SOL    HW118593   2.775   2.737   2.828 -0.3167  0.6465  1.3542
 2319SOL    HW218594   2.905   2.677   2.794  1.8406  1.2782 -1.8503
 2320SOL     OW18595   3.359   2.158   3.415 -0.7772  0.4431 -0.0031
 2320SOL    HW118596   3.384   2.250   3.419  0.8732  0.0017  0.1719
 2320SOL    HW218597   3.283   2.166   3.357 -1.6321 -1.1969  0.8722
 2321SOL     OW18598   4.241   3.309   6.444 -1.1036  0.2573 -0.1266
 2321SOL    HW118599   4.224   3.347   6.530 -0.1967 -0.2761  0.2948
 2321SOL    HW218600   4.271   3.387   6.398 -1.2845 -0.7058 -1.8809
 2322SOL     OW18601   4.246   1.920   7.955  0.1695 -0.2495  0.1369
 2322SOL    HW118602   4.289   1.834   7.950 -0.8625 -0.8052  0.7747
 2322SOL    HW218603   4.207   1.915   8.042 -0.8468 -1.5983 -0.3955
 2323SOL     OW18604   4.280   1.242   7.186  0.0669 -0.0099  0.3087
 2323SOL    HW118605   4.341   1.284   7.247  0.0925  0.6070 -0.1449
 2323SOL    HW218606   4.313   1.292   7.111  0.3152 -1.5790 -0.6215
 2324SOL     OW18607   4.689   1.815   0.624  0.3495 -0.0564 -0.1209
 2324SOL    HW118608   4.702   1.859   0.708 -0.7960 -0.5449  0.3108
 2324SOL    HW218609   0.034   1.763   0.614  1.7568  1.9212  0.9369
 2325SOL     OW18610   1.209   1.104   7.053  0.4184  0.2928  0.8393
 2325SOL    HW118611   1.214   1.156   7.132 -1.3516 -1.2771  1.9870
 2325SOL    HW218612   1.203   1.018   7.094 -2.6755  0.6194  1.0551
 2326SOL     OW18613   4.106   1.532   2.432 -0.0672  0.8719 -0.1138
 2326SOL    HW118614   4.097   1.494   2.345 -2.1651  2.1557 -0.4552
 2326SOL    HW218615   4.193   1.495   2.450  0.0405  1.4083  0.4742
 2327SOL     OW18616   4.334   2.581  15.448  0.2829 -0.3490 -0.1042
 2327SOL    HW118617   4.425   2.581  15.420 -0.4281  1.9586 -2.4917
 2327SOL    HW218618   4.306   2.494  15.419  0.6335 -0.6054  0.3330
 2328SOL     OW18619   4.619   2.006  13.092  0.6265  0.2194  0.3812
 2328SOL    HW118620   4.528   2.032  13.105  0.8929  1.8733 -1.0171
 2328SOL    HW218621   4.641   1.953  13.169 -0.3505 -0.7136  0.0140
 2329SOL     OW18622   3.248   0.948   1.934  0.3186 -0.3572 -0.0725
 2329SOL    HW118623   3.324   0.926   1.880  1.0269  0.0544  0.7442
 2329SOL    HW218624   3.205   1.010   1.875  1.6156 -1.9612 -2.6986
 2330SOL     OW18625   4.136   0.426   6.985 -0.4065  0.5593  0.4460
 2330SOL    HW118626   4.150   0.484   7.060  1.4233 -0.4901  0.9064
 2330SOL    HW218627   4.046   0.394   6.997  0.2877 -0.5888  2.6488
 2331SOL     OW18628   3.518   4.678   1.303 -0.0274  0.2409  0.7702
 2331SOL    HW118629   3.455   4.683   1.376  0.9488 -1.8916  1.7569
 2331SOL    HW218630   3.537   0.036   1.296 -0.3609  0.0054 -3.2172
 2332SOL     OW18631   2.898   3.577   7.009  0.1528 -0.0126 -0.3666
 2332SOL    HW118632   2.803   3.569   7.009  0.1112  0.4590  0.1735
 2332SOL    HW218633   2.907   3.662   7.053  0.2054  0.1171 -0.6290
 2333SOL     OW18634   1.866   3.572   1.676 -0.0919 -0.1636 -0.1323
 2333SOL    HW118635   1.907   3.561   1.591  3.7182  0.8381  1.5501
 2333SOL    HW218636   1.904   3.654   1.708 -1.8587  0.6744 -0.2153
 2334SOL     OW18637   2.626   1.823   4.813 -0.9213 -0.4264 -0.3298
 2334SOL    HW118638   2.677   1.859   4.885 -1.0300  0.8040 -0.8581
 2334SOL    HW218639   2.543   1.854   4.850 -0.1588  1.7334 -0.4457
 2335SOL     OW18640   3.591   1.647   1.830 -0.6423  0.3791 -0.5217
 2335SOL    HW118641   3.502   1.649   1.867 -0.2156 -0.5245  0.5343
 2335SOL    HW218642   3.598   1.736   1.795  0.4932  0.2406 -0.6284
 2336SOL     OW18643   2.466   0.236  14.910 -0.6232 -0.0552  0.1218
 2336SOL    HW118644   2.529   0.302  14.881 -0.2064 -0.6055 -0.2152
 2336SOL    HW218645   2.439   0.194  14.829  2.9124 -1.8906 -0.0886
 2337SOL     OW18646   4.225   1.758   5.739  0.1553 -0.3407  0.0423
 2337SOL    HW118647   4.224   1.750   5.835  1.5236  2.1705  0.2463
 2337SOL    HW218648   4.137   1.725   5.719  0.7840 -1.7514 -0.4087
 2338SOL     OW18649   4.246   1.875   3.574 -0.4950 -0.1468  0.4896
 2338SOL    HW118650   4.172   1.841   3.624  0.0165  2.2149  2.8634
 2338SOL    HW218651   4.296   1.795   3.560  0.8550  0.4342  1.9922
 2339SOL     OW18652   2.335   1.592   7.285  0.0385 -0.1340 -0.5853
 2339SOL    HW118653   2.329   1.534   7.360  0.0187  1.1832  0.4240
 2339SOL    HW218654   2.346   1.673   7.334 -1.6951 -0.8509  0.9844
 2340SOL     OW18655   3.475   3.007   7.890 -0.5981 -0.2103  0.5289
 2340SOL    HW118656   3.526   2.927   7.878  1.7160  1.4500 -0.5995
 2340SOL    HW218657   3.461   3.010   7.985  0.6513  1.3393  0.6667
 2341SOL     OW18658   0.116   0.244  16.195  0.3313  0.4988  0.4950
 2341SOL    HW118659   0.138   0.306  16.125 -1.8140 -0.1548 -0.7632
 2341SOL    HW218660   0.205   0.233  16.229  0.8977  1.4293 -0.6369
 2342SOL     OW18661   1.395   4.081   5.963  0.2347  0.4309  0.2336
 2342SOL    HW118662   1.327   4.069   5.895  0.4264 -2.5964  0.5496
 2342SOL    HW218663   1.415   4.173   5.948 -1.4491  1.0247  1.5697
 2343SOL     OW18664   1.932   0.617   1.607  0.0149 -0.0826 -0.3862
 2343SOL    HW118665   1.930   0.563   1.685 -0.0953 -1.5790 -1.4132
 2343SOL    HW218666   1.874   0.691   1.624  3.3020  2.4819 -0.5001
 2344SOL     OW18667   1.682   4.267   2.162  0.3551 -0.3606 -0.4858
 2344SOL    HW118668   1.629   4.206   2.111  1.3449 -1.1988 -0.5057
 2344SOL    HW218669   1.717   4.321   2.091 -1.2399  0.4176 -0.6806
 2345SOL     OW18670   1.072   0.048   3.298  0.3925 -0.4841  0.4843
 2345SOL    HW118671   1.059   0.095   3.380  2.2324  0.2251  0.3747
 2345SOL    HW218672   1.002   0.081   3.241 -0.7148 -1.8057  1.1093
 2346SOL     OW18673   4.340   0.586   7.830  0.1261 -0.2721 -0.4071
 2346SOL    HW118674   4.325   0.664   7.777 -0.1899 -0.0228  0.0464
 2346SOL    HW218675   4.432   0.566   7.810  0.1550  1.9006 -2.4505
 2347SOL     OW18676   1.167   2.043   8.747 -0.0252 -0.7956 -0.3982
 2347SOL    HW118677   1.126   2.026   8.662  1.0428 -0.8739 -0.8992
 2347SOL    HW218678   1.143   1.961   8.788  0.0578 -0.7172 -0.1931
 2348SOL     OW18679   3.295   1.297  13.161 -0.1149 -0.4330  0.3343
 2348SOL    HW118680   3.360   1.248  13.212  1.0992  1.7364  0.9054
 2348SOL    HW218681   3.218   1.271  13.212  1.0468 -0.4060  2.1274
 2349SOL     OW18682   0.524   1.544   9.098 -0.4543  0.2013  0.1199
 2349SOL    HW118683   0.464   1.518   9.169 -2.2418  0.2839 -1.3455
 2349SOL    HW218684   0.590   1.598   9.141  0.0140  0.6196 -1.1573
 2350SOL     OW18685   0.720   0.942   0.043  0.2511 -0.5490 -0.2210
 2350SOL    HW118686   0.635   0.983   0.059  1.1290  0.6958  1.2529
 2350SOL    HW218687   0.708   0.912  17.695  0.3596  1.5186 -0.9216
 2351SOL     OW18688   2.110   2.701   5.584 -0.1185 -0.5555  0.0449
 2351SOL    HW118689   2.163   2.662   5.652  2.3028 -0.1285 -1.6073
 2351SOL    HW218690   2.170   2.742   5.522 -0.4468  0.0981  0.1566
 2352SOL     OW18691   3.138   1.728   8.725 -0.4255 -0.0935 -0.5336
 2352SOL    HW118692   3.118   1.800   8.665 -0.3548 -0.7884 -1.3900
 2352SOL    HW218693   3.090   1.657   8.683 -1.3997 -0.8667  1.8841
 2353SOL     OW18694   1.904   1.060   8.844 -0.1672 -0.1061  0.9573
 2353SOL    HW118695   1.920   1.027   8.756 -2.2407  0.6364  0.2990
 2353SOL    HW218696   1.809   1.052   8.851 -0.0720  0.0413  2.3302
 2354SOL     OW18697   0.986   0.748  14.143 -0.0586  0.3707  0.4412
 2354SOL    HW118698   0.935   0.715  14.217  0.1319 -0.2348  0.2954
 2354SOL    HW218699   0.908   0.782  14.098  1.0241 -0.2123 -1.8506
 2355SOL     OW18700   3.615   2.123   7.189  0.2725 -0.0918  0.0578
 2355SOL    HW118701   3.523   2.114   7.162 -0.1268  0.3094  1.3029
 2355SOL    HW218702   3.618   2.203   7.242 -3.5180  1.4953 -2.1566
 2356SOL     OW18703   0.907   3.529  12.310  0.3100  0.6186  0.7821
 2356SOL    HW118704   0.853   3.599  12.273 -0.2461 -0.5746 -0.6606
 2356SOL    HW218705   0.851   3.480  12.369 -1.8134  0.0394 -1.6899
 2357SOL     OW18706   4.666   1.647  17.319  0.0008  0.4181  0.3841
 2357SOL    HW118707   4.709   1.601  17.246 -0.9925  0.0938  0.0038
 2357SOL    HW218708   4.654   1.577  17.383  1.9493  1.2304  1.6139
 2358SOL     OW18709   3.738   0.842   1.873 -0.0946  0.4477 -0.7688
 2358SOL    HW118710   3.805   0.903   1.843  2.2020 -0.7276  1.9936
 2358SOL    HW218711   3.798   0.776   1.907  0.3078  2.1726  1.8333
 2359SOL     OW18712   1.035   1.290   7.506 -0.6659 -0.2529  0.0506
 2359SOL    HW118713   1.030   1.316   7.598  0.6767  2.3248 -0.5963
 2359SOL    HW218714   1.012   1.371   7.461 -1.1773 -0.8176 -0.6967
 2360SOL     OW18715   3.484   4.541   4.828 -0.2394  0.3509  0.2760
 2360SOL    HW118716   3.521   4.583   4.906  0.4279 -0.3941  0.3658
 2360SOL    HW218717   3.400   4.522   4.869  0.0170 -2.5912 -0.5936
 2361SOL     OW18718   1.858   2.385   9.613  0.2641 -0.2022 -0.2667
 2361SOL    HW118719   1.892   2.431   9.537 -0.4252  1.5789  0.5064
 2361SOL    HW218720   1.917   2.395   9.688 -2.1716 -1.2745  1.7649
 2362SOL     OW18721   1.053   3.377   6.289  0.1441 -0.6858  0.3042
 2362SOL    HW118722   1.109   3.316   6.240  1.9735 -0.2249  1.8236
 2362SOL    HW218723   1.001   3.317   6.342 -0.6750 -0.6153 -0.4229
 2363SOL     OW18724   4.599   2.539   4.279  0.3104 -0.1872  0.3548
 2363SOL    HW118725   4.620   2.594   4.204 -1.8092  1.2185  0.7900
 2363SOL    HW218726   4.622   2.453   4.245  0.3082 -0.3889  0.8561
 2364SOL     OW18727   1.371   4.388   5.043  0.0434  0.6069  0.0603
 2364SOL    HW118728   1.295   4.371   4.988 -1.0004 -0.3488  1.8094
 2364SOL    HW218729   1.434   4.341   4.988  0.7707 -0.6941  2.0027
 2365SOL     OW18730   0.635   4.378   2.528 -1.1177  0.1652 -0.6239
 2365SOL    HW118731   0.610   4.462   2.567 -0.3889  0.2166 -0.2584
 2365SOL    HW218732   0.707   4.402   2.469 -1.3557 -0.2087 -1.0645
 2366SOL     OW18733   2.443   1.928   1.177  0.0162  0.5760 -0.3869
 2366SOL    HW118734   2.395   1.849   1.199  1.7693 -0.4968 -0.3880
 2366SOL    HW218735   2.424   1.926   1.083 -3.0751 -2.0553  0.2865
 2367SOL     OW18736   1.215   2.791   4.548  0.3870 -0.4276 -0.4266
 2367SOL    HW118737   1.233   2.698   4.533  1.6978 -0.2250 -0.0980
 2367SOL    HW218738   1.263   2.831   4.475  0.9094  0.2970  0.3160
 2368SOL     OW18739   3.529   2.839  11.918 -1.1301  0.2565  0.8468
 2368SOL    HW118740   3.536   2.933  11.931  1.7118 -0.0625  1.6475
 2368SOL    HW218741   3.619   2.808  11.906 -1.0589  0.5632  0.6074
 2369SOL     OW18742   2.698   0.441   9.166 -0.0506 -0.0450 -0.1936
 2369SOL    HW118743   2.681   0.372   9.231 -0.9606 -0.1545 -0.5450
 2369SOL    HW218744   2.608   0.461   9.140  0.6067  1.6211 -1.1693
 2370SOL     OW18745   1.156   2.231   2.676 -0.2083 -0.2968 -0.0269
 2370SOL    HW118746   1.213   2.252   2.603  0.3428  1.0857  0.7975
 2370SOL    HW218747   1.142   2.137   2.663  1.3909 -0.5980  0.4957
 2371SOL     OW18748   3.733   0.324   5.373  0.2138 -0.0061 -0.0474
 2371SOL    HW118749   3.801   0.262   5.399  0.2067 -0.4991 -1.2185
 2371SOL    HW218750   3.761   0.390   5.437 -0.2863  0.0212  0.1418
 2372SOL     OW18751   3.834   2.726   8.062  0.2775 -0.2972 -0.3617
 2372SOL    HW118752   3.839   2.821   8.055  0.6723 -0.3745 -1.1640
 2372SOL    HW218753   3.898   2.692   7.999 -0.9315 -1.2113 -1.0961
 2373SOL     OW18754   0.009   1.432   2.003  0.0472 -0.3489 -0.3395
 2373SOL    HW118755   0.032   1.412   2.094  1.7704 -1.4981 -1.0292
 2373SOL    HW218756   0.068   1.371   1.958 -0.8291 -2.1184  0.8891
 2374SOL     OW18757   0.488   4.304   4.501 -0.2846  0.2889 -0.2792
 2374SOL    HW118758   0.408   4.328   4.453 -0.4032  2.9878  1.2888
 2374SOL    HW218759   0.458   4.266   4.583 -0.8621  2.7977  0.6795
 2375SOL     OW18760   2.797   1.362   9.305  0.2736  0.3369 -0.3416
 2375SOL    HW118761   2.854   1.286   9.317  0.0400  0.0861 -0.8429
 2375SOL    HW218762   2.709   1.331   9.283  0.6386 -2.6292  2.3650
 2376SOL     OW18763   3.385   2.640   7.807 -0.5099 -0.2001 -0.5313
 2376SOL    HW118764   3.425   2.558   7.778 -1.3471 -0.3978 -1.1578
 2376SOL    HW218765   3.456   2.697   7.779 -1.9577  3.2268  2.8362
 2377SOL     OW18766   3.198   2.906   8.514  0.0926  0.4178  0.2794
 2377SOL    HW118767   3.127   2.913   8.451  0.4533 -1.3298 -0.3084
 2377SOL    HW218768   3.169   2.836   8.572 -1.6482 -0.9007 -2.2414
 2378SOL     OW18769   0.765   0.697   6.289  0.2724  0.0829 -0.4223
 2378SOL    HW118770   0.837   0.746   6.328  0.1614 -0.7423  0.7997
 2378SOL    HW218771   0.694   0.735   6.342 -1.3053 -1.4401 -1.4426
 2379SOL     OW18772   2.447   0.365   0.952 -0.8419  0.1793 -0.5605
 2379SOL    HW118773   2.443   0.397   0.862 -0.1168 -0.7973 -0.9432
 2379SOL    HW218774   2.448   0.451   0.993  0.4038 -0.8754  1.6709
 2380SOL     OW18775   2.259   3.053   4.594  0.2929 -0.5882  0.4874
 2380SOL    HW118776   2.191   2.993   4.625  0.2942 -1.2398 -0.7643
 2380SOL    HW218777   2.212   3.135   4.608  0.6823 -0.1350 -0.8132
 2381SOL     OW18778   1.761   3.425  14.716 -0.1287  0.1466 -0.5414
 2381SOL    HW118779   1.836   3.385  14.670  0.3084 -1.1097  1.2649
 2381SOL    HW218780   1.736   3.354  14.775 -1.9182  2.6654  1.6669
 2382SOL     OW18781   2.232   2.481  16.131  0.1220 -0.1867 -0.1624
 2382SOL    HW118782   2.161   2.487  16.067  0.9002  3.4453 -0.6686
 2382SOL    HW218783   2.262   2.572  16.136 -0.1242 -0.0467 -1.2137
 2383SOL     OW18784   3.142   3.865   6.340 -0.3137 -0.2371 -0.4898
 2383SOL    HW118785   3.238   3.867   6.347 -0.3884 -0.3850  0.6591
 2383SOL    HW218786   3.135   3.795   6.406  1.5644 -0.5912 -0.6424
 2384SOL     OW18787   1.148   4.092   9.184  0.1248 -0.4044 -0.4074
 2384SOL    HW118788   1.057   4.077   9.159 -0.6007  1.4208  1.0895
 2384SOL    HW218789   1.145   4.075   9.278 -2.7965 -0.3142 -0.4825
 2385SOL     OW18790   4.167   3.756  16.680 -0.3434  0.1888  0.2254
 2385SOL    HW118791   4.160   3.724  16.770 -0.2343 -1.0525 -0.2056
 2385SOL    HW218792   4.262   3.761  16.682 -0.3903  1.1209  0.1520
 2386SOL     OW18793   0.044   1.944   7.469 -0.2003 -0.6144  0.4094
 2386SOL    HW118794   0.087   1.943   7.384 -1.6401  0.7142 -0.3448
 2386SOL    HW218795   0.060   1.854   7.497 -0.8724  0.1415  3.2839
 2387SOL     OW18796   4.050   4.559   7.527  0.5932 -0.1021 -0.0940
 2387SOL    HW118797   4.004   4.631   7.571 -0.1703 -0.2765 -0.6130
 2387SOL    HW218798   4.101   4.527   7.602 -2.0337  2.8813  3.0041
 2388SOL     OW18799   3.196   2.485   4.223  0.0274 -0.2999 -0.4973
 2388SOL    HW118800   3.163   2.572   4.201 -0.1952 -0.9317 -2.6928
 2388SOL    HW218801   3.170   2.476   4.314 -0.8513 -0.4521 -0.7588
 2389SOL     OW18802   4.393   3.557   4.922  0.0979 -0.0264 -0.5106
 2389SOL    HW118803   4.403   3.519   5.009  0.8622 -0.0212 -0.5939
 2389SOL    HW218804   4.355   3.486   4.870 -1.8668  0.2414  0.5699
 2390SOL     OW18805   0.880   2.613   8.316  0.0813  0.0958  0.1506
 2390SOL    HW118806   0.896   2.583   8.227 -1.4034  2.7524 -1.0001
 2390SOL    HW218807   0.839   2.538   8.359 -0.7556 -0.6844 -2.0662
 2391SOL     OW18808   3.416   1.234   3.644  0.6767  0.3271  0.3880
 2391SOL    HW118809   3.365   1.274   3.574 -0.8224 -1.8336  0.2421
 2391SOL    HW218810   3.503   1.234   3.605 -0.2474 -2.1054 -1.6603
 2392SOL     OW18811   1.169   1.378   8.592  0.4580 -0.2364 -0.4291
 2392SOL    HW118812   1.234   1.411   8.530  0.5394 -2.2648 -1.4221
 2392SOL    HW218813   1.195   1.427   8.669 -2.8365 -0.2706  0.7375
 2393SOL     OW18814   2.153   0.211   0.287 -0.0621  0.3612 -0.5761
 2393SOL    HW118815   2.161   0.297   0.246  0.4435  0.6059  0.0482
 2393SOL    HW218816   2.242   0.178   0.282  0.8722  2.8020  0.1561
 2394SOL     OW18817   3.946   3.510   5.478 -0.0908  0.0446 -0.0302
 2394SOL    HW118818   3.969   3.556   5.397 -1.3776 -3.1554 -2.2004
 2394SOL    HW218819   3.988   3.565   5.544  0.5005  1.2053 -1.3852
 2395SOL     OW18820   3.213   2.091   4.833 -0.0690 -0.1992  0.1046
 2395SOL    HW118821   3.193   2.164   4.775 -0.4486 -1.4175 -1.3321
 2395SOL    HW218822   3.276   2.135   4.889 -0.4251 -0.3140  0.5903
 2396SOL     OW18823   0.512   0.465   3.813 -0.0645 -0.2970 -0.1573
 2396SOL    HW118824   0.551   0.469   3.901 -0.4077 -1.2897  0.0380
 2396SOL    HW218825   0.421   0.490   3.829 -0.2987 -0.3650 -1.3651
 2397SOL     OW18826   3.681   3.228   0.168  0.3750 -0.0594  0.4006
 2397SOL    HW118827   3.757   3.283   0.151  0.1174 -0.5116 -2.3129
 2397SOL    HW218828   3.657   3.219   0.075  0.0502 -0.3847  0.5130
 2398SOL     OW18829   4.567   1.213  12.654  0.1952  0.7206 -0.0469
 2398SOL    HW118830   4.493   1.239  12.710  2.1086  2.6448  1.5515
 2398SOL    HW218831   4.578   1.121  12.678  0.2881  1.2201  1.8473
 2399SOL     OW18832   4.437   2.276  11.621 -0.0765 -0.5122  0.0140
 2399SOL    HW118833   4.350   2.308  11.645  0.5654 -0.6191  2.4337
 2399SOL    HW218834   4.440   2.190  11.663  0.4837 -0.3335  0.3396
 2400SOL     OW18835   3.863   2.799  13.127 -0.2869 -0.6666  0.3817
 2400SOL    HW118836   3.869   2.719  13.179 -0.4525  0.4293  2.1015
 2400SOL    HW218837   3.891   2.772  13.040 -2.8335 -0.8827 -0.3692
 2401SOL     OW18838   2.016   0.912  11.415 -0.2099 -0.0202 -0.0222
 2401SOL    HW118839   2.010   0.949  11.503 -1.0338 -0.7909  0.2438
 2401SOL    HW218840   1.948   0.844  11.416 -0.2772  0.0370 -1.1878
 2402SOL     OW18841   0.419   1.896  14.588 -0.1876  0.4006  0.2168
 2402SOL    HW118842   0.431   1.991  14.581  1.3593  0.2792  1.4339
 2402SOL    HW218843   0.495   1.882  14.532 -0.4529  4.2917 -1.1194
 2403SOL     OW18844   0.083   3.935   0.392 -0.0155  0.2152 -0.2548
 2403SOL    HW118845   0.034   3.881   0.453 -0.3454 -0.4307 -1.0985
 2403SOL    HW218846   0.167   3.895   0.411 -0.6383 -0.1539  1.6299
 2404SOL     OW18847   2.421   4.440   5.270 -0.6407  0.3296  0.1229
 2404SOL    HW118848   2.443   4.532   5.254  1.1342 -0.0120  0.6702
 2404SOL    HW218849   2.340   4.462   5.317 -0.6431 -2.1833  1.2803
 2405SOL     OW18850   2.573   3.250   8.239  0.5941 -0.3954  0.3359
 2405SOL    HW118851   2.572   3.298   8.156 -0.8809 -0.9063  0.0736
 2405SOL    HW218852   2.571   3.330   8.291 -0.1121 -0.1365 -0.0869
 2406SOL     OW18853   3.129   2.439   1.221 -0.0557 -0.4709 -0.3788
 2406SOL    HW118854   3.172   2.390   1.291 -1.6666 -0.9202  0.3014
 2406SOL    HW218855   3.186   2.515   1.234  1.7487 -2.3440  2.5437
 2407SOL     OW18856   1.132   4.172   8.747 -0.2145  0.0235 -0.1479
 2407SOL    HW118857   1.164   4.251   8.702 -0.4565  0.5013  0.5308
 2407SOL    HW218858   1.180   4.097   8.710  0.6846  0.6498 -0.2680
 2408SOL     OW18859   3.988   1.143   3.126  0.2998 -0.4561 -0.0131
 2408SOL    HW118860   3.966   1.207   3.194 -1.2813 -1.5065  0.4777
 2408SOL    HW218861   3.994   1.207   3.055  1.1644 -0.1173  0.3673
 2409SOL     OW18862   3.502   4.149   3.372  0.6243  0.9813  0.3323
 2409SOL    HW118863   3.412   4.132   3.345  0.0384  2.2734  1.4879
 2409SOL    HW218864   3.532   4.074   3.425  0.4418  1.0755  0.5711
 2410SOL     OW18865   4.516   3.332   5.420  0.2531 -0.2483 -0.2732
 2410SOL    HW118866   4.427   3.360   5.443  1.2725 -0.2049  3.6058
 2410SOL    HW218867   4.499   3.262   5.357 -1.8332  0.6096 -0.6815
 2411SOL     OW18868   3.267   3.692   0.273 -0.0098 -0.0786  0.3108
 2411SOL    HW118869   3.276   3.786   0.292  1.0215  0.1313 -1.2535
 2411SOL    HW218870   3.171   3.691   0.266  0.0284  1.8497 -0.6841
 2412SOL     OW18871   1.743   2.277   4.214  0.1198  0.2114 -0.0707
 2412SOL    HW118872   1.761   2.186   4.239  3.6906  0.9691  0.1157
 2412SOL    HW218873   1.691   2.301   4.290 -1.0309 -2.2621 -0.0712
 2413SOL     OW18874   3.407   4.334  14.904  0.5474  0.4224  0.3951
 2413SOL    HW118875   3.375   4.245  14.916  1.2121  0.1065 -0.1696
 2413SOL    HW218876   3.359   4.381  14.972  2.7052  1.3012  1.3004
 2414SOL     OW18877   0.868   3.060   2.647  0.2298 -0.3008  0.0517
 2414SOL    HW118878   0.899   2.993   2.585  0.8350  0.1211 -0.1009
 2414SOL    HW218879   0.898   3.138   2.601  3.7879 -0.7194  1.7134
 2415SOL     OW18880   2.019   3.194   4.904  0.5512 -0.1649  0.2305
 2415SOL    HW118881   1.959   3.142   4.957 -0.0627  1.2663  0.9462
 2415SOL    HW218882   1.965   3.218   4.828 -1.3232 -0.2359  1.5621
 2416SOL     OW18883   2.964   2.197   9.278  0.0944  0.2194  0.0911
 2416SOL    HW118884   3.031   2.178   9.213  1.0033 -2.8812  1.9482
 2416SOL    HW218885   2.934   2.281   9.242 -0.7862 -0.3553 -0.5215
 2417SOL     OW18886   4.407   0.848  16.469 -0.3344 -0.3511 -0.2230
 2417SOL    HW118887   4.357   0.766  16.472 -1.3858  0.2339 -1.6556
 2417SOL    HW218888   4.369   0.891  16.546  1.1127  0.5380 -0.0132
 2418SOL     OW18889   1.155   0.203  15.423 -0.4762  0.0743  0.1683
 2418SOL    HW118890   1.161   0.201  15.519  2.0860  3.7975  0.0893
 2418SOL    HW218891   1.079   0.147  15.413  0.0135 -0.7626  1.1045
 2419SOL     OW18892   3.056   3.224  16.302 -0.9524 -0.7368  0.2087
 2419SOL    HW118893   3.059   3.137  16.262 -5.2682 -1.3885  1.3476
 2419SOL    HW218894   2.964   3.244  16.284 -0.3540  1.3601 -0.5109
 2420SOL     OW18895   2.497   0.675  11.275 -0.5706  0.7327 -0.0007
 2420SOL    HW118896   2.491   0.759  11.229  1.2676  0.5478 -0.5976
 2420SOL    HW218897   2.442   0.701  11.348 -2.2189 -0.0217 -0.9732
 2421SOL     OW18898   0.754   0.107   3.896 -0.2657 -0.3379 -0.7552
 2421SOL    HW118899   0.748   0.139   3.986  2.3561  0.2702 -0.8013
 2421SOL    HW218900   0.834   0.152   3.868 -0.6206  1.5389  1.2478
 2422SOL     OW18901   1.576   2.847   5.523  0.4342 -0.0949 -0.5326
 2422SOL    HW118902   1.496   2.827   5.474 -0.5528 -0.1191  1.0623
 2422SOL    HW218903   1.591   2.757   5.552  0.9323  0.5221  1.1110
 2423SOL     OW18904   0.208   2.482   5.466 -0.4817 -0.2726  0.0747
 2423SOL    HW118905   0.281   2.440   5.510  0.0771 -0.6470 -1.2064
 2423SOL    HW218906   0.144   2.415   5.491 -1.2269  0.1570 -0.6794
 2424SOL     OW18907   1.182   1.182   1.844  0.2958  0.6917 -0.1307
 2424SOL    HW118908   1.140   1.231   1.915 -1.7055 -0.8386 -0.2481
 2424SOL    HW218909   1.215   1.106   1.892  2.3761  3.0622  2.2022
 2425SOL     OW18910   4.361   3.478   7.772  0.1563 -0.0102  0.0909
 2425SOL    HW118911   4.315   3.485   7.688 -0.1823  0.5453  0.3261
 2425SOL    HW218912   4.451   3.493   7.742  0.9583  1.2945  3.2539
 2426SOL     OW18913   0.957   2.370   2.116 -0.1631  0.1743 -0.2748
 2426SOL    HW118914   0.864   2.360   2.137  0.3891 -0.1222  2.1178
 2426SOL    HW218915   0.996   2.287   2.144  1.7812  0.2393 -2.7927
 2427SOL     OW18916   2.640   0.959  10.936  0.9043  0.0767  0.0994
 2427SOL    HW118917   2.615   0.905  11.011  0.4817  0.1521  0.0128
 2427SOL    HW218918   2.710   0.907  10.898 -0.1218  0.4907 -2.2987
 2428SOL     OW18919   1.625   3.680   6.784 -0.3774  0.5245 -0.0907
 2428SOL    HW118920   1.682   3.663   6.708 -0.3870  1.9011 -0.3940
 2428SOL    HW218921   1.647   3.769   6.810 -0.0130  0.6777 -0.9359
 2429SOL     OW18922   2.493   1.448  11.125  0.8400  0.3579 -0.0876
 2429SOL    HW118923   2.469   1.359  11.154  0.5018  0.7109  0.7232
 2429SOL    HW218924   2.506   1.492  11.209  2.7184 -3.4519  1.6248
 2430SOL     OW18925   4.419   0.421   8.209 -0.4802  0.6803 -0.5612
 2430SOL    HW118926   4.336   0.439   8.165  0.2356  2.1007 -1.3242
 2430SOL    HW218927   4.393   0.396   8.297  1.6646  1.2129  0.2207
 2431SOL     OW18928   2.900   0.050   4.364  0.1478 -0.1611  0.2719
 2431SOL    HW118929   2.955   0.111   4.316 -0.1112 -0.8133 -0.8399
 2431SOL    HW218930   2.961   4.716   4.388 -1.2378 -1.2860  0.4866
 2432SOL     OW18931   1.613   3.366   5.876 -0.0040 -0.6496 -0.1587
 2432SOL    HW118932   1.590   3.441   5.931 -1.9661 -0.0337 -1.8231
 2432SOL    HW218933   1.550   3.300   5.903 -0.3834 -0.1596  0.1494
 2433SOL     OW18934   1.847   3.969   2.379  0.6925  0.7030 -0.3069
 2433SOL    HW118935   1.932   3.950   2.418 -0.0493  0.2674  1.1243
 2433SOL    HW218936   1.856   4.064   2.369 -0.1908  0.9974  1.6639
 2434SOL     OW18937   4.510   0.389   3.643  0.0584  0.1017  0.1140
 2434SOL    HW118938   4.483   0.329   3.573  0.2869 -0.0085  0.1202
 2434SOL    HW218939   4.523   0.473   3.599  2.9519 -0.1909  0.4474
 2435SOL     OW18940   2.738   0.549   1.045 -0.2526 -0.2097 -0.5576
 2435SOL    HW118941   2.834   0.550   1.046 -0.3241  1.5801  1.9914
 2435SOL    HW218942   2.722   0.511   0.958 -0.7683 -0.0014 -0.5504
 2436SOL     OW18943   3.512   2.280  13.440  0.1278  1.0126  0.1948
 2436SOL    HW118944   3.521   2.346  13.509  0.3201  1.0409  0.1409
 2436SOL    HW218945   3.430   2.313  13.403 -0.4867  1.0656  1.5710
 2437SOL     OW18946   2.438   1.655   3.997  0.1620  0.0486  0.1587
 2437SOL    HW118947   2.394   1.740   3.994 -0.5555 -0.2979  1.0965
 2437SOL    HW218948   2.509   1.684   4.054 -0.0004 -0.1585  0.4670
 2438SOL     OW18949   3.733   1.197   3.681  0.0476 -0.0748 -0.0792
 2438SOL    HW118950   3.713   1.196   3.587 -0.8751 -0.3228  0.1172
 2438SOL    HW218951   3.809   1.254   3.691 -0.0394 -0.5013  3.0383
 2439SOL     OW18952   2.291   2.383  12.845  0.0422  0.6046  0.1106
 2439SOL    HW118953   2.252   2.445  12.784  1.1496  0.1643 -1.0332
 2439SOL    HW218954   2.217   2.327  12.872  0.5556 -0.4648 -0.6991
 2440SOL     OW18955   3.993   4.103  13.139 -0.2349  0.1151  0.0866
 2440SOL    HW118956   3.971   4.013  13.116 -0.7706 -0.0564  1.2708
 2440SOL    HW218957   4.068   4.090  13.197 -1.1258 -3.6283  0.3825
 2441SOL     OW18958   0.923   1.327   6.879  0.0304  0.0606 -0.3092
 2441SOL    HW118959   0.928   1.386   6.804 -1.8379 -0.8385 -1.1171
 2441SOL    HW218960   0.914   1.377   6.961 -2.3677 -1.5057  0.3901
 2442SOL     OW18961   1.301   1.697   7.670  0.5117 -0.3138  0.4341
 2442SOL    HW118962   1.369   1.730   7.729  0.4579  0.6702 -0.0517
 2442SOL    HW218963   1.343   1.692   7.584  0.3257 -0.1762  0.3354
 2443SOL     OW18964   3.753   3.942   2.171 -0.0308 -0.2990  0.2312
 2443SOL    HW118965   3.820   3.920   2.106 -0.7379 -0.1492 -0.5611
 2443SOL    HW218966   3.819   3.950   2.239  1.4228  2.4167 -1.4888
 2444SOL     OW18967   3.471   3.871  12.711  0.2646 -0.2207  0.2963
 2444SOL    HW118968   3.486   3.964  12.694  1.7614 -0.2001  1.8127
 2444SOL    HW218969   3.525   3.840  12.639  0.0979 -2.8451  1.2976
 2445SOL     OW18970   3.713   1.584   9.060  0.3022 -0.0437 -0.0020
 2445SOL    HW118971   3.801   1.605   9.030  1.1941 -2.2110  1.0816
 2445SOL    HW218972   3.715   1.488   9.064  0.3758 -0.0292  0.3219
 2446SOL     OW18973   2.311   3.044   0.529  0.3745 -0.5922 -0.3459
 2446SOL    HW118974   2.291   2.960   0.487 -0.4360 -1.1994  1.2568
 2446SOL    HW218975   2.401   3.053   0.499  1.6449 -2.8353  2.8919
 2447SOL     OW18976   3.854   2.343   7.531  0.5745  0.2383 -0.3812
 2447SOL    HW118977   3.867   2.252   7.504  0.5443  0.3678 -0.8256
 2447SOL    HW218978   3.864   2.323   7.624  3.7558 -2.4028 -1.2723
 2448SOL     OW18979   3.415   1.204   2.649  0.0403  0.0861  0.0868
 2448SOL    HW118980   3.413   1.228   2.742 -1.1669  2.9103 -0.6599
 2448SOL    HW218981   3.502   1.236   2.627  0.7029 -1.7709  0.0620
 2449SOL     OW18982   0.993   1.770   8.209 -0.1066  0.1608  0.6314
 2449SOL    HW118983   0.908   1.793   8.172 -0.2433  2.5360  2.3824
 2449SOL    HW218984   0.957   1.763   8.298 -1.3576  0.5780  0.1578
 2450SOL     OW18985   1.484   0.145   8.451 -0.0403 -0.2947  0.1600
 2450SOL    HW118986   1.522   0.060   8.431  2.2610  0.7246  0.2272
 2450SOL    HW218987   1.429   0.169   8.377  0.1009 -0.1463  0.1036
 2451SOL     OW18988   1.806   0.972   6.241  0.3182  0.4065  0.0404
 2451SOL    HW118989   1.851   1.026   6.176  0.3039  0.0439 -0.2742
 2451SOL    HW218990   1.740   1.033   6.273  0.2356 -0.1491  0.9340
 2452SOL     OW18991   3.681   0.631   6.383  0.0323  0.2455  0.1538
 2452SOL    HW118992   3.763   0.647   6.430  0.5314 -0.2039 -0.5691
 2452SOL    HW218993   3.719   0.628   6.296  0.0997  1.2485  0.1439
 2453SOL     OW18994   3.643   3.117   0.663 -0.3795 -0.3018  0.0085
 2453SOL    HW118995   3.627   3.174   0.588 -2.3197 -1.6292 -0.6203
 2453SOL    HW218996   3.681   3.039   0.621  0.4469  0.3753 -0.4879
 2454SOL     OW18997   3.865   0.215  15.031  0.3217 -0.2874  0.8299
 2454SOL    HW118998   3.953   0.252  15.045  0.6364 -0.5843 -0.3581
 2454SOL    HW218999   3.862   0.197  14.937  0.1480 -2.2743  1.2278
 2455SOL     OW19000   4.030   0.482  12.717 -0.4226  0.1287  0.5017
 2455SOL    HW119001   3.953   0.532  12.690 -0.7524  0.0414  1.2664
 2455SOL    HW219002   4.085   0.549  12.759 -1.6737  1.1997  0.4509
 2456SOL     OW19003   0.949   2.408   4.826 -0.5978  0.2109 -0.0436
 2456SOL    HW119004   0.923   2.320   4.799  0.4956 -0.9752  2.8597
 2456SOL    HW219005   0.887   2.468   4.783 -0.1931 -0.6606 -1.8600
 2457SOL     OW19006   3.108   0.726   8.591  0.5898  0.1138 -0.0090
 2457SOL    HW119007   3.122   0.819   8.571  0.6150  0.0633 -0.2212
 2457SOL    HW219008   3.197   0.693   8.599  0.1239 -1.2239 -0.2990
 2458SOL     OW19009   3.498   3.690   5.550 -0.1015 -0.0453  0.6156
 2458SOL    HW119010   3.546   3.751   5.494 -2.9613 -0.3337 -2.1552
 2458SOL    HW219011   3.565   3.627   5.577 -0.2818 -1.1554 -1.5614
 2459SOL     OW19012   1.534   1.590  14.086  0.5330  0.0087  0.5948
 2459SOL    HW119013   1.525   1.514  14.144 -1.2108 -0.4691 -0.3010
 2459SOL    HW219014   1.542   1.530  14.011 -0.0073  1.3093 -0.4875
 2460SOL     OW19015   1.219   2.966  15.506 -0.0725 -0.0722 -0.0626
 2460SOL    HW119016   1.127   2.994  15.503  0.4018  1.5467  0.6359
 2460SOL    HW219017   1.227   2.932  15.417 -0.5609 -0.1659 -0.0723
 2461SOL     OW19018   1.006   3.936   9.454  0.8907 -0.2008  0.0753
 2461SOL    HW119019   0.920   3.977   9.449  1.1712  0.8306  3.7669
 2461SOL    HW219020   1.008   3.874   9.381  2.0785 -1.4518  1.1681
 2462SOL     OW19021   2.036   4.727   6.246  0.5398  0.1447 -0.2157
 2462SOL    HW119022   2.028   4.726   6.342  1.1443  2.1731 -0.1577
 2462SOL    HW219023   1.944   4.720   6.221  0.0296 -1.8824  2.2007
 2463SOL     OW19024   0.407   4.708  10.411 -0.0218  0.1351 -0.1896
 2463SOL    HW119025   0.482   4.701  10.352  1.8894  0.4624  2.1741
 2463SOL    HW219026   0.387   4.616  10.429 -1.3478  0.3461 -0.6314
 2464SOL     OW19027   3.878   2.463   2.290 -0.4412 -0.4889 -0.1494
 2464SOL    HW119028   3.957   2.439   2.338  0.4003  0.1311 -1.2175
 2464SOL    HW219029   3.856   2.385   2.240  1.3136 -1.9241  1.3243
 2465SOL     OW19030   3.315   3.403   0.132  0.2332  0.3302  0.6026
 2465SOL    HW119031   3.294   3.458   0.207 -0.5787 -0.9103  1.2851
 2465SOL    HW219032   3.395   3.445   0.101  1.3576 -0.6096  2.2284
 2466SOL     OW19033   0.135   2.792   3.725 -0.0711  0.0535  0.7245
 2466SOL    HW119034   0.123   2.874   3.774 -2.2046  0.2791 -0.1543
 2466SOL    HW219035   0.056   2.741   3.744  0.0905 -0.7091 -0.6871
 2467SOL     OW19036   0.612   4.535   5.711 -0.7822  0.0189  0.0072
 2467SOL    HW119037   0.656   4.617   5.692 -1.3876  0.5207  0.7377
 2467SOL    HW219038   0.632   4.478   5.637  1.7862 -1.9971  2.2370
 2468SOL     OW19039   3.377   4.653   1.543 -0.0181  0.1799  0.3621
 2468SOL    HW119040   3.291   4.654   1.585  0.4391 -0.6001  1.3198
 2468SOL    HW219041   3.431   4.615   1.613  0.5860 -1.0546 -0.7894
 2469SOL     OW19042   2.595   1.585   8.761 -0.5720 -0.1578  0.0341
 2469SOL    HW119043   2.581   1.556   8.851  2.0864  0.0113  0.4970
 2469SOL    HW219044   2.559   1.674   8.756  0.2013  0.1732  0.3392
 2470SOL     OW19045   0.110   0.986   5.554  0.1792 -0.0440  0.1108
 2470SOL    HW119046   0.130   0.900   5.518  1.1689 -0.4001  1.4961
 2470SOL    HW219047   0.196   1.027   5.564 -0.0493  1.1678 -2.9904
 2471SOL     OW19048   2.425   4.440  15.623  0.5805 -0.2572 -0.6033
 2471SOL    HW119049   2.358   4.452  15.691  0.1893 -0.8888 -0.8832
 2471SOL    HW219050   2.490   4.404  15.684 -1.1545  1.2959  2.1875
 2472SOL     OW19051   2.873   4.633  16.196 -0.1790  0.8436 -0.0896
 2472SOL    HW119052   2.926   4.696  16.245 -0.3892  0.0798  1.1388
 2472SOL    HW219053   2.791   4.681  16.184 -1.0384 -0.6752 -0.3336
 2473SOL     OW19054   4.679   1.643  13.395 -0.5596  0.4822 -0.2734
 2473SOL    HW119055   0.021   1.605  13.437 -0.5744  0.1809 -0.5163
 2473SOL    HW219056   4.610   1.579  13.415 -0.4395  0.1699 -0.8484
 2474SOL     OW19057   0.150   1.266  17.495 -0.8682  0.0142 -0.2487
 2474SOL    HW119058   0.203   1.308  17.427 -0.2680 -1.1901 -0.5343
 2474SOL    HW219059   0.187   1.178  17.504  0.3046  0.5530  0.1746
 2475SOL     OW19060   3.659   2.421   1.553 -0.0949  0.3330 -0.1565
 2475SOL    HW119061   3.664   2.427   1.649  1.3326  0.8314 -0.2577
 2475SOL    HW219062   3.571   2.383   1.554  0.5312 -1.1096  0.5237
 2476SOL     OW19063   1.246   0.948   3.997  0.4012  0.5171 -0.4852
 2476SOL    HW119064   1.177   0.992   3.948 -0.6272  0.4804  0.9506
 2476SOL    HW219065   1.192   0.881   4.039  1.9263  1.0812  2.3512
 2477SOL     OW19066   0.310   4.635   4.797 -0.4903  0.5920 -0.2852
 2477SOL    HW119067   0.240   4.613   4.735 -2.4960  2.5746  1.2791
 2477SOL    HW219068   0.389   4.627   4.743  0.0948  0.9166  0.5289
 2478SOL     OW19069   2.897   3.209  11.032 -0.7499  0.1363 -0.1097
 2478SOL    HW119070   2.920   3.209  10.940 -0.0362  0.5256  0.0710
 2478SOL    HW219071   2.945   3.280  11.075 -1.0554  1.2508 -1.6166
 2479SOL     OW19072   4.533   2.174   3.727  0.4058 -0.2060 -0.5814
 2479SOL    HW119073   4.474   2.202   3.656 -0.2376 -0.7756 -0.2677
 2479SOL    HW219074   4.530   2.079   3.720  2.0021 -0.3868  1.2980
 2480SOL     OW19075   0.614   1.675   6.224 -0.1789 -0.2307  0.1861
 2480SOL    HW119076   0.548   1.745   6.219  0.2021  0.2294  1.6867
 2480SOL    HW219077   0.670   1.704   6.152 -0.6905 -0.3912 -0.2804
 2481SOL     OW19078   4.089   3.553   4.808  0.2651  0.3100  0.0917
 2481SOL    HW119079   4.079   3.623   4.744 -1.1031  0.6306  0.6574
 2481SOL    HW219080   4.135   3.487   4.756  0.7674  0.1541  0.7213
 2482SOL     OW19081   3.011   3.882   2.748 -0.1352 -0.3010  0.1094
 2482SOL    HW119082   2.929   3.834   2.759 -0.2812 -0.2139 -0.5535
 2482SOL    HW219083   3.059   3.861   2.828 -1.1232 -1.5217  0.3733
 2483SOL     OW19084   2.722   4.139   1.346 -0.1497 -0.7508 -0.5291
 2483SOL    HW119085   2.699   4.232   1.353 -2.6894 -1.3785 -0.7069
 2483SOL    HW219086   2.694   4.118   1.435 -1.4666  1.6152 -0.3908
 2484SOL     OW19087   2.572   0.552   7.549  0.7018 -0.0701  0.0928
 2484SOL    HW119088   2.496   0.520   7.500 -0.7192  0.8326  1.7148
 2484SOL    HW219089   2.577   0.645   7.529  0.2968  0.1089  0.8057
 2485SOL     OW19090   2.739   3.377  15.296  1.0204 -0.5105 -0.0205
 2485SOL    HW119091   2.674   3.381  15.366 -0.9518  1.9270 -1.9602
 2485SOL    HW219092   2.804   3.442  15.322  1.8733 -1.6420  0.6468
 2486SOL     OW19093   3.580   3.235   3.408 -0.0934 -0.8100 -0.0656
 2486SOL    HW119094   3.531   3.241   3.326 -0.6289 -0.7640  0.2583
 2486SOL    HW219095   3.536   3.161   3.449 -2.2265  0.3254 -0.2464
 2487SOL     OW19096   4.270   4.450   3.826  0.3467 -0.2391 -0.4990
 2487SOL    HW119097   4.343   4.412   3.875 -0.4130 -0.9461  0.0878
 2487SOL    HW219098   4.198   4.389   3.844 -0.3838  0.7667  0.0152
 2488SOL     OW19099   3.724   4.577   9.021  0.6765 -0.4211 -0.1814
 2488SOL    HW119100   3.772   4.590   8.939 -0.8116 -2.1072 -1.3156
 2488SOL    HW219101   3.635   4.574   8.985  0.2699 -0.2420  0.8269
 2489SOL     OW19102   2.967   0.273  14.402 -0.1902 -0.2516 -0.1542
 2489SOL    HW119103   2.912   0.314  14.336 -1.1746 -0.3391  0.6019
 2489SOL    HW219104   3.002   0.198  14.355 -2.7983 -0.8280 -1.2151
 2490SOL     OW19105   2.690   0.772   9.147  0.1349 -0.0054 -0.3406
 2490SOL    HW119106   2.625   0.834   9.183 -0.8454 -0.9595 -0.4653
 2490SOL    HW219107   2.760   0.794   9.209 -0.5798  2.6957 -0.4526
 2491SOL     OW19108   0.813   2.822   7.170  0.3819  0.1246  0.0211
 2491SOL    HW119109   0.790   2.792   7.082  0.4172 -1.5812  0.5756
 2491SOL    HW219110   0.774   2.748   7.218  1.2375 -1.3333 -1.5089
 2492SOL     OW19111   0.933   0.248   3.767  0.3690 -0.2248 -0.8828
 2492SOL    HW119112   0.868   0.313   3.740 -0.3773 -0.2950  0.7345
 2492SOL    HW219113   0.919   0.168   3.716  0.7841 -0.0145 -1.3345
 2493SOL     OW19114   0.666   0.710   3.372 -0.1844  0.2754  0.0782
 2493SOL    HW119115   0.607   0.665   3.431  0.4582  2.2061  2.1920
 2493SOL    HW219116   0.650   0.804   3.382 -2.0692  0.0864 -1.0817
 2494SOL     OW19117   4.270   1.071   2.631 -0.1286 -0.1431 -0.1129
 2494SOL    HW119118   4.224   1.011   2.690 -1.1420  0.0246 -0.7366
 2494SOL    HW219119   4.215   1.058   2.553  1.1378 -2.4557 -0.6431
 2495SOL     OW19120   1.031   1.327  10.210 -0.3659  0.0039  0.6370
 2495SOL    HW119121   1.021   1.411  10.255 -0.7717  0.3813 -0.1572
 2495SOL    HW219122   1.030   1.349  10.117 -2.5404 -0.6640  0.5087
 2496SOL     OW19123   3.128   2.229   1.399  0.3153 -0.1112 -0.0975
 2496SOL    HW119124   3.186   2.153   1.400 -1.2918 -1.3352  1.5048
 2496SOL    HW219125   3.043   2.186   1.386  0.2148  0.5057 -1.4858
 2497SOL     OW19126   2.058   1.630  17.652  0.0235  0.3913 -0.2196
 2497SOL    HW119127   2.081   1.548  17.607 -1.7060  1.1615 -2.5085
 2497SOL    HW219128   2.144   1.670  17.659  0.4201 -0.8308  1.9561
 2498SOL     OW19129   1.926   3.559   5.964 -0.0284 -0.9009  0.2645
 2498SOL    HW119130   1.970   3.540   6.047  1.4912 -1.3154 -0.6282
 2498SOL    HW219131   1.917   3.471   5.928 -2.2586 -0.4300 -0.3248
 2499SOL     OW19132   4.012   3.159   6.916  0.3511 -0.2440 -0.3747
 2499SOL    HW119133   3.999   3.080   6.969 -1.1858  0.1805 -0.1079
 2499SOL    HW219134   3.927   3.202   6.928  0.5765  0.5052 -1.4719
 2500SOL     OW19135   3.042   3.284   7.385  0.2393  0.1833 -0.0329
 2500SOL    HW119136   3.043   3.357   7.446  1.6061  0.7104 -0.6894
 2500SOL    HW219137   3.117   3.232   7.414  0.3746 -1.3017 -3.0344
 2501SOL     OW19138   3.065   3.329   6.970 -0.2330  0.5025 -0.0842
 2501SOL    HW119139   3.101   3.370   6.892  0.2654 -0.8218 -0.5436
 2501SOL    HW219140   3.003   3.396   6.999 -0.6912 -0.4209  1.0780
 2502SOL     OW19141   0.336   0.945   7.478 -0.1121 -0.2075  0.2549
 2502SOL    HW119142   0.314   0.999   7.402 -1.3749 -0.7869  0.2167
 2502SOL    HW219143   0.353   1.016   7.539  2.0918  0.0775 -0.6738
 2503SOL     OW19144   1.413   0.564   1.224  0.0770 -0.8256 -0.4185
 2503SOL    HW119145   1.355   0.489   1.231  1.9422 -2.1793  0.5327
 2503SOL    HW219146   1.355   0.637   1.201  3.0908  1.6068 -0.3265
 2504SOL     OW19147   2.214   3.068   5.707  0.2515 -0.2449 -0.6416
 2504SOL    HW119148   2.141   3.023   5.749  1.2116  0.6912  2.0068
 2504SOL    HW219149   2.200   3.159   5.735  2.7735 -0.1848  0.3906
 2505SOL     OW19150   4.367   3.506   3.021  0.1034  0.0314  0.5784
 2505SOL    HW119151   4.436   3.512   3.086  0.2289  0.0565  0.4419
 2505SOL    HW219152   4.350   3.595   2.991 -2.2471 -1.2295 -1.9447
 2506SOL     OW19153   4.603   0.500   7.695 -0.1790  0.1719  0.2353
 2506SOL    HW119154   4.626   0.439   7.765 -0.2748  1.0670  1.0426
 2506SOL    HW219155   4.664   0.488   7.622  1.7038  1.9552  1.5381
 2507SOL     OW19156   0.250   3.750   7.518  0.0136  0.2174  0.4287
 2507SOL    HW119157   0.164   3.732   7.481  1.2091 -0.8879 -1.8641
 2507SOL    HW219158   0.304   3.695   7.461 -0.7324  0.9355 -0.9728
 2508SOL     OW19159   1.700   0.546   5.098 -0.7597 -0.3185  0.5229
 2508SOL    HW119160   1.637   0.527   5.028 -0.3672  1.7387 -0.3991
 2508SOL    HW219161   1.707   0.460   5.138  0.1639 -1.4192 -1.9875
 2509SOL     OW19162   1.466   3.062   0.217  0.0719 -0.4329  0.1567
 2509SOL    HW119163   1.558   3.083   0.206 -0.0041 -0.1915 -0.0257
 2509SOL    HW219164   1.430   3.149   0.198  1.4256 -0.2218 -1.4524
 2510SOL     OW19165   1.713   4.290   8.975 -0.0657  0.2021  0.3734
 2510SOL    HW119166   1.688   4.341   8.898  0.0565  0.1979  0.3301
 2510SOL    HW219167   1.627   4.271   9.013 -0.0975  1.5349  0.9757
 2511SOL     OW19168   0.824   3.873   2.858 -0.3690  0.4710 -0.3491
 2511SOL    HW119169   0.804   3.824   2.778 -2.5431  2.5943 -1.0994
 2511SOL    HW219170   0.902   3.922   2.831 -1.7955  0.9706 -3.6436
 2512SOL     OW19171   1.203   1.747   4.400 -0.0627  0.1353  0.6520
 2512SOL    HW119172   1.253   1.669   4.427  0.0400  1.0957  3.2933
 2512SOL    HW219173   1.120   1.719   4.441  0.1625  1.7026  2.1470
 2513SOL     OW19174   3.655   0.605   5.943 -0.0079 -0.5643  0.1075
 2513SOL    HW119175   3.656   0.525   5.891  1.9361  0.5337 -1.5679
 2513SOL    HW219176   3.566   0.606   5.976 -0.2927 -0.0360 -0.6902
 2514SOL     OW19177   3.950   2.541  14.278  0.1599 -0.3961  0.7247
 2514SOL    HW119178   3.919   2.571  14.364  1.3750  2.4900  0.1587
 2514SOL    HW219179   3.934   2.619  14.224  2.8531  0.3407  1.0166
 2515SOL     OW19180   1.997   0.303   2.245  0.1206  0.0245  0.0718
 2515SOL    HW119181   1.951   0.380   2.276 -1.0603  0.1170 -1.8961
 2515SOL    HW219182   2.080   0.316   2.291 -0.9577 -1.7804  2.5619
 2516SOL     OW19183   3.163   3.820   9.016  0.2050 -0.5537 -0.2173
 2516SOL    HW119184   3.081   3.772   9.015  0.1415 -0.4307 -0.6872
 2516SOL    HW219185   3.150   3.881   8.944  1.4992  0.6910  0.5967
 2517SOL     OW19186   1.406   3.147   5.896  0.0575 -0.0241  0.6893
 2517SOL    HW119187   1.440   3.058   5.905 -0.6968 -0.4633 -0.7475
 2517SOL    HW219188   1.396   3.139   5.801 -0.3379 -0.9888  0.8155
 2518SOL     OW19189   0.044   2.965   5.036 -0.0529 -0.3701  0.9934
 2518SOL    HW119190   0.128   3.004   5.061  0.0870 -0.1069  0.0897
 2518SOL    HW219191   0.044   2.878   5.076 -0.3357 -0.3588  1.0226
 2519SOL     OW19192   4.532   2.154   8.122  0.0503 -0.0583  0.0544
 2519SOL    HW119193   4.537   2.147   8.217  0.6971 -1.8262 -0.1118
 2519SOL    HW219194   4.509   2.246   8.112 -0.4891 -0.3087 -1.0014
 2520SOL     OW19195   2.758   4.527   1.790 -0.6716 -0.0658 -0.9681
 2520SOL    HW119196   2.785   4.494   1.876 -0.2570  0.4567 -0.9011
 2520SOL    HW219197   2.724   4.613   1.813  0.0881  0.0669 -0.3398
 2521SOL     OW19198   4.200   2.470  14.106  0.2848 -0.1769  0.0245
 2521SOL    HW119199   4.258   2.499  14.177 -0.1670  0.3822  0.1664
 2521SOL    HW219200   4.113   2.499  14.132  0.0576 -0.0498 -0.8700
 2522SOL     OW19201   4.667   3.230   6.894  0.6406  0.0432  0.5913
 2522SOL    HW119202   0.024   3.247   6.907  1.1161 -1.3081 -1.0456
 2522SOL    HW219203   4.669   3.135   6.891 -0.2147  0.0476 -0.4401
 2523SOL     OW19204   0.228   0.755   6.088 -0.2065 -0.0772 -1.0159
 2523SOL    HW119205   0.146   0.717   6.057 -0.0583 -1.0024 -0.2742
 2523SOL    HW219206   0.194   0.821   6.149  0.3782  0.7954 -1.6260
 2524SOL     OW19207   3.948   3.221   9.114 -0.3818 -0.1064 -0.1408
 2524SOL    HW119208   4.004   3.148   9.143 -0.6705 -0.3651 -0.2312
 2524SOL    HW219209   3.977   3.287   9.177  0.7777  0.4448 -1.2511
 2525SOL     OW19210   3.125   1.507   2.258 -0.2458 -0.4207  0.2359
 2525SOL    HW119211   3.111   1.476   2.169 -0.3296  1.5635 -0.4360
 2525SOL    HW219212   3.042   1.481   2.299 -0.7054  1.6187  0.6059
 2526SOL     OW19213   2.125   2.050   3.855 -0.5375  0.1079  0.3829
 2526SOL    HW119214   2.106   2.119   3.919 -0.3681  0.0156  0.5319
 2526SOL    HW219215   2.087   2.099   3.782 -1.2813 -1.9599 -0.6125
 2527SOL     OW19216   4.007   2.199   2.018 -0.7411 -0.1983 -0.3247
 2527SOL    HW119217   3.966   2.230   1.938  1.0881 -0.9342 -1.5318
 2527SOL    HW219218   3.930   2.205   2.075  0.6888  1.3015  1.4556
 2528SOL     OW19219   4.561   3.405   6.092 -0.1726  0.4438  0.2551
 2528SOL    HW119220   4.565   3.408   6.188 -1.1553  0.6983  0.2945
 2528SOL    HW219221   4.595   3.316   6.084  2.4542  1.5257 -0.5407
 2529SOL     OW19222   0.326   4.125   6.561  0.7965 -0.3260  0.2581
 2529SOL    HW119223   0.291   4.067   6.493  4.0351 -2.3872  0.3652
 2529SOL    HW219224   0.419   4.105   6.562  1.3920  2.4719 -0.1237
 2530SOL     OW19225   4.130   0.849   3.176  0.0936 -0.1991 -0.2422
 2530SOL    HW119226   4.184   0.906   3.231  0.1391 -1.0878  0.6387
 2530SOL    HW219227   4.107   0.906   3.103  3.7837  1.6105  0.0364
 2531SOL     OW19228   4.633   3.631   5.143  0.3191  0.3334  0.0599
 2531SOL    HW119229   4.577   3.556   5.122  0.1973  0.5199 -0.2754
 2531SOL    HW219230   4.637   3.674   5.058 -1.7050 -1.0182 -0.7178
 2532SOL     OW19231   3.727   1.142   6.543 -0.9057 -0.2934 -0.1482
 2532SOL    HW119232   3.720   1.204   6.615 -0.3256 -1.8511  1.2435
 2532SOL    HW219233   3.637   1.109   6.541 -1.4746  1.2148  0.8955
 2533SOL     OW19234   0.397   2.575   9.307 -0.2377 -0.0280 -0.1592
 2533SOL    HW119235   0.365   2.643   9.366  1.8633  0.2565  0.6549
 2533SOL    HW219236   0.479   2.548   9.349  0.8630  0.3986 -2.0528
 2534SOL     OW19237   2.809   3.381   9.017 -0.1780  0.4794  0.2273
 2534SOL    HW119238   2.717   3.365   9.036  0.3988 -1.1942  1.5621
 2534SOL    HW219239   2.810   3.459   8.961 -0.1906  3.2607  4.1304
 2535SOL     OW19240   4.250   4.514   4.185 -0.0630  0.3409  0.2517
 2535SOL    HW119241   4.202   4.545   4.108 -0.0321 -0.4209 -0.0732
 2535SOL    HW219242   4.177   4.526   4.245  0.0396 -0.4899  0.5345
 2536SOL     OW19243   1.961   1.555   4.619  0.2554 -0.3273 -0.0679
 2536SOL    HW119244   1.972   1.462   4.600 -1.9765 -0.4004 -0.9881
 2536SOL    HW219245   2.049   1.586   4.596 -0.0233  0.4366 -0.0932
 2537SOL     OW19246   1.717   1.914   8.570 -0.3769  0.0548  0.2845
 2537SOL    HW119247   1.687   1.969   8.497  1.9698 -1.0262 -1.4961
 2537SOL    HW219248   1.805   1.950   8.565 -1.0862  1.3520 -3.1794
 2538SOL     OW19249   0.523   3.876  13.645 -0.4449 -0.2114  0.1776
 2538SOL    HW119250   0.513   3.782  13.662  0.4790 -0.1727  0.9695
 2538SOL    HW219251   0.485   3.917  13.722  0.0802  2.0168 -0.7452
 2539SOL     OW19252   4.569   2.216   5.799 -0.2821 -0.0809  0.5104
 2539SOL    HW119253   4.617   2.136   5.778  0.0181  0.4201 -0.7480
 2539SOL    HW219254   4.511   2.228   5.723  0.5724 -0.6206 -0.2227
 2540SOL     OW19255   0.285   1.724   4.471  0.7210  0.0187 -0.3178
 2540SOL    HW119256   0.258   1.751   4.384 -0.3415  0.0879  0.0357
 2540SOL    HW219257   0.368   1.681   4.449  0.3432 -0.2584 -1.1584
 2541SOL     OW19258   3.434   1.108   0.368 -0.5955 -0.3859  0.7757
 2541SOL    HW119259   3.354   1.124   0.317 -1.2909 -1.1163  1.6289
 2541SOL    HW219260   3.449   1.196   0.403  0.3794 -0.2650  0.0501
 2542SOL     OW19261   0.662   4.498  13.377 -0.4494  0.4560 -0.1863
 2542SOL    HW119262   0.734   4.436  13.368 -0.0385  0.8458  0.3790
 2542SOL    HW219263   0.615   4.466  13.454 -0.3340  0.5877 -0.0597
 2543SOL     OW19264   3.684   3.842   1.250 -0.1026 -0.2353  0.4894
 2543SOL    HW119265   3.588   3.848   1.245 -0.2015 -0.8200  1.5749
 2543SOL    HW219266   3.711   3.805   1.166  0.2962  0.1057  0.4744
 2544SOL     OW19267   4.381   3.878   2.391 -0.8829 -0.0023 -0.4030
 2544SOL    HW119268   4.460   3.922   2.423  0.3525 -2.4853 -0.0507
 2544SOL    HW219269   4.363   3.939   2.319  0.3306  0.4519 -0.3256
 2545SOL     OW19270   2.796   2.572   4.699  0.7163 -0.0611  0.0985
 2545SOL    HW119271   2.792   2.668   4.705 -0.4879 -0.2157  1.9748
 2545SOL    HW219272   2.711   2.549   4.662  1.6614 -1.6675 -1.0485
 2546SOL     OW19273   3.848   3.956   1.410  0.0429 -0.2745  0.3561
 2546SOL    HW119274   3.790   3.917   1.344  1.4447 -0.0807 -0.9927
 2546SOL    HW219275   3.835   4.050   1.395 -1.7450 -0.0442  3.3538
 2547SOL     OW19276   0.786   3.681   3.044 -0.0840  0.7940 -0.5850
 2547SOL    HW119277   0.831   3.705   3.125 -0.7001 -1.1922  0.3361
 2547SOL    HW219278   0.806   3.757   2.989  0.1322  0.1794 -1.3491
 2548SOL     OW19279   0.940   1.262   8.503 -0.1412 -0.9851  0.3179
 2548SOL    HW119280   0.881   1.325   8.544  1.2910  0.5975 -0.0809
 2548SOL    HW219281   1.023   1.307   8.516  0.3191 -1.7869  0.1351
 2549SOL     OW19282   0.128   0.996   1.357  0.2443  0.4508 -0.0643
 2549SOL    HW119283   0.133   1.039   1.272 -1.0317 -2.4636 -1.6145
 2549SOL    HW219284   0.104   0.907   1.331 -0.4058  0.4524  0.5312
 2550SOL     OW19285   0.551   3.791   8.587 -0.5823  0.4166 -0.0275
 2550SOL    HW119286   0.556   3.817   8.495 -0.1257  0.2593 -0.0501
 2550SOL    HW219287   0.575   3.869   8.638  5.1050 -0.2360 -1.7455
 2551SOL     OW19288   3.958   2.202  12.936 -0.7117 -0.4346 -0.2564
 2551SOL    HW119289   3.944   2.290  12.971  0.2151 -0.1462 -0.6192
 2551SOL    HW219290   3.900   2.205  12.859 -0.2499  2.1760 -0.4846
 2552SOL     OW19291   2.422   0.034  12.448  0.1895  0.3619  0.0867
 2552SOL    HW119292   2.478   0.035  12.371  0.4931 -3.1200  0.2563
 2552SOL    HW219293   2.467   4.709  12.507  1.3240 -1.5802 -2.8099
 2553SOL     OW19294   0.729   1.914  17.316 -0.4577  0.2146  0.1236
 2553SOL    HW119295   0.713   1.943  17.226  0.9736  0.1656 -0.1584
 2553SOL    HW219296   0.753   1.995  17.362  1.0389  0.6395 -1.3953
 2554SOL     OW19297   4.410   1.127   8.414  0.5259  0.6115  0.0803
 2554SOL    HW119298   4.413   1.033   8.432 -1.2585  0.0678 -2.3858
 2554SOL    HW219299   4.364   1.153   8.494 -1.8040 -0.2855 -0.9473
 2555SOL     OW19300   4.088   2.177  16.835 -0.2735  0.0522 -0.2465
 2555SOL    HW119301   4.082   2.081  16.840  1.6309 -0.0060  0.7774
 2555SOL    HW219302   4.179   2.198  16.855  0.5296 -3.0412 -0.6013
 2556SOL     OW19303   4.191   3.623   3.682 -0.1818 -0.2760 -0.6590
 2556SOL    HW119304   4.160   3.678   3.610 -0.2218  3.0667  1.9124
 2556SOL    HW219305   4.209   3.680   3.757 -1.6946  0.5342 -0.9117
 2557SOL     OW19306   2.022   4.109   2.803 -0.4178  0.1890  0.1554
 2557SOL    HW119307   2.108   4.091   2.763  0.1349  2.4167  0.3853
 2557SOL    HW219308   2.013   4.198   2.771 -0.4287  0.5763  1.2466
 2558SOL     OW19309   1.704   3.325   1.139 -0.4581  0.4957  0.2590
 2558SOL    HW119310   1.656   3.326   1.056  2.2804  2.0310 -1.3526
 2558SOL    HW219311   1.643   3.269   1.186  1.8799 -3.2260 -1.0713
 2559SOL     OW19312   0.845   3.209   4.453  0.1482 -0.4993 -0.2683
 2559SOL    HW119313   0.930   3.250   4.438  0.4204 -1.3300 -0.9407
 2559SOL    HW219314   0.876   3.120   4.468  1.1824  0.2155  1.8344
 2560SOL     OW19315   0.592   3.842   3.694 -0.0394  0.0726 -0.5668
 2560SOL    HW119316   0.574   3.906   3.624 -0.0569  0.9938  0.2864
 2560SOL    HW219317   0.605   3.770   3.632 -2.0671 -0.7405 -0.0421
 2561SOL     OW19318   4.411   0.673   4.175  0.3012  0.0435  0.0239
 2561SOL    HW119319   4.359   0.592   4.180 -1.6325  1.2788  0.1864
 2561SOL    HW219320   4.484   0.647   4.231  1.0292  2.1148  0.0142
 2562SOL     OW19321   1.910   4.140   4.702  0.2479  0.0244 -0.3565
 2562SOL    HW119322   2.000   4.160   4.727 -0.2244  0.1422  1.2808
 2562SOL    HW219323   1.858   4.209   4.744 -2.5317 -1.0987 -1.9504
 2563SOL     OW19324   0.572   1.471   8.367 -0.6391  0.2874 -0.9424
 2563SOL    HW119325   0.622   1.390   8.377  1.4150  1.4107 -2.3574
 2563SOL    HW219326   0.496   1.446   8.419  0.1294  0.5614  0.3071
 2564SOL     OW19327   1.429   1.959   3.414  0.4670  0.3331  0.7252
 2564SOL    HW119328   1.505   1.927   3.463 -0.4322 -1.9400  0.6197
 2564SOL    HW219329   1.472   1.995   3.337  0.2643  0.3452  0.6187
 2565SOL     OW19330   1.860   3.373   7.648  0.4387  0.1616  0.1504
 2565SOL    HW119331   1.927   3.353   7.583 -0.7488 -0.1243 -0.9975
 2565SOL    HW219332   1.845   3.464   7.622  0.0840  0.1981  0.4720
 2566SOL     OW19333   1.311   2.544   7.506  0.2134  0.4379  0.2262
 2566SOL    HW119334   1.271   2.515   7.587 -0.0795 -1.5561 -0.6283
 2566SOL    HW219335   1.237   2.560   7.447 -0.4026  0.1603  0.9266
 2567SOL     OW19336   4.283   3.309   4.857  0.3190  0.0050  0.1446
 2567SOL    HW119337   4.220   3.254   4.811  1.5019 -0.6570 -0.6816
 2567SOL    HW219338   4.360   3.259   4.829 -0.3913  0.1885 -2.1105
 2568SOL     OW19339   2.074   3.469  11.557  0.3432 -0.0871  0.5172
 2568SOL    HW119340   2.089   3.508  11.643  1.6647  0.5232  0.0211
 2568SOL    HW219341   2.083   3.548  11.504  1.2261  0.2508  1.1568
 2569SOL     OW19342   0.876   2.877   6.654  0.9462 -0.0327  0.4239
 2569SOL    HW119343   0.879   2.822   6.576 -0.1362  0.0700  0.3158
 2569SOL    HW219344   0.961   2.854   6.693  1.0187  0.1745  0.3853
 2570SOL     OW19345   3.106   3.978   4.532 -0.1911  0.2002 -0.0614
 2570SOL    HW119346   3.150   3.945   4.611  0.0538  1.6807  0.4164
 2570SOL    HW219347   3.181   3.979   4.473  0.3252 -1.4906  0.5445
 2571SOL     OW19348   4.508   3.086  15.429 -0.1074 -0.6338  0.1419
 2571SOL    HW119349   4.422   3.120  15.455  1.6427  2.9506  1.3567
 2571SOL    HW219350   4.494   3.001  15.387  1.1685 -0.3403 -0.8717
 2572SOL     OW19351   1.547   0.078   7.027 -0.0531 -0.1464  0.6485
 2572SOL    HW119352   1.514   0.020   7.095 -2.0694  1.1398  0.7663
 2572SOL    HW219353   1.599   0.015   6.976  0.0292  1.4670 -1.2501
 2573SOL     OW19354   1.856   3.743   3.206 -0.3280  1.0846 -0.2581
 2573SOL    HW119355   1.852   3.649   3.191  0.2163  0.6587  2.2951
 2573SOL    HW219356   1.826   3.782   3.123 -3.1445  0.6927  0.5553
 2574SOL     OW19357   0.929   0.668   4.247  0.4280 -0.2911  0.3026
 2574SOL    HW119358   1.016   0.695   4.279 -0.4858  2.0544  0.8494
 2574SOL    HW219359   0.898   0.747   4.203  1.6212 -1.9085 -3.4308
 2575SOL     OW19360   3.800   0.084  10.497  0.4219  0.4141  0.3919
 2575SOL    HW119361   3.811   0.073  10.402  0.1051  2.3150  0.1278
 2575SOL    HW219362   3.752   0.004  10.516 -1.3207  1.2470 -0.4490
 2576SOL     OW19363   1.789   1.117   4.667 -0.8750 -0.1912 -0.0479
 2576SOL    HW119364   1.784   1.029   4.630 -1.5444  0.3828 -1.3171
 2576SOL    HW219365   1.694   1.125   4.682 -0.9944 -1.2142 -0.2169
 2577SOL     OW19366   1.591   2.068   1.983 -0.3872 -0.0438  0.4312
 2577SOL    HW119367   1.683   2.090   1.966  0.0289 -0.7474  1.8217
 2577SOL    HW219368   1.574   2.125   2.057 -0.2301  0.6748 -0.0812
 2578SOL     OW19369   2.986   0.549  10.653  0.0007 -0.4065  0.3539
 2578SOL    HW119370   3.077   0.550  10.680  0.3721  3.1586 -1.1244
 2578SOL    HW219371   2.951   0.512  10.734 -2.6220  0.7224 -0.2560
 2579SOL     OW19372   0.324   3.032   2.126 -0.6800  0.0033  0.2954
 2579SOL    HW119373   0.310   2.985   2.044 -0.6582 -3.5725  2.3755
 2579SOL    HW219374   0.419   3.037   2.136 -0.3897 -2.0106 -1.6504
 2580SOL     OW19375   2.147   1.240  13.079  0.3604  0.2556 -0.2742
 2580SOL    HW119376   2.076   1.246  13.016  0.9889  2.5895 -0.7420
 2580SOL    HW219377   2.216   1.240  13.012  0.1411 -0.8258 -0.5076
 2581SOL     OW19378   3.236   4.321  17.129  0.2666  0.4160  0.8227
 2581SOL    HW119379   3.170   4.270  17.082 -1.0036  2.5802  0.2579
 2581SOL    HW219380   3.234   4.404  17.081  1.2259 -0.8083 -1.3615
 2582SOL     OW19381   0.184   4.626   2.927  0.7908  0.0991  0.3482
 2582SOL    HW119382   0.097   4.598   2.956  1.6334 -3.0851 -0.1927
 2582SOL    HW219383   0.213   4.687   2.995  3.6117  0.0874 -0.8476
 2583SOL     OW19384   4.056   2.620   2.019  0.5897  0.2690 -0.1361
 2583SOL    HW119385   4.060   2.704   2.066  4.1269 -0.1654  0.3016
 2583SOL    HW219386   4.115   2.571   2.076  2.2833  2.5499  0.0920
 2584SOL     OW19387   2.723   0.960  13.498  0.2044 -0.0601 -0.1443
 2584SOL    HW119388   2.764   1.042  13.471  2.9863 -0.8675  1.6161
 2584SOL    HW219389   2.631   0.986  13.504  0.0664 -0.5728  0.0121
 2585SOL     OW19390   3.668   4.621  10.136 -0.1488 -0.3101  0.1394
 2585SOL    HW119391   3.584   4.622  10.182 -1.1199  0.5409 -1.6763
 2585SOL    HW219392   3.696   4.531  10.155  0.9561  0.4564  2.1566
 2586SOL     OW19393   1.010   3.137  12.152  0.2830 -0.9190  0.0323
 2586SOL    HW119394   1.052   3.222  12.134 -1.5228  0.0664  0.4823
 2586SOL    HW219395   1.011   3.134  12.248  0.9711  1.2504  0.0843
 2587SOL     OW19396   3.172   0.905   3.287 -0.1106  0.1863 -0.4796
 2587SOL    HW119397   3.201   0.883   3.375 -2.8834  0.8805  0.6187
 2587SOL    HW219398   3.081   0.879   3.300  0.3924 -1.3003  0.0780
 2588SOL     OW19399   4.059   2.207   3.582  0.3428  0.2104 -0.2320
 2588SOL    HW119400   4.008   2.136   3.543 -0.3463  0.5965 -0.0240
 2588SOL    HW219401   4.006   2.201   3.661 -0.6874 -3.7254 -1.2030
 2589SOL     OW19402   1.950   0.960  16.504 -0.0749  0.3686  0.2524
 2589SOL    HW119403   1.945   0.865  16.495  2.3173  0.3192 -0.6123
 2589SOL    HW219404   1.913   0.977  16.590  3.2780  0.1862  1.7152
 2590SOL     OW19405   0.706   4.701   6.557 -0.3109  0.2151 -0.3383
 2590SOL    HW119406   0.640   4.633   6.569  0.0852 -0.5732 -2.5731
 2590SOL    HW219407   0.725   4.728   6.647 -1.3633  1.6706 -0.5637
 2591SOL     OW19408   2.869   4.167   9.471 -0.0403 -0.7836 -0.5418
 2591SOL    HW119409   2.843   4.249   9.430  0.0175 -0.3219  0.3466
 2591SOL    HW219410   2.826   4.169   9.556 -0.1143 -2.3636 -0.5451
 2592SOL     OW19411   3.985   0.687   2.612  0.1552  0.0078 -0.6800
 2592SOL    HW119412   4.038   0.685   2.691 -1.0158  1.4282  0.1469
 2592SOL    HW219413   3.899   0.674   2.653 -0.0557 -0.9228 -1.4318
 2593SOL     OW19414   3.670   2.580  11.332  0.4854  0.0628 -0.4025
 2593SOL    HW119415   3.701   2.607  11.246  0.2920 -0.1647 -0.5461
 2593SOL    HW219416   3.576   2.600  11.332  0.4277 -0.1593  0.9945
 2594SOL     OW19417   3.145   4.486  15.388 -0.1352 -0.2029 -0.1025
 2594SOL    HW119418   3.136   4.515  15.480  2.2730 -0.8611  0.3383
 2594SOL    HW219419   3.062   4.520  15.356  0.7719  0.4976 -1.7063
 2595SOL     OW19420   3.995   3.354  14.936 -0.1823  0.2668 -0.5102
 2595SOL    HW119421   3.943   3.349  14.855  0.7333  0.2823 -1.1011
 2595SOL    HW219422   4.076   3.379  14.892 -0.6257 -1.4724 -2.3505
 2596SOL     OW19423   3.276   3.886  16.671  0.1274 -0.4007 -0.0636
 2596SOL    HW119424   3.319   3.850  16.594  0.1065  1.3830 -0.8954
 2596SOL    HW219425   3.192   3.902  16.628 -0.5772 -1.1450  1.0258
 2597SOL     OW19426   4.339   0.097   8.158 -0.2857 -0.4849  0.4091
 2597SOL    HW119427   4.280   0.033   8.119  1.6655 -1.6392 -0.6440
 2597SOL    HW219428   4.275   0.157   8.196  1.2422 -0.6989  3.3175
 2598SOL     OW19429   3.911   3.917   7.573 -0.2806 -0.1950  0.4730
 2598SOL    HW119430   3.886   3.835   7.616  0.3031 -0.0502  1.0823
 2598SOL    HW219431   3.829   3.964   7.556 -0.1625 -0.2431 -0.2436
 2599SOL     OW19432   2.983   4.010   7.634 -0.4961 -0.4559 -0.2844
 2599SOL    HW119433   2.990   3.976   7.724 -3.2165  0.2598  0.1702
 2599SOL    HW219434   2.930   3.941   7.595  0.8557 -1.3698 -0.5101
 2600SOL     OW19435   0.222   2.130   4.644 -0.4324 -0.0052 -0.4636
 2600SOL    HW119436   0.187   2.101   4.728 -1.0349  1.7288 -0.1202
 2600SOL    HW219437   0.314   2.136   4.672 -0.6802 -1.7155  0.7075
 2601SOL     OW19438   2.127   0.612   4.693  0.0738  0.1316  0.1602
 2601SOL    HW119439   2.221   0.613   4.713 -0.6284 -0.2664  3.4875
 2601SOL    HW219440   2.117   0.536   4.636 -1.5837 -0.0894  0.7401
 2602SOL     OW19441   4.639   4.280  14.798  0.0712  0.0001 -0.3257
 2602SOL    HW119442   4.700   4.206  14.798 -0.1251 -0.1693  1.5518
 2602SOL    HW219443   4.701   4.340  14.757  0.0543  0.4958  0.3716
 2603SOL     OW19444   4.043   3.094   3.984 -0.5490 -0.0243 -0.1225
 2603SOL    HW119445   4.124   3.074   4.032 -0.3283 -0.0132 -0.4896
 2603SOL    HW219446   4.065   3.080   3.892  1.5485 -1.7663  0.6476
 2604SOL     OW19447   0.111   0.719   1.276 -0.1289  0.0199 -0.1353
 2604SOL    HW119448   0.155   0.666   1.209  0.3942 -0.1782  0.3644
 2604SOL    HW219449   0.027   0.739   1.234  1.1650  0.2863 -2.6371
 2605SOL     OW19450   2.159   1.721   8.388 -0.7557 -0.9762 -0.6424
 2605SOL    HW119451   2.184   1.628   8.393  0.5671 -0.3606  3.8028
 2605SOL    HW219452   2.065   1.720   8.408 -1.0671 -0.7064 -2.0803
 2606SOL     OW19453   0.967   3.192   8.154 -0.1441  0.0741  0.0766
 2606SOL    HW119454   0.942   3.138   8.229  1.3833 -1.5000 -0.5727
 2606SOL    HW219455   0.889   3.203   8.099 -0.1110 -0.9897 -0.1774
 2607SOL     OW19456   1.007   4.143   8.131 -0.7984 -0.7152 -0.4570
 2607SOL    HW119457   0.920   4.140   8.171 -0.9439 -0.5295 -0.7531
 2607SOL    HW219458   1.049   4.181   8.208 -0.1482 -1.1038 -0.6217
 2608SOL     OW19459   1.281   4.325   6.650 -0.1452  0.4095 -0.3364
 2608SOL    HW119460   1.261   4.363   6.565  1.0191  0.0593 -0.7608
 2608SOL    HW219461   1.199   4.348   6.694  0.4105 -0.3452  1.0895
 2609SOL     OW19462   1.311   3.643   2.215 -0.7726 -0.5337  0.2973
 2609SOL    HW119463   1.353   3.635   2.130  2.8617 -0.3007  2.0456
 2609SOL    HW219464   1.375   3.609   2.279 -1.2111 -1.0931  0.4454
 2610SOL     OW19465   2.559   3.723  14.576  0.0263  0.1001  0.1420
 2610SOL    HW119466   2.491   3.655  14.576  0.8913 -0.7607 -0.9261
 2610SOL    HW219467   2.517   3.787  14.520  1.2950 -0.5160 -1.5046
 2611SOL     OW19468   3.608   4.644   7.507  0.0376 -0.0569  0.3756
 2611SOL    HW119469   3.545   4.604   7.447  0.2730  2.1440 -1.3334
 2611SOL    HW219470   3.564   4.723   7.537 -2.1241 -0.4787 -1.6617
 2612SOL     OW19471   4.150   3.561   7.974  0.1849  0.3869 -0.1768
 2612SOL    HW119472   4.078   3.504   8.002  0.4305 -0.6063 -1.6008
 2612SOL    HW219473   4.205   3.506   7.918  2.4802  2.4653  0.0385
 2613SOL     OW19474   3.269   0.687   5.144 -0.4305 -0.9898 -0.3126
 2613SOL    HW119475   3.342   0.703   5.205 -2.6445  0.0377  2.0921
 2613SOL    HW219476   3.190   0.683   5.198 -1.7142 -0.8325 -2.2061
 2614SOL     OW19477   2.949   0.195  10.680  0.5180 -0.1528 -0.5312
 2614SOL    HW119478   2.939   0.127  10.746 -3.8956  0.0729 -0.9688
 2614SOL    HW219479   3.022   0.245  10.717 -0.3301  0.5599  0.1782
 2615SOL     OW19480   0.724   1.200   6.119  0.0271 -0.4041 -0.1671
 2615SOL    HW119481   0.659   1.170   6.055  1.3432 -1.0282 -1.2011
 2615SOL    HW219482   0.668   1.259   6.169 -0.2347 -1.3313  0.6303
 2616SOL     OW19483   4.447   0.746   4.797  0.0752 -0.5354  0.0325
 2616SOL    HW119484   4.429   0.666   4.749 -1.6585 -0.3753  0.4185
 2616SOL    HW219485   4.523   0.734   4.855  0.2628  0.7252  0.0662
 2617SOL     OW19486   2.868   3.229  14.321 -0.5787  0.9130  0.1589
 2617SOL    HW119487   2.870   3.183  14.405  1.2504  0.9831  0.1460
 2617SOL    HW219488   2.828   3.160  14.269  1.4597  0.2224 -0.4792
 2618SOL     OW19489   3.111   3.348  12.582  0.3131  0.0720 -0.0442
 2618SOL    HW119490   3.163   3.291  12.638 -0.5109  1.0162  1.6474
 2618SOL    HW219491   3.123   3.302  12.498 -1.7249 -0.1028 -0.2507
 2619SOL     OW19492   4.532   2.762  11.902  0.3670 -0.4249 -0.6245
 2619SOL    HW119493   4.594   2.717  11.844  0.1205 -0.8087 -0.5886
 2619SOL    HW219494   4.575   2.751  11.987  1.3375  0.5654 -0.9807
 2620SOL     OW19495   2.771   4.168   3.490 -0.3685 -0.5313 -0.1827
 2620SOL    HW119496   2.728   4.193   3.408 -0.2352  2.0349  0.5049
 2620SOL    HW219497   2.738   4.232   3.553 -1.9843 -1.9231  0.3697
 2621SOL     OW19498   3.343   4.571  12.744  0.1544  0.4508  0.0681
 2621SOL    HW119499   3.310   4.660  12.756 -0.6864  0.1060  0.2848
 2621SOL    HW219500   3.273   4.544  12.685  1.8890 -0.0336 -1.7556
 2622SOL     OW19501   1.031   0.665  13.469 -0.1339 -0.2977 -0.1903
 2622SOL    HW119502   1.001   0.719  13.543 -2.5206 -0.6642 -0.8904
 2622SOL    HW219503   0.981   0.584  13.476  0.3720 -0.5972 -0.0559
 2623SOL     OW19504   2.893   4.468   4.345  0.4242  0.2007 -0.1231
 2623SOL    HW119505   2.947   4.497   4.419 -2.5890  0.6646  1.8975
 2623SOL    HW219506   2.830   4.413   4.392  1.3052  0.0241  0.8592
 2624SOL     OW19507   2.243   0.706   0.586  1.1072 -0.3925 -0.3024
 2624SOL    HW119508   2.166   0.712   0.530  0.3827  0.6744  0.8262
 2624SOL    HW219509   2.308   0.754   0.535  1.1635 -0.9583 -0.7631
 2625SOL     OW19510   2.330   3.198   0.181  0.0769 -0.4721  0.3904
 2625SOL    HW119511   2.239   3.226   0.191 -0.1727 -0.9547 -0.4367
 2625SOL    HW219512   2.362   3.193   0.271  0.9703  1.0482  0.1496
 2626SOL     OW19513   2.313   2.903   6.516 -0.6277  0.0160 -0.4506
 2626SOL    HW119514   2.383   2.841   6.540 -2.0102 -0.5283  2.0846
 2626SOL    HW219515   2.343   2.926   6.428  2.1981  1.9359  1.0164
 2627SOL     OW19516   2.511   3.347   1.206 -0.1354  0.0257 -0.4092
 2627SOL    HW119517   2.595   3.368   1.164 -0.7873 -0.4957 -1.9650
 2627SOL    HW219518   2.540   3.337   1.297  0.6531  0.6729 -0.5868
 2628SOL     OW19519   3.174   3.354  10.242 -0.0166 -0.4499  0.6468
 2628SOL    HW119520   3.217   3.273  10.216  0.8550  0.1515  0.2018
 2628SOL    HW219521   3.162   3.352  10.337  2.0944 -2.4271  0.8796
 2629SOL     OW19522   0.197   2.217   7.153  0.0422 -0.0180  0.1052
 2629SOL    HW119523   0.267   2.157   7.127  2.1638  1.7424  1.7497
 2629SOL    HW219524   0.116   2.167   7.159 -0.1414  0.1262 -1.1445
 2630SOL     OW19525   1.470   3.065   2.329  0.1947  0.5146 -0.3293
 2630SOL    HW119526   1.538   3.053   2.263  1.0853  1.3531  0.4419
 2630SOL    HW219527   1.414   3.132   2.290 -0.9867  0.0740  0.6081
 2631SOL     OW19528   1.059   2.927   2.014  0.1528 -0.1704  0.4414
 2631SOL    HW119529   1.053   2.931   2.110  1.8277 -0.8843  0.5820
 2631SOL    HW219530   1.104   2.844   1.996  1.2364  0.5313 -0.0913
 2632SOL     OW19531   3.929   1.730   6.826 -0.1591  0.7547  0.1401
 2632SOL    HW119532   3.850   1.779   6.805 -0.4614 -0.1539 -0.8679
 2632SOL    HW219533   3.885   1.657   6.871 -0.1578  0.2341 -0.6930
 2633SOL     OW19534   3.342   2.847   4.220 -0.2353  0.2507 -0.2096
 2633SOL    HW119535   3.420   2.883   4.178  0.0235 -0.3114 -0.2150
 2633SOL    HW219536   3.384   2.791   4.286 -2.0535 -2.4312 -1.3310
 2634SOL     OW19537   4.016   2.565  14.870  0.2452 -0.0909  0.3189
 2634SOL    HW119538   3.992   2.537  14.781 -2.2866 -0.3014  1.0634
 2634SOL    HW219539   3.938   2.538  14.919  1.2467 -2.1654  0.7792
 2635SOL     OW19540   4.408   3.466   7.028 -0.2797 -0.1616  0.0558
 2635SOL    HW119541   4.465   3.405   7.076  0.9374 -0.8766 -2.3051
 2635SOL    HW219542   4.441   3.451   6.940  1.1385 -1.0748  0.7329
 2636SOL     OW19543   4.109   3.207  16.990 -0.5013  0.3619 -0.0186
 2636SOL    HW119544   4.102   3.137  17.055  2.1531  0.4849  0.4066
 2636SOL    HW219545   4.063   3.276  17.039 -1.1513 -1.9526  2.6050
 2637SOL     OW19546   3.290   1.379  11.532  0.5950 -0.0207  0.5575
 2637SOL    HW119547   3.335   1.424  11.461  0.0551 -0.2242  0.0841
 2637SOL    HW219548   3.354   1.398  11.601  1.9528 -2.1446 -0.1266
 2638SOL     OW19549   0.334   4.539   2.232  0.6374  0.4401 -0.6449
 2638SOL    HW119550   0.369   4.623   2.261  1.1231  0.0043  0.0176
 2638SOL    HW219551   0.408   4.517   2.176  1.1604 -1.2796  0.7472
 2639SOL     OW19552   4.160   4.363   0.540 -0.0163  0.3615 -0.2119
 2639SOL    HW119553   4.229   4.304   0.570 -1.3897  0.0509  2.3746
 2639SOL    HW219554   4.083   4.318   0.576  1.5422 -1.0202  1.3840
 2640SOL     OW19555   3.551   1.695  12.465 -0.1186  0.4296  0.4781
 2640SOL    HW119556   3.461   1.720  12.486  0.4679  2.5999  0.3262
 2640SOL    HW219557   3.569   1.615  12.516  0.0072  0.7243  0.8943
 2641SOL     OW19558   2.919   1.070   1.816 -0.1405  0.6586  0.1499
 2641SOL    HW119559   2.878   1.137   1.870 -0.8580 -0.1861  0.6541
 2641SOL    HW219560   2.929   0.997   1.877 -1.2777  0.7257  0.4186
 2642SOL     OW19561   0.808   0.951   4.212 -0.4660  0.5114 -0.2109
 2642SOL    HW119562   0.805   1.031   4.160 -3.0577  1.0071  0.6807
 2642SOL    HW219563   0.834   0.994   4.294 -0.4660  2.5779 -1.3035
 2643SOL     OW19564   4.300   1.559  13.804 -0.5513 -0.0655 -0.7456
 2643SOL    HW119565   4.372   1.579  13.744 -0.9336 -0.3585 -1.3110
 2643SOL    HW219566   4.329   1.603  13.883 -1.4578  0.0618 -0.4887
 2644SOL     OW19567   3.366   0.923  15.880  0.2356  0.2954  0.5885
 2644SOL    HW119568   3.456   0.942  15.854 -0.3880 -0.5603 -2.2543
 2644SOL    HW219569   3.391   0.865  15.952  0.7707 -0.4192 -0.1773
 2645SOL     OW19570   4.396   0.947   4.188  0.2322  0.2806  0.6934
 2645SOL    HW119571   4.405   0.853   4.169 -1.0590  0.4814 -0.9364
 2645SOL    HW219572   4.402   0.950   4.283  1.7851  0.5928  0.5839
 2646SOL     OW19573   0.289   0.598   6.365  0.0083 -0.6778  0.0246
 2646SOL    HW119574   0.288   0.654   6.287 -2.7504 -0.0652  0.5236
 2646SOL    HW219575   0.200   0.600   6.401  0.5196  2.3909  1.2063
 2647SOL     OW19576   2.126   1.446   4.092 -0.2619  0.1479 -0.2451
 2647SOL    HW119577   2.047   1.502   4.088  0.1358  0.5938 -1.7815
 2647SOL    HW219578   2.100   1.355   4.080  0.0065 -0.3421  2.8183
 2648SOL     OW19579   1.986   1.049  11.652  0.1035 -0.2399  0.4967
 2648SOL    HW119580   1.910   0.991  11.658 -0.2320  0.2732  1.2264
 2648SOL    HW219581   1.951   1.138  11.657  1.1199  0.1034  1.4879
 2649SOL     OW19582   0.098   1.520   5.389  0.2803 -0.0758 -0.1843
 2649SOL    HW119583   0.181   1.506   5.434  0.0829  2.5275  0.9716
 2649SOL    HW219584   0.067   1.429   5.394  2.0199 -0.6827 -0.5757
 2650SOL     OW19585   0.601   1.181   2.025  0.0073  1.1357 -0.2942
 2650SOL    HW119586   0.673   1.201   2.085 -0.0562  0.8842 -0.1326
 2650SOL    HW219587   0.573   1.098   2.063  0.6917  1.2191  0.3996
 2651SOL     OW19588   3.697   1.093   4.364 -0.1657 -0.3039 -0.2011
 2651SOL    HW119589   3.678   1.017   4.310  1.2321  0.5115 -1.8253
 2651SOL    HW219590   3.781   1.121   4.328 -0.3604  0.3433 -0.1527
 2652SOL     OW19591   0.857   0.870   8.257 -0.2438  0.2611 -0.6149
 2652SOL    HW119592   0.883   0.961   8.270 -2.1937  0.7786 -0.4722
 2652SOL    HW219593   0.922   0.849   8.189 -1.1427 -2.7009 -0.5613
 2653SOL     OW19594   0.212   3.338   6.029  0.5961  0.3717  0.5487
 2653SOL    HW119595   0.119   3.321   6.048  0.6999 -0.2551  0.5101
 2653SOL    HW219596   0.207   3.433   6.020  3.0712  0.6206  1.9005
 2654SOL     OW19597   4.575   0.234   1.207  0.2257  0.2087 -0.4192
 2654SOL    HW119598   4.496   0.230   1.261  0.7569 -4.6187 -0.0069
 2654SOL    HW219599   4.543   0.216   1.119  2.3985 -0.2324 -1.1242
 2655SOL     OW19600   2.468   2.314   3.178  0.1503 -0.7910 -0.3197
 2655SOL    HW119601   2.544   2.306   3.234  1.8126  0.9909 -2.3388
 2655SOL    HW219602   2.471   2.232   3.128  0.2328 -0.4581 -0.8655
 2656SOL     OW19603   4.249   1.307  13.703  0.2312 -0.4583  0.2679
 2656SOL    HW119604   4.233   1.387  13.752  1.0932 -0.1879  0.1048
 2656SOL    HW219605   4.165   1.268  13.678 -0.0776 -0.1968  0.9123
 2657SOL     OW19606   3.842   1.505  11.951 -0.2021 -0.2722 -0.0874
 2657SOL    HW119607   3.849   1.422  11.904 -2.6300  0.7051 -2.1358
 2657SOL    HW219608   3.755   1.497  11.989 -1.1317  1.4571 -1.8832
 2658SOL     OW19609   1.271   0.536   1.514 -0.0892 -0.0617  0.3539
 2658SOL    HW119610   1.218   0.492   1.448  0.3074  1.2555 -0.8423
 2658SOL    HW219611   1.233   0.505   1.596 -0.5802  0.6079  0.3823
 2659SOL     OW19612   0.389   3.228   2.580 -0.2757 -0.1256 -0.4703
 2659SOL    HW119613   0.416   3.319   2.583 -4.0737  0.9663  0.8869
 2659SOL    HW219614   0.454   3.190   2.639  0.2527  0.0487 -0.9480
 2660SOL     OW19615   4.069   1.920  13.465  0.2000  0.1139  0.2084
 2660SOL    HW119616   4.101   1.934  13.554  3.3068 -1.5649 -0.6375
 2660SOL    HW219617   4.050   1.826  13.471 -1.2041  0.3841  0.0675
 2661SOL     OW19618   0.540   4.681   6.237 -0.2077 -0.6459 -0.1164
 2661SOL    HW119619   0.456   4.636   6.248 -0.0793 -1.2619 -1.6535
 2661SOL    HW219620   0.591   4.610   6.196 -2.7009 -2.9489  0.7516
 2662SOL     OW19621   2.403   2.840  12.112  0.0941 -0.1501 -0.6316
 2662SOL    HW119622   2.390   2.934  12.106  2.3808  0.2910  1.0595
 2662SOL    HW219623   2.493   2.827  12.081 -0.1351  2.2581 -2.3220
 2663SOL     OW19624   2.510   0.908   2.975  0.1672  0.4860 -0.2482
 2663SOL    HW119625   2.595   0.936   3.010 -0.8931  1.1944  1.7643
 2663SOL    HW219626   2.534   0.880   2.887  1.8624 -1.8374  0.9381
 2664SOL     OW19627   1.563   2.637  12.927  0.5837  0.8739 -0.2038
 2664SOL    HW119628   1.513   2.591  12.861  0.4493  1.9775 -0.8758
 2664SOL    HW219629   1.529   2.594  13.005  0.3218  1.5541  0.0662
 2665SOL     OW19630   3.895   0.976  15.860  0.5098 -0.0572 -0.1558
 2665SOL    HW119631   3.937   1.037  15.921 -1.7492  2.6613 -1.3137
 2665SOL    HW219632   3.880   0.895  15.908  0.2991  1.1502  1.8098
 2666SOL     OW19633   0.555   4.713   2.038 -0.1433 -0.0451  0.0436
 2666SOL    HW119634   0.606   4.700   2.118 -0.0681 -2.1437 -0.3515
 2666SOL    HW219635   0.548   0.073   2.041  1.6030  0.1137 -1.2857
 2667SOL     OW19636   3.629   0.033   6.219 -0.1291  0.2366 -0.7830
 2667SOL    HW119637   3.584   0.088   6.156 -0.1266  0.1531 -0.8573
 2667SOL    HW219638   3.711   0.030   6.171 -0.0959 -1.5920 -0.6361
 2668SOL     OW19639   1.040   4.156   0.509  0.4927  0.0004 -0.2218
 2668SOL    HW119640   1.023   4.098   0.435 -1.9971  2.9683 -1.9162
 2668SOL    HW219641   1.111   4.116   0.559  0.4402  0.6821  0.3957
 2669SOL     OW19642   1.626   1.022  15.893  0.2572  0.2001 -0.4834
 2669SOL    HW119643   1.639   1.090  15.960  0.5979  0.5884 -0.9392
 2669SOL    HW219644   1.710   1.035  15.849  0.8131  1.6258  0.9833
 2670SOL     OW19645   3.615   4.246  17.196  0.5033  0.6925 -0.2719
 2670SOL    HW119646   3.632   4.335  17.227  2.1281  0.1867  0.2754
 2670SOL    HW219647   3.611   4.196  17.278  0.7042  1.6542  0.3191
 2671SOL     OW19648   4.491   2.595   6.600 -0.4103  0.1808 -0.0013
 2671SOL    HW119649   4.424   2.662   6.584  1.2771  1.8040 -0.2864
 2671SOL    HW219650   4.454   2.551   6.676 -1.0687  1.6786  0.5601
 2672SOL     OW19651   4.035   1.159  16.005 -0.6799  0.0351  0.0978
 2672SOL    HW119652   4.068   1.249  16.014  1.2533 -0.4391 -2.0436
 2672SOL    HW219653   4.055   1.127  16.093  2.0654  0.7919 -0.2490
 2673SOL     OW19654   3.600   3.239   1.730 -0.2853 -0.1987 -0.2036
 2673SOL    HW119655   3.637   3.319   1.766 -0.5466 -1.7431  3.5028
 2673SOL    HW219656   3.641   3.177   1.790  1.4519  0.7029 -0.4782
 2674SOL     OW19657   0.713   2.302   8.875  0.7596 -0.0761 -0.1023
 2674SOL    HW119658   0.788   2.244   8.862  1.2867  0.3803  0.8983
 2674SOL    HW219659   0.644   2.239   8.891 -1.2085  1.3704 -2.9562
 2675SOL     OW19660   3.133   2.202   8.725 -0.1543 -0.2463 -0.1644
 2675SOL    HW119661   3.166   2.231   8.640  1.8242 -0.9703  0.3645
 2675SOL    HW219662   3.040   2.184   8.708 -0.8906 -0.1869  3.7781
 2676SOL     OW19663   2.950   2.929   8.305 -0.3493  0.2332 -0.1621
 2676SOL    HW119664   2.909   3.003   8.348  1.5695 -0.6840  3.3117
 2676SOL    HW219665   2.873   2.874   8.289 -1.4886  1.7268  0.2753
 2677SOL     OW19666   3.122   2.460   5.735  0.8724 -0.1913  0.3692
 2677SOL    HW119667   3.217   2.451   5.742  1.0928  2.3946  0.7565
 2677SOL    HW219668   3.092   2.466   5.826 -0.7476  1.7105 -0.3015
 2678SOL     OW19669   2.150   4.291   4.627 -0.6029  0.6826  0.3313
 2678SOL    HW119670   2.234   4.246   4.620 -1.3055 -0.5323 -0.5199
 2678SOL    HW219671   2.099   4.259   4.552 -0.4883  3.5404 -0.9784
 2679SOL     OW19672   3.775   3.755   1.012  0.2492 -0.0780  0.2916
 2679SOL    HW119673   3.865   3.723   1.002  1.2846  3.5061 -2.1194
 2679SOL    HW219674   3.741   3.744   0.923 -0.7163  1.0608  0.5131
 2680SOL     OW19675   0.919   4.710  13.848 -0.3266 -0.1956 -0.2492
 2680SOL    HW119676   0.839   4.663  13.822  1.5594 -3.6318  0.1009
 2680SOL    HW219677   0.935   4.674  13.935  1.5212 -0.9601 -0.9013
 2681SOL     OW19678   3.628   1.217   0.184  0.2443  0.6701  0.4492
 2681SOL    HW119679   3.613   1.149   0.118  1.3165 -1.1559  2.0737
 2681SOL    HW219680   3.646   1.161   0.259 -0.7457  1.0250  0.9527
 2682SOL     OW19681   1.449   0.015  13.769 -0.0907 -0.1486  0.2199
 2682SOL    HW119682   1.479   0.088  13.715  0.7606 -0.6060  0.0809
 2682SOL    HW219683   1.501   0.028  13.848  0.9652  1.3970 -0.7289
 2683SOL     OW19684   4.572   4.107  16.432 -0.5249  0.4211  0.2187
 2683SOL    HW119685   4.551   4.163  16.357 -0.2475 -2.1752 -1.8263
 2683SOL    HW219686   4.571   4.176  16.498 -1.3514  0.2902  0.3519
 2684SOL     OW19687   3.871   3.836   1.931 -0.3724  0.1979  0.2663
 2684SOL    HW119688   3.966   3.828   1.938 -0.4276  0.3650  1.1255
 2684SOL    HW219689   3.871   3.861   1.838  1.3827 -0.3538  0.1024
 2685SOL     OW19690   3.349   2.190   3.765  0.0052  0.2790 -0.9760
 2685SOL    HW119691   3.381   2.267   3.720  0.1329  0.8351  0.0549
 2685SOL    HW219692   3.309   2.229   3.843  2.3509  0.1743  0.2586
 2686SOL     OW19693   4.669   3.291   9.361 -0.4828 -0.2159  0.1445
 2686SOL    HW119694   4.579   3.285   9.394 -0.4820 -1.2149 -0.0356
 2686SOL    HW219695   4.714   3.244   9.431  0.8903  0.8330 -0.0416
 2687SOL     OW19696   2.222   2.969   8.780 -0.9381 -0.3342  0.1451
 2687SOL    HW119697   2.227   3.061   8.754  0.4653  0.3538  2.8191
 2687SOL    HW219698   2.168   2.932   8.710 -0.1533  1.2941 -1.3194
 2688SOL     OW19699   3.100   1.764   2.370 -0.3866 -0.0956 -0.3969
 2688SOL    HW119700   3.149   1.812   2.303 -0.7138 -0.2593 -0.7527
 2688SOL    HW219701   3.115   1.671   2.353  2.3843  0.6019 -1.8056
 2689SOL     OW19702   2.145   1.840   9.031  0.5120  0.4755  0.3722
 2689SOL    HW119703   2.119   1.764   9.083 -0.0497  0.6569  0.3487
 2689SOL    HW219704   2.062   1.845   8.985  0.5259  0.7655  0.3730
 2690SOL     OW19705   4.276   2.087  16.332 -0.0399 -0.3408 -0.8401
 2690SOL    HW119706   4.364   2.075  16.296  0.2428 -1.9791  0.4240
 2690SOL    HW219707   4.229   2.114  16.253 -0.4263  2.2113  0.2840
 2691SOL     OW19708   0.394   1.291   8.203  0.2986 -0.4526 -0.5375
 2691SOL    HW119709   0.328   1.345   8.161  1.2248  1.8112  0.9572
 2691SOL    HW219710   0.391   1.321   8.294  3.4658  0.5301 -0.7580
 2692SOL     OW19711   2.535   0.306   8.448 -0.7356  0.1259  0.3026
 2692SOL    HW119712   2.568   0.380   8.499 -0.5443  1.6844 -2.0762
 2692SOL    HW219713   2.535   0.234   8.511 -0.0508 -1.2198 -1.2264
 2693SOL     OW19714   1.658   0.690  16.701  0.5076  0.2621  0.3475
 2693SOL    HW119715   1.691   0.627  16.766 -2.7709 -1.6065  0.2484
 2693SOL    HW219716   1.699   0.651  16.625  1.1412  1.0362  0.2986
 2694SOL     OW19717   0.688   4.566  13.754 -0.1990  0.2449  0.1334
 2694SOL    HW119718   0.599   4.594  13.776 -0.0980 -0.1211  1.0106
 2694SOL    HW219719   0.668   4.490  13.699 -1.1781 -0.4784  1.4830
 2695SOL     OW19720   0.414   1.886   6.229 -0.0755 -0.5360  0.4558
 2695SOL    HW119721   0.421   1.979   6.249  0.8582 -0.2027 -1.3586
 2695SOL    HW219722   0.333   1.893   6.180 -0.7032  0.7243  1.6772
 2696SOL     OW19723   1.908   0.920   9.425 -0.3322 -0.0830 -0.3482
 2696SOL    HW119724   1.960   0.932   9.504  1.7936 -1.5303 -1.5407
 2696SOL    HW219725   1.943   0.842   9.382  1.6412  0.2778  0.6342
 2697SOL     OW19726   3.192   1.861  12.975  0.3104 -0.4611  0.7295
 2697SOL    HW119727   3.185   1.805  13.052 -2.0824 -1.7360 -0.3997
 2697SOL    HW219728   3.184   1.952  13.004 -0.4486 -0.4556  0.4975
 2698SOL     OW19729   0.933   0.791  13.744  0.5532 -0.0005  0.0947
 2698SOL    HW119730   0.976   0.857  13.798  2.8101 -1.4325  0.0317
 2698SOL    HW219731   0.865   0.837  13.694  1.8203  0.9702 -0.7364
 2699SOL     OW19732   0.293   0.369   5.012  0.3981 -0.1793 -0.1458
 2699SOL    HW119733   0.321   0.453   4.975  1.9066 -1.7824 -2.6319
 2699SOL    HW219734   0.209   0.360   4.967 -1.2610 -2.4653  3.4328
 2700SOL     OW19735   2.843   1.219  13.433  0.0430 -0.3894  0.0283
 2700SOL    HW119736   2.864   1.206  13.525 -2.5219 -0.4071  0.6041
 2700SOL    HW219737   2.769   1.279  13.444  0.9536  0.7852 -0.3148
 2701SOL     OW19738   4.214   0.730  17.190  0.1226 -0.5409 -0.3603
 2701SOL    HW119739   4.232   0.814  17.148  0.1400 -0.6605 -0.5928
 2701SOL    HW219740   4.181   0.696  17.107 -0.1994 -0.6080 -0.2055
 2702SOL     OW19741   4.577   2.287  11.375 -0.2369  0.9955  0.2222
 2702SOL    HW119742   4.633   2.210  11.380 -0.4494  0.7064 -1.6986
 2702SOL    HW219743   4.529   2.288  11.458  1.4098 -0.0089  1.1898
 2703SOL     OW19744   4.461   4.261   9.651  0.0506 -0.5332 -0.6649
 2703SOL    HW119745   4.400   4.308   9.708  0.8299 -0.2706 -0.0321
 2703SOL    HW219746   4.466   4.325   9.580  0.2784  0.8142  0.5524
 2704SOL     OW19747   1.630   1.998  14.390 -0.5509 -0.5931 -0.5483
 2704SOL    HW119748   1.604   2.053  14.316  2.3097 -3.0047 -3.3730
 2704SOL    HW219749   1.548   1.991  14.438  0.7683  1.7032  1.9975
 2705SOL     OW19750   0.406   3.578   4.698  0.5546  0.0871  0.2103
 2705SOL    HW119751   0.416   3.484   4.712 -0.3267 -0.0851 -0.3761
 2705SOL    HW219752   0.446   3.562   4.612 -1.2481  1.1998 -0.8186
 2706SOL     OW19753   3.445   0.072   7.161 -0.2506  0.2152  0.3068
 2706SOL    HW119754   3.415   0.151   7.207  1.9190  0.5753  1.0901
 2706SOL    HW219755   3.539   0.079   7.176  0.0988 -2.4085 -0.5960
 2707SOL     OW19756   3.608   0.781  17.585 -0.4103 -0.0365  0.5134
 2707SOL    HW119757   3.673   0.843  17.552 -0.0411 -0.9425 -0.4853
 2707SOL    HW219758   3.542   0.803  17.520  0.5245  2.6350  0.4827
 2708SOL     OW19759   3.200   1.680   6.287  0.1194 -0.2746 -0.0425
 2708SOL    HW119760   3.244   1.633   6.217 -0.7606 -1.6321  0.3005
 2708SOL    HW219761   3.106   1.661   6.286  0.4632 -2.0204  0.0630
 2709SOL     OW19762   0.597   1.245   4.116 -0.1832 -0.3031 -0.4141
 2709SOL    HW119763   0.548   1.163   4.112 -1.7172  0.5022  1.5734
 2709SOL    HW219764   0.602   1.272   4.025  0.4331 -2.1809 -0.9300
 2710SOL     OW19765   2.969   3.498   3.236 -0.9163 -0.7048 -0.2465
 2710SOL    HW119766   2.891   3.475   3.287 -0.9251  0.4036  0.2536
 2710SOL    HW219767   3.010   3.414   3.216  0.2437 -0.0582 -0.6257
 2711SOL     OW19768   0.036   0.994   7.216 -0.0231 -0.3503 -0.2116
 2711SOL    HW119769   4.683   0.988   7.249  0.0062 -0.5509 -0.1712
 2711SOL    HW219770   0.047   0.910   7.172 -2.7908 -1.8649  2.0234
 2712SOL     OW19771   3.744   4.372  14.309 -0.3966 -0.1463 -0.1560
 2712SOL    HW119772   3.831   4.357  14.347  0.0214 -0.4052 -1.2138
 2712SOL    HW219773   3.708   4.287  14.284  2.0355 -1.2410  0.0069
 2713SOL     OW19774   1.594   4.158   5.247 -0.1148  0.5093  0.2392
 2713SOL    HW119775   1.632   4.086   5.298  0.8803  1.0217  0.2213
 2713SOL    HW219776   1.662   4.166   5.180  0.0350  1.4553  0.5094
 2714SOL     OW19777   2.446   3.250   0.964 -0.1868 -0.0230  0.1348
 2714SOL    HW119778   2.433   3.267   1.058 -1.7147  2.0705 -0.4708
 2714SOL    HW219779   2.430   3.156   0.952 -0.5992 -0.1542  1.6401
 2715SOL     OW19780   1.250   4.046  16.536 -0.0188 -0.4657  0.0944
 2715SOL    HW119781   1.333   4.008  16.563 -0.3186 -1.7096 -0.7013
 2715SOL    HW219782   1.195   4.039  16.614 -2.3892  0.4737 -1.4776
 2716SOL     OW19783   2.364   4.592   3.732 -0.1676 -0.1123  0.1532
 2716SOL    HW119784   2.382   4.509   3.776 -3.3849 -0.1295  1.4289
 2716SOL    HW219785   2.307   4.623   3.802  1.3310 -0.0925  1.3808
 2717SOL     OW19786   0.553   2.801  13.775  0.7943 -0.7307 -0.2473
 2717SOL    HW119787   0.466   2.761  13.764 -1.4662  4.0108  0.1686
 2717SOL    HW219788   0.598   2.760  13.701 -0.0915 -0.3951 -0.9706
 2718SOL     OW19789   4.421   3.507   3.443  0.5067 -0.1793  0.3512
 2718SOL    HW119790   4.419   3.602   3.457  2.1690  0.0643 -0.9603
 2718SOL    HW219791   4.336   3.490   3.402 -0.4229  0.5018  2.0288
 2719SOL     OW19792   4.391   0.503  12.764  0.1090  0.0626 -0.0722
 2719SOL    HW119793   4.371   0.499  12.671 -1.3538  1.5855  0.1699
 2719SOL    HW219794   4.430   0.418  12.784 -0.9229  0.0602  2.0286
 2720SOL     OW19795   3.798   1.693   5.641 -0.4675 -0.9523 -0.2963
 2720SOL    HW119796   3.724   1.690   5.703  0.0165  0.6110  0.3697
 2720SOL    HW219797   3.770   1.778   5.607 -1.6904 -0.3673  2.0878
 2721SOL     OW19798   2.730   1.026   7.668 -0.0122 -0.4512 -0.2332
 2721SOL    HW119799   2.810   1.022   7.719 -0.9695 -2.5579  1.1337
 2721SOL    HW219800   2.706   1.118   7.678 -1.1381 -0.7868  0.2467
 2722SOL     OW19801   4.043   3.814   2.729 -0.2535  0.3447  0.0174
 2722SOL    HW119802   3.987   3.794   2.804 -1.2319  2.4690 -0.1556
 2722SOL    HW219803   3.988   3.882   2.690  1.6843  0.8851 -1.7720
 2723SOL     OW19804   3.773   3.833   9.573 -0.0483  0.0645 -0.4984
 2723SOL    HW119805   3.833   3.827   9.647 -2.9985 -1.1989  1.8036
 2723SOL    HW219806   3.723   3.908   9.608 -0.0281 -0.8054  1.3971
 2724SOL     OW19807   0.604   3.773   9.206 -0.0304  0.3020 -0.2068
 2724SOL    HW119808   0.606   3.712   9.279 -2.7307 -1.0666 -1.2691
 2724SOL    HW219809   0.659   3.731   9.140  3.0910  0.1893  2.4940
 2725SOL     OW19810   0.884   3.806   8.295 -0.1322 -0.1106 -0.3229
 2725SOL    HW119811   0.974   3.830   8.272 -0.5716  0.5453 -1.3527
 2725SOL    HW219812   0.853   3.773   8.211  1.2871  0.9039 -1.2604
 2726SOL     OW19813   3.145   1.408   9.200 -0.5327  0.8718  0.1678
 2726SOL    HW119814   3.050   1.418   9.195 -0.4263  1.4491 -0.7697
 2726SOL    HW219815   3.165   1.447   9.286 -1.2669 -1.0179  1.1744
 2727SOL     OW19816   1.543   0.266   9.708 -0.4556  0.3264  0.3754
 2727SOL    HW119817   1.613   0.323   9.738 -1.8972  2.0520  0.4418
 2727SOL    HW219818   1.479   0.272   9.779 -0.7163  1.3896  0.0595
 2728SOL     OW19819   0.057   0.340  16.720  0.0344 -0.0471  0.0663
 2728SOL    HW119820   0.088   0.318  16.633 -0.0699 -1.7302  0.4546
 2728SOL    HW219821   4.700   0.348  16.697  0.4637  1.6400 -1.0926
 2729SOL     OW19822   0.832   0.796   8.521 -0.3717  0.0126  0.0791
 2729SOL    HW119823   0.816   0.820   8.430  1.0454 -0.2305 -0.2288
 2729SOL    HW219824   0.825   0.701   8.516  0.2132 -0.1125  1.5428
 2730SOL     OW19825   1.599   1.888   7.055  0.4227  0.0528 -0.4957
 2730SOL    HW119826   1.658   1.958   7.084  0.4409 -0.1878  0.0371
 2730SOL    HW219827   1.544   1.929   6.988 -2.1354  1.2831  2.3389
 2731SOL     OW19828   2.632   1.382  13.478  0.3538  0.2101 -0.6014
 2731SOL    HW119829   2.537   1.373  13.492  0.7549  0.3678  2.1449
 2731SOL    HW219830   2.625   1.430  13.395  0.2642  0.6517 -0.3363
 2732SOL     OW19831   1.101   4.519  14.258 -0.0864  0.3199  0.3970
 2732SOL    HW119832   1.151   4.449  14.217 -1.8041 -1.3964  1.2310
 2732SOL    HW219833   1.141   4.515  14.345 -2.4951 -0.8986  1.4457
 2733SOL     OW19834   2.772   3.415  17.188 -0.4496  0.4372 -0.0547
 2733SOL    HW119835   2.730   3.362  17.255 -0.6052 -0.0408 -0.5260
 2733SOL    HW219836   2.697   3.471  17.171 -0.2363  0.4013 -1.1345
 2734SOL     OW19837   1.575   3.648   3.911 -0.2782 -0.4818 -0.1326
 2734SOL    HW119838   1.553   3.687   3.826 -1.1832 -1.5696 -0.3973
 2734SOL    HW219839   1.576   3.733   3.955  0.5441 -1.5202  1.8319
 2735SOL     OW19840   2.364   4.053   4.866 -0.0317 -0.3091  0.2096
 2735SOL    HW119841   2.314   4.080   4.943 -0.6191 -0.6962 -0.0328
 2735SOL    HW219842   2.449   4.088   4.892  0.2683  1.0713 -2.6354
 2736SOL     OW19843   3.215   2.203   5.958 -0.0109 -0.0832  0.2686
 2736SOL    HW119844   3.152   2.263   5.997  1.8291  1.2692  1.2101
 2736SOL    HW219845   3.284   2.254   5.915 -0.4443 -0.1179 -0.4703
 2737SOL     OW19846   4.245   4.495  11.430  0.0992 -0.6217  0.3926
 2737SOL    HW119847   4.302   4.546  11.487  1.0209 -0.1501 -0.9638
 2737SOL    HW219848   4.198   4.440  11.493 -0.5046 -2.1637 -1.4098
 2738SOL     OW19849   4.065   1.440   3.036 -0.3912  0.6609 -0.1433
 2738SOL    HW119850   4.073   1.480   2.949  0.1930 -0.3447 -0.5529
 2738SOL    HW219851   4.002   1.498   3.078 -0.5391  1.6243 -1.6687
 2739SOL     OW19852   2.392   1.860   4.420  0.0322  0.1022 -0.1847
 2739SOL    HW119853   2.467   1.832   4.473  0.5124  1.9527  0.1159
 2739SOL    HW219854   2.356   1.773   4.401 -0.7940  0.8700 -2.1481
 2740SOL     OW19855   0.468   3.238   8.902 -0.0930  0.0002 -0.1049
 2740SOL    HW119856   0.494   3.309   8.960 -0.3450 -1.5417  1.9098
 2740SOL    HW219857   0.529   3.168   8.925  0.1709  0.7032  1.3255
 2741SOL     OW19858   1.941   0.600   2.413 -0.3891  0.0851 -0.0911
 2741SOL    HW119859   1.890   0.623   2.335  1.5221  0.3325 -1.2848
 2741SOL    HW219860   2.028   0.634   2.390 -0.1576  0.7763  1.8838
 2742SOL     OW19861   1.160   0.289   3.917 -0.1001 -0.8946 -0.0611
 2742SOL    HW119862   1.114   0.355   3.969 -0.6645 -1.5123  0.2266
 2742SOL    HW219863   1.090   0.255   3.862  1.1360 -0.7571 -1.7173
 2743SOL     OW19864   4.614   0.013   6.930 -1.2059  0.3717 -0.1083
 2743SOL    HW119865   4.624   4.677   6.993 -1.8981  1.7004  1.5121
 2743SOL    HW219866   4.556   0.073   6.977  1.5803  3.7847 -0.9927
 2744SOL     OW19867   4.325   2.559   5.586  0.2661 -0.6564 -0.0859
 2744SOL    HW119868   4.340   2.653   5.596  0.1707 -0.8927  2.1367
 2744SOL    HW219869   4.229   2.559   5.591  0.2035 -1.4097 -1.2790
 2745SOL     OW19870   4.452   3.277   2.239 -1.0068 -0.5582  0.0690
 2745SOL    HW119871   4.452   3.318   2.326 -0.8979  0.6770 -0.5078
 2745SOL    HW219872   4.530   3.317   2.201 -0.5338 -2.7621 -1.2761
 2746SOL     OW19873   3.623   0.929   2.862  0.2035  0.3797 -0.1528
 2746SOL    HW119874   3.554   0.899   2.803  1.6734 -0.8431 -1.2637
 2746SOL    HW219875   3.604   1.020   2.882 -0.9694  0.2475 -0.6919
 2747SOL     OW19876   4.104   4.216   2.474 -0.3516 -0.6151 -0.1608
 2747SOL    HW119877   4.072   4.304   2.492  1.6862  0.4457 -1.6607
 2747SOL    HW219878   4.159   4.206   2.552 -1.7611  1.6635  1.1135
 2748SOL     OW19879   3.138   0.896   6.496  0.2205  0.5244 -0.0361
 2748SOL    HW119880   3.199   0.823   6.510 -0.1736  0.4392  1.2109
 2748SOL    HW219881   3.061   0.868   6.545  0.5742 -0.2048  0.1066
 2749SOL     OW19882   3.562   1.265  17.279 -0.6379 -0.0233  0.4244
 2749SOL    HW119883   3.581   1.319  17.202  0.9309 -0.5044  0.4868
 2749SOL    HW219884   3.480   1.219  17.262 -0.7090  1.1902 -2.6901
 2750SOL     OW19885   0.566   3.143  14.107 -0.1520  0.3737 -0.7243
 2750SOL    HW119886   0.533   3.069  14.057  0.2831 -0.7641  0.6913
 2750SOL    HW219887   0.656   3.143  14.076  0.2268 -1.5515  0.3977
 2751SOL     OW19888   2.138   3.213   0.641  0.0548 -0.4773 -0.1052
 2751SOL    HW119889   2.186   3.152   0.584 -0.2203 -0.2409 -0.5885
 2751SOL    HW219890   2.167   3.195   0.730  0.0282 -1.8586 -0.3654
 2752SOL     OW19891   2.598   0.051   9.715  0.0708 -0.3789 -0.3964
 2752SOL    HW119892   2.684   0.088   9.732  0.5913 -0.3384 -3.1743
 2752SOL    HW219893   2.548   0.100   9.781  1.3913  0.9369 -0.3774
 2753SOL     OW19894   2.555   4.719   1.675  0.2634  0.5603 -0.5401
 2753SOL    HW119895   2.512   0.059   1.637  0.8426  0.6065 -1.1016
 2753SOL    HW219896   2.578   4.673   1.595 -1.8807 -2.1065  0.3578
 2754SOL     OW19897   2.612   4.295  10.077  0.2635 -0.3887 -0.0736
 2754SOL    HW119898   2.600   4.336   9.991 -2.3881  2.2258  1.5502
 2754SOL    HW219899   2.541   4.232  10.065 -0.4016  0.2307  0.5853
 2755SOL     OW19900   4.046   4.171   3.212  0.2728 -0.3973  0.5326
 2755SOL    HW119901   4.077   4.141   3.297  0.4020 -0.2362  0.5428
 2755SOL    HW219902   3.952   4.174   3.227  0.3049  2.5482  0.1467
 2756SOL     OW19903   1.826   1.584   5.465  0.1336 -0.1282 -0.1718
 2756SOL    HW119904   1.818   1.576   5.370  0.6246 -0.1412 -0.2077
 2756SOL    HW219905   1.773   1.511   5.497  0.2005 -0.3857 -0.6585
 2757SOL     OW19906   0.453   1.910   5.101  0.2154  0.0485 -0.0909
 2757SOL    HW119907   0.465   1.834   5.156 -1.0085 -0.3013 -0.3206
 2757SOL    HW219908   0.419   1.864   5.025 -1.1523 -1.7499  1.6458
 2758SOL     OW19909   3.498   2.758   6.696 -0.3319 -0.4134 -0.0571
 2758SOL    HW119910   3.436   2.828   6.675  1.0362  0.7225 -0.3708
 2758SOL    HW219911   3.545   2.789   6.774  0.9257  3.8549 -2.5072
 2759SOL     OW19912   3.327   2.593  17.163  0.8318  0.1452 -0.4471
 2759SOL    HW119913   3.291   2.682  17.165 -2.5844 -1.2629  1.0660
 2759SOL    HW219914   3.317   2.572  17.071  0.0133 -2.7155  0.3096
 2760SOL     OW19915   4.495   4.663   4.886  0.2407 -0.4747 -0.0586
 2760SOL    HW119916   4.510   4.608   4.809 -0.4053  0.2730 -0.7157
 2760SOL    HW219917   4.567   4.624   4.937  1.4106  2.5090  0.5531
 2761SOL     OW19918   2.059   1.382   6.358  0.0984  0.5609  0.4957
 2761SOL    HW119919   2.054   1.299   6.405 -2.0383  1.7636  2.3912
 2761SOL    HW219920   2.142   1.373   6.311  0.3907 -0.6623  1.2362
 2762SOL     OW19921   3.804   4.307   9.472  0.2852  0.7194  0.1521
 2762SOL    HW119922   3.731   4.370   9.466 -0.4564 -0.1895 -0.3763
 2762SOL    HW219923   3.780   4.249   9.544 -0.3891 -0.7102 -1.2220
 2763SOL     OW19924   3.289   2.914   2.532 -0.3927  0.5524 -0.1956
 2763SOL    HW119925   3.264   2.822   2.543 -0.8955  0.9499  2.0802
 2763SOL    HW219926   3.246   2.940   2.451 -1.2749  1.1644  0.4658
 2764SOL     OW19927   0.111   3.455   5.118 -0.0593  0.1795  0.2926
 2764SOL    HW119928   0.061   3.374   5.126 -3.5096  2.3534  0.4487
 2764SOL    HW219929   0.071   3.518   5.178 -2.8637 -0.4124 -0.9770
 2765SOL     OW19930   3.660   1.467   7.570  0.5081 -0.0351 -0.8125
 2765SOL    HW119931   3.651   1.400   7.638  0.8696 -1.7321 -2.4375
 2765SOL    HW219932   3.640   1.550   7.614  1.1011 -0.7451  0.8082
 2766SOL     OW19933   3.120   4.339  10.205 -0.0427  0.9596  0.3845
 2766SOL    HW119934   3.044   4.283  10.221 -1.2110  1.8875 -1.9440
 2766SOL    HW219935   3.140   4.378  10.290 -2.6092  2.3076  0.3696
 2767SOL     OW19936   2.466   2.248   2.484  0.1836  0.3108  0.7452
 2767SOL    HW119937   2.432   2.318   2.540 -0.3087 -0.9583  2.0264
 2767SOL    HW219938   2.513   2.203   2.553  0.3854  0.2678  0.5799
 2768SOL     OW19939   0.233   2.861  11.653 -0.1601  0.2359  0.6732
 2768SOL    HW119940   0.242   2.835  11.745  0.6747  0.9908  0.8049
 2768SOL    HW219941   0.141   2.889  11.654 -0.1879  0.1575 -0.0602
 2769SOL     OW19942   0.350   0.826  12.779  0.1356  0.1279 -0.4662
 2769SOL    HW119943   0.262   0.833  12.742  0.5561  1.9839 -1.1474
 2769SOL    HW219944   0.330   0.798  12.868  3.3517 -0.5986 -0.0030
 2770SOL     OW19945   0.852   4.544  17.678  0.2181  0.7656  0.3495
 2770SOL    HW119946   0.852   4.517  17.586  2.9609 -0.2785  0.6529
 2770SOL    HW219947   0.776   4.601  17.694  0.7025  1.4937  0.0577
 2771SOL     OW19948   2.467   3.943   6.393  0.6293 -0.6624  0.4992
 2771SOL    HW119949   2.519   3.893   6.455  0.6546  0.2196  1.1832
 2771SOL    HW219950   2.408   3.877   6.358  1.2631 -0.0585 -1.7807
 2772SOL     OW19951   2.585   1.341   6.796  0.2897  0.0169  0.2950
 2772SOL    HW119952   2.600   1.321   6.704  1.7635  4.5406 -0.4198
 2772SOL    HW219953   2.674   1.344   6.829  0.5678  1.8125 -0.6352
 2773SOL     OW19954   3.375   1.048   5.375  0.2896 -0.0997 -0.1274
 2773SOL    HW119955   3.321   0.969   5.368  1.3053 -0.7249 -0.9566
 2773SOL    HW219956   3.420   1.028   5.458  1.7281  0.1077 -0.8549
 2774SOL     OW19957   2.171   0.669   0.853 -0.0390  0.1099 -0.6001
 2774SOL    HW119958   2.155   0.680   0.760 -1.0301 -1.0981 -0.5752
 2774SOL    HW219959   2.088   0.628   0.877  1.3896 -1.3102  1.9302
 2775SOL     OW19960   3.592   3.523  16.509  0.3528  0.3089 -0.8763
 2775SOL    HW119961   3.673   3.478  16.485 -0.1201 -0.3027 -1.3163
 2775SOL    HW219962   3.578   3.479  16.592 -1.4570 -1.2312 -2.0081
 2776SOL     OW19963   3.276   3.492   0.903  0.3618  0.2601 -0.1835
 2776SOL    HW119964   3.333   3.566   0.884  1.5337 -1.1693 -2.2403
 2776SOL    HW219965   3.299   3.494   0.996  0.1093 -3.2736 -0.0476
 2777SOL     OW19966   2.816   3.983   4.861  0.8435  0.0220  0.3735
 2777SOL    HW119967   2.810   4.051   4.794  1.0291 -0.0181  0.3152
 2777SOL    HW219968   2.804   3.905   4.806  1.1767  0.5406 -0.4390
 2778SOL     OW19969   0.486   0.340   7.978 -0.2294 -0.0534 -0.3174
 2778SOL    HW119970   0.423   0.315   7.910 -0.2201 -1.7852  0.3189
 2778SOL    HW219971   0.445   0.279   8.039  1.1415 -2.9463 -2.2757
 2779SOL     OW19972   3.732   2.483  10.830  0.0272  0.5181 -0.1713
 2779SOL    HW119973   3.775   2.567  10.813  1.3444 -0.3194 -0.9869
 2779SOL    HW219974   3.638   2.499  10.821 -0.1090 -0.5069 -0.5223
 2780SOL     OW19975   4.683   4.410  14.037 -0.1164 -0.1426  0.1079
 2780SOL    HW119976   4.691   4.336  13.976  1.7725  1.9611 -2.1722
 2780SOL    HW219977   0.003   4.474  13.993  0.1127  1.0319  2.1178
 2781SOL     OW19978   0.621   0.935  10.661  0.0956 -0.1175  0.4821
 2781SOL    HW119979   0.650   0.845  10.673 -2.6031 -0.6824  2.6932
 2781SOL    HW219980   0.707   0.969  10.637  0.2538 -3.0393 -3.1433
 2782SOL     OW19981   3.709   1.308   9.029  0.6475 -0.3357 -0.2936
 2782SOL    HW119982   3.685   1.239   9.091 -0.5201 -0.2444 -0.6432
 2782SOL    HW219983   3.752   1.254   8.963  0.7083  0.0896 -0.6042
 2783SOL     OW19984   1.301   0.721  15.238 -0.0528  0.3363  0.1555
 2783SOL    HW119985   1.363   0.744  15.308  0.7793  0.1122 -0.5006
 2783SOL    HW219986   1.359   0.724  15.162 -2.0192 -2.4551 -1.4312
 2784SOL     OW19987   2.908   2.479   7.672 -0.0995  0.4848 -0.3742
 2784SOL    HW119988   2.937   2.567   7.698 -2.7364  1.2740 -0.0738
 2784SOL    HW219989   2.936   2.426   7.747 -0.5559  0.0993 -0.4746
 2785SOL     OW19990   4.534   3.393   6.366 -0.3469 -0.3539  0.1678
 2785SOL    HW119991   4.556   3.314   6.417  0.1784 -0.3507 -0.0528
 2785SOL    HW219992   4.603   3.443   6.411  1.4323 -0.7716 -2.1163
 2786SOL     OW19993   2.277   0.983  15.875 -0.5923 -0.5450 -0.1501
 2786SOL    HW119994   2.298   0.963  15.966  1.2449  1.0582 -0.2305
 2786SOL    HW219995   2.362   0.997  15.833 -0.1374  0.4095  1.0897
 2787SOL     OW19996   2.059   1.383   2.610 -0.1913 -0.1308 -0.3676
 2787SOL    HW119997   1.966   1.396   2.592 -0.1754  0.8735  0.3217
 2787SOL    HW219998   2.060   1.287   2.614 -1.7897 -0.2021 -1.6133
 2788SOL     OW19999   3.144   1.943   5.770  0.2879  0.1866 -0.7349
 2788SOL    HW120000   3.178   2.014   5.716 -0.6860 -1.5868 -3.6676
 2788SOL    HW220001   3.066   1.987   5.805  1.8542  0.7783  2.0382
 2789SOL     OW20002   3.694   0.298   8.411  0.0914 -0.0965 -0.3359
 2789SOL    HW120003   3.740   0.273   8.491  0.0320 -0.3544 -0.3813
 2789SOL    HW220004   3.735   0.229   8.358  1.1462 -0.4127  0.8960
 2790SOL     OW20005   2.643   2.108   5.113  0.2906 -0.0592  0.2353
 2790SOL    HW120006   2.723   2.153   5.142 -0.2443 -0.2907  2.0594
 2790SOL    HW220007   2.683   2.062   5.039 -2.6334  1.0812 -2.0283
 2791SOL     OW20008   0.279   1.853   8.008 -0.6698 -0.3609  0.1187
 2791SOL    HW120009   0.211   1.910   8.043 -0.0825 -0.3085  1.1890
 2791SOL    HW220010   0.330   1.858   8.089  1.0754  1.9069 -1.1290
 2792SOL     OW20011   2.969   3.155   1.612 -0.6627  0.0216  0.0210
 2792SOL    HW120012   3.019   3.204   1.678 -0.8131 -1.2844  1.1028
 2792SOL    HW220013   2.983   3.199   1.529 -0.8495 -1.0667 -0.5858
 2793SOL     OW20014   0.696   2.600   7.280 -0.2417 -0.1751 -0.2924
 2793SOL    HW120015   0.617   2.645   7.310 -0.8164 -1.6999  0.5050
 2793SOL    HW220016   0.678   2.562   7.195 -0.1535  0.1960 -0.4758
 2794SOL     OW20017   4.045   4.365   6.897 -0.4846  0.5010 -0.6200
 2794SOL    HW120018   4.011   4.382   6.809 -1.8774  1.0750  0.0373
 2794SOL    HW220019   4.107   4.299   6.866 -0.4024  0.5924 -0.6523
 2795SOL     OW20020   3.199   2.754   2.130 -0.1410  0.4326  0.1024
 2795SOL    HW120021   3.171   2.842   2.157  1.5979  1.0723 -0.1895
 2795SOL    HW220022   3.256   2.733   2.205 -0.6872  1.4336  0.8057
 2796SOL     OW20023   1.886   0.179  17.676 -0.7996  0.5659  0.2143
 2796SOL    HW120024   1.933   0.261  17.660  0.4881 -0.1613  0.2833
 2796SOL    HW220025   1.844   0.207   0.015  1.0002 -0.7455  1.6143
 2797SOL     OW20026   3.234   4.211  17.661 -0.0939  0.8282 -0.2628
 2797SOL    HW120027   3.139   4.212  17.645 -0.1503  2.2557  0.2182
 2797SOL    HW220028   3.271   4.194  17.574 -0.1265 -2.2086  0.3017
 2798SOL     OW20029   0.980   0.544   3.879 -0.0307  0.1783 -0.3085
 2798SOL    HW120030   0.921   0.602   3.929 -0.4994 -1.4929  1.0603
 2798SOL    HW220031   0.924   0.482   3.832 -0.7327  0.4475  0.1692
 2799SOL     OW20032   2.302   0.716   1.451  0.1570 -0.0294 -0.6293
 2799SOL    HW120033   2.287   0.622   1.456 -0.8268  0.2093  0.7479
 2799SOL    HW220034   2.256   0.760   1.523  0.4973  2.5384 -1.9914
 2800SOL     OW20035   2.749   3.735   4.749 -0.3731 -0.1824 -0.0077
 2800SOL    HW120036   2.694   3.663   4.780 -0.6815  1.0627  2.2986
 2800SOL    HW220037   2.785   3.695   4.670 -0.5446  0.8760 -0.6155
 2801SOL     OW20038   4.248   4.269   7.787  0.1763 -0.8012  0.7640
 2801SOL    HW120039   4.277   4.182   7.814  0.5096 -0.6000  1.0548
 2801SOL    HW220040   4.318   4.325   7.820 -0.3125 -0.4215  1.1504
 2802SOL     OW20041   2.684   3.233   3.289  0.4464  0.2059 -0.1603
 2802SOL    HW120042   2.677   3.182   3.209 -0.8564 -0.5402  0.4228
 2802SOL    HW220043   2.720   3.166   3.346 -1.4530  0.1911  1.0391
 2803SOL     OW20044   3.256   2.949   7.187  0.0936 -0.4565 -0.6298
 2803SOL    HW120045   3.164   2.940   7.211  0.4900 -0.4992  0.8657
 2803SOL    HW220046   3.278   2.855   7.186 -1.2125 -0.7779  2.1728
 2804SOL     OW20047   3.713   2.425  13.017  0.5978 -0.7006 -0.0660
 2804SOL    HW120048   3.686   2.375  13.094  0.7840 -1.9893 -0.8249
 2804SOL    HW220049   3.808   2.434  13.025  0.9638 -0.5462 -4.1386
 2805SOL     OW20050   1.212   3.367   1.649 -0.1672 -0.1853 -0.5770
 2805SOL    HW120051   1.238   3.285   1.608  0.3005 -1.3947  2.1367
 2805SOL    HW220052   1.145   3.335   1.710 -1.0072 -1.5379 -2.2115
 2806SOL     OW20053   2.217   2.419   6.930  0.1908  0.4975 -0.1339
 2806SOL    HW120054   2.234   2.358   6.859  1.3164  0.8297 -0.1353
 2806SOL    HW220055   2.303   2.444   6.962 -0.2175 -0.0793  1.4588
 2807SOL     OW20056   1.165   1.443   6.142  0.0420 -0.1884  0.1800
 2807SOL    HW120057   1.215   1.363   6.133 -1.0346 -0.8026 -0.2920
 2807SOL    HW220058   1.076   1.418   6.118 -0.2046  0.4591  0.4055
 2808SOL     OW20059   3.089   1.818  16.335  0.1264 -0.0875 -0.0152
 2808SOL    HW120060   3.094   1.759  16.410  0.3111  1.1799  0.9637
 2808SOL    HW220061   3.156   1.797  16.269 -0.3034 -1.0127 -0.1459
 2809SOL     OW20062   0.429   3.672   4.135 -0.4224  0.4209 -0.4069
 2809SOL    HW120063   0.409   3.748   4.190  1.0901  0.8097 -0.4015
 2809SOL    HW220064   0.341   3.646   4.108  0.7096 -2.0609 -1.6910
 2810SOL     OW20065   3.706   3.268   7.545  0.0925  0.5011  0.0204
 2810SOL    HW120066   3.640   3.205   7.515  3.0432 -2.6257 -0.0163
 2810SOL    HW220067   3.776   3.212   7.580  0.1184  0.2701 -0.3930
 2811SOL     OW20068   0.749   4.500   2.873  0.2497  0.1269  0.2350
 2811SOL    HW120069   0.789   4.529   2.791  3.2418  1.2817  2.1100
 2811SOL    HW220070   0.656   4.492   2.852  0.4196 -1.8940  0.2098
 2812SOL     OW20071   3.126   1.169   9.991 -0.4866  0.5367  0.4186
 2812SOL    HW120072   3.185   1.228  10.037  1.2142  1.3863 -2.8361
 2812SOL    HW220073   3.182   1.148   9.916 -0.0588 -0.3777  1.0030
 2813SOL     OW20074   4.225   3.611  10.024  0.1249 -0.1720  0.6983
 2813SOL    HW120075   4.180   3.671  10.085 -0.6212  0.1215 -0.1359
 2813SOL    HW220076   4.241   3.534  10.078  0.3454 -0.7574 -0.2118
 2814SOL     OW20077   4.630   3.926  16.619  0.0388 -0.2774 -0.2659
 2814SOL    HW120078   4.616   4.002  16.563 -0.8796 -0.0949  0.2157
 2814SOL    HW220079   4.721   3.942  16.645 -0.5970  1.4152  0.9459
 2815SOL     OW20080   2.829   2.360  14.709  0.2462 -0.6298 -0.7919
 2815SOL    HW120081   2.922   2.378  14.697  0.2772  0.5151  1.2111
 2815SOL    HW220082   2.795   2.443  14.742 -0.4901 -1.5635  0.7918
 2816SOL     OW20083   4.448   4.197   6.271 -0.4512 -0.6954  0.1436
 2816SOL    HW120084   4.378   4.135   6.291 -1.6011 -0.0203 -1.7674
 2816SOL    HW220085   4.499   4.142   6.211 -0.5169  1.8804 -2.2478
 2817SOL     OW20086   0.163   4.208   2.182 -0.3161 -0.5001 -0.7222
 2817SOL    HW120087   0.159   4.293   2.139 -2.6674  0.2689  1.0520
 2817SOL    HW220088   0.139   4.232   2.271 -1.3874 -0.2235 -1.0925
 2818SOL     OW20089   2.682   4.310   7.583  0.3154  0.1644  0.4203
 2818SOL    HW120090   2.695   4.274   7.670  0.7206  0.4392  0.4739
 2818SOL    HW220091   2.634   4.242   7.536 -0.5436  1.0847 -0.0260
 2819SOL     OW20092   3.108   2.727   7.374  0.3391  0.3299  0.6191
 2819SOL    HW120093   3.150   2.640   7.380 -2.5958 -1.1172  0.1754
 2819SOL    HW220094   3.152   2.774   7.445 -2.2021  1.3181  1.5302
 2820SOL     OW20095   1.335   0.265   1.246  0.0263 -0.0954 -0.0689
 2820SOL    HW120096   1.314   0.272   1.153 -1.0549 -1.3407  0.0727
 2820SOL    HW220097   1.424   0.233   1.227  0.9544  0.4767  3.4267
 2821SOL     OW20098   0.230   3.207   6.859 -0.2596  0.2575 -0.0931
 2821SOL    HW120099   0.264   3.244   6.941 -2.4808  1.7628  0.1445
 2821SOL    HW220100   0.244   3.114   6.878  0.0788 -0.2117 -2.7132
 2822SOL     OW20101   3.951   4.092  14.246 -0.5575 -0.2934 -0.3930
 2822SOL    HW120102   3.915   4.034  14.312  0.4307  1.2430  1.5092
 2822SOL    HW220103   3.899   4.076  14.167  2.6056 -4.2991 -1.6499
 2823SOL     OW20104   3.308   3.545   2.164 -0.2226 -0.3735  0.0226
 2823SOL    HW120105   3.389   3.500   2.140 -0.6635 -2.0265  1.6663
 2823SOL    HW220106   3.325   3.638   2.146  3.6539 -1.4497 -1.7960
 2824SOL     OW20107   2.640   0.021   4.672  0.0219 -0.5837 -0.4973
 2824SOL    HW120108   2.627   4.688   4.737 -0.2038 -0.2050 -0.1457
 2824SOL    HW220109   2.556   0.064   4.687 -1.0115 -3.1421  1.0914
 2825SOL     OW20110   2.645   2.585   5.177  0.2430 -0.2473  0.1690
 2825SOL    HW120111   2.662   2.498   5.214 -4.3944 -0.5617  1.5472
 2825SOL    HW220112   2.584   2.622   5.240  0.1452 -1.8016  0.9825
 2826SOL     OW20113   0.596   2.583   7.718 -0.3755 -0.3228 -0.2149
 2826SOL    HW120114   0.503   2.564   7.703 -0.3148 -0.6785 -0.1317
 2826SOL    HW220115   0.644   2.532   7.654  1.1021  1.2703 -0.3655
 2827SOL     OW20116   1.477   0.508  14.873 -0.0385  0.4811  0.0479
 2827SOL    HW120117   1.398   0.504  14.819  0.0970 -2.0636  0.0385
 2827SOL    HW220118   1.506   0.417  14.879  1.1540  0.8884  0.4237
 2828SOL     OW20119   1.643   3.281   2.961  0.0074 -0.5918  0.9159
 2828SOL    HW120120   1.723   3.242   2.926  1.5256  0.9180  2.7156
 2828SOL    HW220121   1.581   3.212   2.938 -0.4876  0.3421 -0.6071
 2829SOL     OW20122   2.007   2.343  13.713 -0.4937 -0.7022  0.4287
 2829SOL    HW120123   1.997   2.251  13.690 -2.9234  0.1875 -2.1259
 2829SOL    HW220124   2.069   2.368  13.645 -3.4496  0.8350 -1.7392
 2830SOL     OW20125   1.638   3.947  11.464 -0.0462  0.0262  0.0942
 2830SOL    HW120126   1.581   4.008  11.417  0.5408  0.7460  0.3165
 2830SOL    HW220127   1.580   3.922  11.535  1.1849  1.5025  1.6132
 2831SOL     OW20128   2.653   2.986   0.622 -0.0370  0.4431 -0.1619
 2831SOL    HW120129   2.704   2.909   0.650 -0.1606 -0.1132 -1.4561
 2831SOL    HW220130   2.705   3.056   0.662 -1.0168  2.1836 -1.9701
 2832SOL     OW20131   2.281   0.705   8.522 -0.2698 -0.8379  0.7437
 2832SOL    HW120132   2.250   0.621   8.555 -2.2632 -0.9119 -1.3366
 2832SOL    HW220133   2.313   0.682   8.435  0.4351  1.5474  0.3586
 2833SOL     OW20134   1.122   3.599   3.942 -0.0694  0.4912 -0.3480
 2833SOL    HW120135   1.147   3.657   3.870  0.3340  2.2123  1.1653
 2833SOL    HW220136   1.177   3.521   3.931 -0.6523  0.0862 -0.3880
 2834SOL     OW20137   2.713   0.237   2.407  0.5900  0.4934  0.3159
 2834SOL    HW120138   2.768   0.300   2.360  0.3124  0.1736 -0.4385
 2834SOL    HW220139   2.638   0.294   2.419  0.8301  0.5373  1.7080
 2835SOL     OW20140   0.529   3.742   3.155  0.2065  0.1233 -1.0412
 2835SOL    HW120141   0.606   3.691   3.131  0.1756  0.5022 -1.9362
 2835SOL    HW220142   0.575   3.775   3.232 -0.3145 -1.0985 -0.2070
 2836SOL     OW20143   1.123   2.161   2.183  0.0143 -0.7865  0.7169
 2836SOL    HW120144   1.091   2.115   2.260 -1.0365 -2.8675 -0.9858
 2836SOL    HW220145   1.214   2.131   2.177  0.5571  0.7913  0.8755
 2837SOL     OW20146   3.028   2.426   5.996 -0.4366  0.4116 -0.4372
 2837SOL    HW120147   3.036   2.454   6.087  0.9742 -3.3841  0.6103
 2837SOL    HW220148   2.935   2.402   5.996 -0.8467  2.0336  0.3058
 2838SOL     OW20149   3.024   2.667   3.200  0.4100 -0.3708 -0.0723
 2838SOL    HW120150   3.060   2.749   3.232  0.6223 -0.0900 -1.0215
 2838SOL    HW220151   3.010   2.619   3.281  0.3404 -2.2664 -1.1972
 2839SOL     OW20152   3.284   1.004  12.575  0.0736 -0.2327 -0.1599
 2839SOL    HW120153   3.295   0.950  12.497  0.0383 -1.1470  0.4660
 2839SOL    HW220154   3.287   0.935  12.641  1.4087  0.2982  0.3324
 2840SOL     OW20155   0.097   1.874  12.944 -0.3733  0.2273  0.1947
 2840SOL    HW120156   0.082   1.817  13.019  1.2689  0.2192  0.5208
 2840SOL    HW220157   0.023   1.931  12.967 -2.2860 -2.0313 -0.4705
 2841SOL     OW20158   1.172   4.012  13.066 -0.9417  0.0693 -0.2818
 2841SOL    HW120159   1.225   4.067  13.125  0.0408 -0.5200 -0.6206
 2841SOL    HW220160   1.088   4.032  13.108 -0.5909  1.8288 -0.4039
 2842SOL     OW20161   0.211   4.007   7.422  0.2779  0.6085 -0.3404
 2842SOL    HW120162   0.237   3.929   7.470 -2.5635 -0.4318 -0.5005
 2842SOL    HW220163   0.205   4.066   7.497  0.6449 -1.2998  1.1907
 2843SOL     OW20164   2.104   0.222   1.111 -0.2974  0.3303 -1.0412
 2843SOL    HW120165   2.189   0.184   1.090 -0.0087 -0.8068  2.2005
 2843SOL    HW220166   2.117   0.317   1.120  2.1544 -0.1166  0.2103
 2844SOL     OW20167   1.407   1.677   2.786 -0.0917 -0.2799  1.0335
 2844SOL    HW120168   1.440   1.765   2.769 -1.4501 -0.3223 -1.9070
 2844SOL    HW220169   1.478   1.650   2.844  1.5320  0.6962 -0.4885
 2845SOL     OW20170   3.047   3.522   9.806 -0.1356 -0.2193 -0.5763
 2845SOL    HW120171   3.048   3.541   9.900  2.5384  0.2398 -0.7131
 2845SOL    HW220172   3.080   3.602   9.765 -0.4951 -1.0114 -2.3782
 2846SOL     OW20173   1.469   4.428  12.610 -0.0778  0.2241  0.4976
 2846SOL    HW120174   1.477   4.337  12.637 -1.9511 -0.2508 -0.5238
 2846SOL    HW220175   1.427   4.411  12.526  0.4686 -2.3132  0.7353
 2847SOL     OW20176   0.912   3.444   1.735 -0.5151  0.2907 -0.5594
 2847SOL    HW120177   0.827   3.405   1.759 -0.7835  0.7150 -0.8255
 2847SOL    HW220178   0.903   3.514   1.800  1.3650  0.0849 -0.0927
 2848SOL     OW20179   2.265   4.677   4.319 -0.3069  0.8772  0.3228
 2848SOL    HW120180   2.181   4.634   4.334  0.1396 -0.7208 -1.7411
 2848SOL    HW220181   2.294   4.656   4.407 -0.9848 -1.1342  0.0714
 2849SOL     OW20182   1.975   1.397   3.731  0.5135  0.0350  0.1664
 2849SOL    HW120183   1.997   1.343   3.807  0.4052 -0.0471  0.1405
 2849SOL    HW220184   1.943   1.328   3.672 -0.1719 -1.7634  2.6333
 2850SOL     OW20185   0.442   2.576  11.744  0.0173  1.1741 -0.1466
 2850SOL    HW120186   0.519   2.525  11.719 -0.4171  0.1685  0.5740
 2850SOL    HW220187   0.380   2.505  11.762  1.2336  0.7105  2.1537
 2851SOL     OW20188   1.780   3.037   5.837 -0.2532  0.3155  0.3863
 2851SOL    HW120189   1.855   2.992   5.876  0.5306 -0.9635 -2.5999
 2851SOL    HW220190   1.722   3.046   5.914  0.6285 -2.1424  1.3262
 2852SOL     OW20191   1.073   0.022   2.855 -0.0659 -0.3354  0.4821
 2852SOL    HW120192   1.097   0.106   2.815 -2.9176 -1.3498 -3.3878
 2852SOL    HW220193   1.067   0.044   2.948  0.4153  2.2915 -0.1100
 2853SOL     OW20194   1.553   4.335   7.638  0.2616 -0.1041 -0.0730
 2853SOL    HW120195   1.516   4.287   7.564 -0.9558  0.5710  0.0999
 2853SOL    HW220196   1.470   4.359   7.681  0.5527 -2.4823  1.7970
 2854SOL     OW20197   4.649   1.022   5.754  0.1174 -0.2188  0.1397
 2854SOL    HW120198   4.616   0.932   5.754  1.0989 -0.5618  2.8643
 2854SOL    HW220199   4.721   1.018   5.691 -0.8713  0.5114 -1.0533
 2855SOL     OW20200   3.700   1.729  11.256 -0.3344 -0.0144 -0.0914
 2855SOL    HW120201   3.696   1.824  11.266 -2.3136 -0.4361  2.9022
 2855SOL    HW220202   3.637   1.722  11.184 -1.0165  2.0087  0.3075
 2856SOL     OW20203   3.370   4.069   6.452  0.5847 -0.2385 -0.2234
 2856SOL    HW120204   3.399   4.160   6.440  0.4849 -0.2674 -0.7174
 2856SOL    HW220205   3.458   4.037   6.432 -0.1181 -2.6965  0.6258
 2857SOL     OW20206   4.070   0.216   8.564  0.2825 -0.2034 -0.1495
 2857SOL    HW120207   4.038   0.129   8.586  3.2998 -0.9756  1.0637
 2857SOL    HW220208   4.158   0.201   8.530  0.6162  0.0252  0.6142
 2858SOL     OW20209   4.101   0.568  14.985  0.2575 -0.0152  0.0243
 2858SOL    HW120210   4.190   0.558  14.951 -0.0247 -0.1275 -0.6716
 2858SOL    HW220211   4.118   0.573  15.079 -1.5486  0.3030  0.3458
 2859SOL     OW20212   2.394   3.279   7.943  0.6027  0.2849  0.0109
 2859SOL    HW120213   2.309   3.261   7.902  0.2448 -0.6973  1.2058
 2859SOL    HW220214   2.433   3.192   7.956 -0.6057 -0.2741 -0.1051
 2860SOL     OW20215   1.349   0.671   5.204  0.3246  0.0967 -0.2897
 2860SOL    HW120216   1.440   0.686   5.179  0.7744 -1.8511  0.1258
 2860SOL    HW220217   1.361   0.625   5.288 -0.3557  0.7406  0.1616
 2861SOL     OW20218   4.117   4.391   9.972  0.0331 -0.3852  0.7532
 2861SOL    HW120219   4.092   4.460  10.033 -0.3801 -0.4881  0.7040
 2861SOL    HW220220   4.063   4.320  10.008  0.5876 -1.1532  0.0520
 2862SOL     OW20221   0.621   0.507   2.052 -0.4785 -0.2753 -0.0409
 2862SOL    HW120222   0.646   0.574   1.988 -2.8006  0.8606  0.2345
 2862SOL    HW220223   0.542   0.548   2.086 -1.0879 -1.6779  0.2378
 2863SOL     OW20224   2.448   1.263   3.120 -0.6832  0.1065 -0.0415
 2863SOL    HW120225   2.450   1.173   3.151  0.2617  1.1541  2.9375
 2863SOL    HW220226   2.534   1.290   3.152 -0.2806 -0.0887 -0.9658
 2864SOL     OW20227   2.752   1.229  16.146  0.5122 -0.2231 -0.2229
 2864SOL    HW120228   2.846   1.227  16.133  0.9310  0.0017  2.7713
 2864SOL    HW220229   2.740   1.197  16.235 -1.5894  0.1715 -0.3453
 2865SOL     OW20230   0.415   2.301  12.619 -0.2912  0.2466 -0.1904
 2865SOL    HW120231   0.432   2.391  12.647 -0.3082 -0.2927  1.5689
 2865SOL    HW220232   0.407   2.301  12.524  1.8395  1.1938 -0.3663
 2866SOL     OW20233   1.122   0.275   6.107 -0.4902  0.1144 -0.5100
 2866SOL    HW120234   1.067   0.238   6.176  1.0049  2.1985  1.8082
 2866SOL    HW220235   1.186   0.331   6.152  0.4263 -0.9778 -0.4593
 2867SOL     OW20236   1.620   1.607   7.675 -0.4704 -0.2600 -0.1127
 2867SOL    HW120237   1.591   1.641   7.760 -0.9817 -1.7194  0.2931
 2867SOL    HW220238   1.611   1.515   7.700 -0.2793 -0.3739 -0.4727
 2868SOL     OW20239   0.211   3.293   6.598  0.2686  0.4815 -0.2612
 2868SOL    HW120240   0.195   3.254   6.684  0.8608 -2.6327 -1.5588
 2868SOL    HW220241   0.304   3.272   6.588  0.1261  0.4006 -1.4047
 2869SOL     OW20242   0.426   2.909   8.998  0.0283 -0.2143  0.1358
 2869SOL    HW120243   0.511   2.892   8.959  0.8352  0.5071  1.5743
 2869SOL    HW220244   0.444   2.905   9.092 -0.9979  2.7075  0.4500
 2870SOL     OW20245   1.122   4.699   8.443 -0.3231  0.0752 -0.3047
 2870SOL    HW120246   1.142   0.048   8.484  1.3469 -0.7571  0.6027
 2870SOL    HW220247   1.152   4.706   8.352  2.3123  0.0514  0.5680
 2871SOL     OW20248   4.401   3.691   6.113  0.1324 -0.0585  0.0226
 2871SOL    HW120249   4.376   3.661   6.025  1.8451 -1.1254 -0.1036
 2871SOL    HW220250   4.493   3.713   6.101 -0.6363  3.4638  0.6339
 2872SOL     OW20251   2.286   4.480   6.987  0.4046  0.9131  0.3784
 2872SOL    HW120252   2.219   4.455   6.923  0.6943 -0.8751  0.7895
 2872SOL    HW220253   2.249   4.448   7.069  1.2999 -0.3676  0.2808
 2873SOL     OW20254   0.667   4.295   6.664  0.4344  0.3280 -0.2944
 2873SOL    HW120255   0.621   4.243   6.730  2.1601 -1.1582 -0.2355
 2873SOL    HW220256   0.635   4.382   6.685  0.6133  0.5572 -0.9903
 2874SOL     OW20257   2.511   3.933   6.033 -0.4602  0.0743  0.3394
 2874SOL    HW120258   2.570   3.950   6.107  2.6474 -1.0292 -1.8958
 2874SOL    HW220259   2.500   3.838   6.033  1.2551 -0.1231 -0.5320
 2875SOL     OW20260   2.613   2.076   3.036 -0.4436 -0.4803 -0.3826
 2875SOL    HW120261   2.555   2.082   2.960  1.5182 -0.7962 -1.8883
 2875SOL    HW220262   2.556   2.032   3.099 -1.3731 -0.7470 -1.4162
 2876SOL     OW20263   1.260   3.971  12.825  0.6501 -0.4598  0.0529
 2876SOL    HW120264   1.218   3.990  12.909 -1.0823  0.0637 -0.9293
 2876SOL    HW220265   1.332   3.911  12.844  0.7269  0.2943  2.2397
 2877SOL     OW20266   2.000   4.620   4.387 -0.5129  0.1724 -0.2774
 2877SOL    HW120267   1.970   4.531   4.404  1.4360 -0.2533  1.0137
 2877SOL    HW220268   1.952   4.655   4.312 -0.7254  1.1259  0.3112
 2878SOL     OW20269   4.228   3.470   0.458 -0.5282 -0.0582  0.2529
 2878SOL    HW120270   4.220   3.378   0.484 -0.1685 -0.5095 -1.2213
 2878SOL    HW220271   4.311   3.483   0.503 -1.0753 -0.7375  1.4392
 2879SOL     OW20272   2.685   2.122   7.635  0.2027  0.0569 -0.7937
 2879SOL    HW120273   2.706   2.034   7.605 -1.4046 -1.1282  1.5501
 2879SOL    HW220274   2.589   2.119   7.628  0.1004 -0.2170  0.7241
 2880SOL     OW20275   2.465   4.645   3.468 -0.4777  0.0081 -0.0272
 2880SOL    HW120276   2.428   4.624   3.554  1.2665 -2.2218  0.1554
 2880SOL    HW220277   2.490   4.562   3.427  0.4694  1.1430 -1.7508
 2881SOL     OW20278   1.006   3.263   7.893  0.4600  0.3536  0.1389
 2881SOL    HW120279   1.044   3.253   7.980  0.7328  0.8002  0.0687
 2881SOL    HW220280   1.055   3.195   7.847 -0.5959 -0.4723  0.2264
 2882SOL     OW20281   4.576   0.247  12.588  0.0530  0.4612 -0.2036
 2882SOL    HW120282   4.541   0.227  12.675 -2.6677  2.1257 -0.9489
 2882SOL    HW220283   4.634   0.320  12.610 -0.3332  1.1281 -1.4300
 2883SOL     OW20284   0.281   3.414   3.372  0.1709 -0.0003  0.0171
 2883SOL    HW120285   0.312   3.504   3.387 -1.0614  0.3927  0.1989
 2883SOL    HW220286   0.301   3.371   3.455  0.4459  1.3842  0.6740
 2884SOL     OW20287   3.989   0.908  13.609  0.2976 -0.6686 -0.1909
 2884SOL    HW120288   4.036   0.834  13.572 -0.9638 -1.3973 -0.3378
 2884SOL    HW220289   3.898   0.877  13.608  0.6806 -1.8557  1.0007
 2885SOL     OW20290   4.275   0.154  11.456  0.2655 -0.3710  0.0870
 2885SOL    HW120291   4.203   0.135  11.396  0.5877 -1.9161  0.1807
 2885SOL    HW220292   4.339   0.086  11.431  0.9805  0.2947  0.0923
 2886SOL     OW20293   4.398   3.358  17.053  0.1556 -0.3860 -0.2155
 2886SOL    HW120294   4.379   3.336  17.144  0.7070  2.1414  0.5032
 2886SOL    HW220295   4.431   3.281  17.007 -0.0513 -0.6539  0.0870
 2887SOL     OW20296   3.510   0.588   6.891 -0.6084 -0.8109 -0.0533
 2887SOL    HW120297   3.453   0.666   6.893  0.1113 -0.3857  3.1723
 2887SOL    HW220298   3.583   0.636   6.930 -0.1676 -0.6620 -1.0529
 2888SOL     OW20299   0.074   2.116  13.788 -0.3991 -0.5825 -0.6350
 2888SOL    HW120300   0.059   2.066  13.868  0.2121 -0.5311 -0.4918
 2888SOL    HW220301   4.724   2.133  13.750 -0.1423  1.7062 -0.2265
 2889SOL     OW20302   0.963   1.786   7.440  0.0054  0.2808 -0.3355
 2889SOL    HW120303   1.032   1.790   7.374  1.3870  0.8504  1.1435
 2889SOL    HW220304   1.007   1.852   7.494 -2.4373 -0.9202  3.1206
 2890SOL     OW20305   2.900   3.737   8.932  0.0517  0.0234 -0.3067
 2890SOL    HW120306   2.869   3.819   8.969  0.1003  0.2116 -0.6836
 2890SOL    HW220307   2.813   3.705   8.908  1.1921 -3.3090 -0.0269
 2891SOL     OW20308   3.992   1.301   1.824  0.6422  0.2994  0.1555
 2891SOL    HW120309   3.963   1.358   1.895  1.0538  0.4865  0.1731
 2891SOL    HW220310   4.082   1.332   1.814  0.8789  0.0660  1.6533
 2892SOL     OW20311   1.169   2.524  11.840  0.1814  0.1481  0.1419
 2892SOL    HW120312   1.150   2.517  11.746  1.1497 -0.5035 -0.0076
 2892SOL    HW220313   1.264   2.536  11.845  0.4404 -2.3003  1.2026
 2893SOL     OW20314   2.411   4.099   3.302  0.0137 -0.2978 -0.1270
 2893SOL    HW120315   2.470   4.051   3.361 -1.5821 -0.4723  1.3043
 2893SOL    HW220316   2.331   4.047   3.295  0.5141 -0.9546 -0.9715
 2894SOL     OW20317   3.644   2.265   5.227 -0.1094 -0.1059 -0.1092
 2894SOL    HW120318   3.724   2.286   5.275 -0.4174  0.6219  0.0795
 2894SOL    HW220319   3.674   2.247   5.138 -1.3273  0.2137 -0.5810
 2895SOL     OW20320   1.070   4.489   7.168  0.1116  0.0137 -0.5826
 2895SOL    HW120321   1.043   4.406   7.208 -3.4553  2.1781  1.5270
 2895SOL    HW220322   0.991   4.538   7.190  0.2263  0.0399 -0.2139
 2896SOL     OW20323   0.497   2.971   7.849 -0.1170 -0.0930 -0.2581
 2896SOL    HW120324   0.481   3.062   7.874  1.3887 -0.5098  2.2289
 2896SOL    HW220325   0.408   2.936   7.842 -1.4132  2.5453  2.7098
 2897SOL     OW20326   0.197   2.366  15.132  0.5546 -0.2897  0.2834
 2897SOL    HW120327   0.276   2.397  15.087  0.2847  1.5795  1.1012
 2897SOL    HW220328   0.147   2.318  15.067  0.5573 -0.8388  0.6862
 2898SOL     OW20329   3.111   1.392   6.960  0.5801  0.1610 -0.3505
 2898SOL    HW120330   3.068   1.438   7.032 -0.4944 -1.4335  0.0270
 2898SOL    HW220331   3.191   1.355   6.998  0.8368  0.4219 -0.6387
 2899SOL     OW20332   2.858   0.772   6.987  0.3145  0.5414  0.0787
 2899SOL    HW120333   2.935   0.738   6.942  1.7795 -0.0889  3.0571
 2899SOL    HW220334   2.894   0.800   7.071  2.2501  0.1599 -0.6173
 2900SOL     OW20335   3.850   4.237   7.499 -0.2262  0.0121  0.3737
 2900SOL    HW120336   3.761   4.211   7.523  0.4811 -1.2296  1.6202
 2900SOL    HW220337   3.825   4.315   7.449  0.3107  0.0393  0.1468
 2901SOL     OW20338   3.814   2.486   5.626 -0.0979 -0.3422 -0.1582
 2901SOL    HW120339   3.746   2.552   5.611 -0.2594 -1.0640 -2.6766
 2901SOL    HW220340   3.892   2.534   5.598 -0.2593 -0.6762 -1.1725
 2902SOL     OW20341   4.585   4.267  16.674  0.5976 -0.1943 -0.2104
 2902SOL    HW120342   4.620   4.347  16.713  0.5218  0.2609 -1.0783
 2902SOL    HW220343   4.515   4.252  16.737  2.3259 -0.6959  1.5933
 2903SOL     OW20344   3.393   4.373  17.366 -0.1050  0.2943  0.5374
 2903SOL    HW120345   3.384   4.280  17.386 -1.6597  0.3187 -0.0599
 2903SOL    HW220346   3.370   4.367  17.273 -1.4249  0.8472  0.8243
 2904SOL     OW20347   3.969   1.124  13.915  0.0137 -0.5355 -0.1136
 2904SOL    HW120348   3.994   1.156  13.828 -1.9188  2.4398  0.4287
 2904SOL    HW220349   3.885   1.165  13.937  0.0510 -0.7716  0.4541
 2905SOL     OW20350   0.117   1.945   1.779  0.4765 -0.2728 -0.7556
 2905SOL    HW120351   0.187   1.881   1.792 -0.6296 -1.2963  0.1594
 2905SOL    HW220352   0.050   1.944   1.848  0.4610  2.7743 -0.7231
 2906SOL     OW20353   2.647   2.755   6.926 -0.1863 -0.3656 -0.5898
 2906SOL    HW120354   2.718   2.817   6.910 -1.2908  0.9703 -0.2657
 2906SOL    HW220355   2.689   2.682   6.971  1.2048 -0.8936 -2.7473
 2907SOL     OW20356   3.963   3.927   5.681 -0.0780 -0.1413 -0.2091
 2907SOL    HW120357   3.959   4.022   5.690  0.3993 -0.1643  0.2499
 2907SOL    HW220358   4.020   3.923   5.605  1.8441 -1.1176  1.2694
 2908SOL     OW20359   4.593   2.863   3.513  0.4581 -0.0712  0.2930
 2908SOL    HW120360   4.621   2.953   3.529 -0.5214  0.6709 -2.1095
 2908SOL    HW220361   4.675   2.814   3.520  1.7435  1.9581 -0.6331
 2909SOL     OW20362   4.117   1.774  12.913 -0.3552  0.5082 -0.3704
 2909SOL    HW120363   4.141   1.739  12.999 -1.6989 -0.3098 -0.3200
 2909SOL    HW220364   4.072   1.702  12.869 -2.0802  2.2755 -1.5201
 2910SOL     OW20365   3.963   4.308  14.461 -0.3550 -0.5465 -0.1552
 2910SOL    HW120366   4.052   4.308  14.424 -0.3182  2.2123 -0.0722
 2910SOL    HW220367   3.964   4.216  14.487 -2.6572  0.0657  2.0462
 2911SOL     OW20368   3.940   2.574  15.151 -0.3278 -0.0223  0.1935
 2911SOL    HW120369   3.862   2.628  15.163  0.5454  1.2533  0.0609
 2911SOL    HW220370   3.997   2.619  15.213 -3.1770 -0.0856  2.8463
 2912SOL     OW20371   0.459   3.583   6.225  1.1998  0.2344  0.2464
 2912SOL    HW120372   0.503   3.660   6.262  1.1969 -0.0874  0.9083
 2912SOL    HW220373   0.516   3.562   6.151 -2.2223 -2.2243 -1.6869
 2913SOL     OW20374   4.002   1.488  16.331 -0.0963  0.7043  0.6367
 2913SOL    HW120375   3.993   1.441  16.248  2.4273  1.4906 -0.0655
 2913SOL    HW220376   3.910   1.512  16.343 -0.2453  0.0287  0.8328
 2914SOL     OW20377   2.016   0.397   1.762  0.3548 -0.2499  0.1152
 2914SOL    HW120378   1.962   0.319   1.769  0.4001 -0.5276 -2.5675
 2914SOL    HW220379   2.009   0.429   1.852 -0.8148 -0.3787  0.0677
 2915SOL     OW20380   0.885   0.588   3.457  0.1886  0.5300 -0.4430
 2915SOL    HW120381   0.825   0.541   3.515  0.0180  0.1012 -0.9571
 2915SOL    HW220382   0.818   0.633   3.405 -1.7646  2.2232  3.5781
 2916SOL     OW20383   2.770   2.991   6.889  0.0392 -0.1465 -0.6699
 2916SOL    HW120384   2.855   3.027   6.916 -1.6910  3.6203 -0.2192
 2916SOL    HW220385   2.723   3.070   6.917  2.0943 -0.0458  2.4953
 2917SOL     OW20386   0.659   3.365   4.045  0.6372 -0.3020  0.1472
 2917SOL    HW120387   0.704   3.441   4.008 -2.7620  1.0225 -1.2497
 2917SOL    HW220388   0.670   3.368   4.140 -1.4528  1.1012  0.3439
 2918SOL     OW20389   0.485   3.264   6.564  0.3805 -0.5789 -0.3697
 2918SOL    HW120390   0.532   3.335   6.519  1.6600  0.7540  3.0429
 2918SOL    HW220391   0.546   3.261   6.638 -0.5134  1.6030  0.4646
 2919SOL     OW20392   2.607   3.388   4.586  0.4475 -0.0211 -0.3821
 2919SOL    HW120393   2.570   3.324   4.646  0.3033  0.5039  0.0912
 2919SOL    HW220394   2.616   3.336   4.506 -1.9952 -1.0129 -0.0149
 2920SOL     OW20395   0.797   0.040   0.634  0.5350  0.1463 -0.1467
 2920SOL    HW120396   0.874   0.062   0.582  0.6917  0.6391  0.2858
 2920SOL    HW220397   0.731   0.018   0.569 -0.9196  0.3814  1.2432
 2921SOL     OW20398   2.775   0.609   9.388 -0.3851  0.3370  0.1430
 2921SOL    HW120399   2.755   0.571   9.303 -0.4253 -0.4872  0.5260
 2921SOL    HW220400   2.786   0.527   9.436  0.9174  0.4234 -0.0003
 2922SOL     OW20401   4.283   4.439   6.305 -0.1605 -0.4484  0.3852
 2922SOL    HW120402   4.360   4.388   6.279 -0.2829 -0.6343  0.3857
 2922SOL    HW220403   4.248   4.449   6.217  1.1791  4.4856  0.3969
 2923SOL     OW20404   1.052   3.815   3.187  0.0573  0.0930 -0.2521
 2923SOL    HW120405   1.096   3.749   3.241  1.6252 -0.5148 -2.2543
 2923SOL    HW220406   1.115   3.829   3.116  1.9460 -2.1745  0.9840
 2924SOL     OW20407   2.309   4.177   5.541 -0.4430  0.0078 -0.5047
 2924SOL    HW120408   2.367   4.238   5.587 -1.2789 -0.2419  0.8898
 2924SOL    HW220409   2.228   4.210   5.581 -0.5109 -0.8848  0.1007
 2925SOL     OW20410   3.635   4.182   8.450  0.8135  0.7978 -0.0643
 2925SOL    HW120411   3.706   4.176   8.385 -0.4756 -5.2895 -0.8820
 2925SOL    HW220412   3.682   4.164   8.532  0.1088 -1.8003 -0.2319
 2926SOL     OW20413   3.997   3.804   8.986 -0.9068  0.1150  0.4583
 2926SOL    HW120414   3.921   3.862   8.979 -0.1480  1.3619  2.3765
 2926SOL    HW220415   4.076   3.858   8.988 -0.3509 -0.6883 -0.2099
 2927SOL     OW20416   1.580   3.090   1.261  0.6433 -0.0405  0.2306
 2927SOL    HW120417   1.662   3.042   1.246  0.9685  0.2783  0.9555
 2927SOL    HW220418   1.581   3.105   1.356 -2.6831  0.2831  0.1954
 2928SOL     OW20419   2.673   2.771   9.685 -0.4914  0.0760  0.1479
 2928SOL    HW120420   2.624   2.816   9.753 -0.0322 -0.4442  0.8238
 2928SOL    HW220421   2.739   2.836   9.658 -0.5869 -0.0723 -0.4496
 2929SOL     OW20422   1.253   3.746  16.579  0.0864  0.4850 -0.3459
 2929SOL    HW120423   1.224   3.735  16.489  1.1728 -2.1431 -0.3647
 2929SOL    HW220424   1.230   3.661  16.616  1.9915  1.1338  2.3146
 2930SOL     OW20425   1.731   3.570   2.933  0.3886 -0.0137 -0.1958
 2930SOL    HW120426   1.678   3.490   2.931 -0.6849  0.6575  1.3968
 2930SOL    HW220427   1.806   3.537   2.982 -0.4080 -3.3513 -1.1657
 2931SOL     OW20428   3.791   0.694   7.435  0.2198 -0.0464 -0.7058
 2931SOL    HW120429   3.862   0.654   7.485  0.7238  1.0481 -0.5410
 2931SOL    HW220430   3.824   0.766   7.382 -2.3508  1.4238 -0.3010
 2932SOL     OW20431   1.249   1.931   6.368  0.4666 -0.2317  0.2818
 2932SOL    HW120432   1.327   1.983   6.386 -1.8920  2.0523  3.9579
 2932SOL    HW220433   1.277   1.844   6.397  0.4306  0.0448  1.1702
 2933SOL     OW20434   3.239   1.958   3.551  0.2088 -0.0711 -0.3824
 2933SOL    HW120435   3.182   2.019   3.597 -1.4900 -1.6690 -0.3755
 2933SOL    HW220436   3.302   2.020   3.514  0.4001  0.1547  0.3322
 2934SOL     OW20437   3.635   2.836   3.695 -0.6135 -0.2398  0.5725
 2934SOL    HW120438   3.704   2.902   3.694 -1.2630  0.4216 -0.0932
 2934SOL    HW220439   3.678   2.762   3.737  0.6928 -0.1716 -0.6577
 2935SOL     OW20440   0.553   1.996  12.649 -0.2960 -1.0508 -0.4000
 2935SOL    HW120441   0.550   1.919  12.705  1.1303 -0.6904  0.1886
 2935SOL    HW220442   0.462   2.024  12.648  0.2398  0.7961  1.3428
 2936SOL     OW20443   0.054   1.214   7.991 -0.4614 -0.0655 -0.2098
 2936SOL    HW120444   0.032   1.297   7.948  1.2925 -0.7255 -2.3659
 2936SOL    HW220445   4.708   1.166   7.980 -1.2791  1.7360 -2.1049
 2937SOL     OW20446   1.946   3.575   4.106  0.1418 -0.2281 -0.1999
 2937SOL    HW120447   2.036   3.542   4.101  0.7936  1.6974 -1.0527
 2937SOL    HW220448   1.934   3.611   4.018  1.4002  0.3914 -0.1149
 2938SOL     OW20449   0.125   3.463   9.459 -0.3268 -0.7097 -0.5067
 2938SOL    HW120450   0.122   3.430   9.549  1.7371  4.7601  1.6252
 2938SOL    HW220451   0.093   3.391   9.406  2.0253 -2.0331 -0.1170
 2939SOL     OW20452   0.526   1.205   8.515 -0.3123 -0.0683 -0.1198
 2939SOL    HW120453   0.506   1.271   8.582 -1.3769 -1.0462  0.5307
 2939SOL    HW220454   0.589   1.149   8.561 -0.9026  1.9156  3.1343
 2940SOL     OW20455   3.471   2.525   5.588 -0.3018  0.3022 -0.1375
 2940SOL    HW120456   3.467   2.620   5.600  2.2121  0.2558  0.9535
 2940SOL    HW220457   3.462   2.517   5.493  0.0017  1.7556 -0.2985
 2941SOL     OW20458   3.540   1.306  13.616 -0.3310 -0.1950 -0.0802
 2941SOL    HW120459   3.624   1.351  13.617 -1.1438  1.3137 -0.2183
 2941SOL    HW220460   3.559   1.227  13.667 -2.0888 -1.3081 -1.1402
 2942SOL     OW20461   2.399   4.359  14.086 -0.0622 -0.6126  0.6458
 2942SOL    HW120462   2.318   4.310  14.102 -0.1689  0.5819  3.7027
 2942SOL    HW220463   2.439   4.294  14.028 -0.0027 -0.5452  0.6115
 2943SOL     OW20464   0.203   1.514   7.672  0.0646 -0.4439  0.5369
 2943SOL    HW120465   0.134   1.457   7.708 -0.5217 -1.0087 -1.4764
 2943SOL    HW220466   0.238   1.550   7.754 -0.6048 -2.2854  1.6316
 2944SOL     OW20467   0.792   1.063   2.634 -0.5976  0.1392  0.3650
 2944SOL    HW120468   0.757   1.056   2.545  1.6920 -0.3289 -0.5189
 2944SOL    HW220469   0.799   1.158   2.646 -1.0865  0.4621 -1.9433
 2945SOL     OW20470   3.491   1.594  11.423 -0.2825  0.4555 -0.4838
 2945SOL    HW120471   3.546   1.576  11.347 -1.2044 -0.7541 -0.8813
 2945SOL    HW220472   3.528   1.678  11.450 -1.4008  0.6210  0.5272
 2946SOL     OW20473   0.282   3.333   7.102  0.0196  0.5287 -0.4071
 2946SOL    HW120474   0.367   3.330   7.146  0.6681  1.0946 -1.6265
 2946SOL    HW220475   0.251   3.422   7.117 -1.9291  0.0056 -1.2868
 2947SOL     OW20476   2.550   0.754   2.384 -0.1460 -0.1699 -0.2105
 2947SOL    HW120477   2.635   0.715   2.361 -2.0316 -4.0977 -0.4692
 2947SOL    HW220478   2.590   0.826   2.433 -0.7381 -0.1057  0.1799
 2948SOL     OW20479   1.439   3.536   8.616 -0.0196  0.3101  0.2315
 2948SOL    HW120480   1.455   3.567   8.705  1.0223 -2.7079  1.0871
 2948SOL    HW220481   1.517   3.559   8.566 -0.7618  2.0577 -0.1095
 2949SOL     OW20482   1.692   0.739  12.294  0.0442  0.0777 -0.0436
 2949SOL    HW120483   1.678   0.658  12.342  1.6953  0.2385  0.7059
 2949SOL    HW220484   1.663   0.797  12.364  0.2701 -0.2399  0.3154
 2950SOL     OW20485   4.359   1.226  17.628 -0.0865 -0.2246  0.4241
 2950SOL    HW120486   4.444   1.221  17.672  0.0153  0.4297  0.2958
 2950SOL    HW220487   4.299   1.256  17.696 -1.7692 -0.0609 -1.1534
 2951SOL     OW20488   3.034   1.076   9.063  0.2423  0.4795  0.4022
 2951SOL    HW120489   2.968   1.022   9.105  0.6328 -1.2712 -1.2198
 2951SOL    HW220490   2.986   1.135   9.005 -0.3124  1.3007  1.7186
 2952SOL     OW20491   2.249   0.133   3.464  0.2264 -0.0226  0.6708
 2952SOL    HW120492   2.218   0.143   3.374  1.3438 -1.7663  0.0848
 2952SOL    HW220493   2.323   0.073   3.455 -0.0548 -0.6048  2.1226
 2953SOL     OW20494   3.966   4.297   7.769  0.1209 -0.4602 -0.1177
 2953SOL    HW120495   3.969   4.288   7.674 -1.3888  2.2143 -0.4346
 2953SOL    HW220496   4.006   4.214   7.794  0.8032  0.1268  0.7417
 2954SOL     OW20497   4.367   0.331   6.259  0.0643 -0.7083  0.1242
 2954SOL    HW120498   4.441   0.276   6.234 -1.5463 -3.5832  1.6355
 2954SOL    HW220499   4.385   0.343   6.352  0.4406 -1.5929  0.1649
 2955SOL     OW20500   3.838   0.104   5.511 -0.1703  0.3231 -0.1237
 2955SOL    HW120501   3.746   0.083   5.528 -0.1720  0.7212  0.3664
 2955SOL    HW220502   3.868   0.032   5.457  0.2649  1.0330 -0.8286
 2956SOL     OW20503   2.305   3.114   6.936  0.1844 -0.8455  0.0690
 2956SOL    HW120504   2.222   3.079   6.968  0.5907 -1.0620  0.9116
 2956SOL    HW220505   2.360   3.035   6.933 -1.0816 -1.7660  0.8545
 2957SOL     OW20506   2.772   4.222  14.617  0.1050  0.3516 -0.1271
 2957SOL    HW120507   2.770   4.237  14.523  0.3839  0.4816 -0.1135
 2957SOL    HW220508   2.705   4.276  14.659  0.0522  0.9589 -1.0032
 2958SOL     OW20509   1.229   2.484   9.858  0.1443  0.2367 -0.2080
 2958SOL    HW120510   1.194   2.411   9.808 -0.5426 -0.1459  0.8219
 2958SOL    HW220511   1.235   2.439   9.943 -0.3015  0.9243  0.1918
 2959SOL     OW20512   3.184   3.685  12.232  0.2103 -0.6451 -0.0037
 2959SOL    HW120513   3.141   3.668  12.316 -1.8674  2.6825 -0.3804
 2959SOL    HW220514   3.206   3.778  12.240 -0.0614 -0.3661 -2.4051
 2960SOL     OW20515   2.909   0.851   9.277 -0.4267  0.7713 -0.3819
 2960SOL    HW120516   2.905   0.793   9.354 -1.5908  1.5837  0.1601
 2960SOL    HW220517   3.003   0.868   9.268 -0.4228  1.8552  1.6364
 2961SOL     OW20518   2.033   1.426   5.026 -0.4043  0.2866  0.0773
 2961SOL    HW120519   1.942   1.403   5.041 -0.0298 -0.4310  1.2811
 2961SOL    HW220520   2.059   1.352   4.970 -0.5392  1.1697 -1.1398
 2962SOL     OW20521   2.086   4.337  12.707 -0.1683 -0.1672 -0.6611
 2962SOL    HW120522   2.102   4.388  12.786  0.6970 -2.1186  0.4178
 2962SOL    HW220523   2.136   4.377  12.637 -3.0547  0.1359 -2.5597
 2963SOL     OW20524   2.623   1.693   4.224  0.2228 -0.1370 -0.1630
 2963SOL    HW120525   2.718   1.689   4.211  0.4309  1.5900  0.9524
 2963SOL    HW220526   2.608   1.742   4.304 -0.9356 -1.2979  0.3359
 2964SOL     OW20527   4.167   2.604  14.516 -0.0473 -0.1554  0.4033
 2964SOL    HW120528   4.084   2.593  14.470  1.5507 -2.9127 -1.8567
 2964SOL    HW220529   4.219   2.536  14.473  0.7177  0.9199 -0.3878
 2965SOL     OW20530   2.249   1.113   5.238  0.0750 -0.3389 -0.1851
 2965SOL    HW120531   2.182   1.163   5.283 -1.1217 -1.0115 -1.1992
 2965SOL    HW220532   2.193   1.043   5.203 -0.6655 -0.5296  1.3826
 2966SOL     OW20533   2.523   2.811  15.438  0.2007  0.0254 -0.9287
 2966SOL    HW120534   2.439   2.791  15.477  0.7232 -1.6586 -0.6577
 2966SOL    HW220535   2.554   2.726  15.408 -2.0671 -0.6464 -1.3173
 2967SOL     OW20536   0.445   3.882   9.481 -0.8693  0.4506 -0.3517
 2967SOL    HW120537   0.536   3.853   9.489 -0.9441  0.1867 -0.4533
 2967SOL    HW220538   0.397   3.805   9.450  2.3697 -2.3257  1.5478
 2968SOL     OW20539   0.064   2.885  14.894 -0.2515 -0.2348  0.1096
 2968SOL    HW120540   0.045   2.793  14.875 -1.1077  0.3552 -1.8642
 2968SOL    HW220541   0.142   2.891  14.948 -1.1954 -2.5220  1.7101
 2969SOL     OW20542   1.272   4.213   6.225 -0.6459 -0.6281  0.4271
 2969SOL    HW120543   1.259   4.252   6.139 -1.6617  1.1420  1.3757
 2969SOL    HW220544   1.365   4.229   6.215 -1.0748  0.9011 -1.2490
 2970SOL     OW20545   4.564   4.047   4.662 -0.0083 -0.2855 -0.0293
 2970SOL    HW120546   4.622   3.983   4.704 -0.7495 -1.0386 -0.1457
 2970SOL    HW220547   4.611   4.070   4.582 -0.5815 -0.5363 -0.4425
 2971SOL     OW20548   1.698   4.305   4.425 -0.0666 -0.3471  0.0604
 2971SOL    HW120549   1.663   4.366   4.490  1.5426  0.1606  0.4547
 2971SOL    HW220550   1.651   4.226   4.451  1.6942 -1.6305 -0.6237
 2972SOL     OW20551   1.672   0.484  12.366  0.0289 -0.0492 -0.1379
 2972SOL    HW120552   1.708   0.411  12.416  3.5968  1.1558 -0.9295
 2972SOL    HW220553   1.589   0.446  12.337  1.8605 -1.8779 -3.0319
 2973SOL     OW20554   3.073   0.410  11.430 -0.9329  0.2598  0.2601
 2973SOL    HW120555   3.024   0.405  11.348 -1.2165  1.1147  0.3762
 2973SOL    HW220556   3.147   0.350  11.421 -1.2290  0.2367 -2.0170
 2974SOL     OW20557   2.088   3.541  16.552 -0.1824 -0.2839  0.0588
 2974SOL    HW120558   2.124   3.536  16.463 -2.8250  1.8678 -1.1305
 2974SOL    HW220559   2.088   3.635  16.570 -1.5116 -0.4942  1.1701
 2975SOL     OW20560   2.689   3.510   3.239 -0.1348 -0.4849 -0.2840
 2975SOL    HW120561   2.706   3.420   3.267  2.5343  0.7681  2.0619
 2975SOL    HW220562   2.661   3.486   3.151  0.4976 -0.1459 -0.5734
 2976SOL     OW20563   0.987   3.667   6.508 -0.7556  0.2877 -0.4071
 2976SOL    HW120564   0.964   3.757   6.482 -0.8509  0.7040  1.1512
 2976SOL    HW220565   1.032   3.649   6.425  1.5549 -0.5968  1.0693
 2977SOL     OW20566   2.733   4.165   4.364 -0.1580  0.2116 -0.0664
 2977SOL    HW120567   2.668   4.094   4.366  0.9721 -0.8293  0.3089
 2977SOL    HW220568   2.695   4.239   4.411  1.3504  1.8891 -1.5197
 2978SOL     OW20569   3.492   2.463  11.020 -0.0432  0.3934 -0.7074
 2978SOL    HW120570   3.528   2.391  11.071 -0.2927  1.8704  1.5798
 2978SOL    HW220571   3.445   2.509  11.090  0.1523 -1.8838  0.9318
 2979SOL     OW20572   0.173   4.244   7.970  0.4109 -0.5099  0.6714
 2979SOL    HW120573   0.171   4.154   7.936 -1.2642 -0.9886  2.0173
 2979SOL    HW220574   0.253   4.234   8.022  1.3774  0.7228 -0.5805
 2980SOL     OW20575   4.311   0.033   9.951 -0.3222  0.4331 -0.0663
 2980SOL    HW120576   4.387   0.048  10.008 -0.4757 -0.2038  0.3082
 2980SOL    HW220577   4.299   0.117   9.907 -2.1980  0.2747  0.1566
 2981SOL     OW20578   4.014   2.927   4.384  0.0428 -0.1856  0.1971
 2981SOL    HW120579   3.927   2.918   4.344 -0.3196 -0.8961  1.1509
 2981SOL    HW220580   4.073   2.895   4.316  0.9996 -0.2529  1.0562
 2982SOL     OW20581   2.324   2.925   3.296 -0.1951 -0.1097 -0.0210
 2982SOL    HW120582   2.303   2.891   3.209  2.1142  2.1322 -1.4640
 2982SOL    HW220583   2.257   2.992   3.307 -0.0482  0.2625 -1.2951
 2983SOL     OW20584   3.352   4.180  10.215 -0.1602  0.4327  0.5597
 2983SOL    HW120585   3.313   4.267  10.226  0.5084  0.9232 -1.0570
 2983SOL    HW220586   3.393   4.173  10.301 -0.6995 -0.1119  0.7764
 2984SOL     OW20587   1.373   3.920   4.402 -0.0490 -0.1542  0.0384
 2984SOL    HW120588   1.379   3.840   4.453  1.5873  0.0900  0.2392
 2984SOL    HW220589   1.301   3.961   4.451  0.7297  0.1209  0.9504
 2985SOL     OW20590   1.877   4.244   3.725  0.0730  0.4131 -0.2160
 2985SOL    HW120591   1.897   4.155   3.754 -2.0107  0.1991  0.5738
 2985SOL    HW220592   1.964   4.267   3.692  0.6083  1.2622  1.7596
 2986SOL     OW20593   0.976   2.708   8.839 -0.8049 -0.1532  0.2917
 2986SOL    HW120594   0.981   2.758   8.758  2.1147  1.2634  1.3305
 2986SOL    HW220595   0.894   2.661   8.828  0.0050 -1.4337 -0.2041
 2987SOL     OW20596   3.088   1.127  12.365 -0.2966  0.0054 -0.0337
 2987SOL    HW120597   3.033   1.050  12.374  0.8494 -0.8174 -0.0089
 2987SOL    HW220598   3.120   1.125  12.455 -0.8211  0.4069  0.1605
 2988SOL     OW20599   3.745   0.105   7.194 -0.3186 -0.9060 -0.0392
 2988SOL    HW120600   3.781   0.121   7.281  0.2541 -0.1499 -0.4160
 2988SOL    HW220601   3.792   0.029   7.159  0.8497 -0.2461  0.0989
 2989SOL     OW20602   1.443   4.447   8.844 -0.2365  0.3155  0.0847
 2989SOL    HW120603   1.437   4.529   8.893 -1.8966  0.4507 -0.3658
 2989SOL    HW220604   1.426   4.386   8.916  2.8861 -1.2190 -0.4778
 2990SOL     OW20605   2.376   2.920   0.807 -0.3685 -0.4200  0.1599
 2990SOL    HW120606   2.370   2.958   0.719 -0.1087  0.9291  0.7212
 2990SOL    HW220607   2.440   2.849   0.807 -1.5544 -1.4952 -0.8320
 2991SOL     OW20608   2.416   1.367   3.982  0.0674 -0.0216  0.0535
 2991SOL    HW120609   2.401   1.433   3.915  0.4541  0.0252  0.0102
 2991SOL    HW220610   2.336   1.370   4.034 -0.3546  2.5273 -0.7690
 2992SOL     OW20611   1.232   3.664   4.780  0.6875 -0.2265 -0.2671
 2992SOL    HW120612   1.273   3.678   4.695 -0.4216  3.1151 -0.2530
 2992SOL    HW220613   1.154   3.719   4.775  0.0743 -0.9874  0.7018
 2993SOL     OW20614   2.860   2.671  16.276 -0.2437  0.1052  0.3341
 2993SOL    HW120615   2.772   2.682  16.313 -0.0655 -0.8743  1.0455
 2993SOL    HW220616   2.916   2.719  16.336 -0.1582  0.1964  0.1822
 2994SOL     OW20617   0.368   0.237   2.857 -0.7347  0.0069 -0.4350
 2994SOL    HW120618   0.301   0.290   2.900 -0.1164 -0.2912  0.8780
 2994SOL    HW220619   0.348   0.158   2.906  2.4321 -0.6105 -0.1600
 2995SOL     OW20620   2.864   0.965  10.554  0.5567 -0.5422 -0.4309
 2995SOL    HW120621   2.898   1.054  10.552 -1.2542  0.1743  0.1810
 2995SOL    HW220622   2.827   0.960  10.642  0.7183  2.1672 -0.2085
 2996SOL     OW20623   0.199   4.165  13.838  0.3018 -0.4794  0.2902
 2996SOL    HW120624   0.114   4.165  13.882  0.7399 -2.8368  1.1332
 2996SOL    HW220625   0.181   4.103  13.767  2.3788  1.0352 -1.5205
 2997SOL     OW20626   0.243   1.802  15.096 -0.5120 -0.0198  0.3189
 2997SOL    HW120627   0.274   1.762  15.014 -0.9845  1.7248 -0.7218
 2997SOL    HW220628   0.326   1.818  15.141  0.6295 -3.1351 -0.6613
 2998SOL     OW20629   1.026   1.059   6.105  0.2002  0.1484  0.2480
 2998SOL    HW120630   0.958   1.060   6.172  0.3617  0.1631  0.4106
 2998SOL    HW220631   0.977   1.038   6.025 -0.0769  0.2527  0.3874
 2999SOL     OW20632   2.615   1.174  16.860  0.1096 -0.4884  0.5366
 2999SOL    HW120633   2.636   1.261  16.895 -0.5987  0.3066 -1.0043
 2999SOL    HW220634   2.575   1.130  16.934 -0.4317 -0.8510  0.0210
 3000SOL     OW20635   1.789   4.432  10.508 -0.0411  0.0392 -0.4197
 3000SOL    HW120636   1.870   4.476  10.483 -0.7097  1.1795 -0.5598
 3000SOL    HW220637   1.812   4.340  10.495 -1.0339 -0.5750  2.0871
 3001SOL     OW20638   2.881   4.498   9.608  0.0313  0.3803  0.2163
 3001SOL    HW120639   2.881   4.436   9.535 -1.1659 -1.1490  1.5109
 3001SOL    HW220640   2.788   4.519   9.621 -0.4518 -1.4474 -0.2998
 3002SOL     OW20641   3.488   0.205   3.034  0.0226 -0.2113 -0.6601
 3002SOL    HW120642   3.394   0.219   3.037  0.6156  3.7529 -0.5750
 3002SOL    HW220643   3.534   0.288   3.018 -0.2259 -0.0166 -0.3709
 3003SOL     OW20644   1.478   0.367   5.065 -1.0686  0.0073  0.0349
 3003SOL    HW120645   1.440   0.285   5.033  0.2019 -0.8445  0.7198
 3003SOL    HW220646   1.557   0.338   5.109  0.9781  0.7272 -3.1770
 3004SOL     OW20647   0.340   1.856   3.531 -0.3041 -0.0169  0.0355
 3004SOL    HW120648   0.364   1.866   3.439 -1.8841 -1.7536 -0.5731
 3004SOL    HW220649   0.394   1.924   3.571  0.5737 -1.5362  1.4268
 3005SOL     OW20650   1.738   1.836  16.940  0.1065 -0.1703 -0.1001
 3005SOL    HW120651   1.748   1.860  17.032  0.0914  0.3132 -0.2268
 3005SOL    HW220652   1.796   1.761  16.952  2.1324  1.1295 -1.7883
 3006SOL     OW20653   0.293   3.755   3.815 -0.3775  0.1640  0.3551
 3006SOL    HW120654   0.303   3.799   3.731  0.0992  0.9159  0.8001
 3006SOL    HW220655   0.253   3.818   3.875  1.0877  0.0477  1.4474
 3007SOL     OW20656   0.262   4.220   1.888 -0.3218 -0.2939 -0.3303
 3007SOL    HW120657   0.178   4.241   1.847  0.0826  0.8209 -0.6132
 3007SOL    HW220658   0.238   4.165   1.962  1.4498  0.5645  0.8892
 3008SOL     OW20659   4.220   4.360   5.614  0.1008  0.0711  0.4508
 3008SOL    HW120660   4.239   4.453   5.598 -4.1592  0.8518 -0.2063
 3008SOL    HW220661   4.142   4.340   5.561 -0.4103  1.1030  0.8061
 3009SOL     OW20662   0.820   3.467   6.572  0.0105 -0.7096 -0.1759
 3009SOL    HW120663   0.863   3.396   6.524 -1.0402  0.0856 -2.2947
 3009SOL    HW220664   0.866   3.544   6.538 -0.3685 -1.2778 -2.0053
 3010SOL     OW20665   3.145   3.200   3.682 -0.7856 -0.2495  0.6605
 3010SOL    HW120666   3.181   3.271   3.628  1.6484 -0.0684  2.5058
 3010SOL    HW220667   3.085   3.256   3.732 -1.0506 -0.0023  0.0741
 3011SOL     OW20668   1.437   3.746   5.455 -0.6282 -0.2936  0.2524
 3011SOL    HW120669   1.517   3.793   5.476 -1.0370  0.1692  0.8049
 3011SOL    HW220670   1.403   3.730   5.543 -2.2298  1.0184 -0.1233
 3012SOL     OW20671   0.974   3.385  12.615  0.1349  0.1585 -0.1760
 3012SOL    HW120672   0.915   3.367  12.689  2.3724 -0.2466  1.5054
 3012SOL    HW220673   0.944   3.475  12.599  1.2464  0.3561 -1.0653
 3013SOL     OW20674   2.592   3.307   3.939  0.0087  0.1768 -0.8112
 3013SOL    HW120675   2.556   3.259   4.013 -0.4248 -0.4922 -1.4551
 3013SOL    HW220676   2.608   3.393   3.977 -1.5005  1.1021 -2.2733
 3014SOL     OW20677   0.594   0.863   8.141 -0.0805  0.3086 -0.2142
 3014SOL    HW120678   0.667   0.814   8.181  0.6950  0.9557 -0.8491
 3014SOL    HW220679   0.607   0.958   8.142  0.3242  0.2550 -0.6684
 3015SOL     OW20680   4.326   0.226   5.924  0.4345 -0.0628  0.0177
 3015SOL    HW120681   4.403   0.281   5.932  1.3405 -1.7861  3.0387
 3015SOL    HW220682   4.332   0.156   5.989 -0.5660 -1.4947 -1.4420
 3016SOL     OW20683   0.322   0.947   3.574  0.2169 -0.0844  0.3472
 3016SOL    HW120684   0.403   0.926   3.621  0.5297  0.4919  0.0624
 3016SOL    HW220685   0.345   1.032   3.538  0.1336  0.8160  2.4395
 3017SOL     OW20686   3.787   4.508   5.584  0.6297 -0.0630  0.3379
 3017SOL    HW120687   3.704   4.509   5.536  2.0017 -0.1102 -2.0773
 3017SOL    HW220688   3.849   4.538   5.517 -0.4727  0.0346 -0.6428
 3018SOL     OW20689   4.448   1.562   5.790  0.0661  0.4910  0.1585
 3018SOL    HW120690   4.410   1.503   5.725 -0.9535 -0.9167  2.0128
 3018SOL    HW220691   4.395   1.641   5.788 -0.7835 -0.0713  0.2470
 3019SOL     OW20692   1.490   2.120   8.099 -0.7732 -0.1656  0.0161
 3019SOL    HW120693   1.581   2.105   8.075  0.0863  2.3864  1.6898
 3019SOL    HW220694   1.441   2.101   8.019  2.6226 -1.8228 -1.6465
 3020SOL     OW20695   0.820   3.855   5.802  0.1517 -0.0743  0.3967
 3020SOL    HW120696   0.915   3.856   5.813  0.0909 -0.5475  0.9555
 3020SOL    HW220697   0.831   3.821   5.713  0.6186  0.6507  0.1809
 3021SOL     OW20698   2.040   4.362   8.526 -0.6951 -0.2308 -0.0018
 3021SOL    HW120699   2.111   4.343   8.587  0.2619  1.1658 -0.6928
 3021SOL    HW220700   2.059   4.443   8.479 -1.0079 -1.0407 -1.5233
 3022SOL     OW20701   2.969   4.298   7.591 -0.1867  0.1195  0.0299
 3022SOL    HW120702   2.975   4.206   7.617  1.4701  0.0342 -0.6425
 3022SOL    HW220703   2.878   4.315   7.566 -0.4486  0.0618  0.9272
 3023SOL     OW20704   3.986   4.339  13.318 -0.2847  0.5448 -0.3245
 3023SOL    HW120705   3.948   4.303  13.398 -1.9137  1.3661 -0.7208
 3023SOL    HW220706   3.992   4.260  13.264  0.0160 -0.2074  0.8105
 3024SOL     OW20707   2.860   1.071  11.196  0.0844 -0.1750 -0.1620
 3024SOL    HW120708   2.912   0.996  11.166  1.4344  1.1613 -1.1525
 3024SOL    HW220709   2.880   1.064  11.289  0.7345 -0.9682 -0.3663
 3025SOL     OW20710   1.837   4.303   7.723 -0.4488  0.0672 -0.0610
 3025SOL    HW120711   1.871   4.391   7.740  0.0569  0.2852 -2.3153
 3025SOL    HW220712   1.744   4.323   7.714 -0.1717  1.2189 -0.3891
 3026SOL     OW20713   3.927   4.202  16.968 -0.1426  0.6836 -0.2450
 3026SOL    HW120714   3.885   4.133  17.020  1.5088 -0.4272 -0.3398
 3026SOL    HW220715   3.978   4.247  17.035  2.4717 -2.8169  0.1713
 3027SOL     OW20716   4.406   2.737   7.286  0.1781 -0.2483  0.4606
 3027SOL    HW120717   4.468   2.750   7.215 -0.7691  1.8595  0.0275
 3027SOL    HW220718   4.372   2.651   7.262 -0.4521 -0.2653  1.3805
 3028SOL     OW20719   3.249   2.702   1.074  0.4801  0.4707  0.5995
 3028SOL    HW120720   3.205   2.722   1.156  2.6472 -2.0731  2.3795
 3028SOL    HW220721   3.341   2.725   1.084  0.6607  0.3289 -0.6753
 3029SOL     OW20722   3.810   3.114   4.810 -0.6314 -0.2023  0.3063
 3029SOL    HW120723   3.839   3.029   4.777  1.1148  0.9398 -1.1308
 3029SOL    HW220724   3.717   3.107   4.791 -1.0120  0.4877  1.8886
 3030SOL     OW20725   3.650   1.616  17.510  0.4806  0.2197 -0.1049
 3030SOL    HW120726   3.653   1.689  17.572 -0.3187 -0.3146  0.5710
 3030SOL    HW220727   3.556   1.615  17.492  0.1098 -0.7710  1.7951
 3031SOL     OW20728   0.766   0.841   6.048  0.0430 -0.2214 -0.5116
 3031SOL    HW120729   0.673   0.819   6.044  0.2668 -1.2405 -0.1150
 3031SOL    HW220730   0.784   0.787   6.124 -1.2216  2.7638  1.9408
 3032SOL     OW20731   1.604   3.282   9.133  0.5662 -0.0440  0.0134
 3032SOL    HW120732   1.658   3.211   9.097  1.3254 -0.1086  1.3007
 3032SOL    HW220733   1.566   3.254   9.216  0.2911 -0.8660 -0.3843
 3033SOL     OW20734   4.297   0.386   9.030 -0.2673  0.2478 -0.5804
 3033SOL    HW120735   4.312   0.465   9.083 -1.4303 -0.8815  1.4365
 3033SOL    HW220736   4.383   0.390   8.988  0.1206 -0.3724  0.1436
 3034SOL     OW20737   0.880   4.494   6.778  0.3473 -0.0924  0.3904
 3034SOL    HW120738   0.969   4.480   6.810  0.7499 -1.2809 -1.2266
 3034SOL    HW220739   0.862   4.587   6.770 -0.1697 -0.2473 -0.2933
 3035SOL     OW20740   2.806   2.134   8.081 -0.5915 -0.6764 -0.0084
 3035SOL    HW120741   2.886   2.120   8.031  0.7212  0.5718  1.7575
 3035SOL    HW220742   2.830   2.077   8.154 -2.9263 -1.4083  0.2046
 3036SOL     OW20743   0.352   0.145   8.132 -0.5321 -0.0069  0.4368
 3036SOL    HW120744   0.400   0.066   8.110  0.5922  0.7133  0.2950
 3036SOL    HW220745   0.263   0.122   8.103  0.2014 -0.2667 -1.5999
 3037SOL     OW20746   0.419   4.207   3.337 -0.0958  0.1200 -0.2698
 3037SOL    HW120747   0.383   4.195   3.249 -0.2729  1.2923 -0.3589
 3037SOL    HW220748   0.346   4.179   3.392  1.8817 -0.3731  2.0411
 3038SOL     OW20749   1.903   4.359   6.186  0.2069 -0.5061 -0.0369
 3038SOL    HW120750   1.873   4.270   6.169  0.1272 -0.2780 -1.0515
 3038SOL    HW220751   1.899   4.371   6.281 -0.7399  1.3704 -0.3267
 3039SOL     OW20752   1.201   1.897   4.140  0.7343 -0.0531  0.3383
 3039SOL    HW120753   1.243   1.824   4.095 -1.1648  0.0841 -1.6410
 3039SOL    HW220754   1.199   1.855   4.226 -0.6165 -1.4924 -0.3912
 3040SOL     OW20755   1.879   0.409   5.390  0.2873  0.6130  0.0436
 3040SOL    HW120756   1.953   0.443   5.441  0.6866 -1.0572  0.6015
 3040SOL    HW220757   1.801   0.457   5.419 -0.8256 -0.6307 -0.8801
 3041SOL     OW20758   0.250   0.492   1.507 -0.9189  0.3032 -0.0470
 3041SOL    HW120759   0.157   0.485   1.484 -0.8260  1.2805 -0.7271
 3041SOL    HW220760   0.245   0.587   1.514  1.0367  0.5267 -1.6069
 3042SOL     OW20761   1.736   2.165   7.799 -0.1538  0.5464  0.8661
 3042SOL    HW120762   1.660   2.157   7.742  2.5711  0.4690 -2.7353
 3042SOL    HW220763   1.795   2.219   7.747 -0.2272 -0.6434 -0.4654
 3043SOL     OW20764   1.184   3.760   4.160  0.3223  0.4404  0.0549
 3043SOL    HW120765   1.178   3.709   4.241 -1.6401 -0.9313 -0.9388
 3043SOL    HW220766   1.169   3.694   4.093 -2.7533  0.8073  0.3683
 3044SOL     OW20767   4.237   4.308   3.046  0.3226 -0.1867  0.4500
 3044SOL    HW120768   4.209   4.293   2.956 -1.2148  0.6844  0.7763
 3044SOL    HW220769   4.162   4.276   3.097  0.7556 -0.8032  0.7003
 3045SOL     OW20770   3.693   4.557   3.171  0.0412  0.0701  0.0612
 3045SOL    HW120771   3.619   4.515   3.214 -0.2409 -0.4294 -0.8996
 3045SOL    HW220772   3.663   4.648   3.178 -0.6040 -0.0130 -1.6083
 3046SOL     OW20773   2.154   1.868   2.277  0.0118  0.6064  0.3710
 3046SOL    HW120774   2.234   1.908   2.312  0.4670  0.7731 -0.8485
 3046SOL    HW220775   2.137   1.802   2.345  1.6636  0.2118  0.3993
 3047SOL     OW20776   0.964   4.346   0.899  0.8940  0.5272  0.6460
 3047SOL    HW120777   0.980   4.285   0.970 -0.1923  1.2686  1.5379
 3047SOL    HW220778   0.891   4.394   0.938 -0.6516 -0.5722 -0.9143
 3048SOL     OW20779   2.511   1.147  15.779 -0.4129  0.0935  0.3464
 3048SOL    HW120780   2.594   1.156  15.733 -1.3071 -0.4498 -1.3915
 3048SOL    HW220781   2.521   1.215  15.845  0.3174  1.1696 -0.8814
 3049SOL     OW20782   3.964   2.963   8.773 -0.3393 -1.1865  0.3651
 3049SOL    HW120783   4.050   2.951   8.813 -0.8292  0.0537  1.7889
 3049SOL    HW220784   3.950   3.053   8.800  0.2231 -1.1661  0.5814
 3050SOL     OW20785   0.664   2.927   8.129 -0.0044  0.3557  0.2185
 3050SOL    HW120786   0.601   2.862   8.097  1.1581 -0.6856  0.0387
 3050SOL    HW220787   0.661   2.923   8.225 -0.8435 -0.1381  0.1696
 3051SOL     OW20788   1.411   1.221   5.801 -0.0905  0.1810  0.6687
 3051SOL    HW120789   1.327   1.202   5.760  0.0387 -0.5229  0.7225
 3051SOL    HW220790   1.469   1.209   5.726 -1.6746 -0.5540 -0.4300
 3052SOL     OW20791   3.716   0.811   7.025  0.7252 -0.4158 -0.1510
 3052SOL    HW120792   3.747   0.869   6.955  1.5759  0.9772  1.3793
 3052SOL    HW220793   3.789   0.819   7.085 -0.5498 -0.9191  1.4622
 3053SOL     OW20794   0.328   1.891   2.181 -0.3659  0.1824  0.3073
 3053SOL    HW120795   0.333   1.801   2.214 -0.4788  0.5498  1.3400
 3053SOL    HW220796   0.250   1.877   2.127  0.1068 -1.9812  0.1655
 3054SOL     OW20797   3.494   3.127   3.752 -0.5356 -0.5799  0.1737
 3054SOL    HW120798   3.458   3.207   3.713 -2.2004 -1.0225  0.7806
 3054SOL    HW220799   3.516   3.075   3.674  1.3206  0.1142  0.2492
 3055SOL     OW20800   2.117   0.292   4.685 -0.4831 -0.6053  0.0412
 3055SOL    HW120801   2.113   0.224   4.618 -0.7705 -1.4075  0.8727
 3055SOL    HW220802   2.024   0.315   4.694 -0.5559 -0.8229 -0.1659
 3056SOL     OW20803   1.052   4.734   4.117 -0.9461 -0.0215 -0.1084
 3056SOL    HW120804   1.137   0.008   4.074 -0.5406 -1.5170  0.3210
 3056SOL    HW220805   1.019   0.087   4.108 -0.3360  0.1685 -0.4546
 3057SOL     OW20806   0.686   2.164   6.888 -0.2618  0.2186 -0.2799
 3057SOL    HW120807   0.712   2.184   6.797  0.2617 -1.9467 -0.6120
 3057SOL    HW220808   0.761   2.116   6.922 -0.3936 -1.5197 -2.3900
 3058SOL     OW20809   2.645   2.536  11.188  0.2906 -0.3642  0.2559
 3058SOL    HW120810   2.671   2.613  11.238 -2.9441  1.0173 -0.2423
 3058SOL    HW220811   2.697   2.552  11.109 -1.6634 -2.2916 -1.4233
 3059SOL     OW20812   4.082   4.312  11.574 -0.0598  0.3644  0.3886
 3059SOL    HW120813   4.017   4.261  11.525 -1.1651  0.9593  1.2443
 3059SOL    HW220814   4.132   4.244  11.620  1.0401  0.4658 -0.6485
 3060SOL     OW20815   1.027   4.723   0.122  0.2481 -0.4329 -0.0512
 3060SOL    HW120816   0.972   4.682   0.055 -0.0924  1.0239 -0.6690
 3060SOL    HW220817   0.966   4.719   0.195 -2.2270  0.3477 -2.0678
 3061SOL     OW20818   3.774   0.346   9.060 -0.4959  0.1435  0.1943
 3061SOL    HW120819   3.801   0.424   9.108  0.3593 -0.4899  0.7323
 3061SOL    HW220820   3.710   0.307   9.119  0.9491  0.3780  1.9222
 3062SOL     OW20821   3.916   2.389   2.760  0.0840  0.7218 -0.2187
 3062SOL    HW120822   3.918   2.327   2.687 -0.1733  0.4228  0.0272
 3062SOL    HW220823   3.935   2.330   2.834  1.4472  1.6580  0.1740
 3063SOL     OW20824   0.492   2.164   8.138 -0.1544  0.5133  0.0852
 3063SOL    HW120825   0.526   2.227   8.075  2.0291  0.6632  1.4241
 3063SOL    HW220826   0.422   2.214   8.181 -0.4643 -0.5837  0.8627
 3064SOL     OW20827   2.590   0.504   8.014  0.3074  0.2535  0.1488
 3064SOL    HW120828   2.676   0.481   8.049  0.5147  2.0222  0.7848
 3064SOL    HW220829   2.557   0.416   7.998  2.0301 -0.4610  0.4988
 3065SOL     OW20830   1.204   1.471   6.505  0.6480 -0.1188 -0.1543
 3065SOL    HW120831   1.286   1.429   6.530  1.1730  0.3281 -1.1527
 3065SOL    HW220832   1.231   1.512   6.423  0.3070 -0.3275 -0.3731
 3066SOL     OW20833   3.715   2.680   1.673 -0.1707  0.0718  0.2971
 3066SOL    HW120834   3.726   2.649   1.583  1.0205 -0.3591  0.5902
 3066SOL    HW220835   3.801   2.654   1.706 -0.6362 -0.3730  1.1652
 3067SOL     OW20836   3.039   0.670   6.794  0.7434 -0.3174 -0.3383
 3067SOL    HW120837   3.039   0.704   6.704 -0.9896  4.0403  1.2871
 3067SOL    HW220838   2.981   0.594   6.792  2.7852 -1.8343 -1.9386
 3068SOL     OW20839   0.486   3.141   9.454  0.1064  0.5482  0.6135
 3068SOL    HW120840   0.403   3.150   9.408  0.6580  0.0286 -0.5020
 3068SOL    HW220841   0.539   3.113   9.379 -0.5046  0.5793  0.1716
 3069SOL     OW20842   0.056   4.396  15.272 -0.0491  0.0677  0.7404
 3069SOL    HW120843   0.072   4.402  15.366 -0.7752  1.1291  0.8032
 3069SOL    HW220844   0.099   4.475  15.237 -0.7755  0.1613  0.0675
 3070SOL     OW20845   3.267   3.692   4.242 -0.0013 -0.4500  0.1048
 3070SOL    HW120846   3.349   3.658   4.276  0.0145 -0.0843  0.4304
 3070SOL    HW220847   3.288   3.700   4.149  0.4006 -1.3257  0.1228
 3071SOL     OW20848   2.708   2.252   3.305  0.4836  0.3413  0.3403
 3071SOL    HW120849   2.738   2.277   3.393  0.4188  3.1013 -0.4357
 3071SOL    HW220850   2.765   2.177   3.285 -0.1537 -0.3374  1.0568
 3072SOL     OW20851   1.261   1.200  10.208  0.2323 -0.2716  0.2903
 3072SOL    HW120852   1.316   1.228  10.281  1.1032 -0.0359 -0.4586
 3072SOL    HW220853   1.171   1.232  10.218  0.7678  1.0759  0.7486
 3073SOL     OW20854   2.492   4.385   1.196 -0.1133  0.3935 -0.0915
 3073SOL    HW120855   2.432   4.444   1.241  0.2562  2.1024 -1.7850
 3073SOL    HW220856   2.456   4.300   1.220 -1.3749 -0.1101 -3.7052
 3074SOL     OW20857   0.617   0.747   3.045  0.2524 -0.4174  0.0609
 3074SOL    HW120858   0.667   0.798   2.981  1.4979 -0.7335  0.7854
 3074SOL    HW220859   0.623   0.811   3.115  1.1889 -0.4317 -0.0172
 3075SOL     OW20860   2.055   0.347   6.422  0.0313  0.2003  0.0642
 3075SOL    HW120861   1.966   0.311   6.427 -0.2795  0.9222 -0.4705
 3075SOL    HW220862   2.082   0.300   6.343  1.5983  2.9134 -0.9817
 3076SOL     OW20863   1.673   1.296  10.774 -0.1212 -0.1202 -0.4448
 3076SOL    HW120864   1.730   1.373  10.768 -1.1688  0.9097  2.9834
 3076SOL    HW220865   1.737   1.241  10.728  2.9989  3.2727 -0.2254
 3077SOL     OW20866   2.764   4.417   6.702 -0.0531  0.1636  0.3522
 3077SOL    HW120867   2.732   4.451   6.785 -2.4309  1.0402 -0.9358
 3077SOL    HW220868   2.856   4.442   6.714  0.4710 -1.4674 -0.2088
 3078SOL     OW20869   4.562   4.483   1.791  0.0660 -0.2894  0.3213
 3078SOL    HW120870   4.498   4.414   1.775 -0.5034  0.0589  1.1453
 3078SOL    HW220871   4.553   4.478   1.886  2.2360 -1.0961  0.4989
 3079SOL     OW20872   4.582   2.439  15.516  0.0270 -0.5253 -0.7199
 3079SOL    HW120873   4.602   2.368  15.578 -0.2242 -0.9952 -1.1755
 3079SOL    HW220874   4.646   2.417  15.449 -1.0546  2.8099 -2.8260
 3080SOL     OW20875   0.757   4.349   7.001  0.5737  0.0853  0.1669
 3080SOL    HW120876   0.754   4.414   6.930  0.2668  0.6563  0.7002
 3080SOL    HW220877   0.850   4.336   7.015  0.3636 -1.7365 -0.2103
 3081SOL     OW20878   4.447   1.860   7.667 -0.1300  0.4524 -0.1973
 3081SOL    HW120879   4.466   1.768   7.650 -1.2501  0.2930 -0.5846
 3081SOL    HW220880   4.366   1.882   7.621  0.2728  1.6506 -0.3405
 3082SOL     OW20881   1.177   0.422   8.977  0.4079 -0.4973  0.5724
 3082SOL    HW120882   1.110   0.485   8.949  3.0894  2.3687  0.6159
 3082SOL    HW220883   1.140   0.340   8.946 -0.5137 -0.2841  1.1008
 3083SOL     OW20884   2.966   3.033   7.212  0.3356 -0.2296  0.2665
 3083SOL    HW120885   2.962   3.116   7.258 -1.8240  0.0450 -0.4184
 3083SOL    HW220886   2.887   2.993   7.249  1.0533 -0.9105  1.0818
 3084SOL     OW20887   1.918   1.213   7.859  0.5287  0.4385 -0.2555
 3084SOL    HW120888   2.001   1.168   7.842  0.9366  0.9599  0.3984
 3084SOL    HW220889   1.920   1.226   7.953  2.0482 -1.1492 -0.0575
 3085SOL     OW20890   3.615   2.182   4.169 -0.0872  0.1870  0.2571
 3085SOL    HW120891   3.631   2.223   4.254 -0.9247  0.8489  0.1017
 3085SOL    HW220892   3.701   2.166   4.131  0.2386 -0.3038  1.2112
 3086SOL     OW20893   2.636   2.252  14.536 -0.2609  0.4337  0.1493
 3086SOL    HW120894   2.703   2.285  14.595  0.8097 -1.2964 -0.0989
 3086SOL    HW220895   2.574   2.213  14.596  0.0939 -0.4690 -0.0785
 3087SOL     OW20896   3.028   4.665   7.607 -0.4347 -0.3835  0.0546
 3087SOL    HW120897   2.938   4.696   7.619 -0.5257 -1.3636  1.9621
 3087SOL    HW220898   3.017   4.659   7.512 -1.1543 -0.1554  0.1276
 3088SOL     OW20899   1.692   1.106   1.962  0.5666 -0.5107  0.2107
 3088SOL    HW120900   1.721   1.195   1.982  0.1695 -0.4324  0.4419
 3088SOL    HW220901   1.625   1.123   1.896  0.3108  0.4536  0.7231
 3089SOL     OW20902   4.557   2.863   9.044 -0.1983  0.0933 -0.3286
 3089SOL    HW120903   4.553   2.940   8.986  1.2346  1.9633  2.0507
 3089SOL    HW220904   4.468   2.862   9.077  0.3439  1.6821  1.2072
 3090SOL     OW20905   3.510   4.478   2.428  0.4582 -0.2675 -0.2966
 3090SOL    HW120906   3.430   4.427   2.443  1.1209 -1.5260 -1.1706
 3090SOL    HW220907   3.491   4.515   2.342  0.8157 -1.0590 -0.7071
 3091SOL     OW20908   3.673   4.471   8.009 -0.4287  0.1600  0.4733
 3091SOL    HW120909   3.588   4.498   8.042  0.0479  3.0896 -0.6690
 3091SOL    HW220910   3.669   4.493   7.915 -1.7750 -0.7762  0.3143
 3092SOL     OW20911   3.694   1.718  10.277  0.3042 -0.6857  0.8343
 3092SOL    HW120912   3.619   1.710  10.336  0.5015 -1.0092  1.0475
 3092SOL    HW220913   3.721   1.809  10.272 -0.5471 -0.6302 -2.8839
 3093SOL     OW20914   3.277   0.246  11.102 -0.0664 -0.6843 -0.4819
 3093SOL    HW120915   3.335   0.233  11.027 -0.3645  3.4226 -1.4275
 3093SOL    HW220916   3.292   0.339  11.118 -2.6433 -0.5163  0.9875
 3094SOL     OW20917   4.228   1.930   1.250  0.1293  0.1139 -0.2017
 3094SOL    HW120918   4.133   1.924   1.252  0.1941 -0.1243  1.8972
 3094SOL    HW220919   4.243   1.972   1.335  2.3501 -2.4915  0.6918
 3095SOL     OW20920   4.328   2.840   5.583 -0.0715  0.4313 -0.4883
 3095SOL    HW120921   4.241   2.876   5.568  0.4334  1.6925 -0.3609
 3095SOL    HW220922   4.383   2.906   5.542 -1.8933  0.6319 -2.6248
 3096SOL     OW20923   1.760   0.880   7.805  0.2290  0.4377  0.1109
 3096SOL    HW120924   1.747   0.895   7.711  0.7329 -1.7034 -0.2781
 3096SOL    HW220925   1.848   0.911   7.824  0.9212 -1.1781 -0.5086
 3097SOL     OW20926   0.217   1.801   1.340 -0.1801 -0.2678 -0.5474
 3097SOL    HW120927   0.279   1.735   1.370 -1.4740 -1.6336 -0.9342
 3097SOL    HW220928   0.136   1.761   1.370  0.7130 -1.2623  0.5655
 3098SOL     OW20929   4.388   1.878   6.235  0.2943 -0.2065  0.3027
 3098SOL    HW120930   4.446   1.809   6.203 -1.3328 -0.5270 -1.9357
 3098SOL    HW220931   4.331   1.828   6.293  1.0365  1.0846  2.1267
 3099SOL     OW20932   4.205   4.215   1.506 -0.3679 -0.3328  0.4386
 3099SOL    HW120933   4.254   4.289   1.470 -1.0337  0.0932  0.4206
 3099SOL    HW220934   4.242   4.140   1.458 -0.9168 -0.1161 -0.3213
 3100SOL     OW20935   2.030   0.075   7.056  0.0675 -0.3999  0.4696
 3100SOL    HW120936   1.987   0.150   7.015  2.7762  0.5963 -0.5069
 3100SOL    HW220937   2.062   0.108   7.140  2.0304 -0.1432 -0.3916
 3101SOL     OW20938   2.727   0.734   3.827  0.6331 -0.3807  0.0760
 3101SOL    HW120939   2.758   0.744   3.737  2.7270  2.1794  1.0851
 3101SOL    HW220940   2.788   0.670   3.865  0.5218 -1.3037 -1.3089
 3102SOL     OW20941   2.414   2.668   6.358 -0.5193  0.3912  0.5928
 3102SOL    HW120942   2.508   2.680   6.345 -0.0740 -1.0341  2.6413
 3102SOL    HW220943   2.405   2.583   6.400 -0.9602 -0.6914 -1.6425
 3103SOL     OW20944   1.884   4.607   7.377  0.1171 -0.2693  0.0728
 3103SOL    HW120945   1.899   4.681   7.436 -1.0834 -0.8537  1.0965
 3103SOL    HW220946   1.963   4.616   7.323  0.6362  0.5100  0.9489
 3104SOL     OW20947   4.453   1.885   1.102  1.0153 -0.1343  0.4533
 3104SOL    HW120948   4.369   1.899   1.145 -0.8544 -0.9758 -2.9470
 3104SOL    HW220949   4.507   1.837   1.165  1.4018 -1.4174 -0.8641
 3105SOL     OW20950   3.878   0.145   7.430  0.9175 -0.2645 -0.3938
 3105SOL    HW120951   3.914   0.222   7.473  0.9130 -1.5567  1.9695
 3105SOL    HW220952   3.860   0.093   7.508  3.1511  0.3439  0.5159
 3106SOL     OW20953   2.100   3.045   3.374 -0.5864  0.9813  0.3966
 3106SOL    HW120954   2.007   3.024   3.378  0.0729 -2.1835 -0.6115
 3106SOL    HW220955   2.134   3.058   3.463 -0.7883  2.4358  0.2572
 3107SOL     OW20956   0.882   2.280   5.621 -0.4652 -0.2603 -0.0717
 3107SOL    HW120957   0.894   2.334   5.699  0.4831 -1.1256  0.3864
 3107SOL    HW220958   0.950   2.214   5.637  0.0978  0.3098 -0.1163
 3108SOL     OW20959   1.937   2.000   8.998  0.2575 -0.3556  0.0458
 3108SOL    HW120960   1.870   2.064   8.976  0.7711  0.1353 -0.0926
 3108SOL    HW220961   2.009   2.055   9.029 -0.2479  0.2652  0.1193
 3109SOL     OW20962   2.962   0.268   9.679  0.0879  0.0398  0.1662
 3109SOL    HW120963   2.984   0.221   9.760  4.1087 -1.7815 -1.9947
 3109SOL    HW220964   2.943   0.197   9.618  1.1105  0.1444 -0.2689
 3110SOL     OW20965   1.832   3.814   7.910  0.8142  0.1119  0.0970
 3110SOL    HW120966   1.901   3.812   7.844 -0.9004 -1.2617 -1.6585
 3110SOL    HW220967   1.782   3.879   7.861 -2.1588 -2.4337 -0.2165
 3111SOL     OW20968   4.598   2.615   2.504  0.7315 -0.5375 -0.0939
 3111SOL    HW120969   4.577   2.639   2.594  0.4531 -0.1717 -0.2542
 3111SOL    HW220970   4.515   2.593   2.462  0.6181 -0.1070 -0.0920
 3112SOL     OW20971   0.484   1.077   9.372 -0.6525 -0.2005  0.2810
 3112SOL    HW120972   0.489   1.112   9.283  0.8815 -1.3993 -0.0931
 3112SOL    HW220973   0.389   1.081   9.382 -0.8930 -2.9664 -1.0227
 3113SOL     OW20974   4.513   4.674   2.224  0.0015  0.0252  0.1041
 3113SOL    HW120975   4.607   4.677   2.239 -0.1811  0.4682  1.2056
 3113SOL    HW220976   4.473   0.003   2.283  0.4111  0.5523 -0.1974
 3114SOL     OW20977   1.026   2.757  11.236 -0.5227 -0.4072 -0.0066
 3114SOL    HW120978   1.025   2.679  11.293 -0.4845 -1.1501 -1.0193
 3114SOL    HW220979   1.089   2.818  11.274 -1.0724 -1.1198  2.0459
 3115SOL     OW20980   2.022   4.209   0.745  0.1858 -0.5428 -0.4527
 3115SOL    HW120981   2.043   4.181   0.835  1.1803  1.3357 -0.1101
 3115SOL    HW220982   1.974   4.288   0.766 -0.0032 -0.4184 -1.3682
 3116SOL     OW20983   4.242   1.877  15.400  0.1244 -0.5331 -0.1782
 3116SOL    HW120984   4.301   1.835  15.462  1.1581  0.6132 -0.3900
 3116SOL    HW220985   4.205   1.807  15.346  2.6637 -3.2801  1.7029
 3117SOL     OW20986   4.584   3.410  15.040  0.5075 -0.4318  0.5389
 3117SOL    HW120987   4.512   3.372  14.989  0.7118  0.4107 -0.3933
 3117SOL    HW220988   4.565   3.393  15.132  0.4344 -0.9807  0.4232
 3118SOL     OW20989   0.252   0.001   5.282  0.1280 -0.0512  0.5192
 3118SOL    HW120990   0.173   4.735   5.227 -0.0163 -0.1071  0.7271
 3118SOL    HW220991   0.316   4.731   5.211 -1.4545 -0.6094 -0.8822
 3119SOL     OW20992   2.057   3.366  16.007  0.2735 -0.5503  0.2006
 3119SOL    HW120993   2.031   3.276  15.991  1.1607 -0.6235 -0.8366
 3119SOL    HW220994   1.996   3.413  15.950 -0.9362  0.4010  2.2542
 3120SOL     OW20995   1.456   1.740   4.847 -0.3330  0.4462 -0.4749
 3120SOL    HW120996   1.549   1.759   4.850 -0.2224  0.0429 -1.4311
 3120SOL    HW220997   1.441   1.698   4.763  0.6470  1.1582 -0.9979
 3121SOL     OW20998   1.082   1.443   9.931  0.5318  0.0582  0.0053
 3121SOL    HW120999   1.171   1.477   9.923  0.5676  0.4159  1.9458
 3121SOL    HW221000   1.094   1.360   9.885  0.6466  0.1067 -0.0554
 3122SOL     OW21001   1.697   0.106  14.991 -0.0536  0.0666 -0.6929
 3122SOL    HW121002   1.669   0.040  15.054 -0.2047  2.0488  1.3514
 3122SOL    HW221003   1.705   0.180  15.052 -1.5089 -0.9443  0.6782
 3123SOL     OW21004   0.451   3.573   7.424 -0.0751 -0.0745 -0.1033
 3123SOL    HW121005   0.526   3.576   7.483 -0.1507 -0.7818  0.0381
 3123SOL    HW221006   0.446   3.482   7.393  2.4907  0.5355 -2.3622
 3124SOL     OW21007   2.608   0.334   3.114  0.0163  0.1267  0.3144
 3124SOL    HW121008   2.623   0.240   3.122  1.1334  0.4539  1.8796
 3124SOL    HW221009   2.562   0.345   3.197  0.5848  3.3880  0.2092
 3125SOL     OW21010   0.030   0.268   8.515  0.5981  0.0877  0.2278
 3125SOL    HW121011   0.100   0.285   8.452  1.9899 -1.5139  1.3473
 3125SOL    HW221012   0.074   0.202   8.568 -1.4239 -1.6981 -0.3190
 3126SOL     OW21013   1.105   0.108   0.800 -0.0248 -0.1226  0.0175
 3126SOL    HW121014   1.078   0.020   0.771  0.8539  0.0666 -1.3985
 3126SOL    HW221015   1.028   0.131   0.851 -0.0176  1.7978 -0.8552
 3127SOL     OW21016   2.994   0.474   0.606 -0.4192 -0.1254 -0.7734
 3127SOL    HW121017   2.907   0.471   0.565 -0.7649  3.6666 -0.3389
 3127SOL    HW221018   3.051   0.477   0.529 -0.2145 -0.4425 -0.6352
 3128SOL     OW21019   2.717   4.110   7.820  0.2039 -0.1054  0.3799
 3128SOL    HW121020   2.787   4.047   7.838  0.3923  0.7208  2.5781
 3128SOL    HW221021   2.646   4.048   7.804 -0.9998  2.4847 -4.1942
 3129SOL     OW21022   1.322   4.682   1.949 -0.4334  0.5537  0.3392
 3129SOL    HW121023   1.289   0.003   2.019 -0.1472  0.3454  0.6415
 3129SOL    HW221024   1.308   4.590   1.972  1.7711  0.1889  0.1990
 3130SOL     OW21025   1.598   1.453   4.450  0.3362 -0.0789 -0.1012
 3130SOL    HW121026   1.671   1.421   4.398 -0.1637 -2.7873  0.8970
 3130SOL    HW221027   1.539   1.378   4.451 -1.1197  1.0751  3.3742
 3131SOL     OW21028   2.857   3.166  12.958 -0.1583 -0.3533  0.1411
 3131SOL    HW121029   2.823   3.138  13.043  1.4559 -1.1765  0.5143
 3131SOL    HW221030   2.877   3.082  12.917  0.2333 -1.6446  3.0015
 3132SOL     OW21031   2.829   0.572   8.968 -0.1118  0.7430 -0.1090
 3132SOL    HW121032   2.818   0.494   8.914  1.6331  0.7877 -0.5389
 3132SOL    HW221033   2.780   0.547   9.046  0.7075  1.8732  0.7688
 3133SOL     OW21034   1.769   2.778   6.285  0.2867 -0.5323 -0.1248
 3133SOL    HW121035   1.839   2.778   6.350  0.9298  0.2990 -0.8179
 3133SOL    HW221036   1.723   2.857   6.310  1.0517  0.0769 -0.6353
 3134SOL     OW21037   2.729   0.372   3.597 -0.0211 -0.7282  0.5995
 3134SOL    HW121038   2.822   0.377   3.617  0.2993  0.7599 -1.2347
 3134SOL    HW221039   2.711   0.281   3.574  2.0614 -1.0385  0.1643
 3135SOL     OW21040   2.411   2.791  14.052  0.7392  0.7073 -0.6483
 3135SOL    HW121041   2.496   2.795  14.009  1.2073 -0.6893  0.1454
 3135SOL    HW221042   2.418   2.708  14.100  0.3645  2.8087  3.0367
 3136SOL     OW21043   1.827   0.341   3.495  0.1429 -0.5283  0.4730
 3136SOL    HW121044   1.865   0.427   3.516 -0.7911  0.2342 -0.9897
 3136SOL    HW221045   1.873   0.289   3.562 -1.5383 -2.3987  0.1655
 3137SOL     OW21046   1.342   2.509  12.203 -0.3502  0.0953 -0.1500
 3137SOL    HW121047   1.251   2.514  12.176 -1.3373 -0.9090  2.9971
 3137SOL    HW221048   1.375   2.588  12.161  0.4177  0.1671  0.5787
 3138SOL     OW21049   1.975   2.176   3.678 -0.0924 -0.6987 -0.0233
 3138SOL    HW121050   1.890   2.218   3.690 -0.0866  0.4088 -3.6605
 3138SOL    HW221051   2.000   2.212   3.593 -2.1622 -1.9700 -1.1565
 3139SOL     OW21052   0.185   2.481  15.851 -0.8126  0.5753  0.4678
 3139SOL    HW121053   0.236   2.561  15.863 -0.0674  0.0807  0.5974
 3139SOL    HW221054   0.098   2.508  15.880 -0.8892  0.4042  0.3977
 3140SOL     OW21055   0.865   0.295   5.502 -0.0598 -0.0027 -0.3919
 3140SOL    HW121056   0.888   0.203   5.487  1.4914  0.0528  1.6681
 3140SOL    HW221057   0.906   0.303   5.588 -0.1409 -2.0937 -0.1714
 3141SOL     OW21058   3.382   1.610  17.457  0.3155  0.1076  0.0585
 3141SOL    HW121059   3.352   1.701  17.460  1.0947  0.2978  1.8439
 3141SOL    HW221060   3.297   1.568  17.446  0.7124 -0.1304 -2.0526
 3142SOL     OW21061   1.981   2.350  14.881 -0.2865 -0.1018  0.2113
 3142SOL    HW121062   1.967   2.396  14.798 -1.0028  1.0192  0.9447
 3142SOL    HW221063   2.010   2.265  14.848 -0.3161 -0.4595  1.0829
 3143SOL     OW21064   2.074   0.579  13.867 -0.0745  0.1406  0.2903
 3143SOL    HW121065   2.040   0.609  13.782 -0.0706  0.0003  0.2384
 3143SOL    HW221066   2.150   0.637  13.875 -0.0551  0.0777  0.5555
 3144SOL     OW21067   2.188   3.150   1.892  0.3573 -0.1207 -0.3833
 3144SOL    HW121068   2.281   3.160   1.911  0.3206  0.0634 -0.2999
 3144SOL    HW221069   2.149   3.219   1.946 -0.9919  0.9403 -2.7022
 3145SOL     OW21070   3.382   1.555   7.423  0.2728  0.5540 -0.0087
 3145SOL    HW121071   3.378   1.500   7.500 -0.3553 -0.7798 -0.9989
 3145SOL    HW221072   3.432   1.509   7.355  3.5401 -1.2928  3.6871
 3146SOL     OW21073   0.983   0.869   4.869 -0.9189 -0.3126 -0.1706
 3146SOL    HW121074   0.893   0.870   4.902 -0.4859 -0.9572  1.0639
 3146SOL    HW221075   1.038   0.854   4.947  0.5389  2.9466 -0.5753
 3147SOL     OW21076   2.859   2.659   3.903  0.1680  0.1624 -0.0500
 3147SOL    HW121077   2.856   2.661   3.999 -0.8964 -1.7430 -0.0410
 3147SOL    HW221078   2.847   2.564   3.896 -0.3731 -0.0357  3.3142
 3148SOL     OW21079   1.896   1.294  15.865  0.3548 -0.1240  0.1515
 3148SOL    HW121080   1.918   1.376  15.910  0.6843  1.2726 -2.5120
 3148SOL    HW221081   1.952   1.301  15.788  0.5057  0.0866  0.2795
 3149SOL     OW21082   4.547   1.099  12.373 -0.6210 -0.3718 -0.0095
 3149SOL    HW121083   4.529   1.166  12.439  1.3895  0.2945 -0.1379
 3149SOL    HW221084   4.485   1.125  12.305  1.3538  0.3953 -1.5093
 3150SOL     OW21085   4.524   2.579   9.334 -0.3758 -0.1388 -0.4201
 3150SOL    HW121086   4.556   2.663   9.302  1.4110 -1.3947 -1.9461
 3150SOL    HW221087   4.444   2.607   9.378  0.0838 -2.1368  1.6753
 3151SOL     OW21088   1.824   0.434   7.332 -0.9561  0.6921 -0.4208
 3151SOL    HW121089   1.881   0.481   7.271  0.7886  2.0487  2.2410
 3151SOL    HW221090   1.761   0.383   7.281 -0.3211  0.5677 -1.0781
 3152SOL     OW21091   0.035   1.512   7.222  0.2624 -0.2296 -0.1701
 3152SOL    HW121092   0.112   1.519   7.166  0.2786  2.5090  0.2200
 3152SOL    HW221093   0.014   1.422   7.197  1.6227 -0.6285  0.1078
 3153SOL     OW21094   3.342   1.264   9.790 -0.0583 -0.2421  0.2302
 3153SOL    HW121095   3.350   1.263   9.694  0.9664 -1.4624  0.3272
 3153SOL    HW221096   3.401   1.190   9.806  0.1436 -0.0247  0.5070
 3154SOL     OW21097   2.343   0.566  10.937 -0.2861 -0.1196  0.3525
 3154SOL    HW121098   2.368   0.656  10.919 -0.6630 -0.1068 -0.1040
 3154SOL    HW221099   2.396   0.549  11.015  0.5231 -2.4130 -0.7026
 3155SOL     OW21100   4.154   4.444   4.663 -0.1758  0.4751  0.1469
 3155SOL    HW121101   4.196   4.360   4.684 -1.4852 -0.1704  0.1684
 3155SOL    HW221102   4.148   4.486   4.749  0.9300 -1.9671  1.4348
 3156SOL     OW21103   0.418   4.650   7.062  0.2257 -0.1245 -0.2190
 3156SOL    HW121104   0.326   4.673   7.047  0.1655  0.7505  1.3852
 3156SOL    HW221105   0.432   4.567   7.016 -0.1637 -0.8302  0.9304
 3157SOL     OW21106   3.018   2.077   7.906 -0.1744  0.4667  0.7843
 3157SOL    HW121107   3.110   2.053   7.917  0.4850  1.7689 -1.8906
 3157SOL    HW221108   2.991   2.021   7.834  0.4342  0.8916  0.2167
 3158SOL     OW21109   0.639   1.440   5.491 -0.2879 -0.0336 -0.3689
 3158SOL    HW121110   0.703   1.494   5.445  1.1086 -1.3400  0.0272
 3158SOL    HW221111   0.680   1.414   5.574  0.5705 -0.3200 -0.8888
 3159SOL     OW21112   2.356   0.115  10.737  0.1826 -0.6601  0.1238
 3159SOL    HW121113   2.379   0.208  10.739  0.6639 -0.7520 -1.9576
 3159SOL    HW221114   2.444   0.076  10.738  1.9237  3.2556 -0.6997
 3160SOL     OW21115   4.076   4.220   3.860  0.3005  0.3705  0.1437
 3160SOL    HW121116   4.019   4.295   3.845 -0.0478  0.1706  0.4854
 3160SOL    HW221117   4.042   4.195   3.946 -1.4828  1.8239 -0.1491
 3161SOL     OW21118   3.834   1.258   6.024  0.3504  0.1039 -0.1742
 3161SOL    HW121119   3.818   1.255   6.118  3.0014 -0.2297  0.2619
 3161SOL    HW221120   3.817   1.347   5.993 -1.4326 -0.2642 -0.2444
 3162SOL     OW21121   1.467   0.737   4.242  0.1155  0.4717  0.0248
 3162SOL    HW121122   1.500   0.685   4.315  0.7397  1.0362  0.1474
 3162SOL    HW221123   1.398   0.679   4.210  0.1236  0.9310 -0.8389
 3163SOL     OW21124   3.514   4.235   0.414 -0.3788  0.0207  0.1169
 3163SOL    HW121125   3.566   4.314   0.412  1.0738 -0.9412 -0.2486
 3163SOL    HW221126   3.472   4.232   0.328 -4.6757 -0.5824  2.2133
 3164SOL     OW21127   4.187   3.442   4.566 -0.5336 -0.0462  0.0127
 3164SOL    HW121128   4.182   3.504   4.493  1.5389 -0.2420 -0.2717
 3164SOL    HW221129   4.274   3.406   4.552 -0.9348 -0.8374 -0.4982
 3165SOL     OW21130   1.234   1.363   3.495 -0.1906  0.2081  0.6810
 3165SOL    HW121131   1.254   1.288   3.438 -1.0631 -0.2251  0.9545
 3165SOL    HW221132   1.298   1.426   3.463 -1.6860  2.0523  1.3488
 3166SOL     OW21133   2.155   2.450   6.254 -0.3891  0.7571  0.2779
 3166SOL    HW121134   2.202   2.421   6.176 -0.1291  1.6401  0.1149
 3166SOL    HW221135   2.155   2.545   6.247  0.0087  0.7229 -0.1784
 3167SOL     OW21136   2.893   4.127   8.692 -0.5649  0.7137 -0.1303
 3167SOL    HW121137   2.889   4.033   8.675  1.3069  1.0937 -2.6213
 3167SOL    HW221138   2.832   4.152   8.623  0.2229  0.2556 -0.9882
 3168SOL     OW21139   1.103   2.168  12.023  0.4801 -0.0232  0.2429
 3168SOL    HW121140   1.056   2.084  12.012  1.5074 -0.4721 -0.7075
 3168SOL    HW221141   1.043   2.196  12.092  2.6433  0.2071  1.9956
 3169SOL     OW21142   0.472   3.476   9.097 -0.2321  0.1811 -0.0843
 3169SOL    HW121143   0.536   3.505   9.161  0.2033  0.3705 -0.6073
 3169SOL    HW221144   0.451   3.560   9.057  2.3179  1.2338  0.8161
 3170SOL     OW21145   3.703   0.171  11.199  0.4098 -0.0294  0.1025
 3170SOL    HW121146   3.688   0.264  11.181  1.4117  0.1092 -0.0084
 3170SOL    HW221147   3.682   0.145  11.109  2.6298 -0.6464 -0.2214
 3171SOL     OW21148   0.750   2.084   6.400 -0.7201  0.4673  0.0153
 3171SOL    HW121149   0.683   2.016   6.403  0.3289 -0.5582  0.4717
 3171SOL    HW221150   0.771   2.099   6.493 -0.7707  0.2665  0.0582
 3172SOL     OW21151   0.765   1.254   9.236  0.2010  0.1307  0.4136
 3172SOL    HW121152   0.672   1.248   9.213  0.3175  2.2977 -0.6339
 3172SOL    HW221153   0.789   1.163   9.254  0.3492 -0.5707 -3.3261
 3173SOL     OW21154   4.087   1.581   2.808 -0.2057  0.6888  0.2919
 3173SOL    HW121155   3.999   1.609   2.781 -0.2383 -0.5598 -0.8845
 3173SOL    HW221156   4.094   1.500   2.758  0.1289  1.3934 -0.8183
 3174SOL     OW21157   2.679   4.560   5.186  0.1810 -0.0629  0.1780
 3174SOL    HW121158   2.681   4.649   5.221 -1.9219  0.9299 -2.1798
 3174SOL    HW221159   2.738   4.525   5.251 -0.5985 -1.1148  0.3173
 3175SOL     OW21160   3.575   3.511  14.146 -0.4597 -0.3873 -0.5486
 3175SOL    HW121161   3.664   3.489  14.118  0.0526  0.9686  0.0083
 3175SOL    HW221162   3.577   3.451  14.220  0.2751  0.9832  0.5479
 3176SOL     OW21163   2.688   4.383   1.496 -0.1509  0.5189 -0.0512
 3176SOL    HW121164   2.779   4.412   1.501 -0.2438  0.5363  1.5833
 3176SOL    HW221165   2.678   4.337   1.579 -0.9132  0.0115 -0.4245
 3177SOL     OW21166   2.748   4.600   9.966 -0.3565 -0.2758 -0.2910
 3177SOL    HW121167   2.734   4.622  10.058  1.7415 -2.1096  0.4554
 3177SOL    HW221168   2.739   4.683   9.920  0.2224 -0.9675 -1.6729
 3178SOL     OW21169   3.940   1.909  12.184  0.1166 -0.1967  0.2201
 3178SOL    HW121170   3.932   1.838  12.120  0.9588 -0.8542  0.8494
 3178SOL    HW221171   3.866   1.883  12.238 -0.0492 -0.5075 -0.1567
 3179SOL     OW21172   3.889   2.271  13.680  0.4079 -0.2572  0.2717
 3179SOL    HW121173   3.883   2.362  13.707 -0.6886 -0.7859  1.8056
 3179SOL    HW221174   3.938   2.242  13.757 -1.3472 -2.4470  0.5435
 3180SOL     OW21175   3.573   3.296   0.451 -0.5027  0.0668  0.1781
 3180SOL    HW121176   3.496   3.352   0.441 -1.4141 -1.4489 -1.4466
 3180SOL    HW221177   3.613   3.307   0.365 -1.6071  0.5163 -0.2767
 3181SOL     OW21178   4.326   0.469   0.936  0.2162  0.7667  0.5193
 3181SOL    HW121179   4.282   0.458   1.020  1.1445  1.5384  1.1024
 3181SOL    HW221180   4.359   0.379   0.933  0.6168  0.9358 -0.1283
 3182SOL     OW21181   2.199   2.327   3.990  0.3934 -0.6664  0.1910
 3182SOL    HW121182   2.284   2.356   4.024 -0.8140  3.9749 -0.7290
 3182SOL    HW221183   2.183   2.246   4.039  1.4665 -2.1242 -1.8828
 3183SOL     OW21184   2.007   0.774   3.073  0.6279  0.1619  0.0186
 3183SOL    HW121185   2.101   0.757   3.074  1.0986  2.8936  0.3309
 3183SOL    HW221186   2.002   0.865   3.045  1.8881  1.4646  4.0173
 3184SOL     OW21187   1.276   1.203   0.589  0.5831  0.4136 -0.3300
 3184SOL    HW121188   1.340   1.270   0.615  0.6470 -0.3766  1.4738
 3184SOL    HW221189   1.278   1.144   0.663  0.5540 -0.5880 -1.1281
 3185SOL     OW21190   4.555   1.589   1.089 -0.4243  0.0502 -0.6862
 3185SOL    HW121191   4.580   1.656   1.152  0.2981 -0.7765 -0.0993
 3185SOL    HW221192   4.605   1.619   1.013  0.6239  1.2698  0.4795
 3186SOL     OW21193   4.507   4.078   4.298 -0.1189 -0.8617  0.2041
 3186SOL    HW121194   4.466   4.162   4.277  0.7810 -0.7835 -1.2460
 3186SOL    HW221195   4.592   4.108   4.329 -1.4643  2.6617  0.4470
 3187SOL     OW21196   1.818   1.247   0.627  0.1155 -0.5198 -0.0421
 3187SOL    HW121197   1.853   1.175   0.679  1.1971  0.6557  0.8563
 3187SOL    HW221198   1.858   1.239   0.540  0.9480  0.8213  0.2143
 3188SOL     OW21199   2.693   1.339   3.233  0.3478  0.0313  0.1909
 3188SOL    HW121200   2.735   1.391   3.301  0.9221 -0.7441  0.4280
 3188SOL    HW221201   2.737   1.258   3.256  0.0189 -0.7321 -1.8489
 3189SOL     OW21202   0.455   2.590   4.971  0.1043  0.3408 -0.0439
 3189SOL    HW121203   0.386   2.555   4.915  0.4475 -0.3527 -0.0218
 3189SOL    HW221204   0.427   2.551   5.054  0.0462 -0.1686 -0.3050
 3190SOL     OW21205   1.814   4.177   1.897 -0.0048 -0.2619  1.0790
 3190SOL    HW121206   1.856   4.134   1.971 -1.6192 -2.9963  0.4088
 3190SOL    HW221207   1.871   4.188   1.820 -2.1900 -0.7507 -0.6209
 3191SOL     OW21208   1.778   2.798   2.253  0.1288  0.4466 -0.5820
 3191SOL    HW121209   1.749   2.875   2.203 -0.3590  0.7856  0.2272
 3191SOL    HW221210   1.758   2.839   2.337  0.1050 -0.9639  0.0948
 3192SOL     OW21211   0.718   4.718   6.980  0.3788 -0.4579 -0.3074
 3192SOL    HW121212   0.624   4.732   6.993  0.5389 -2.7670  3.2322
 3192SOL    HW221213   0.738   4.678   7.065  0.6193  1.2917  0.4580
 3193SOL     OW21214   4.331   1.933  12.490  0.8903 -0.5004  0.3731
 3193SOL    HW121215   4.359   2.024  12.499  0.2840 -0.2355 -0.5076
 3193SOL    HW221216   4.282   1.944  12.409 -0.1653  1.2257  1.2481
 3194SOL     OW21217   2.376   1.180   3.761  0.0600  0.5552 -0.2988
 3194SOL    HW121218   2.364   1.267   3.723  0.0802  0.0186 -1.5052
 3194SOL    HW221219   2.386   1.193   3.856 -0.0925  0.9087 -0.3308
 3195SOL     OW21220   2.781   0.763  17.109 -0.7414 -0.3678  0.0251
 3195SOL    HW121221   2.723   0.811  17.168  0.3585 -1.6095  2.1288
 3195SOL    HW221222   2.785   0.812  17.027 -2.5177 -2.0024 -1.0412
 3196SOL     OW21223   1.047   3.329   5.980  0.2842  0.1947  0.2665
 3196SOL    HW121224   1.097   3.259   6.021 -0.6457 -0.9768 -0.6084
 3196SOL    HW221225   1.092   3.332   5.895 -1.1446  0.9497 -0.4710
 3197SOL     OW21226   4.635   3.101  14.859 -0.6289 -0.3822  0.0636
 3197SOL    HW121227   4.682   3.027  14.821 -1.7246 -0.4361 -1.1887
 3197SOL    HW221228   4.698   3.121  14.929 -0.8287 -0.5447  0.2926
 3198SOL     OW21229   2.421   2.493   8.810  0.2588  0.2203  0.4665
 3198SOL    HW121230   2.515   2.493   8.829  0.4643  0.4953 -0.5094
 3198SOL    HW221231   2.391   2.423   8.868  2.2604 -0.4299  0.7380
 3199SOL     OW21232   0.457   3.018   3.696  0.0559 -0.2939 -0.3117
 3199SOL    HW121233   0.506   3.069   3.761  0.1098 -0.7171 -0.0198
 3199SOL    HW221234   0.420   3.094   3.651  0.4420  0.3759  0.5031
 3200SOL     OW21235   4.229   0.499   1.217 -0.2696 -0.4224  0.9805
 3200SOL    HW121236   4.143   0.458   1.210 -0.2903 -0.0095 -1.0719
 3200SOL    HW221237   4.202   0.590   1.225 -2.8419 -1.3591  2.7555
 3201SOL     OW21238   2.020   0.599   7.199 -0.2547  0.0852 -0.6721
 3201SOL    HW121239   2.053   0.687   7.219 -0.3466 -0.3459  1.3497
 3201SOL    HW221240   2.037   0.599   7.105  0.7399 -0.7308 -0.4947
 3202SOL     OW21241   3.501   3.540   5.187  0.4401  0.3936 -0.0238
 3202SOL    HW121242   3.524   3.471   5.124  0.6072  0.1215  0.3383
 3202SOL    HW221243   3.589   3.553   5.222  1.1612 -0.4837 -1.4803
 3203SOL     OW21244   3.230   2.671   2.397  0.2683 -0.1689  0.1856
 3203SOL    HW121245   3.223   2.635   2.485 -2.2040 -0.0109  0.0518
 3203SOL    HW221246   3.285   2.604   2.355  0.8078  1.3270 -1.5102
 3204SOL     OW21247   1.167   2.990  16.345  0.5750  0.0726 -0.1382
 3204SOL    HW121248   1.127   2.949  16.422  0.2876 -0.5337 -0.6155
 3204SOL    HW221249   1.124   2.938  16.277 -1.7927 -2.6060  3.4459
 3205SOL     OW21250   2.286   3.802   5.086 -0.0362  0.0490  0.0289
 3205SOL    HW121251   2.376   3.820   5.057 -0.7120  1.3094 -1.2736
 3205SOL    HW221252   2.290   3.736   5.155 -3.5492  1.4220  1.5615
 3206SOL     OW21253   3.819   0.916  17.467 -0.2318  0.0651  0.6681
 3206SOL    HW121254   3.874   0.902  17.544  1.4742  1.6351 -0.2807
 3206SOL    HW221255   3.887   0.936  17.403  0.4801  0.3631  1.5184
 3207SOL     OW21256   0.734   3.304  10.566  0.0198 -0.0144 -0.0358
 3207SOL    HW121257   0.676   3.371  10.602  2.3191 -0.2649  4.1624
 3207SOL    HW221258   0.701   3.297  10.477 -2.4868 -0.5224  0.9514
 3208SOL     OW21259   3.273   0.155   7.459 -0.1622 -0.0311 -0.1351
 3208SOL    HW121260   3.182   0.133   7.437  0.0230 -0.4178 -0.5280
 3208SOL    HW221261   3.300   0.223   7.397 -0.9925 -0.0639 -0.5322
 3209SOL     OW21262   1.421   1.780   9.723 -0.0275 -0.1053  0.4640
 3209SOL    HW121263   1.385   1.775   9.634  1.3414 -1.2297 -0.0136
 3209SOL    HW221264   1.484   1.852   9.719 -0.4618  0.2401 -0.3687
 3210SOL     OW21265   1.217   3.147   4.066 -0.5956  0.0016 -0.0623
 3210SOL    HW121266   1.155   3.082   4.033  0.1944 -0.0458 -1.4440
 3210SOL    HW221267   1.300   3.100   4.059 -0.0432  1.1427 -1.1236
 3211SOL     OW21268   4.078   0.801   4.088 -0.5893 -0.4045 -0.1310
 3211SOL    HW121269   4.067   0.710   4.062 -2.7436 -0.8277  2.2079
 3211SOL    HW221270   4.089   0.842   4.003 -2.5497 -0.5796 -0.4809
 3212SOL     OW21271   3.392   4.185   5.945  0.7594 -0.0564 -0.3296
 3212SOL    HW121272   3.388   4.117   6.013  0.9761  1.4352  1.1811
 3212SOL    HW221273   3.487   4.180   5.934  0.7815 -0.5153  0.0223
 3213SOL     OW21274   3.269   3.137   7.468  0.3502 -0.7608 -0.1355
 3213SOL    HW121275   3.344   3.107   7.416 -0.0462 -1.6269 -0.2065
 3213SOL    HW221276   3.248   3.062   7.523  0.4249 -0.1369  0.7467
 3214SOL     OW21277   2.420   4.720  11.292 -0.0375 -0.1195  0.5314
 3214SOL    HW121278   2.403   4.725  11.197  2.1211  1.0626  0.2175
 3214SOL    HW221279   2.503   0.028  11.305  1.0985 -1.6366 -1.5076
 3215SOL     OW21280   2.785   3.274   4.888  0.0496  0.5785 -0.8928
 3215SOL    HW121281   2.744   3.188   4.892  0.7081  0.3413  1.0011
 3215SOL    HW221282   2.714   3.336   4.869  0.3953  0.6711 -1.8770
 3216SOL     OW21283   3.372   2.374   1.574  0.1230  0.5156  0.0332
 3216SOL    HW121284   3.388   2.464   1.547 -1.0476  0.5009 -0.7075
 3216SOL    HW221285   3.337   2.338   1.492 -1.4398 -0.0381  0.9488
 3217SOL     OW21286   0.693   3.138  12.605  0.1763 -0.1711 -0.1601
 3217SOL    HW121287   0.763   3.074  12.609  0.7306  0.4357 -0.2347
 3217SOL    HW221288   0.710   3.199  12.677  2.2886 -1.5347  0.4880
 3218SOL     OW21289   1.186   0.579   2.852  0.0964 -0.8384  0.2738
 3218SOL    HW121290   1.193   0.642   2.924  0.9597  1.9014 -2.2001
 3218SOL    HW221291   1.174   0.634   2.774 -1.1583  1.8690  2.3844
 3219SOL     OW21292   1.691   0.341   3.854 -0.6583  0.0407  0.3319
 3219SOL    HW121293   1.597   0.352   3.841 -0.9297  0.0628  2.3163
 3219SOL    HW221294   1.692   0.256   3.899  2.2200  1.7247  3.4800
 3220SOL     OW21295   0.925   3.997   2.400 -0.4713  0.0792 -0.1213
 3220SOL    HW121296   0.930   4.050   2.480  1.3785 -0.1533 -0.0642
 3220SOL    HW221297   1.011   3.955   2.393  0.3173  1.3596  1.9898
 3221SOL     OW21298   3.922   0.982  17.041 -0.1063  0.0339  0.3953
 3221SOL    HW121299   3.892   0.910  17.096  0.3668 -0.4585  0.0132
 3221SOL    HW221300   3.930   1.058  17.097  1.5496  2.9642 -3.7933
 3222SOL     OW21301   4.259   3.444  12.165 -0.1303  0.5114 -0.6435
 3222SOL    HW121302   4.333   3.482  12.213 -0.6797  0.1997  0.4539
 3222SOL    HW221303   4.276   3.453  12.071  1.5300 -0.9234 -0.4703
 3223SOL     OW21304   3.624   0.975   0.067 -0.4023 -0.1037  0.2899
 3223SOL    HW121305   3.612   0.925   0.148 -2.5143  1.4182  0.9193
 3223SOL    HW221306   3.624   0.908  17.742  0.7545 -0.8030  0.9815
 3224SOL     OW21307   1.038   1.150   3.855  0.1111  0.3167 -0.0608
 3224SOL    HW121308   0.968   1.117   3.799  0.6126  0.0208 -0.5076
 3224SOL    HW221309   0.984   1.180   3.929  0.9149 -2.4876  1.6694
 3225SOL     OW21310   4.514   0.241   0.926 -0.2709 -0.5476 -0.1733
 3225SOL    HW121311   4.516   0.152   0.892 -0.4836  0.1018 -1.8989
 3225SOL    HW221312   4.579   0.278   0.866  0.7963 -2.5368 -0.2273
 3226SOL     OW21313   2.059   3.108   6.538  0.2301  0.1924 -0.7050
 3226SOL    HW121314   2.153   3.107   6.553  0.2374  0.3125 -0.7382
 3226SOL    HW221315   2.028   3.066   6.618  0.9145  1.6167  0.3128
 3227SOL     OW21316   3.030   3.517   0.613 -0.0504  0.0235  0.0742
 3227SOL    HW121317   3.087   3.444   0.639 -0.4188  0.6608  2.6987
 3227SOL    HW221318   2.953   3.466   0.588  0.0408 -0.0913  0.0254
 3228SOL     OW21319   3.097   4.694   5.246 -0.3845  0.1568 -0.5460
 3228SOL    HW121320   3.062   4.716   5.333  0.7326 -1.5301  0.3371
 3228SOL    HW221321   3.186   4.727   5.254  0.7930 -3.2601  0.8946
 3229SOL     OW21322   2.357   3.947   5.400 -0.0373 -0.0086 -0.6037
 3229SOL    HW121323   2.287   3.953   5.334 -1.5622  1.8472  1.2059
 3229SOL    HW221324   2.337   4.019   5.460 -0.4519 -0.4871 -0.1664
 3230SOL     OW21325   3.142   4.673   1.659  0.2410  0.4924 -0.1813
 3230SOL    HW121326   3.116   0.020   1.617  0.9160  0.1562 -1.2440
 3230SOL    HW221327   3.117   4.697   1.749 -0.9632 -1.7039  0.0849
 3231SOL     OW21328   4.290   0.319   1.842  0.0812  0.0437  0.0417
 3231SOL    HW121329   4.339   0.265   1.905  1.1170 -1.1797 -1.8259
 3231SOL    HW221330   4.351   0.388   1.817 -0.4728  0.3497 -0.4359
 3232SOL     OW21331   2.204   0.932  17.065  0.1313  0.1773 -0.3852
 3232SOL    HW121332   2.123   0.883  17.062  0.4152 -0.4702  2.6673
 3232SOL    HW221333   2.247   0.903  17.145 -2.8153  0.1371  1.1515
 3233SOL     OW21334   4.325   0.977   3.337 -0.2683  0.0632 -0.2658
 3233SOL    HW121335   4.377   0.929   3.401  0.8226  1.9593  0.2453
 3233SOL    HW221336   4.394   1.021   3.288 -0.4761  1.0432  0.3310
 3234SOL     OW21337   1.911   4.688   2.944 -0.1256  0.0917  0.5645
 3234SOL    HW121338   1.971   0.026   2.935 -1.6614  1.3709  0.8078
 3234SOL    HW221339   1.967   4.622   2.986  0.7498  1.5537  1.6765
 3235SOL     OW21340   3.209   2.546   5.188  0.5384  0.0263  0.2722
 3235SOL    HW121341   3.179   2.634   5.211 -1.8471 -0.4685 -0.8965
 3235SOL    HW221342   3.294   2.540   5.232  0.7648 -1.7393 -0.3742
 3236SOL     OW21343   2.065   4.130   4.390 -0.0467 -0.6036 -0.0199
 3236SOL    HW121344   2.051   4.068   4.461  0.7176 -0.4382  0.2767
 3236SOL    HW221345   1.997   4.197   4.390  2.5292  1.9607  1.5042
 3237SOL     OW21346   3.100   2.441   4.967 -0.0385 -0.0641 -0.0249
 3237SOL    HW121347   3.014   2.481   4.985  0.3303  0.0745  1.3836
 3237SOL    HW221348   3.156   2.497   5.021 -0.5150 -0.0850  0.4936
 3238SOL     OW21349   3.734   0.531   3.147 -0.0593 -0.1621 -0.0423
 3238SOL    HW121350   3.802   0.494   3.091 -0.2175  0.3344 -0.5547
 3238SOL    HW221351   3.729   0.459   3.211 -0.9163  1.8659  2.1571
 3239SOL     OW21352   4.190   3.784  15.066  0.0116 -0.2698  0.5297
 3239SOL    HW121353   4.127   3.749  15.003  1.4316  0.1470 -1.1218
 3239SOL    HW221354   4.246   3.835  15.007 -0.9312  1.4524  1.1146
 3240SOL     OW21355   3.803   2.229   3.194 -0.3320 -0.3281 -0.4822
 3240SOL    HW121356   3.842   2.244   3.107  0.2421 -4.5537 -0.9178
 3240SOL    HW221357   3.866   2.164   3.225  0.0863 -0.3570 -1.3816
 3241SOL     OW21358   1.000   4.562   1.945 -0.3384  0.3599 -0.6300
 3241SOL    HW121359   0.983   4.600   2.031  0.8347  1.0890 -0.7077
 3241SOL    HW221360   0.935   4.621   1.905  0.3716  0.8495 -1.0748
 3242SOL     OW21361   0.471   3.626  13.722  0.1878 -0.3888 -0.4318
 3242SOL    HW121362   0.389   3.655  13.760  0.4337  0.1827 -0.3413
 3242SOL    HW221363   0.522   3.611  13.802 -0.6721  0.7742  0.3430
 3243SOL     OW21364   1.707   2.525   9.313 -0.1196 -0.2939 -0.5020
 3243SOL    HW121365   1.698   2.434   9.287 -3.1320 -0.6670  1.8938
 3243SOL    HW221366   1.791   2.520   9.359  1.2684 -2.2524 -3.2859
 3244SOL     OW21367   0.884   1.653   3.292  0.1243 -0.3193  0.0725
 3244SOL    HW121368   0.970   1.677   3.258 -1.2409  0.3281 -2.8981
 3244SOL    HW221369   0.853   1.731   3.338  0.5093 -1.1552  1.7708
 3245SOL     OW21370   0.337   4.097  16.101 -0.3933 -0.4872 -0.2908
 3245SOL    HW121371   0.270   4.164  16.109  0.1618  0.2165 -1.5217
 3245SOL    HW221372   0.312   4.043  16.025 -0.5874 -2.1030  0.9251
 3246SOL     OW21373   3.348   3.094   4.352  0.0306  0.4152  0.3268
 3246SOL    HW121374   3.344   3.010   4.305 -0.7370  1.0290 -0.7151
 3246SOL    HW221375   3.266   3.128   4.316 -0.2056  0.7723  1.2110
 3247SOL     OW21376   1.156   3.940   4.941  0.4855 -0.2485  0.2584
 3247SOL    HW121377   1.099   3.903   4.873  0.0480  1.5652 -0.3582
 3247SOL    HW221378   1.225   3.983   4.891  0.3080  0.7322  0.8586
 3248SOL     OW21379   3.641   2.928   8.778 -0.0198  1.0873  0.1970
 3248SOL    HW121380   3.665   2.965   8.863 -0.5080 -2.6617  1.9402
 3248SOL    HW221381   3.724   2.882   8.768 -0.6131  0.0668  0.0177
 3249SOL     OW21382   4.564   1.811   8.728 -0.1714  0.3041 -0.3231
 3249SOL    HW121383   4.562   1.718   8.748  1.6497  0.3419  0.0758
 3249SOL    HW221384   4.572   1.862   8.808  0.6929 -1.4761  0.7177
 3250SOL     OW21385   1.622   0.171   9.026 -0.1836 -0.3183 -0.0857
 3250SOL    HW121386   1.547   0.192   9.082  1.6260 -0.4375  2.3482
 3250SOL    HW221387   1.615   0.244   8.964 -1.2024  1.0616  1.6708
 3251SOL     OW21388   2.156   3.508   7.329 -0.0886 -0.4607 -0.1303
 3251SOL    HW121389   2.195   3.469   7.251 -3.3586  0.1673 -2.0632
 3251SOL    HW221390   2.097   3.440   7.363  0.1292 -1.6157 -2.0549
 3252SOL     OW21391   1.397   2.853   4.028 -0.2726  0.0277 -0.4655
 3252SOL    HW121392   1.351   2.865   3.945  0.0347  1.1634 -0.4705
 3252SOL    HW221393   1.463   2.788   4.003 -1.2940 -1.4402  0.6052
 3253SOL     OW21394   4.557   1.931   3.283 -0.2381 -0.3025  0.0461
 3253SOL    HW121395   4.561   1.869   3.356 -0.1786  2.5651  2.4808
 3253SOL    HW221396   4.486   1.988   3.313 -0.1723 -0.1321 -0.1243
 3254SOL     OW21397   0.970   0.524  13.860 -0.4867  0.1237 -0.1960
 3254SOL    HW121398   1.016   0.493  13.782  0.1963  1.3234 -0.2605
 3254SOL    HW221399   0.937   0.606  13.823 -1.6909  0.3910  1.4850
 3255SOL     OW21400   0.504   0.612   8.297 -0.5690  0.5822 -0.0110
 3255SOL    HW121401   0.574   0.579   8.354 -1.0735 -1.3718 -0.5165
 3255SOL    HW221402   0.525   0.591   8.206  0.3130 -2.0087  0.7736
 3256SOL     OW21403   3.852   4.081   5.332  0.5396  0.0983 -0.0748
 3256SOL    HW121404   3.825   4.039   5.413 -2.8386 -0.4797 -1.4925
 3256SOL    HW221405   3.791   4.041   5.270 -2.6447  1.4785  2.2088
 3257SOL     OW21406   2.502   4.361   6.665  1.0112  0.3103 -0.4904
 3257SOL    HW121407   2.592   4.390   6.652  1.7818 -1.1739  1.5515
 3257SOL    HW221408   2.494   4.299   6.592 -0.8083 -0.0956  0.0579
 3258SOL     OW21409   2.960   4.188   1.559 -0.1706 -0.9438  0.0580
 3258SOL    HW121410   2.996   4.203   1.471 -0.5879 -2.1347 -0.3127
 3258SOL    HW221411   3.036   4.143   1.597 -0.7900 -1.0693  1.1505
 3259SOL     OW21412   3.612   3.955   6.431 -0.2343  0.1439  0.7622
 3259SOL    HW121413   3.685   3.949   6.369 -1.8113  0.2441 -1.0959
 3259SOL    HW221414   3.652   3.996   6.507 -1.5734 -0.8925  2.0219
 3260SOL     OW21415   3.648   3.262  16.605  0.1707  0.1863 -0.4964
 3260SOL    HW121416   3.725   3.273  16.549  0.3719  2.4484  0.2129
 3260SOL    HW221417   3.638   3.167  16.609 -0.7223  0.2997  0.2290
 3261SOL     OW21418   1.933   0.593   1.325  0.2509 -0.3719  0.0297
 3261SOL    HW121419   1.958   0.599   1.418  0.9920  0.1491 -0.2017
 3261SOL    HW221420   1.839   0.575   1.328 -0.1260  1.7872  0.8941
 3262SOL     OW21421   4.041   0.368  13.160 -0.2280  0.2177  0.2520
 3262SOL    HW121422   4.078   0.301  13.217 -2.0709  0.7951  2.1346
 3262SOL    HW221423   3.972   0.413  13.209  0.4916  1.7786 -0.1599
 3263SOL     OW21424   3.887   2.721   3.990  0.4260 -0.0987  0.2195
 3263SOL    HW121425   3.833   2.687   3.919 -0.8976  1.6310  0.4041
 3263SOL    HW221426   3.852   2.810   3.987  4.2178  1.3910  0.6014
 3264SOL     OW21427   1.543   0.300   3.265  0.5276 -0.4730  0.3111
 3264SOL    HW121428   1.532   0.323   3.358 -1.1511 -2.0582  0.5146
 3264SOL    HW221429   1.557   0.206   3.266  0.8017 -0.4330 -0.0673
 3265SOL     OW21430   4.015   2.246   3.009  0.3546  0.6692  0.0200
 3265SOL    HW121431   4.056   2.229   3.094  1.4690 -0.8918 -0.8268
 3265SOL    HW221432   4.092   2.272   2.957  1.6756 -1.0163  1.1494
 3266SOL     OW21433   4.471   2.298   4.842  0.0754 -0.1288  0.1783
 3266SOL    HW121434   4.540   2.258   4.896 -0.9010 -2.7220 -0.5122
 3266SOL    HW221435   4.451   2.235   4.773 -1.5457 -1.4563  1.8483
 3267SOL     OW21436   4.291   2.317   1.960  0.0632  0.1644 -0.1752
 3267SOL    HW121437   4.198   2.308   1.982 -0.2872 -0.9235 -2.1822
 3267SOL    HW221438   4.298   2.411   1.979 -0.4371  0.6559 -2.4239
 3268SOL     OW21439   0.163   2.895   4.121 -0.4718  0.2921 -0.0640
 3268SOL    HW121440   0.142   2.960   4.187  1.2485  1.7705 -0.9731
 3268SOL    HW221441   0.225   2.937   4.061 -1.6078 -0.6238 -1.9049
 3269SOL     OW21442   1.545   2.523   3.382 -0.5200  0.4271  0.0497
 3269SOL    HW121443   1.463   2.573   3.391 -1.3936 -0.6681 -1.8238
 3269SOL    HW221444   1.603   2.575   3.437 -0.2596  0.4072 -0.2118
 3270SOL     OW21445   3.974   3.523  12.238 -0.0301 -0.1103  0.2166
 3270SOL    HW121446   4.059   3.496  12.203 -0.1830 -1.0344  0.5806
 3270SOL    HW221447   3.975   3.509  12.333 -1.1766  1.4192  0.4698
 3271SOL     OW21448   3.313   1.409   8.153  0.5376 -0.6107  0.2288
 3271SOL    HW121449   3.268   1.441   8.231  2.1550 -0.3896  1.0810
 3271SOL    HW221450   3.401   1.447   8.151 -0.6320  1.9957 -1.9758
 3272SOL     OW21451   2.223   1.450   5.231  0.9207 -0.4987  0.4953
 3272SOL    HW121452   2.182   1.450   5.145 -0.1967 -0.8993  1.0174
 3272SOL    HW221453   2.171   1.381   5.272  2.1516 -1.7997 -0.1237
 3273SOL     OW21454   2.937   3.107   7.655 -0.1458  0.3249 -0.3584
 3273SOL    HW121455   2.946   3.165   7.579  0.9670 -0.9418 -1.1874
 3273SOL    HW221456   2.993   3.159   7.713 -0.6728 -0.4447  0.8443
 3274SOL     OW21457   4.592   2.753  13.051  0.2910  0.0527  0.2744
 3274SOL    HW121458   4.573   2.693  12.979 -0.0368 -1.0121  1.2598
 3274SOL    HW221459   4.593   2.692  13.124  0.8412 -1.2212 -0.8006
 3275SOL     OW21460   4.572   1.857   8.056 -0.0876 -0.0253 -0.5682
 3275SOL    HW121461   4.483   1.832   8.077 -0.1345 -0.7790 -1.7159
 3275SOL    HW221462   4.553   1.949   8.036  2.1768  0.9024  1.4137
 3276SOL     OW21463   1.684   0.771  16.117  0.0539 -0.2319  1.0299
 3276SOL    HW121464   1.748   0.740  16.054 -2.9226 -1.0774 -1.5820
 3276SOL    HW221465   1.708   0.864  16.120 -0.7842  0.0584 -1.4240
 3277SOL     OW21466   4.556   4.274  11.413  0.0713 -0.4571  0.1324
 3277SOL    HW121467   4.482   4.248  11.358 -0.4541 -0.3189  0.7765
 3277SOL    HW221468   4.570   4.362  11.376 -2.2856 -0.4126 -0.6514
 3278SOL     OW21469   2.248   4.119   7.178 -0.1682  0.3618 -0.0987
 3278SOL    HW121470   2.217   4.165   7.100 -0.6941  1.1641  0.5850
 3278SOL    HW221471   2.177   4.141   7.239  1.0452  0.5089  1.2622
 3279SOL     OW21472   3.565   4.423   3.395  0.4151  0.5277  0.3377
 3279SOL    HW121473   3.519   4.339   3.395 -0.3380  0.9420 -0.8810
 3279SOL    HW221474   3.658   4.397   3.396 -0.4368 -2.5639 -1.6371
 3280SOL     OW21475   0.025   1.350   6.412  0.2466  0.0306 -0.4262
 3280SOL    HW121476   4.704   1.342   6.335 -1.3939  1.4317  0.6443
 3280SOL    HW221477   4.689   1.369   6.472  1.1506  1.2456  0.2798
 3281SOL     OW21478   2.017   0.563   9.489  0.0706 -0.2433 -0.0790
 3281SOL    HW121479   1.926   0.546   9.463 -0.0307  0.0727  0.0602
 3281SOL    HW221480   2.057   0.611   9.416  0.3724 -0.3987 -0.0143
 3282SOL     OW21481   1.444   3.523   2.421  0.1041 -0.4485 -0.0200
 3282SOL    HW121482   1.502   3.453   2.452  0.4781 -1.5133 -3.1752
 3282SOL    HW221483   1.421   3.569   2.502 -1.9291 -0.7807 -0.4141
 3283SOL     OW21484   0.177   0.469   8.136 -0.2503  0.1505  0.0886
 3283SOL    HW121485   0.227   0.538   8.181 -1.4397  0.7710  0.4698
 3283SOL    HW221486   0.227   0.471   8.055  1.4361 -1.0496  1.1126
 3284SOL     OW21487   3.363   4.182  14.534  0.6873 -0.2177 -0.1727
 3284SOL    HW121488   3.438   4.236  14.558 -2.1956  2.6118  2.5485
 3284SOL    HW221489   3.349   4.216  14.445 -0.4566 -0.1031  0.0417
 3285SOL     OW21490   3.397   0.489  14.665  0.5867 -0.2649 -0.2239
 3285SOL    HW121491   3.421   0.417  14.723 -1.5078 -0.4847  0.3824
 3285SOL    HW221492   3.325   0.450  14.615 -0.7946  0.3468  1.2660
 3286SOL     OW21493   0.418   2.430   5.667 -0.2819  0.0073  0.2712
 3286SOL    HW121494   0.428   2.360   5.731  2.8468 -0.0345 -0.2581
 3286SOL    HW221495   0.342   2.480   5.698  0.2802  0.6330  0.6280
 3287SOL     OW21496   4.041   0.404   5.940  0.1623 -0.1372  0.1943
 3287SOL    HW121497   4.061   0.340   5.872 -3.1130  0.4622 -1.3336
 3287SOL    HW221498   4.058   0.352   6.019  1.4501  1.7458  1.1615
 3288SOL     OW21499   0.175   4.205   7.635 -0.3387 -0.1609  0.4400
 3288SOL    HW121500   0.121   4.160   7.700 -2.9734 -0.4615 -1.9492
 3288SOL    HW221501   0.113   4.259   7.586  0.4612 -0.4036 -0.8532
 3289SOL     OW21502   4.617   1.077  14.733  0.6302 -0.5389  1.2332
 3289SOL    HW121503   4.570   1.104  14.654  0.8287 -0.3685  1.1737
 3289SOL    HW221504   4.622   0.983  14.718 -1.2244 -0.3722 -0.4071
 3290SOL     OW21505   0.037   4.512  13.144  0.4211  0.2749  0.3355
 3290SOL    HW121506   0.091   4.554  13.078  0.5606  0.7293  0.7396
 3290SOL    HW221507   4.691   4.534  13.099  1.2227  0.2751 -1.1005
 3291SOL     OW21508   2.831   0.977  16.909  0.2028  0.1846 -0.1147
 3291SOL    HW121509   2.797   1.060  16.944  0.0873  0.4796 -0.9356
 3291SOL    HW221510   2.900   1.005  16.849  0.1153  0.9451  0.1279
 3292SOL     OW21511   3.836   3.851   9.866 -0.2353 -0.5494 -0.0449
 3292SOL    HW121512   3.854   3.814   9.952 -0.3899 -0.7174 -0.0843
 3292SOL    HW221513   3.884   3.934   9.871 -1.9231  0.4078  0.4658
 3293SOL     OW21514   1.900   1.072  11.000 -0.3664 -0.4147  0.2966
 3293SOL    HW121515   1.926   1.096  11.089  0.0404  1.5654 -0.3647
 3293SOL    HW221516   1.951   0.992  10.983  0.6240  0.4425 -0.7776
 3294SOL     OW21517   0.824   2.901  14.486 -0.4955  0.1163 -1.2430
 3294SOL    HW121518   0.746   2.897  14.430 -0.2686  0.7471 -1.6089
 3294SOL    HW221519   0.867   2.984  14.466 -2.2490  1.1176 -0.8036
 3295SOL     OW21520   1.759   4.060   2.777 -0.0929 -0.7009  0.2307
 3295SOL    HW121521   1.749   4.146   2.735  0.1125 -2.6932 -3.9427
 3295SOL    HW221522   1.850   4.062   2.808  0.2397 -1.4914 -0.6883
 3296SOL     OW21523   2.033   1.704   5.007  0.0440  0.0002 -0.0762
 3296SOL    HW121524   2.043   1.610   5.022  0.4124 -0.1714 -1.3966
 3296SOL    HW221525   1.939   1.714   4.989 -0.1296  1.5683  1.6907
 3297SOL     OW21526   4.648   1.614   0.066  0.0875  0.1989  0.0734
 3297SOL    HW121527   4.698   1.579  17.735 -0.4624  2.0053 -1.1502
 3297SOL    HW221528   4.688   1.568   0.140 -0.8112  0.7318  0.8906
 3298SOL     OW21529   3.996   1.642   4.120  0.2103 -0.1917  0.2536
 3298SOL    HW121530   4.047   1.562   4.133 -1.3916 -0.9056  2.2809
 3298SOL    HW221531   3.925   1.633   4.184  0.5770 -2.9193  0.2880
 3299SOL     OW21532   4.550   4.560   7.488 -0.5056 -0.4075  0.6811
 3299SOL    HW121533   4.624   4.560   7.548  1.4273  2.8352 -1.7388
 3299SOL    HW221534   4.547   4.466   7.472 -2.0527 -0.3766  0.7949
 3300SOL     OW21535   2.603   1.498  13.246 -0.0870  0.1230  0.1596
 3300SOL    HW121536   2.615   1.580  13.198  2.2635  0.1795  0.8475
 3300SOL    HW221537   2.550   1.452  13.181  0.9031  0.2615 -0.7489
 3301SOL     OW21538   0.878   2.084   4.992  0.0883  0.5373  0.2305
 3301SOL    HW121539   0.840   2.153   5.048 -3.1253  0.1027 -1.4152
 3301SOL    HW221540   0.843   2.008   5.038  1.1192  0.6471  1.2092
 3302SOL     OW21541   4.108   3.784   2.439  0.0482  0.0469 -0.1911
 3302SOL    HW121542   4.064   3.816   2.518  0.5036  0.7326 -0.2117
 3302SOL    HW221543   4.198   3.810   2.459  0.3233  0.8823 -2.6112
 3303SOL     OW21544   2.775   1.180   4.566 -0.0798  0.0086  0.7604
 3303SOL    HW121545   2.860   1.138   4.583  0.1783 -0.1716 -0.9467
 3303SOL    HW221546   2.777   1.257   4.622  2.1672 -0.5837  1.5179
 3304SOL     OW21547   0.901   4.546   8.540 -0.9734 -0.0529  0.3020
 3304SOL    HW121548   0.970   4.604   8.508  2.0676 -1.9026  3.5415
 3304SOL    HW221549   0.862   4.518   8.458 -0.6889 -1.2014  0.5636
 3305SOL     OW21550   4.110   2.330   2.381  0.5420  0.2033  0.2266
 3305SOL    HW121551   4.056   2.292   2.450  1.3471  0.4627  0.9933
 3305SOL    HW221552   4.159   2.249   2.367 -0.8972 -0.6648  0.2802
 3306SOL     OW21553   3.870   2.448  14.635 -0.1869 -0.2758 -0.0368
 3306SOL    HW121554   3.855   2.542  14.622 -1.0589 -0.2193  1.4214
 3306SOL    HW221555   3.813   2.413  14.567 -1.7921 -1.4269  1.9110
 3307SOL     OW21556   2.023   1.449   7.739 -0.3841  0.6493  0.1725
 3307SOL    HW121557   1.980   1.434   7.655 -0.7406 -1.0655  0.6625
 3307SOL    HW221558   2.001   1.370   7.789 -0.9449  0.7102  0.0112
 3308SOL     OW21559   2.191   1.854  16.606 -0.3154  0.0157  0.6677
 3308SOL    HW121560   2.230   1.930  16.649 -2.9295  1.0755  1.1773
 3308SOL    HW221561   2.184   1.891  16.518 -0.3924 -2.4003 -0.3638
 3309SOL     OW21562   3.861   4.498  14.627  0.0533  0.1880 -0.5821
 3309SOL    HW121563   3.792   4.542  14.578 -0.1568 -0.7915 -1.1719
 3309SOL    HW221564   3.912   4.455  14.559 -0.2214 -1.9118  0.5209
 3310SOL     OW21565   0.593   0.157   3.626  0.7373 -0.7687 -0.0528
 3310SOL    HW121566   0.625   0.080   3.579 -0.4103 -0.3108 -1.5693
 3310SOL    HW221567   0.623   0.141   3.715  0.8137 -2.5376 -0.3938
 3311SOL     OW21568   4.495   0.295  14.519  0.6021  0.4150 -0.1406
 3311SOL    HW121569   4.508   0.259  14.607 -1.7983  2.7070  1.1507
 3311SOL    HW221570   4.510   0.215  14.468  3.1344  0.4653  0.5545
 3312SOL     OW21571   2.554   4.673   0.022  0.2168  0.3445 -0.1435
 3312SOL    HW121572   2.643   4.710   0.017  0.1822  0.5089  0.3495
 3312SOL    HW221573   2.556   4.609   0.093  0.3171 -2.4460 -2.7095
 3313SOL     OW21574   2.010   0.761  14.298 -0.1060 -0.2680 -0.2381
 3313SOL    HW121575   1.959   0.739  14.220 -0.9129  1.0209 -0.0586
 3313SOL    HW221576   2.059   0.840  14.277  0.1981 -0.2571  0.4915
 3314SOL     OW21577   3.001   4.531   2.314  0.4498 -0.7217  0.1233
 3314SOL    HW121578   2.998   4.626   2.319  0.3329 -0.6709 -0.8189
 3314SOL    HW221579   2.923   4.512   2.366 -0.0429  1.2513  0.1032
 3315SOL     OW21580   0.702   0.637   4.418 -0.6048 -0.2682 -0.1912
 3315SOL    HW121581   0.632   0.676   4.365  0.8666  0.4628 -1.5985
 3315SOL    HW221582   0.783   0.645   4.368 -0.7205 -0.5484 -0.4246
 3316SOL     OW21583   1.923   0.786   5.523  0.3668  0.0319 -0.2301
 3316SOL    HW121584   1.938   0.697   5.554  1.1117 -0.0535 -0.8438
 3316SOL    HW221585   1.937   0.771   5.430 -1.0064 -1.0000 -0.2660
 3317SOL     OW21586   1.419   3.043   5.238 -0.0958  0.1438 -0.4472
 3317SOL    HW121587   1.437   3.121   5.185  1.1065 -0.6751 -1.2519
 3317SOL    HW221588   1.417   2.987   5.160  2.3930 -0.9699  0.2916
 3318SOL     OW21589   4.026   1.311   7.841  0.5013  0.6862  0.3429
 3318SOL    HW121590   4.008   1.357   7.759  0.1577  0.5023  0.3167
 3318SOL    HW221591   4.089   1.368   7.885  0.4671  0.9006  0.1158
 3319SOL     OW21592   1.270   2.829   3.128  0.2507  0.5456 -0.5770
 3319SOL    HW121593   1.216   2.842   3.206  0.7815 -0.1998 -0.0862
 3319SOL    HW221594   1.203   2.850   3.063  1.6394  1.8783 -1.5867
 3320SOL     OW21595   1.792   2.372   3.359 -0.9334  0.0720 -0.1976
 3320SOL    HW121596   1.720   2.405   3.305 -1.7204  2.1466  2.1394
 3320SOL    HW221597   1.745   2.330   3.432 -0.1314 -0.8599 -0.2247
 3321SOL     OW21598   3.593   2.738   9.705  0.3169 -0.3026  0.1431
 3321SOL    HW121599   3.554   2.656   9.737 -1.1954 -0.0391 -1.0157
 3321SOL    HW221600   3.533   2.753   9.633  0.7991 -1.3763 -0.4861
 3322SOL     OW21601   3.147   4.451   4.223 -0.2289  0.2188 -0.5047
 3322SOL    HW121602   3.060   4.439   4.260 -0.2047  0.3573 -0.4050
 3322SOL    HW221603   3.124   4.426   4.133 -0.1676  0.1838 -0.5109
 3323SOL     OW21604   0.500   4.397   6.907  0.3945  0.1260 -0.5295
 3323SOL    HW121605   0.578   4.363   6.950 -0.2275  1.4088  1.6183
 3323SOL    HW221606   0.472   4.327   6.847 -0.9654 -1.3074  1.7737
 3324SOL     OW21607   2.137   2.229  11.558 -0.0706 -0.1570  0.1680
 3324SOL    HW121608   2.135   2.242  11.653 -0.5693  2.3925 -0.1982
 3324SOL    HW221609   2.222   2.271  11.544  0.4049 -1.5532 -1.1354
 3325SOL     OW21610   4.451   0.086  14.359 -0.2808  0.0030  0.0334
 3325SOL    HW121611   4.464   0.023  14.288  0.7341  0.8595 -0.5461
 3325SOL    HW221612   4.370   0.128  14.332 -0.3882 -0.0555  0.2699
 3326SOL     OW21613   2.410   4.486   7.891 -0.5434  0.2594  0.3553
 3326SOL    HW121614   2.321   4.494   7.926 -1.1984  2.5623 -1.8405
 3326SOL    HW221615   2.444   4.403   7.924  0.5135  0.0862 -1.1708
 3327SOL     OW21616   4.700   4.557   3.029 -0.4231  0.2204  0.3907
 3327SOL    HW121617   4.625   4.612   3.051 -1.5173 -0.2012 -2.2523
 3327SOL    HW221618   4.657   4.478   2.995 -1.1315  0.7072  0.1691
 3328SOL     OW21619   3.773   2.485   7.133 -0.8509  0.0209 -0.3115
 3328SOL    HW121620   3.736   2.443   7.211 -0.6083  1.1628  0.4221
 3328SOL    HW221621   3.762   2.417   7.067 -1.5634  0.0105 -0.1922
 3329SOL     OW21622   1.713   1.989   6.615  0.0911 -0.5226  0.8156
 3329SOL    HW121623   1.768   2.067   6.613 -0.6175 -0.0963 -1.8760
 3329SOL    HW221624   1.782   1.923   6.629  0.9801  0.5277  1.3856
 3330SOL     OW21625   0.647   3.168   2.433 -0.3246 -0.1848  0.0799
 3330SOL    HW121626   0.655   3.137   2.523 -0.0263  0.5073  0.2936
 3330SOL    HW221627   0.690   3.253   2.444 -1.1470  0.3456 -0.7959
 3331SOL     OW21628   4.274   1.075  17.433 -0.7491  0.2164  0.4656
 3331SOL    HW121629   4.344   1.098  17.372 -0.7378 -0.0016  0.3950
 3331SOL    HW221630   4.300   1.117  17.515  0.4545  0.5308 -0.0815
 3332SOL     OW21631   1.090   3.693  12.478  0.2210 -0.6985  0.3218
 3332SOL    HW121632   1.151   3.668  12.409  0.9485 -0.7931  0.9962
 3332SOL    HW221633   1.015   3.670  12.424  0.0182 -0.3010  0.4333
 3333SOL     OW21634   0.656   2.153   7.670 -0.4084 -0.0843 -0.0919
 3333SOL    HW121635   0.727   2.105   7.713 -2.8738 -1.7539  2.0863
 3333SOL    HW221636   0.584   2.108   7.714 -0.5760  0.8777  0.6236
 3334SOL     OW21637   1.245   4.379   8.599 -0.1916  0.1967 -0.1312
 3334SOL    HW121638   1.214   4.452   8.652 -2.2136 -0.0362 -0.9843
 3334SOL    HW221639   1.332   4.411   8.578  0.3416 -0.2251  1.4290
 3335SOL     OW21640   3.321   0.199   4.999  0.6703 -0.7965  0.2101
 3335SOL    HW121641   3.352   0.234   4.916 -2.7624  1.6861 -0.0373
 3335SOL    HW221642   3.398   0.148   5.025  0.6149 -0.4596  1.0292
 3336SOL     OW21643   2.907   0.858   4.018 -0.2133 -0.1899  0.2145
 3336SOL    HW121644   2.906   0.762   4.013 -4.0815 -0.1969  0.8654
 3336SOL    HW221645   2.840   0.866   4.086  1.4996  1.1544  1.7234
 3337SOL     OW21646   1.268   2.437   4.937  0.4767 -0.0764  0.1136
 3337SOL    HW121647   1.327   2.380   4.888 -0.4088 -0.9210  0.0396
 3337SOL    HW221648   1.185   2.389   4.935  0.2723  0.3226 -0.8004
 3338SOL     OW21649   3.311   2.623  11.984 -0.5508 -0.2872 -0.5270
 3338SOL    HW121650   3.374   2.695  11.993 -0.1884 -0.7239  0.3776
 3338SOL    HW221651   3.324   2.591  11.895  0.3481 -1.3076 -0.0211
 3339SOL     OW21652   3.372   2.414   2.299 -0.0883  0.0050 -0.3509
 3339SOL    HW121653   3.342   2.386   2.385 -0.0890 -1.3599 -0.8022
 3339SOL    HW221654   3.464   2.435   2.317  0.9837 -0.6803 -4.8639
 3340SOL     OW21655   3.168   3.159   9.885  0.1937  0.2661 -0.4038
 3340SOL    HW121656   3.153   3.183   9.794 -0.7438  0.2974 -0.2475
 3340SOL    HW221657   3.208   3.242   9.912 -0.4224 -0.1143  1.7110
 3341SOL     OW21658   0.268   4.234   3.932 -0.2233  0.0764 -0.4566
 3341SOL    HW121659   0.326   4.172   3.976  1.3004  1.5978 -0.3119
 3341SOL    HW221660   0.328   4.306   3.910  0.6377 -0.7368 -0.7950
 3342SOL     OW21661   0.263   3.421   8.114  0.2370  0.4019 -0.5017
 3342SOL    HW121662   0.230   3.470   8.038  0.5401  1.4640  0.0455
 3342SOL    HW221663   0.223   3.457   8.193  2.1095  0.1455  0.5662
 3343SOL     OW21664   1.208   2.092   3.526  0.1200  0.0728  0.4522
 3343SOL    HW121665   1.268   2.028   3.488  1.1208  0.5790  1.2136
 3343SOL    HW221666   1.250   2.174   3.500  1.2910 -0.5100  0.5010
 3344SOL     OW21667   4.344   4.503   6.906  0.0715 -0.1743 -0.3592
 3344SOL    HW121668   4.317   4.493   6.997 -0.3244 -2.1024 -0.6997
 3344SOL    HW221669   4.334   4.598   6.893 -0.7211 -0.4998 -2.1589
 3345SOL     OW21670   4.261   1.690   3.084 -0.2800 -0.1921  0.5608
 3345SOL    HW121671   4.330   1.650   3.030 -1.3468 -2.0577  0.5848
 3345SOL    HW221672   4.302   1.666   3.167 -1.6502 -0.4048  1.1703
 3346SOL     OW21673   1.634   2.255   6.943 -0.0321 -0.1416  0.3395
 3346SOL    HW121674   1.582   2.178   6.916  2.4663 -2.3040  1.7239
 3346SOL    HW221675   1.713   2.214   6.977  0.4525 -1.0389 -1.8866
 3347SOL     OW21676   4.015   1.869  10.462  0.1452 -0.0558  0.0393
 3347SOL    HW121677   3.935   1.819  10.475  0.3550  0.1483  2.1957
 3347SOL    HW221678   3.974   1.953  10.444 -0.3311  0.3274  2.8853
 3348SOL     OW21679   1.149   0.747   4.344 -0.0582  0.2024  0.3875
 3348SOL    HW121680   1.177   0.838   4.354  0.7188 -0.1312  1.1900
 3348SOL    HW221681   1.192   0.710   4.421  1.4115 -2.0249 -1.4958
 3349SOL     OW21682   0.898   1.519   8.648 -0.2620 -0.4322 -0.2093
 3349SOL    HW121683   0.957   1.516   8.724 -2.4266  0.1616  1.4914
 3349SOL    HW221684   0.816   1.531   8.696 -0.1763  0.1348 -0.1964
 3350SOL     OW21685   0.254   0.326   5.301  0.0631  0.1932  0.3573
 3350SOL    HW121686   0.267   0.239   5.338 -0.8166 -0.1244 -0.0943
 3350SOL    HW221687   0.267   0.327   5.206 -1.1613  1.0601  0.1885
 3351SOL     OW21688   4.008   2.868   2.421 -0.1350  0.0182 -0.0091
 3351SOL    HW121689   3.973   2.825   2.343 -1.3573  3.0261 -1.1245
 3351SOL    HW221690   3.953   2.823   2.485  2.8054 -3.2579  0.2168
 3352SOL     OW21691   3.538   2.988   5.237 -0.2579  0.2323  0.4300
 3352SOL    HW121692   3.468   2.982   5.172  0.0999 -1.3413  0.2021
 3352SOL    HW221693   3.588   3.056   5.191  0.7579 -0.7524  0.0934
 3353SOL     OW21694   2.215   1.411   5.568 -0.0718  0.4944  0.0136
 3353SOL    HW121695   2.159   1.485   5.547 -1.1591 -0.5547 -0.8163
 3353SOL    HW221696   2.302   1.444   5.547 -0.2231  1.6029  1.1386
 3354SOL     OW21697   3.229   0.520  11.053  0.4760  0.0661 -0.0735
 3354SOL    HW121698   3.222   0.555  10.964  0.7795  1.9129  0.6260
 3354SOL    HW221699   3.275   0.596  11.091 -1.4773  1.5263 -0.6363
 3355SOL     OW21700   4.390   3.164   5.935 -0.2934 -0.6463 -0.4922
 3355SOL    HW121701   4.391   3.083   5.884 -0.4344 -1.9264  1.5251
 3355SOL    HW221702   4.369   3.141   6.025 -0.2930  0.0955 -0.3081
 3356SOL     OW21703   3.900   3.219   8.806  0.3873  0.0792  0.4892
 3356SOL    HW121704   3.863   3.248   8.889  1.0527  0.1689  0.7565
 3356SOL    HW221705   3.971   3.280   8.789  0.2407  0.3277  0.7644
 3357SOL     OW21706   0.443   0.020   7.558  0.0136  0.3991 -0.9507
 3357SOL    HW121707   0.508   4.702   7.512  0.1584  0.6036 -0.9871
 3357SOL    HW221708   0.477   0.107   7.539  2.5870 -0.5959 -1.0166
 3358SOL     OW21709   3.415   1.120   8.647 -0.4942  0.2252  0.5249
 3358SOL    HW121710   3.326   1.154   8.650 -0.8994 -0.7907  0.1162
 3358SOL    HW221711   3.436   1.122   8.741 -3.4539  1.5142  1.1307
 3359SOL     OW21712   1.305   0.657   3.845  0.3674  0.1247  0.0941
 3359SOL    HW121713   1.338   0.658   3.934  0.9725  1.9173 -0.1362
 3359SOL    HW221714   1.247   0.581   3.846  1.3685 -0.6456 -0.9627
 3360SOL     OW21715   2.559   0.243   5.560  0.1442 -0.6174  0.4328
 3360SOL    HW121716   2.628   0.176   5.567  1.6826  0.8319 -0.8441
 3360SOL    HW221717   2.490   0.205   5.615  0.0348  1.3659  1.6409
 3361SOL     OW21718   3.038   4.178  17.031  0.3082 -0.7269 -0.3327
 3361SOL    HW121719   3.044   4.083  17.045  0.4699 -0.5361  0.8901
 3361SOL    HW221720   3.005   4.195  16.943  1.2795  1.1194 -0.3479
 3362SOL     OW21721   1.990   2.176  16.900 -0.2317  0.6976 -0.3068
 3362SOL    HW121722   2.032   2.252  16.860  1.3570  0.3008  0.6017
 3362SOL    HW221723   1.977   2.190  16.994  0.8441  0.0457 -0.0670
 3363SOL     OW21724   3.796   2.552   6.782 -0.1183  0.5212  0.2411
 3363SOL    HW121725   3.732   2.607   6.827 -0.7548 -0.1439  0.1475
 3363SOL    HW221726   3.792   2.471   6.832 -2.2155  0.0716 -0.6302
 3364SOL     OW21727   4.553   1.942   4.580  0.3915  0.0258 -0.1875
 3364SOL    HW121728   4.643   1.910   4.581  0.4109  0.0866 -0.0209
 3364SOL    HW221729   4.530   1.922   4.670  2.4653  1.7499  0.7490
 3365SOL     OW21730   4.142   0.472   6.556 -0.1674  0.1678 -0.3951
 3365SOL    HW121731   4.195   0.517   6.621 -0.3025 -1.4808  0.8504
 3365SOL    HW221732   4.155   0.381   6.583  0.0134  0.1144 -0.6671
 3366SOL     OW21733   1.606   4.119   6.491 -0.3490  0.1481  0.1740
 3366SOL    HW121734   1.612   4.024   6.497  0.0233 -0.1465 -4.4040
 3366SOL    HW221735   1.655   4.141   6.570  1.1115 -2.1467 -0.1029
 3367SOL     OW21736   1.025   0.061   0.503 -0.0356 -0.0341 -0.2471
 3367SOL    HW121737   1.116   0.067   0.532 -0.4955 -1.1058  1.4008
 3367SOL    HW221738   1.027   4.714   0.457  1.0205  0.4078 -0.9992
 3368SOL     OW21739   1.313   1.816   8.873 -0.4634 -0.1304 -0.3348
 3368SOL    HW121740   1.299   1.877   8.946  1.0997 -2.8260  2.2388
 3368SOL    HW221741   1.381   1.859   8.821 -0.3395  0.4047  0.2689
 3369SOL     OW21742   0.979   2.986   6.151 -0.4716 -0.4042 -0.4569
 3369SOL    HW121743   1.048   3.050   6.135  0.0487 -0.8967 -0.2244
 3369SOL    HW221744   0.898   3.036   6.145  0.1480  0.6119 -0.2678
 3370SOL     OW21745   0.805   4.705  13.195  0.1797  0.1321 -0.1184
 3370SOL    HW121746   0.827   4.689  13.287  0.9487 -1.8776 -0.6462
 3370SOL    HW221747   0.898   4.710  13.171  0.5115  1.2238  1.3795
 3371SOL     OW21748   3.333   0.626   4.874 -0.8255  0.5244 -0.2190
 3371SOL    HW121749   3.300   0.627   4.964  1.5760 -1.7661  0.6950
 3371SOL    HW221750   3.248   0.630   4.832 -1.5423  0.6900  1.2589
 3372SOL     OW21751   3.590   2.904  16.242 -0.6668 -0.1166  0.2868
 3372SOL    HW121752   3.520   2.843  16.219  0.6468 -1.0761 -1.1405
 3372SOL    HW221753   3.671   2.866  16.208 -0.5267 -0.6063  1.1696
 3373SOL     OW21754   1.315   2.122   4.036  0.2058 -0.0329 -0.0303
 3373SOL    HW121755   1.246   2.128   3.970  1.7805  1.7302 -1.5159
 3373SOL    HW221756   1.291   2.042   4.083  0.9145 -0.1004  0.2154
 3374SOL     OW21757   3.357   0.174  10.268 -0.6674  0.0754 -0.3688
 3374SOL    HW121758   3.265   0.191  10.247 -0.8503 -0.7116 -0.2023
 3374SOL    HW221759   3.357   0.214  10.355  1.7211 -0.2200 -0.2495
 3375SOL     OW21760   2.177   1.724  17.071 -0.0883 -0.2472  0.0944
 3375SOL    HW121761   2.211   1.788  17.134  2.0341 -3.3099  2.1017
 3375SOL    HW221762   2.135   1.781  17.006  0.0889  1.7716  1.7473
 3376SOL     OW21763   2.062   2.569  13.139  0.9317  1.4884  0.2607
 3376SOL    HW121764   2.064   2.639  13.204  1.1289 -0.0260  1.8702
 3376SOL    HW221765   2.117   2.615  13.075  0.8162  0.6929 -0.4159
 3377SOL     OW21766   1.352   0.784   8.194  0.0261 -0.0236 -0.3685
 3377SOL    HW121767   1.436   0.814   8.229  0.4015 -2.0276  0.4539
 3377SOL    HW221768   1.388   0.724   8.129  0.8486 -0.4662  0.4971
 3378SOL     OW21769   3.761   3.718  12.285  0.9233 -0.8120 -0.2774
 3378SOL    HW121770   3.847   3.677  12.286  1.3156 -0.0077 -1.3030
 3378SOL    HW221771   3.749   3.740  12.193 -0.6119  0.3289  0.1834
 3379SOL     OW21772   0.387   3.701  17.729 -0.8186 -0.5130  0.4144
 3379SOL    HW121773   0.351   3.785  17.701  2.9999  0.3537 -1.8967
 3379SOL    HW221774   0.361   3.700   0.079 -2.6261 -0.2495 -0.0957
 3380SOL     OW21775   3.105   3.665   4.794 -0.2801 -0.3275  0.3952
 3380SOL    HW121776   3.072   3.575   4.793 -2.5291  0.4873  1.0695
 3380SOL    HW221777   3.153   3.662   4.712  0.2442 -0.2771  0.6985
 3381SOL     OW21778   1.056   2.014   3.290 -0.0927  0.5186  0.1172
 3381SOL    HW121779   1.076   2.060   3.371  1.6463 -0.2599  0.1201
 3381SOL    HW221780   1.023   2.081   3.230 -2.2955 -2.2925 -1.8315
 3382SOL     OW21781   3.091   1.083  10.366 -1.1184 -0.0817 -0.2526
 3382SOL    HW121782   3.039   1.003  10.359 -3.4294  1.4249 -0.1537
 3382SOL    HW221783   3.031   1.146  10.406 -1.3811  0.0163 -0.7967
 3383SOL     OW21784   1.768   1.638   5.162 -0.0537  0.4808 -0.0764
 3383SOL    HW121785   1.711   1.709   5.132 -0.7697 -0.4611 -0.9308
 3383SOL    HW221786   1.714   1.562   5.143 -0.7230  0.3659  2.1718
 3384SOL     OW21787   2.207   0.396   2.411  0.6239  0.0096 -0.3580
 3384SOL    HW121788   2.252   0.391   2.327  0.7925 -0.4612 -0.2397
 3384SOL    HW221789   2.233   0.485   2.434  0.7970  0.0356 -0.6605
 3385SOL     OW21790   4.157   2.796   6.972  0.0259 -0.0155  0.2933
 3385SOL    HW121791   4.078   2.779   7.023 -1.8547  1.4113 -2.1229
 3385SOL    HW221792   4.130   2.759   6.888  0.3714 -0.9227  0.5778
 3386SOL     OW21793   1.712   0.611   3.424  0.6190  0.3835  0.0746
 3386SOL    HW121794   1.657   0.542   3.461  1.4550 -0.8080 -0.8916
 3386SOL    HW221795   1.755   0.562   3.355  1.0769  0.4985  0.2789
 3387SOL     OW21796   2.293   2.271   9.323  0.5615 -0.4149 -0.0293
 3387SOL    HW121797   2.262   2.252   9.412 -2.2323 -1.9917 -1.3408
 3387SOL    HW221798   2.381   2.297   9.350  0.0584  1.9749 -0.7263
 3388SOL     OW21799   1.470   0.716  13.464 -0.0278  0.3121  0.1510
 3388SOL    HW121800   1.470   0.812  13.461 -0.3498  0.2799 -0.7524
 3388SOL    HW221801   1.408   0.697  13.535 -1.0782  0.7014 -0.6624
 3389SOL     OW21802   1.542   1.336   6.123 -0.0800 -0.3230  0.2477
 3389SOL    HW121803   1.538   1.298   6.211 -0.3169  0.0092  0.3799
 3389SOL    HW221804   1.461   1.305   6.084 -0.0026  0.2620 -0.3663
 3390SOL     OW21805   0.216   3.776  10.300  0.3849 -0.0417  0.1493
 3390SOL    HW121806   0.169   3.855  10.271 -1.0781 -0.2545  2.0217
 3390SOL    HW221807   0.215   3.790  10.394  1.9103  2.0400 -0.1190
 3391SOL     OW21808   3.466   2.464  12.259 -0.1364 -0.0693 -0.2281
 3391SOL    HW121809   3.513   2.537  12.298  0.5499 -1.1918  1.0458
 3391SOL    HW221810   3.394   2.512  12.219 -0.3815 -1.1771 -1.1321
 3392SOL     OW21811   2.828   4.146   2.882 -0.2183 -0.1744  0.1027
 3392SOL    HW121812   2.779   4.069   2.913  1.7025 -2.3099 -2.1152
 3392SOL    HW221813   2.915   4.109   2.869  0.1182 -0.0376  1.9915
 3393SOL     OW21814   1.246   1.734  15.188 -0.1497  0.0067 -0.4729
 3393SOL    HW121815   1.320   1.760  15.133  0.1163 -1.0837 -0.6249
 3393SOL    HW221816   1.294   1.714  15.269  0.0582 -3.2819 -1.4054
 3394SOL     OW21817   1.700   3.372  15.691 -0.6539 -1.0575 -0.0425
 3394SOL    HW121818   1.791   3.364  15.720 -1.5451 -1.2765  2.7039
 3394SOL    HW221819   1.709   3.460  15.654 -0.9155 -1.2052 -0.4593
 3395SOL     OW21820   1.556   3.609   8.879 -0.4992 -0.8938 -0.3024
 3395SOL    HW121821   1.575   3.667   8.953  0.7020  0.4101 -1.6511
 3395SOL    HW221822   1.536   3.530   8.931 -2.4737 -1.1132 -1.4147
 3396SOL     OW21823   0.322   2.166   4.252  0.3070 -0.1906 -0.4555
 3396SOL    HW121824   0.370   2.091   4.286 -0.9502 -0.9142 -0.2572
 3396SOL    HW221825   0.259   2.186   4.321  2.0526 -1.7442  1.5498
 3397SOL     OW21826   3.662   4.173   2.574 -0.6629  0.3072 -0.3491
 3397SOL    HW121827   3.588   4.232   2.582 -0.9442 -0.1073  0.0952
 3397SOL    HW221828   3.615   4.092   2.553 -0.6134  0.1068  0.3391
 3398SOL     OW21829   3.692   3.899  17.407  0.0379  0.3480 -0.1599
 3398SOL    HW121830   3.617   3.869  17.457  0.8062 -2.6057 -0.7611
 3398SOL    HW221831   3.754   3.850  17.461  0.9328 -0.8012 -2.2292
 3399SOL     OW21832   0.528   2.335   7.930 -0.3095 -0.2149 -0.2967
 3399SOL    HW121833   0.522   2.292   7.845  0.0941  0.1467 -0.5044
 3399SOL    HW221834   0.608   2.386   7.921  0.7428 -1.8864 -0.2808
 3400SOL     OW21835   4.521   3.062   3.762  0.2811 -0.0776 -0.2641
 3400SOL    HW121836   4.467   2.994   3.724 -1.1690  0.0199  1.6021
 3400SOL    HW221837   4.479   3.141   3.729  0.9216  0.0780 -0.7104
 3401SOL     OW21838   3.469   2.189   2.210  0.1228 -0.3857  0.5521
 3401SOL    HW121839   3.424   2.124   2.265  0.6871 -1.1281  0.1472
 3401SOL    HW221840   3.427   2.271   2.234  1.9957  0.9959 -0.8749
 3402SOL     OW21841   3.023   1.379   3.065 -0.0702 -0.0722  0.0490
 3402SOL    HW121842   2.943   1.393   3.014  1.8028  3.1685 -1.9903
 3402SOL    HW221843   3.015   1.431   3.146  1.1724 -0.1344  0.2044
 3403SOL     OW21844   1.887   1.641   8.461 -0.3137 -0.0387 -0.6125
 3403SOL    HW121845   1.802   1.656   8.419 -0.1163  1.5465 -0.4259
 3403SOL    HW221846   1.863   1.668   8.549  0.3788 -2.3374  0.2879
 3404SOL     OW21847   2.696   0.124   5.290  0.1403 -0.2061 -0.4262
 3404SOL    HW121848   2.756   0.123   5.215 -0.2541 -0.8761 -0.7361
 3404SOL    HW221849   2.704   0.205   5.341  0.0338 -0.5869  0.1972
 3405SOL     OW21850   0.527   1.348  15.173 -0.4794  0.5262 -0.3778
 3405SOL    HW121851   0.438   1.335  15.139 -0.5813 -1.0353  0.5005
 3405SOL    HW221852   0.580   1.329  15.096 -1.0177  0.4010 -0.7160
 3406SOL     OW21853   0.735   0.477   1.712 -0.3693 -0.4060 -0.7845
 3406SOL    HW121854   0.756   0.395   1.757  0.5816 -0.0365 -0.5535
 3406SOL    HW221855   0.817   0.491   1.665  0.6945  1.1400  1.5382
 3407SOL     OW21856   2.619   3.093  12.179  0.1392  1.0116 -0.8055
 3407SOL    HW121857   2.703   3.062  12.212  0.1612 -0.5680 -2.4143
 3407SOL    HW221858   2.610   3.183  12.213  2.6526  1.3101 -0.8969
 3408SOL     OW21859   4.557   0.373   8.926 -0.3937  0.3805 -0.6928
 3408SOL    HW121860   4.577   0.289   8.969 -0.0551  1.5728  1.5035
 3408SOL    HW221861   4.639   0.407   8.891 -0.3982  1.0771 -0.0287
 3409SOL     OW21862   1.904   1.439   6.753 -0.3543  0.0111  0.6344
 3409SOL    HW121863   1.904   1.344   6.757  0.1788 -0.0544 -1.0074
 3409SOL    HW221864   1.844   1.452   6.827  1.2295 -0.7174  2.0525
 3410SOL     OW21865   0.061   4.282  13.268 -0.3864 -0.1482  0.2145
 3410SOL    HW121866   0.025   4.214  13.212 -1.5681 -0.1633  0.9952
 3410SOL    HW221867   0.058   4.369  13.226 -0.0333  0.3813  1.2890
 3411SOL     OW21868   3.482   2.584   3.062  0.2790  0.3836  0.1793
 3411SOL    HW121869   3.506   2.666   3.018 -0.0423 -0.3672 -1.4040
 3411SOL    HW221870   3.522   2.526   2.997  0.0577  0.2163  0.1933
 3412SOL     OW21871   1.835   0.909   4.985  0.2808  0.0803 -0.0700
 3412SOL    HW121872   1.885   0.875   4.911 -0.3222 -0.0531 -0.4124
 3412SOL    HW221873   1.839   1.004   4.971  0.9431  0.0537 -0.0300
 3413SOL     OW21874   0.258   4.352   2.413  0.1841 -0.3282 -0.0026
 3413SOL    HW121875   0.276   4.424   2.353 -0.0086 -1.5153 -1.4886
 3413SOL    HW221876   0.342   4.342   2.457 -0.2341  1.0787  1.1115
 3414SOL     OW21877   2.446   3.519   8.092 -0.3465 -0.3154 -0.4449
 3414SOL    HW121878   2.352   3.516   8.071 -0.6240 -0.5655  0.7881
 3414SOL    HW221879   2.467   3.442   8.039 -0.9910 -2.5831  2.5681
 3415SOL     OW21880   4.011   3.442  11.083  0.5808  0.2524  0.4334
 3415SOL    HW121881   4.094   3.446  11.035  0.6142 -1.8785  0.2965
 3415SOL    HW221882   3.947   3.458  11.014  0.0114  2.6897  1.5194
 3416SOL     OW21883   2.288   1.979  11.857 -0.2056 -0.3055 -0.3520
 3416SOL    HW121884   2.214   2.040  11.860  0.0153 -0.0656  0.2395
 3416SOL    HW221885   2.346   2.019  11.792  0.7751  3.2285  2.6317
 3417SOL     OW21886   1.660   3.515  15.194  0.0055  0.2681 -0.2563
 3417SOL    HW121887   1.717   3.451  15.237 -0.1224  0.3719  0.0725
 3417SOL    HW221888   1.728   3.543  15.133 -0.8818  0.3716 -1.1885
 3418SOL     OW21889   1.365   1.842  12.783  0.1000 -0.0959  0.1039
 3418SOL    HW121890   1.362   1.791  12.863 -0.9083 -3.4954 -2.1103
 3418SOL    HW221891   1.407   1.776  12.729  1.0045 -0.1880  0.9231
 3419SOL     OW21892   0.848   1.903   3.047 -0.2565 -0.3287  0.6329
 3419SOL    HW121893   0.869   1.994   3.066 -1.4345  0.1393 -0.2842
 3419SOL    HW221894   0.753   1.902   3.059 -0.5276 -0.8448 -1.5400
 3420SOL     OW21895   2.134   2.976   0.053  0.3214  0.0350  0.1499
 3420SOL    HW121896   2.193   3.040   0.092 -2.5019  2.5783  0.2738
 3420SOL    HW221897   2.092   2.934   0.128  0.3169 -1.5688 -0.7482
 3421SOL     OW21898   0.031   0.531   3.276  0.6319 -0.0023  0.0974
 3421SOL    HW121899   0.062   0.442   3.258 -0.8971 -0.3739 -0.7060
 3421SOL    HW221900   0.121   0.564   3.266  0.5229  0.6289  1.2720
 3422SOL     OW21901   3.276   2.278  12.836  0.5198  0.0316 -0.6909
 3422SOL    HW121902   3.362   2.238  12.819  1.4003  1.5702  0.1972
 3422SOL    HW221903   3.279   2.364  12.795  1.8125  0.0242 -0.6051
 3423SOL     OW21904   3.779   2.616   7.524 -0.6941  0.7986  0.7294
 3423SOL    HW121905   3.801   2.524   7.540 -1.8339  0.0409 -2.0872
 3423SOL    HW221906   3.860   2.662   7.500 -0.6967 -0.5308 -1.8362
 3424SOL     OW21907   3.058   4.514   4.536  0.6616  0.3883  0.6989
 3424SOL    HW121908   3.098   4.596   4.567 -2.0832  1.3847  1.6085
 3424SOL    HW221909   3.123   4.443   4.535  0.6391  0.4183 -1.8276
 3425SOL     OW21910   1.491   3.514  14.666 -0.0797  0.1948 -0.2297
 3425SOL    HW121911   1.495   3.549  14.755  0.4461  1.5273 -0.7836
 3425SOL    HW221912   1.565   3.454  14.661 -1.0009 -0.9594 -0.1467
 3426SOL     OW21913   3.352   3.124   5.517 -0.7031 -0.0060  0.0842
 3426SOL    HW121914   3.334   3.196   5.457 -2.0233 -0.9084 -0.6007
 3426SOL    HW221915   3.283   3.059   5.501 -1.0011  0.5299 -0.7695
 3427SOL     OW21916   2.021   0.141  15.151  0.0610 -0.1563  0.0739
 3427SOL    HW121917   2.048   0.225  15.187 -1.0992  1.1905 -2.1837
 3427SOL    HW221918   2.108   0.105  15.137  0.0076 -0.5656  0.7841
 3428SOL     OW21919   1.764   2.155   5.718  0.1154  0.3845 -0.0099
 3428SOL    HW121920   1.806   2.219   5.776 -1.3963 -0.0651  1.6037
 3428SOL    HW221921   1.669   2.156   5.735  0.2219 -1.6969  0.8224
 3429SOL     OW21922   2.991   4.021  14.002  0.1621 -0.1385 -0.3416
 3429SOL    HW121923   3.034   3.942  13.968  0.8581  0.0931 -0.0031
 3429SOL    HW221924   3.021   4.003  14.091 -0.1060 -0.0351 -0.2328
 3430SOL     OW21925   1.741   0.583  14.931 -0.1798 -0.8858  0.4248
 3430SOL    HW121926   1.798   0.558  14.858  1.1290 -2.3346  1.9668
 3430SOL    HW221927   1.656   0.559  14.894  0.1016 -1.3663  0.0897
 3431SOL     OW21928   0.431   4.398   3.827 -0.6129  0.2571 -0.1173
 3431SOL    HW121929   0.499   4.367   3.768 -0.3798 -2.5124  1.5765
 3431SOL    HW221930   0.480   4.448   3.892 -1.5687 -1.5365  1.9987
 3432SOL     OW21931   1.648   2.575   5.577 -0.2412 -0.0715  0.2156
 3432SOL    HW121932   1.739   2.547   5.590 -0.2708 -0.2785 -0.0239
 3432SOL    HW221933   1.626   2.502   5.520 -2.3793  1.7251 -1.2600
 3433SOL     OW21934   1.502   3.863   6.435 -0.6907 -0.2006  1.0443
 3433SOL    HW121935   1.493   3.815   6.353 -0.2218  0.1836  0.7715
 3433SOL    HW221936   1.436   3.932   6.433 -1.1641 -0.6821  0.1062
 3434SOL     OW21937   2.400   0.243  10.459  0.1291  0.7166 -0.4527
 3434SOL    HW121938   2.349   0.313  10.416 -0.6650 -0.1965 -0.9955
 3434SOL    HW221939   2.473   0.294  10.494  0.8540 -0.6763  0.0403
 3435SOL     OW21940   4.425   3.446  17.702 -0.1009  0.2530  0.0821
 3435SOL    HW121941   4.461   3.461   0.047  0.0125 -2.0530  0.4313
 3435SOL    HW221942   4.339   3.413  17.728 -0.1000 -1.4038 -1.9935
 3436SOL     OW21943   2.532   1.307   1.685 -0.2422  0.1065  0.0626
 3436SOL    HW121944   2.513   1.241   1.751  1.9732  0.1316  0.7081
 3436SOL    HW221945   2.624   1.298   1.660 -0.3490  0.0544 -0.3123
 3437SOL     OW21946   3.427   2.624   7.065  1.2153  0.1538 -0.0436
 3437SOL    HW121947   3.370   2.548   7.077  1.5212 -0.0659  0.0185
 3437SOL    HW221948   3.450   2.649   7.155  0.9231  1.6470 -0.3896
 3438SOL     OW21949   0.438   1.122   3.294 -0.0066  0.2121  0.6157
 3438SOL    HW121950   0.428   1.212   3.265 -1.0290 -1.1001 -3.1330
 3438SOL    HW221951   0.412   1.139   3.385 -3.2872 -2.4063  0.1759
 3439SOL     OW21952   3.020   0.976   9.755 -0.3826 -0.2811  0.7441
 3439SOL    HW121953   2.950   0.915   9.728 -2.4029  1.6475  1.6258
 3439SOL    HW221954   3.010   1.043   9.687  0.6111  2.2708  3.1088
 3440SOL     OW21955   2.316   1.306  11.849  0.0602 -0.4221  0.3032
 3440SOL    HW121956   2.392   1.289  11.794 -0.9754 -0.0190 -1.2469
 3440SOL    HW221957   2.278   1.219  11.860 -3.4505  1.3672  2.5460
 3441SOL     OW21958   2.674   3.369   6.722  0.3393 -0.2796  0.4051
 3441SOL    HW121959   2.765   3.397   6.732 -0.0450  1.1769 -0.2694
 3441SOL    HW221960   2.680   3.303   6.654 -1.2214  1.3919 -1.3371
 3442SOL     OW21961   1.559   3.409   7.145  0.1872 -0.0388 -0.0648
 3442SOL    HW121962   1.482   3.435   7.196  1.4257  1.7163  0.8790
 3442SOL    HW221963   1.541   3.461   7.066 -0.5934  0.5883  0.5328
 3443SOL     OW21964   0.851   1.080   6.342  0.5169  0.3170  0.1767
 3443SOL    HW121965   0.780   1.111   6.286 -0.6278 -0.7799  1.0081
 3443SOL    HW221966   0.899   1.156   6.374  2.1496 -1.0577  0.9824
 3444SOL     OW21967   1.731   4.419   1.541  0.3209  0.1722  0.1641
 3444SOL    HW121968   1.682   4.338   1.523  1.2305 -0.5642  0.9724
 3444SOL    HW221969   1.703   4.445   1.628  2.7321 -0.8757  1.2469
 3445SOL     OW21970   3.877   2.175   4.089 -0.1033 -0.3483 -0.3435
 3445SOL    HW121971   3.934   2.124   4.147  0.3547 -0.3397 -0.7954
 3445SOL    HW221972   3.940   2.220   4.033 -1.0035  2.6787  1.0523
 3446SOL     OW21973   1.918   1.711   7.123 -0.3216 -0.5353  0.0329
 3446SOL    HW121974   1.827   1.683   7.114  0.1830 -1.4839 -2.1247
 3446SOL    HW221975   1.901   1.758   7.205 -1.6494  0.9218 -1.0796
 3447SOL     OW21976   4.478   4.197   3.219 -0.7803 -0.3038  0.0310
 3447SOL    HW121977   4.440   4.279   3.188 -2.0148 -0.3616  1.3990
 3447SOL    HW221978   4.461   4.143   3.142  0.0770 -1.4211  0.6167
 3448SOL     OW21979   3.300   3.028   2.962  0.1505  0.1592  0.0918
 3448SOL    HW121980   3.277   3.052   2.872  1.5439 -1.0260 -0.5847
 3448SOL    HW221981   3.377   2.973   2.948  0.9505  1.4187 -0.4594
 3449SOL     OW21982   0.040   4.064   7.193 -0.0107  0.1365  0.4815
 3449SOL    HW121983   0.097   4.058   7.270 -0.1932  1.2228  0.6930
 3449SOL    HW221984   4.723   3.985   7.206  2.3226 -1.3277  1.1030
 3450SOL     OW21985   1.961   0.052   3.914 -0.5141  0.2545 -0.5487
 3450SOL    HW121986   2.036   4.732   3.892  0.1350  0.3292  1.4595
 3450SOL    HW221987   1.936   0.093   3.832 -1.9342 -0.6083 -0.5429
 3451SOL     OW21988   3.501   4.314   6.415  0.5564  0.0493 -0.1534
 3451SOL    HW121989   3.590   4.321   6.381  0.5864  2.5455  0.4347
 3451SOL    HW221990   3.467   4.391   6.370  0.1266  0.2619  0.5344
 3452SOL     OW21991   0.105   0.861   6.553  0.0260  0.2495 -0.0888
 3452SOL    HW121992   0.182   0.844   6.607  1.9605  0.8908 -2.6674
 3452SOL    HW221993   0.061   0.777   6.551  0.6076 -0.0755  0.6426
 3453SOL     OW21994   4.240   4.039  14.125 -0.3133  0.6031 -0.0402
 3453SOL    HW121995   4.156   4.062  14.164 -0.0566  2.1848 -0.4125
 3453SOL    HW221996   4.287   3.990  14.193 -0.9113 -0.0392 -0.0942
 3454SOL     OW21997   3.741   2.770   2.986 -0.3082 -0.3924 -0.3142
 3454SOL    HW121998   3.776   2.681   2.993  0.7756  0.0971  0.4352
 3454SOL    HW221999   3.804   2.804   2.922  0.3609  2.7689  2.0566
 3455SOL     OW22000   2.376   3.744   7.342  0.7803 -0.1982 -0.1547
 3455SOL    HW122001   2.453   3.687   7.351  0.0966 -0.4896  3.6856
 3455SOL    HW222002   2.365   3.746   7.247  1.0701 -0.1167 -0.1890
 3456SOL     OW22003   1.891   0.103   0.334 -0.0607 -0.1209 -0.0936
 3456SOL    HW122004   1.979   0.126   0.301  0.1497 -1.1608 -0.2349
 3456SOL    HW222005   1.828   0.153   0.282 -0.7782 -1.4259 -0.4649
 3457SOL     OW22006   2.517   0.606   8.997 -0.0450  0.5456 -0.0666
 3457SOL    HW122007   2.498   0.636   8.908  1.5961 -1.2535 -1.0361
 3457SOL    HW222008   2.545   0.691   9.032  0.1038  0.6324 -0.3940
 3458SOL     OW22009   1.823   3.064   4.712  0.0116  0.3510 -0.3586
 3458SOL    HW122010   1.773   3.003   4.766  0.3205 -0.4684 -0.9952
 3458SOL    HW222011   1.769   3.142   4.720 -2.0243 -1.2894  1.8943
 3459SOL     OW22012   4.727   2.908   8.739  0.1768 -0.0323  0.3192
 3459SOL    HW122013   4.682   2.966   8.800 -1.7502 -0.4403 -0.6859
 3459SOL    HW222014   0.081   2.895   8.769 -0.7572 -1.1211  2.6732
 3460SOL     OW22015   2.554   4.573   9.330  0.4016 -0.2391  0.3071
 3460SOL    HW122016   2.612   4.582   9.253 -0.5388 -2.0240 -0.6055
 3460SOL    HW222017   2.497   4.648   9.316  1.6028  0.5620 -0.3247
 3461SOL     OW22018   3.165   4.580  16.953  0.0104 -0.4024  0.6717
 3461SOL    HW122019   3.106   4.516  16.914  0.0947 -0.3448  0.4466
 3461SOL    HW222020   3.241   4.582  16.894  0.8397  1.7504  1.7977
 3462SOL     OW22021   2.415   0.372  12.473  0.0397 -0.1220  0.0195
 3462SOL    HW122022   2.398   0.464  12.453 -2.0380 -0.2023  1.4029
 3462SOL    HW222023   2.510   0.364  12.475  0.2507  2.4268  0.8155
 3463SOL     OW22024   1.569   3.976  14.577  0.3305 -0.3710 -0.6920
 3463SOL    HW122025   1.538   3.894  14.538  2.3181 -1.2717 -0.3420
 3463SOL    HW222026   1.575   3.952  14.669  0.3506 -0.0837 -0.6183
 3464SOL     OW22027   0.426   0.308   4.578  0.5785  0.1761 -0.0351
 3464SOL    HW122028   0.393   0.335   4.663 -0.5870  1.2529 -0.8220
 3464SOL    HW222029   0.518   0.334   4.592  0.5932 -0.0696  0.2983
 3465SOL     OW22030   4.068   4.544   4.420 -0.0022 -0.0815 -0.6602
 3465SOL    HW122031   4.013   4.595   4.478  0.8111 -0.5083  0.4896
 3465SOL    HW222032   4.121   4.504   4.489  0.2718  0.5666 -0.4916
 3466SOL     OW22033   4.161   1.015  10.004 -0.2652  0.0493 -0.0165
 3466SOL    HW122034   4.125   1.026  10.091  0.3361 -1.6381  0.4544
 3466SOL    HW222035   4.171   0.920   9.996  1.1134  0.2853 -1.1804
 3467SOL     OW22036   1.553   3.017   9.118  0.0591 -0.1741  0.1568
 3467SOL    HW122037   1.618   2.948   9.135  1.1198  0.7577 -0.1494
 3467SOL    HW222038   1.480   2.970   9.160 -0.8091  1.9873  1.0513
 3468SOL     OW22039   2.310   3.077   5.434  0.9205  0.9031  0.3453
 3468SOL    HW122040   2.264   3.086   5.517 -0.7699  0.5246 -0.5661
 3468SOL    HW222041   2.263   3.130   5.369 -0.8414  0.6442  1.4283
 3469SOL     OW22042   3.223   2.303   8.966 -0.1907  0.3397 -0.3435
 3469SOL    HW122043   3.182   2.266   8.888  0.0942  0.9280 -0.7695
 3469SOL    HW222044   3.277   2.229   8.996  0.7868  1.5393  0.8872
 3470SOL     OW22045   4.335   3.044   8.492  0.0283  0.2332  0.2406
 3470SOL    HW122046   4.427   3.062   8.510  0.1615 -0.1438 -0.0520
 3470SOL    HW222047   4.290   3.129   8.495 -1.2057 -0.4067  0.1095
 3471SOL     OW22048   2.956   4.053  14.732 -0.2609  0.1723  0.7463
 3471SOL    HW122049   2.884   4.110  14.705 -0.1554  1.2054  2.6572
 3471SOL    HW222050   3.036   4.102  14.713 -1.2414  1.0936 -0.9494
 3472SOL     OW22051   0.286   1.721   8.820  0.0589 -0.2492 -0.2019
 3472SOL    HW122052   0.301   1.628   8.804 -1.2757 -0.7371  1.3426
 3472SOL    HW222053   0.331   1.749   8.741  0.4210  1.3994  0.5760
 3473SOL     OW22054   0.714   1.749   5.979 -0.3392 -0.2342  0.0455
 3473SOL    HW122055   0.808   1.758   5.963 -0.0508 -1.7439  0.8554
 3473SOL    HW222056   0.679   1.775   5.894 -2.5544  0.1160  1.0713
 3474SOL     OW22057   3.899   1.794   9.523  0.1930 -0.4805  0.2127
 3474SOL    HW122058   3.949   1.847   9.585 -0.0149  2.5651 -2.2357
 3474SOL    HW222059   3.860   1.727   9.580 -1.8152  0.3595 -0.2040
 3475SOL     OW22060   1.570   1.099   6.340  0.2673 -0.3011  0.5267
 3475SOL    HW122061   1.496   1.045   6.311 -0.8661  1.4951  0.1236
 3475SOL    HW222062   1.564   1.092   6.435 -0.2144 -0.3547  0.4916
 3476SOL     OW22063   2.452   4.539   3.022 -0.1018 -0.2737  0.2948
 3476SOL    HW122064   2.417   4.454   2.998 -0.7555  0.6886 -2.1761
 3476SOL    HW222065   2.499   4.566   2.943 -1.4648 -1.5862 -0.9387
 3477SOL     OW22066   1.128   1.109   5.140  0.6261  0.1171 -0.1651
 3477SOL    HW122067   1.060   1.147   5.084 -0.5290 -1.5548  0.1214
 3477SOL    HW222068   1.106   1.149   5.224 -0.0760 -0.1367 -0.2298
 3478SOL     OW22069   0.317   3.663  17.460  0.0798  0.2069 -0.7167
 3478SOL    HW122070   0.389   3.704  17.507  0.7166  0.4400 -1.8811
 3478SOL    HW222071   0.239   3.703  17.499 -1.9623 -2.3769 -2.1941
 3479SOL     OW22072   3.992   3.560   2.055  0.0985  0.4211  0.4914
 3479SOL    HW122073   4.031   3.585   1.972  0.4490 -2.1471 -0.1170
 3479SOL    HW222074   4.050   3.602   2.119  0.3858 -1.3706  1.4074
 3480SOL     OW22075   0.842   0.366  12.545  0.3663 -0.1471 -0.0733
 3480SOL    HW122076   0.828   0.282  12.503 -0.6289 -1.0501  2.0452
 3480SOL    HW222077   0.803   0.336  12.627 -0.1131  2.3019  0.5883
 3481SOL     OW22078   1.567   0.581  11.265 -0.0560  0.2952 -0.2773
 3481SOL    HW122079   1.509   0.629  11.325  0.3666  0.2412  0.1763
 3481SOL    HW222080   1.599   0.651  11.208  0.1399 -0.3174 -0.9200
 3482SOL     OW22081   2.681   3.055  11.926 -0.3013 -0.2189  0.0317
 3482SOL    HW122082   2.664   3.068  12.020  0.7274  0.7007  0.0977
 3482SOL    HW222083   2.620   3.119  11.890  1.3653  1.6362  0.4575
 3483SOL     OW22084   1.620   0.934   8.771 -0.4250 -0.2184  0.2538
 3483SOL    HW122085   1.564   0.939   8.848  1.4822 -0.9753  1.6982
 3483SOL    HW222086   1.556   0.943   8.701  1.4373  1.4407 -1.2514
 3484SOL     OW22087   3.967   2.027  15.877 -0.1630  0.2904  0.1391
 3484SOL    HW122088   3.885   2.028  15.827  0.6113 -3.2243 -1.2375
 3484SOL    HW222089   3.973   2.115  15.914 -1.4577 -0.3251  1.8441
 3485SOL     OW22090   3.021   0.343   6.667 -0.2411 -0.0023  0.6459
 3485SOL    HW122091   3.104   0.387   6.650 -0.5198  0.0663 -0.5810
 3485SOL    HW222092   3.058   0.255   6.678 -1.4637 -0.5855  0.1705
 3486SOL     OW22093   3.091   2.921  16.736 -0.3516 -0.0651 -0.5383
 3486SOL    HW122094   3.135   2.921  16.821  0.7001 -1.2781 -1.0763
 3486SOL    HW222095   3.120   3.002  16.694 -3.0707  0.3440 -1.6158
 3487SOL     OW22096   2.029   3.496   7.842  0.6138  0.8223 -0.2709
 3487SOL    HW122097   2.082   3.439   7.897  1.4238  0.4096 -1.4745
 3487SOL    HW222098   1.995   3.429   7.784 -1.7980 -0.2718  2.4136
 3488SOL     OW22099   3.229   3.777   6.950  0.0020  0.0111 -0.4114
 3488SOL    HW122100   3.165   3.828   6.901  2.8424  3.1633 -0.8927
 3488SOL    HW222101   3.281   3.749   6.875 -1.8952 -0.6769 -1.4605
 3489SOL     OW22102   1.257   2.351   7.125  0.3238  0.1943  0.1296
 3489SOL    HW122103   1.274   2.427   7.071  1.1064  1.0403  1.5743
 3489SOL    HW222104   1.169   2.374   7.157 -0.8064 -2.1335 -1.2745
 3490SOL     OW22105   2.960   2.947   2.987  0.5568  0.0602 -0.1476
 3490SOL    HW122106   3.041   2.906   3.018  0.4309 -0.6668 -0.7669
 3490SOL    HW222107   2.938   2.881   2.921 -0.3652  1.1549 -0.9194
 3491SOL     OW22108   4.523   0.582   5.499 -0.0900 -0.1103 -0.6670
 3491SOL    HW122109   4.495   0.585   5.407 -0.1991 -3.8010 -0.7540
 3491SOL    HW222110   4.598   0.522   5.495 -0.3675 -0.4853 -0.3106
 3492SOL     OW22111   3.933   3.857   1.665 -0.3088  0.1418  0.3511
 3492SOL    HW122112   3.872   3.890   1.599 -1.1909  0.0413  1.1220
 3492SOL    HW222113   3.991   3.930   1.684 -0.9037  1.1457 -1.7139
 3493SOL     OW22114   4.296   1.950   0.094 -0.2247  0.0401  0.0325
 3493SOL    HW122115   4.268   1.865   0.058  1.1413 -0.8256  0.9778
 3493SOL    HW222116   4.386   1.930   0.122 -1.1712 -2.7549  1.1392
 3494SOL     OW22117   1.694   0.348   2.233 -0.1120 -0.0856 -0.0817
 3494SOL    HW122118   1.603   0.325   2.212 -0.1858 -1.1595  1.4037
 3494SOL    HW222119   1.739   0.347   2.149 -0.4791 -1.9735 -0.2654
 3495SOL     OW22120   1.639   4.565   4.995  0.2043 -0.1517 -0.0486
 3495SOL    HW122121   1.725   4.603   4.975  0.0141  1.2912  1.9539
 3495SOL    HW222122   1.664   4.496   5.056 -2.3334 -0.7345  0.3541
 3496SOL     OW22123   1.939   3.320  12.451  0.3607  0.3717  0.3458
 3496SOL    HW122124   1.844   3.331  12.465  0.2941 -0.2337  0.3607
 3496SOL    HW222125   1.977   3.323  12.539 -0.4345  1.6619  0.6486
 3497SOL     OW22126   3.101   3.484  17.345 -0.3793 -0.0924 -0.0668
 3497SOL    HW122127   3.122   3.399  17.382  1.1686  0.7988  1.1156
 3497SOL    HW222128   3.033   3.501  17.410  2.2920  0.4245  2.5674
 3498SOL     OW22129   3.126   0.782   7.569  0.0978 -0.5536  0.1548
 3498SOL    HW122130   3.184   0.738   7.508 -0.1632  0.4139 -0.7957
 3498SOL    HW222131   3.062   0.808   7.503 -0.1196 -0.2928  0.4641
 3499SOL     OW22132   0.482   0.088   5.659 -0.1028 -0.5188  0.0684
 3499SOL    HW122133   0.574   0.070   5.678  0.1063  1.7271  1.1827
 3499SOL    HW222134   0.486   0.175   5.620  1.0169 -1.1055 -1.0939
 3500SOL     OW22135   0.374   3.299   4.747 -0.1487 -0.4140 -0.5154
 3500SOL    HW122136   0.308   3.231   4.734 -0.7436  0.0615 -0.0303
 3500SOL    HW222137   0.456   3.256   4.722 -0.8372 -1.6368 -0.6710
 3501SOL     OW22138   1.319   2.842   7.459  0.4072 -0.1355 -0.1215
 3501SOL    HW122139   1.387   2.784   7.494 -1.8607 -2.3247  0.6403
 3501SOL    HW222140   1.315   2.807   7.370 -0.0339 -3.5876  1.2552
 3502SOL     OW22141   3.970   0.774  14.136  0.0411  0.1770  0.3892
 3502SOL    HW122142   3.955   0.868  14.148 -1.8487  0.0722 -1.2358
 3502SOL    HW222143   3.948   0.760  14.044  2.3557  0.6189 -0.2443
 3503SOL     OW22144   1.050   4.515   3.595 -0.1320  0.4091 -0.2307
 3503SOL    HW122145   1.130   4.560   3.620 -0.0411  1.2245 -1.9565
 3503SOL    HW222146   1.070   4.486   3.506 -1.0443 -1.8445  0.3048
 3504SOL     OW22147   1.902   1.974  12.307  0.5538  0.8259 -0.0652
 3504SOL    HW122148   1.894   2.064  12.274  2.0215  0.7794 -0.5816
 3504SOL    HW222149   1.937   1.928  12.231  0.3957 -0.1837  0.4822
 3505SOL     OW22150   1.525   1.018   6.596  0.5765  0.2224 -0.2862
 3505SOL    HW122151   1.448   1.071   6.618 -0.0262 -0.5509 -0.5341
 3505SOL    HW222152   1.587   1.054   6.660  0.3314 -2.9919  1.7872
 3506SOL     OW22153   0.399   1.147   0.445 -0.0608  0.2626  0.7094
 3506SOL    HW122154   0.307   1.135   0.422 -0.2657  1.1900  1.0429
 3506SOL    HW222155   0.402   1.063   0.490 -0.3150  0.8931  1.9025
 3507SOL     OW22156   3.535   3.683   0.637  0.3692  0.6417  0.2777
 3507SOL    HW122157   3.486   3.762   0.614  0.9450  1.1396  0.7479
 3507SOL    HW222158   3.500   3.671   0.726  2.6484 -0.8633  0.9785
 3508SOL     OW22159   1.313   0.748   2.148  0.5294  0.0934 -0.0982
 3508SOL    HW122160   1.229   0.742   2.194  1.2556  2.3738  1.5076
 3508SOL    HW222161   1.370   0.694   2.203  0.7267 -1.5553 -1.9178
 3509SOL     OW22162   2.567   1.161   4.058 -0.3377 -0.1552  0.0556
 3509SOL    HW122163   2.531   1.248   4.041  2.7026  0.7488 -1.7425
 3509SOL    HW222164   2.640   1.172   4.120  0.0360 -1.8525 -0.0858
 3510SOL     OW22165   4.676   0.185   6.206 -0.0525 -0.0719 -0.2223
 3510SOL    HW122166   4.731   0.134   6.266  0.7835  1.8817  0.6798
 3510SOL    HW222167   4.607   0.122   6.185  0.3880 -0.2196 -1.2335
 3511SOL     OW22168   3.611   2.760  17.447 -0.0940  0.2380  0.0640
 3511SOL    HW122169   3.586   2.671  17.424 -0.4913  0.2408  0.5030
 3511SOL    HW222170   3.656   2.787  17.367  0.5068 -0.4263  0.1757
 3512SOL     OW22171   3.845   3.224  11.166 -0.1077 -0.2160  0.2653
 3512SOL    HW122172   3.893   3.296  11.125 -0.4884  0.1832  0.5162
 3512SOL    HW222173   3.768   3.275  11.190 -0.0867  0.2886 -0.7372
 3513SOL     OW22174   4.651   0.389  11.281  0.3036  0.6136 -0.3287
 3513SOL    HW122175   4.699   0.351  11.355  2.3975  1.3241 -1.3277
 3513SOL    HW222176   4.697   0.471  11.265 -3.2783  3.0072  1.4786
 3514SOL     OW22177   4.499   3.546  15.552 -0.3462  0.1544  0.1607
 3514SOL    HW122178   4.436   3.486  15.591 -0.8748  0.9809  0.5897
 3514SOL    HW222179   4.473   3.539  15.460  0.8306  0.4711 -0.2009
 3515SOL     OW22180   2.520   0.870  11.712  0.1981 -0.1585 -0.1180
 3515SOL    HW122181   2.427   0.887  11.699  0.9583  2.3230 -2.4705
 3515SOL    HW222182   2.518   0.809  11.786  0.4518  0.5296  0.4525
 3516SOL     OW22183   3.466   1.235   2.037 -0.9664 -0.1149 -0.1394
 3516SOL    HW122184   3.525   1.236   1.962 -0.0167 -0.5588  0.5841
 3516SOL    HW222185   3.495   1.160   2.089 -0.3056  0.1664 -0.1004
 3517SOL     OW22186   3.347   3.636   2.957  1.0223  0.5412 -0.0598
 3517SOL    HW122187   3.401   3.587   2.896  1.5979 -0.0564  0.9224
 3517SOL    HW222188   3.282   3.567   2.967  3.0638 -1.2961  0.5386
 3518SOL     OW22189   3.749   3.904   4.367 -0.4603 -0.5607 -0.0083
 3518SOL    HW122190   3.842   3.879   4.360 -0.9688 -2.2663 -0.7179
 3518SOL    HW222191   3.712   3.827   4.411 -0.4290  0.1235  1.2186
 3519SOL     OW22192   2.490   1.740  13.451 -0.4451 -0.5282  0.2848
 3519SOL    HW122193   2.538   1.658  13.450  0.7399  0.1788 -0.1568
 3519SOL    HW222194   2.472   1.761  13.360 -0.7358 -0.7255  0.2948
 3520SOL     OW22195   3.674   4.518   7.731  0.1474  0.4067 -0.4846
 3520SOL    HW122196   3.697   4.434   7.690  2.7273  0.8657  0.0346
 3520SOL    HW222197   3.659   4.558   7.645  1.1699 -2.4607 -2.0229
 3521SOL     OW22198   1.847   1.700  16.586 -0.1509  0.3005 -0.6527
 3521SOL    HW122199   1.804   1.700  16.672 -0.4884  0.4686 -0.8181
 3521SOL    HW222200   1.933   1.736  16.608  0.6438 -2.1892  0.2630
 3522SOL     OW22201   3.581   1.678  13.637 -0.2697  0.2363  0.0440
 3522SOL    HW122202   3.502   1.625  13.628  0.5554 -1.1693  1.0750
 3522SOL    HW222203   3.611   1.674  13.546 -1.4141 -1.0660 -0.2750
 3523SOL     OW22204   3.547   3.291   7.816 -0.0230 -0.5919 -0.0003
 3523SOL    HW122205   3.506   3.314   7.732 -0.6124 -0.2725  0.3781
 3523SOL    HW222206   3.506   3.207   7.836 -0.6713 -0.6560 -1.5541
 3524SOL     OW22207   0.072   0.212  11.435 -0.4905  0.1819 -0.0583
 3524SOL    HW122208   0.078   0.119  11.452 -2.2232  0.0879  0.0772
 3524SOL    HW222209   0.147   0.225  11.377 -0.5963 -0.1420 -0.2658
 3525SOL     OW22210   4.470   4.327   5.301 -0.4748  0.5352  0.6066
 3525SOL    HW122211   4.531   4.253   5.289  2.1362  2.7929 -0.1649
 3525SOL    HW222212   4.391   4.276   5.321  0.0548 -0.1452  0.9856
 3526SOL     OW22213   4.390   0.639   8.695  0.3978  0.2151  0.9787
 3526SOL    HW122214   4.370   0.551   8.727  0.5755 -0.3205 -0.3705
 3526SOL    HW222215   4.443   0.616   8.618  0.4085 -1.5810  1.5211
 3527SOL     OW22216   0.231   2.279   4.973 -0.4106 -0.2005 -0.7165
 3527SOL    HW122217   0.303   2.217   4.987  0.1869  0.9740  1.3778
 3527SOL    HW222218   0.259   2.322   4.893  1.6610  0.7447  0.5163
 3528SOL     OW22219   3.664   3.930   7.184  0.0048 -0.0498  0.3191
 3528SOL    HW122220   3.576   3.895   7.168  0.0046 -0.0878  0.3995
 3528SOL    HW222221   3.695   3.885   7.263  1.8118  1.0303  0.2159
 3529SOL     OW22222   3.356   0.034   2.745 -0.2537 -0.0624  0.2152
 3529SOL    HW122223   3.308   0.011   2.666  0.1145  0.4323 -0.1459
 3529SOL    HW222224   3.413   0.103   2.712  0.6153 -0.8819  0.0162
 3530SOL     OW22225   4.614   0.517   1.140  0.2546  0.2039 -0.3760
 3530SOL    HW122226   4.547   0.470   1.089  0.4300 -2.6599  2.0050
 3530SOL    HW222227   4.681   0.452   1.158 -1.3073 -0.8723  1.6297
 3531SOL     OW22228   0.530   3.506  16.349 -0.6150 -0.4774  0.2490
 3531SOL    HW122229   0.503   3.471  16.434 -3.4486 -0.8910 -0.8289
 3531SOL    HW222230   0.517   3.430  16.292  0.0510 -0.3199 -0.1155
 3532SOL     OW22231   1.326   4.615   3.058  0.1415 -0.3178  0.0165
 3532SOL    HW122232   1.393   4.547   3.066 -1.9498 -2.4710 -0.8772
 3532SOL    HW222233   1.296   4.592   2.970  1.2638 -1.7480 -0.0032
 3533SOL     OW22234   1.274   0.137   5.904  0.4800 -0.5209  0.6099
 3533SOL    HW122235   1.363   0.160   5.929 -0.0587  1.4700  0.6810
 3533SOL    HW222236   1.226   0.172   5.980  2.5968  0.1301  1.6326
 3534SOL     OW22237   3.436   4.547   6.246 -0.0600  0.0381  0.8222
 3534SOL    HW122238   3.520   4.591   6.261 -0.1989  1.2656 -2.0832
 3534SOL    HW222239   3.427   4.541   6.151  0.9394  1.1152  0.6663
 3535SOL     OW22240   3.082   4.171   1.991  0.3994 -0.4077 -0.0497
 3535SOL    HW122241   3.013   4.237   1.996  1.6230  0.7136  1.9614
 3535SOL    HW222242   3.039   4.123   1.920 -1.0922 -1.5298  1.6111
 3536SOL     OW22243   4.306   3.389  15.636 -0.1047 -0.0747 -0.1197
 3536SOL    HW122244   4.280   3.299  15.614  1.4309 -0.4743 -0.3027
 3536SOL    HW222245   4.234   3.433  15.592  1.5105  1.7038 -1.0080
 3537SOL     OW22246   0.681   2.264  14.248 -0.0290  0.0666  0.1086
 3537SOL    HW122247   0.611   2.328  14.236  1.0341  0.7098 -2.7192
 3537SOL    HW222248   0.747   2.302  14.306 -1.6673  2.5316  0.3806
 3538SOL     OW22249   4.252   0.807   6.211 -0.1709 -0.3065 -0.0291
 3538SOL    HW122250   4.221   0.717   6.216  0.0458 -0.3810 -0.0184
 3538SOL    HW222251   4.258   0.816   6.306 -0.1410 -1.1555  0.0425
 3539SOL     OW22252   3.317   3.524  10.573  0.2551 -0.1642  0.2170
 3539SOL    HW122253   3.341   3.527  10.666  1.7520  0.4670 -0.1942
 3539SOL    HW222254   3.254   3.452  10.579  0.7592 -0.8014 -2.1088
 3540SOL     OW22255   4.242   3.718   2.174 -0.2799 -0.6639  0.2784
 3540SOL    HW122256   4.216   3.763   2.254 -1.8572 -1.0845  0.0034
 3540SOL    HW222257   4.303   3.780   2.134 -1.1669 -0.4938 -0.8158
 3541SOL     OW22258   1.974   2.134   2.821 -0.1557 -0.2539  0.3437
 3541SOL    HW122259   1.988   2.175   2.736 -0.5593  1.6864  1.2286
 3541SOL    HW222260   2.047   2.172   2.869 -0.6994  2.5556 -1.0788
 3542SOL     OW22261   2.899   0.841   5.949  0.1618  0.0396 -0.1291
 3542SOL    HW122262   2.819   0.809   5.908 -0.1390  0.2721  0.2722
 3542SOL    HW222263   2.873   0.932   5.962 -0.7070 -0.3868  1.1609
 3543SOL     OW22264   2.230   3.083   2.998 -0.7985 -0.4948  0.4583
 3543SOL    HW122265   2.277   3.002   3.018  1.1167 -0.3063 -3.2285
 3543SOL    HW222266   2.190   3.072   2.912  2.6414 -0.2215 -1.1479
 3544SOL     OW22267   1.672   3.884   2.584  0.0143 -0.4806  0.5895
 3544SOL    HW122268   1.712   3.947   2.645  0.6240 -1.4015  1.1534
 3544SOL    HW222269   1.727   3.889   2.506 -0.8904 -0.0925 -0.0208
 3545SOL     OW22270   1.517   0.129   6.245 -0.2581  0.0505 -0.2457
 3545SOL    HW122271   1.433   0.084   6.239  0.3264 -0.9542 -0.8467
 3545SOL    HW222272   1.503   0.185   6.321  1.2627  0.6473 -0.3898
 3546SOL     OW22273   1.713   4.045   7.515  0.1333  0.0551  0.0974
 3546SOL    HW122274   1.717   3.990   7.436 -0.7290  1.5592 -0.9934
 3546SOL    HW222275   1.808   4.047   7.526  0.2654 -1.1218 -0.7734
 3547SOL     OW22276   2.587   3.784   5.687  0.1136 -0.6439 -0.5130
 3547SOL    HW122277   2.510   3.768   5.633 -0.4276  2.0710 -0.5555
 3547SOL    HW222278   2.633   3.860   5.652  1.1280  0.3946  3.0974
 3548SOL     OW22279   1.621   0.059  13.973 -0.1763 -0.1781  0.2526
 3548SOL    HW122280   1.664   0.139  14.002  1.3527 -1.2675  0.9726
 3548SOL    HW222281   1.565   0.046  14.049 -1.4540  0.5967 -0.5469
 3549SOL     OW22282   0.712   2.975   5.460 -0.0128  0.3744  0.3118
 3549SOL    HW122283   0.668   2.896   5.428 -0.5418  0.7952  0.0032
 3549SOL    HW222284   0.778   2.979   5.391 -0.9590  2.9044 -0.4655
 3550SOL     OW22285   3.424   4.109   3.773 -0.1018 -0.1654  0.1451
 3550SOL    HW122286   3.443   4.158   3.853  2.1423  0.0479 -0.5437
 3550SOL    HW222287   3.503   4.144   3.733  0.1701 -0.8399  0.0992
 3551SOL     OW22288   1.760   0.741   9.067  0.1593  0.6943 -0.1717
 3551SOL    HW122289   1.803   0.676   9.122 -2.0453  0.4493  1.2451
 3551SOL    HW222290   1.791   0.722   8.978 -2.5950 -2.8326 -0.3811
 3552SOL     OW22291   1.686   1.558   3.984 -0.2397  0.6146  0.0954
 3552SOL    HW122292   1.595   1.536   3.966 -0.3008  1.2238 -0.3499
 3552SOL    HW222293   1.714   1.613   3.911  1.1351  1.0217  0.9054
 3553SOL     OW22294   3.226   2.122   0.102 -0.2105  0.2170 -0.1935
 3553SOL    HW122295   3.259   2.211   0.108  0.5520 -0.0909  0.1960
 3553SOL    HW222296   3.161   2.128   0.171  1.6405  2.3373  1.3466
 3554SOL     OW22297   0.934   2.704   7.482  0.6011  0.2841 -0.1825
 3554SOL    HW122298   0.889   2.632   7.528 -1.0443  0.7358 -1.0697
 3554SOL    HW222299   0.975   2.659   7.408  2.7412  0.4911  0.9040
 3555SOL     OW22300   1.429   1.524   5.852  0.2085 -0.6486  0.1897
 3555SOL    HW122301   1.337   1.534   5.827  0.6590  2.2013 -0.3856
 3555SOL    HW222302   1.431   1.429   5.855 -0.8570 -0.6842 -0.1220
 3556SOL     OW22303   4.186   4.630  12.108  0.2339  0.4390  0.0100
 3556SOL    HW122304   4.239   4.690  12.159  1.4845  0.3740 -1.1959
 3556SOL    HW222305   4.155   4.681  12.034 -2.7044 -0.0819  0.8820
 3557SOL     OW22306   0.250   4.042   4.307 -1.0574 -0.2303 -0.6720
 3557SOL    HW122307   0.326   4.046   4.248 -1.0376 -1.7401 -0.7733
 3557SOL    HW222308   0.277   3.962   4.353  0.6801  0.8934  0.2515
 3558SOL     OW22309   2.016   1.615   8.784 -0.5309  0.3578 -0.1171
 3558SOL    HW122310   1.932   1.607   8.829  0.6243  0.9906  2.1619
 3558SOL    HW222311   2.048   1.527   8.805  0.6198  1.2608  1.8419
 3559SOL     OW22312   3.374   4.161   0.175 -0.4871  0.4647  0.1087
 3559SOL    HW122313   3.455   4.155   0.123 -0.4816 -2.3112  0.4130
 3559SOL    HW222314   3.321   4.205   0.109  0.2782 -0.3706 -1.0656
 3560SOL     OW22315   0.291   0.189   4.372 -0.0710  0.3300  0.1518
 3560SOL    HW122316   0.219   0.251   4.367 -0.0399  0.3800  0.3178
 3560SOL    HW222317   0.328   0.212   4.458  0.1171  0.0683  0.1397
 3561SOL     OW22318   1.980   1.163   1.880  0.3543 -0.4873  0.0013
 3561SOL    HW122319   1.980   1.254   1.849 -0.6530 -1.1894 -2.0701
 3561SOL    HW222320   2.067   1.156   1.919 -0.4802 -3.0149  1.4001
 3562SOL     OW22321   1.688   2.233   3.576 -0.7247  0.1943 -0.4831
 3562SOL    HW122322   1.703   2.140   3.559  3.5809  1.0014 -1.1712
 3562SOL    HW222323   1.603   2.231   3.619 -0.3288 -1.5736  0.2088
 3563SOL     OW22324   1.277   3.399  12.575  0.0028  0.4627 -0.4670
 3563SOL    HW122325   1.326   3.384  12.495  1.1180 -2.4351  0.7577
 3563SOL    HW222326   1.191   3.395  12.533  0.6572  0.6083 -1.8023
 3564SOL     OW22327   2.319   2.704  12.691  0.1233 -0.3655  0.4845
 3564SOL    HW122328   2.405   2.666  12.671 -0.0004 -0.6717  0.5226
 3564SOL    HW222329   2.302   2.672  12.780  0.1672 -0.4293  0.4698
 3565SOL     OW22330   1.964   3.781   3.446 -0.3159 -0.1800 -0.1548
 3565SOL    HW122331   2.031   3.714   3.435 -0.7258 -0.5557 -0.3797
 3565SOL    HW222332   1.921   3.769   3.361 -1.2985 -0.9061  0.4369
 3566SOL     OW22333   2.102   1.521  11.299 -0.1549  0.8693  0.1960
 3566SOL    HW122334   2.066   1.450  11.352  1.3275  0.9685  1.3403
 3566SOL    HW222335   2.181   1.552  11.344 -0.1603  1.0165  0.1049
 3567SOL     OW22336   4.006   4.515   3.179 -0.3250  0.4061 -0.1078
 3567SOL    HW122337   4.007   4.471   3.094 -0.2878 -0.7324  0.4795
 3567SOL    HW222338   4.073   4.583   3.165 -0.5052 -0.0977 -3.3448
 3568SOL     OW22339   0.510   3.538   2.885 -0.1148 -0.1753  0.0382
 3568SOL    HW122340   0.479   3.624   2.912  0.3765  0.0456 -0.0858
 3568SOL    HW222341   0.578   3.518   2.949  1.7734  1.0704 -1.5703
 3569SOL     OW22342   0.886   3.529   7.363  0.6582 -0.0850  0.1078
 3569SOL    HW122343   0.899   3.469   7.436  1.1933 -0.9990 -0.7405
 3569SOL    HW222344   0.970   3.537   7.318  0.5754  2.0311  0.3269
 3570SOL     OW22345   2.471   2.086   5.336 -0.2159  0.2880 -0.3432
 3570SOL    HW122346   2.395   2.049   5.293  0.5055  0.1097 -1.4683
 3570SOL    HW222347   2.525   2.080   5.257  1.4701  3.2939  0.5583
 3571SOL     OW22348   2.908   0.786   6.570  0.3432 -0.2153 -0.3532
 3571SOL    HW122349   2.820   0.763   6.601 -0.2984  1.0569 -1.2133
 3571SOL    HW222350   2.884   0.782   6.478  2.4714 -1.1353 -0.8631
 3572SOL     OW22351   1.370   2.292  12.031  0.3961  0.3189  0.5503
 3572SOL    HW122352   1.363   2.365  12.093  1.2815  1.2864 -0.5009
 3572SOL    HW222353   1.294   2.236  12.045  2.1487 -2.2199  0.0131
 3573SOL     OW22354   2.411   4.219   9.738 -0.4219 -0.3893 -0.3692
 3573SOL    HW122355   2.373   4.258   9.659 -0.0393 -0.1815 -0.4514
 3573SOL    HW222356   2.495   4.263   9.754  1.0255 -3.1602 -0.3138
 3574SOL     OW22357   3.433   2.418   8.328  0.3939  0.5581 -0.4219
 3574SOL    HW122358   3.345   2.391   8.299  1.1108 -1.9576 -0.2682
 3574SOL    HW222359   3.484   2.435   8.248  1.7499  0.3300  0.3983
 3575SOL     OW22360   3.685   4.241   3.688 -0.0345  0.6249 -0.3409
 3575SOL    HW122361   3.687   4.314   3.750  2.8223 -0.8851  1.3630
 3575SOL    HW222362   3.765   4.247   3.636 -0.0569 -0.4606 -0.4924
 3576SOL     OW22363   0.638   4.704   2.312 -0.1052  0.1762 -0.3271
 3576SOL    HW122364   0.678   0.054   2.320 -0.3699  0.1431  1.3847
 3576SOL    HW222365   0.636   4.681   2.405 -0.8655  0.1597 -0.3499
 3577SOL     OW22366   3.430   4.711   4.458 -0.2109 -0.2657 -0.3486
 3577SOL    HW122367   3.484   4.647   4.503 -2.1168 -1.1742  0.6427
 3577SOL    HW222368   3.439   4.682   4.367  0.9246 -0.4392 -0.1775
 3578SOL     OW22369   0.711   3.338   3.035 -0.5583 -0.0193 -0.3821
 3578SOL    HW122370   0.792   3.294   3.011 -1.2068 -1.6983  0.5676
 3578SOL    HW222371   0.643   3.278   3.003 -1.7647 -0.3529  2.8399
 3579SOL     OW22372   3.906   2.353   8.092  0.1818 -0.6977  0.2499
 3579SOL    HW122373   3.925   2.259   8.088 -0.6361 -0.8520  0.0235
 3579SOL    HW222374   3.928   2.361   8.185 -1.3015  0.8687  0.4651
 3580SOL     OW22375   0.776   2.896   4.549 -0.1429 -0.4149 -0.2290
 3580SOL    HW122376   0.807   2.830   4.488 -0.0326  0.3749 -1.0253
 3580SOL    HW222377   0.704   2.936   4.502 -1.2563 -0.7784  1.1709
 3581SOL     OW22378   3.065   2.105   3.941 -0.4447 -0.3039  0.2837
 3581SOL    HW122379   3.080   2.016   3.973 -1.0967 -0.3463  0.4613
 3581SOL    HW222380   3.143   2.151   3.971 -0.7489  0.9060 -0.8145
 3582SOL     OW22381   0.391   2.041  13.426 -0.3233  0.0181  0.3677
 3582SOL    HW122382   0.356   2.027  13.514  2.3700 -1.8205  1.1489
 3582SOL    HW222383   0.399   2.136  13.424 -0.4985  0.0428  0.8299
 3583SOL     OW22384   2.258   0.436   7.875 -0.2068 -0.3768 -0.2648
 3583SOL    HW122385   2.226   0.354   7.914 -0.0085 -1.0439 -1.5190
 3583SOL    HW222386   2.343   0.406   7.840  0.0058 -1.0372  0.8132
 3584SOL     OW22387   4.594   2.200  13.661  0.0321 -0.3805 -0.5025
 3584SOL    HW122388   4.518   2.258  13.657 -0.2175 -0.6312  0.9258
 3584SOL    HW222389   4.642   2.217  13.580  1.1993 -1.4649 -0.0419
 3585SOL     OW22390   0.838   0.877   9.013 -0.0468 -0.6148 -0.7653
 3585SOL    HW122391   0.790   0.882   9.095  0.5760  1.4572 -0.5400
 3585SOL    HW222392   0.801   0.949   8.962  0.1282 -0.0948 -0.1483
 3586SOL     OW22393   4.611   1.426   6.629 -0.6017  0.3590  0.1304
 3586SOL    HW122394   4.560   1.345   6.641  1.2878 -0.7252  0.8087
 3586SOL    HW222395   4.634   1.445   6.720  0.2181  0.0979 -0.0236
 3587SOL     OW22396   4.372   0.588   1.806  0.4567  0.1081  0.4217
 3587SOL    HW122397   4.418   0.635   1.736 -0.6807 -0.3350 -0.6104
 3587SOL    HW222398   4.442   0.532   1.841  0.2060 -1.3256 -1.3924
 3588SOL     OW22399   0.977   0.544   1.950 -0.0998  0.7185  0.0013
 3588SOL    HW122400   0.888   0.510   1.950  0.4796 -0.8044 -0.3137
 3588SOL    HW222401   0.996   0.516   2.040  1.3072  0.1076 -0.4832
 3589SOL     OW22402   0.509   0.624   1.745 -0.2387 -0.0462  0.4746
 3589SOL    HW122403   0.562   0.687   1.794 -1.2706  0.6553  0.6638
 3589SOL    HW222404   0.579   0.567   1.713 -0.2178  0.7169 -0.8331
 3590SOL     OW22405   0.007   2.494   0.750  0.0924  0.4682  0.1101
 3590SOL    HW122406   0.068   2.480   0.677 -1.4060  0.0978 -1.0787
 3590SOL    HW222407   0.005   2.590   0.755  1.8586  0.5252 -0.3400
 3591SOL     OW22408   3.565   2.615  16.078 -0.3201  0.4458  0.5482
 3591SOL    HW122409   3.646   2.574  16.046 -0.7333  1.0346 -1.2715
 3591SOL    HW222410   3.589   2.609  16.170  0.1379 -1.7262  0.3031
 3592SOL     OW22411   1.044   0.846   1.559  0.9588  0.6823 -0.2470
 3592SOL    HW122412   1.052   0.804   1.473 -0.6736  1.6486 -0.8555
 3592SOL    HW222413   0.968   0.901   1.539 -0.3330 -1.2988 -0.7545
 3593SOL     OW22414   0.924   1.311   3.513  0.3102 -0.1373  0.3712
 3593SOL    HW122415   0.916   1.321   3.418  0.0476  1.2172  0.5353
 3593SOL    HW222416   1.017   1.326   3.530  0.1876 -0.1663  1.0649
 3594SOL     OW22417   4.707   0.401  14.900  0.0168 -0.2683  0.7571
 3594SOL    HW122418   4.691   0.404  14.806 -0.3093  4.2133  0.9653
 3594SOL    HW222419   4.661   0.478  14.935  1.9614  1.5071 -0.6042
 3595SOL     OW22420   0.330   0.660   4.417 -0.1088  0.0317  0.2486
 3595SOL    HW122421   0.406   0.602   4.427  0.0391  0.2420  0.3482
 3595SOL    HW222422   0.340   0.731   4.481  0.2797 -1.3151  1.6809
 3596SOL     OW22423   2.473   1.885   3.191  0.0957 -0.3806 -0.4347
 3596SOL    HW122424   2.453   1.866   3.282  0.9426 -0.6331 -0.2997
 3596SOL    HW222425   2.465   1.800   3.147 -0.6815  0.7688 -2.5102
 3597SOL     OW22426   2.659   0.066   3.104  0.5765  0.1101 -0.1725
 3597SOL    HW122427   2.671   0.057   3.009  0.9196  0.5540 -0.1678
 3597SOL    HW222428   2.690   4.717   3.135  0.9536  0.6856  1.0177
 3598SOL     OW22429   2.683   4.695  16.463 -0.0962  0.3952  0.4142
 3598SOL    HW122430   2.591   4.690  16.490 -0.7260 -1.2602 -1.9176
 3598SOL    HW222431   2.711   4.604  16.473  0.8905  0.5309 -1.0579
 3599SOL     OW22432   3.426   0.266  17.453  0.1616 -0.2639 -0.0912
 3599SOL    HW122433   3.357   0.221  17.405 -0.0021 -1.1164  0.9263
 3599SOL    HW222434   3.379   0.342  17.485 -0.9491 -0.7222 -0.6442
 3600SOL     OW22435   1.926   2.752   7.154 -0.2770 -0.0569 -0.1995
 3600SOL    HW122436   1.899   2.829   7.203  1.7801 -0.0537  0.9228
 3600SOL    HW222437   1.872   2.772   7.078  0.1883  0.9052 -0.2848
 3601SOL     OW22438   3.423   4.650  10.258  0.1421 -0.2868  0.1918
 3601SOL    HW122439   3.333   4.637  10.287 -0.4081 -0.9609 -1.8290
 3601SOL    HW222440   3.431   0.009  10.269 -0.6904  0.0617 -2.2751
 3602SOL     OW22441   2.175   0.057  15.559  0.1327 -0.2789  0.4115
 3602SOL    HW122442   2.105   0.115  15.531  0.9980 -0.3369 -1.8979
 3602SOL    HW222443   2.199   0.017  15.475 -0.0737  0.7527 -0.1385
 3603SOL     OW22444   2.443   0.941  11.178 -0.5945 -0.1737 -0.2088
 3603SOL    HW122445   2.497   0.977  11.248 -1.8546  0.5423  0.3927
 3603SOL    HW222446   2.418   1.019  11.129 -2.2503 -0.6309 -0.0848
 3604SOL     OW22447   3.492   3.125   8.359 -0.2792  0.2303  0.1757
 3604SOL    HW122448   3.455   3.207   8.390 -2.6761  0.1250 -2.3479
 3604SOL    HW222449   3.483   3.068   8.436 -0.5886 -1.0431 -0.7958
 3605SOL     OW22450   0.127   4.559  13.899 -0.0300 -0.1689 -0.0984
 3605SOL    HW122451   0.091   4.551  13.811  0.6381 -2.6436 -0.1444
 3605SOL    HW222452   0.139   4.654  13.902  0.8978 -0.2719 -0.4327
 3606SOL     OW22453   3.028   2.610  11.824  0.2763  0.6963  0.0057
 3606SOL    HW122454   2.968   2.544  11.860  1.7304 -0.3504  0.5078
 3606SOL    HW222455   2.970   2.681  11.798  0.1418  1.2501  1.7820
 3607SOL     OW22456   0.979   2.568  11.468 -0.1162 -0.1104 -0.3180
 3607SOL    HW122457   1.032   2.515  11.528  0.6363 -1.3675 -2.0871
 3607SOL    HW222458   0.931   2.499  11.422 -1.5722  0.7949 -0.1752
 3608SOL     OW22459   0.987   3.753   9.268 -0.3352  0.0283  0.1149
 3608SOL    HW122460   1.002   3.797   9.184 -0.2989  0.5920  0.4158
 3608SOL    HW222461   0.916   3.692   9.251 -1.2413  0.5624  2.0423
 3609SOL     OW22462   1.201   1.550  10.452  0.6736  0.0158  0.1578
 3609SOL    HW122463   1.267   1.592  10.508 -0.5519  0.8457  0.9560
 3609SOL    HW222464   1.247   1.465  10.449  3.5243  1.5760 -0.9055
 3610SOL     OW22465   3.797   1.272  16.246  0.3170 -0.2706  0.5934
 3610SOL    HW122466   3.802   1.266  16.150 -1.3364  1.4051  0.3967
 3610SOL    HW222467   3.760   1.358  16.266  1.2645  0.7247 -1.9956
 3611SOL     OW22468   4.058   0.071   6.863  0.2794 -0.7921  0.0979
 3611SOL    HW122469   4.054   4.722   6.908  2.3000 -1.4434 -0.9224
 3611SOL    HW222470   3.989   0.114   6.914 -2.1926 -1.2548 -2.8580
 3612SOL     OW22471   3.459   4.288   3.985  0.3822 -0.0246 -0.0390
 3612SOL    HW122472   3.538   4.311   4.035  0.3413 -3.0463  1.3950
 3612SOL    HW222473   3.429   4.376   3.959 -1.1367 -0.5466 -0.0243
 3613SOL     OW22474   4.492   4.557   6.015 -1.0390 -0.2736 -0.4239
 3613SOL    HW122475   4.556   4.551   5.945 -2.2507 -1.1400 -1.4689
 3613SOL    HW222476   4.427   4.490   5.994 -1.5956  0.0443  0.2659
 3614SOL     OW22477   2.042   1.193   2.897  0.4507 -0.0639 -0.0865
 3614SOL    HW122478   2.016   1.178   2.806 -2.1615  2.1424  0.3089
 3614SOL    HW222479   2.135   1.170   2.893 -0.0084 -1.6446 -1.9551
 3615SOL     OW22480   3.559   2.942   4.732 -0.2566  0.4006  0.0167
 3615SOL    HW122481   3.557   2.924   4.638  2.4543  2.8100 -0.4967
 3615SOL    HW222482   3.467   2.924   4.750  0.1070 -1.8102 -0.3394
 3616SOL     OW22483   2.331   3.696   3.306  0.8197 -0.3191  0.3006
 3616SOL    HW122484   2.271   3.768   3.286 -0.3992 -0.9399  1.7392
 3616SOL    HW222485   2.266   3.626   3.313  1.1911 -0.5449  1.5777
 3617SOL     OW22486   0.794   4.425   2.301 -0.1837  0.3271 -0.1868
 3617SOL    HW122487   0.773   4.510   2.262  0.3135  0.3385 -0.4319
 3617SOL    HW222488   0.806   4.376   2.220  2.2319 -0.9172  0.9146
 3618SOL     OW22489   2.535   2.949   9.859 -0.3151  0.0270 -0.1762
 3618SOL    HW122490   2.568   3.014   9.921  0.4649 -0.4057 -0.1356
 3618SOL    HW222491   2.451   2.927   9.899 -0.8146  1.7849 -0.2516
 3619SOL     OW22492   4.685   1.227   9.185 -0.1460 -0.3386 -0.6225
 3619SOL    HW122493   4.689   1.253   9.277  1.0009  0.0403 -0.7694
 3619SOL    HW222494   4.708   1.312   9.146 -0.0654 -0.3462 -0.5913
 3620SOL     OW22495   4.240   2.073   4.074  0.6362  0.2816  0.0617
 3620SOL    HW122496   4.179   2.000   4.063  1.9248 -0.8704  0.5657
 3620SOL    HW222497   4.250   2.109   3.985 -0.8988 -0.1115 -0.2673
 3621SOL     OW22498   2.686   3.134   8.756 -0.2915  0.2306  0.7532
 3621SOL    HW122499   2.637   3.053   8.740  0.1653  0.4795 -1.8595
 3621SOL    HW222500   2.744   3.103   8.826  1.3617 -0.4787 -0.9309
 3622SOL     OW22501   3.863   0.239  17.687 -0.0776 -0.2777 -0.0587
 3622SOL    HW122502   3.892   0.235  17.596 -2.3518 -2.5399 -0.6466
 3622SOL    HW222503   3.770   0.226  17.674 -0.1737 -0.9895  1.3032
 3623SOL     OW22504   1.880   4.681   0.557  0.2419  0.4901  0.8422
 3623SOL    HW122505   1.912   4.720   0.475 -0.5045 -1.2759 -0.2896
 3623SOL    HW222506   1.908   4.590   0.568  1.3654  0.8486  0.9857
 3624SOL     OW22507   2.060   0.206   4.417 -0.1841  0.2105 -0.5081
 3624SOL    HW122508   2.125   0.136   4.415  1.9169  2.0925  1.8205
 3624SOL    HW222509   1.995   0.171   4.356  0.1074 -0.0414 -0.6735
 3625SOL     OW22510   2.381   4.175   4.589  0.2444  0.0565 -0.6147
 3625SOL    HW122511   2.422   4.225   4.660 -0.2976 -1.2915  0.6293
 3625SOL    HW222512   2.427   4.092   4.595 -0.6494 -0.3273  0.8490
 3626SOL     OW22513   4.248   2.570  13.456  0.3124  0.7088  0.2010
 3626SOL    HW122514   4.266   2.635  13.524 -2.6449 -0.9889  2.5844
 3626SOL    HW222515   4.276   2.489  13.500  0.0375  1.8886  2.5564
 3627SOL     OW22516   4.631   3.969   1.928  0.5420  0.5033  0.5080
 3627SOL    HW122517   4.677   4.052   1.938 -0.9593  1.5050 -0.7454
 3627SOL    HW222518   4.701   3.906   1.940 -0.0219 -0.0723  0.7735
 3628SOL     OW22519   3.960   0.248  12.608 -0.0275 -0.5160  0.2616
 3628SOL    HW122520   4.048   0.211  12.608  1.0751  2.0733 -0.4698
 3628SOL    HW222521   3.984   0.331  12.650  0.9634 -0.8731  0.3754
 3629SOL     OW22522   1.267   1.190   6.163 -0.6302 -0.2568 -0.8881
 3629SOL    HW122523   1.329   1.117   6.169  2.2292  2.2122 -0.6362
 3629SOL    HW222524   1.179   1.156   6.180 -1.2867  1.2124 -1.3841
 3630SOL     OW22525   0.554   3.186   7.519  0.5574 -0.6164  0.2781
 3630SOL    HW122526   0.619   3.117   7.535 -0.1981 -1.3670  0.1145
 3630SOL    HW222527   0.559   3.217   7.609  3.2356  0.4068 -0.2039
 3631SOL     OW22528   0.211   2.783   4.830 -0.3111 -0.0383 -0.2098
 3631SOL    HW122529   0.295   2.753   4.794 -0.5044 -1.9395  0.9655
 3631SOL    HW222530   0.162   2.704   4.848  0.6245 -0.4192  0.6605
 3632SOL     OW22531   4.582   1.113   5.013 -0.2270  0.2190 -0.2770
 3632SOL    HW122532   4.499   1.115   4.964 -1.3345 -0.9500  1.5375
 3632SOL    HW222533   4.570   1.061   5.092 -1.5807  1.1280  0.1320
 3633SOL     OW22534   2.842   1.468  16.524  0.0801  1.1133  0.4221
 3633SOL    HW122535   2.872   1.559  16.532  0.5379  1.1006 -1.1617
 3633SOL    HW222536   2.747   1.478  16.532 -0.3447 -3.3052  1.0017
 3634SOL     OW22537   4.404   0.484   4.697  0.0440 -0.1113  0.0822
 3634SOL    HW122538   4.364   0.485   4.610 -1.7732 -0.1994  0.9268
 3634SOL    HW222539   4.447   0.399   4.701  0.3337  0.0110 -0.4060
 3635SOL     OW22540   0.772   0.698   2.606  0.0330  0.3614 -0.5669
 3635SOL    HW122541   0.842   0.762   2.617  2.1118 -1.6101 -2.4443
 3635SOL    HW222542   0.796   0.640   2.678  1.0126 -1.2537 -2.1813
 3636SOL     OW22543   2.232   4.599  14.334  0.4281 -0.3150  0.2072
 3636SOL    HW122544   2.200   4.509  14.328 -1.5331  0.5038 -2.0751
 3636SOL    HW222545   2.152   4.638  14.299 -0.3593 -0.6261  1.6705
 3637SOL     OW22546   3.413   4.684   6.824 -0.4112 -0.2517 -0.0836
 3637SOL    HW122547   3.482   4.627   6.858 -0.0063  1.8517  2.5453
 3637SOL    HW222548   3.459   0.024   6.790 -2.6390  1.5668  0.9601
 3638SOL     OW22549   2.537   3.133   2.428  0.1833  0.0984  0.1215
 3638SOL    HW122550   2.523   3.226   2.446  0.8724 -0.0271  1.3042
 3638SOL    HW222551   2.502   3.124   2.339 -0.4973 -3.6697  0.7717
 3639SOL     OW22552   4.455   2.855  10.645  0.4468  0.4042  1.1634
 3639SOL    HW122553   4.437   2.887  10.733 -1.5338  0.0192  0.9081
 3639SOL    HW222554   4.432   2.933  10.595 -0.8938  0.0206  1.1905
 3640SOL     OW22555   0.129   3.063   4.338  0.3900 -0.0332 -0.0563
 3640SOL    HW122556   0.111   3.011   4.416 -0.2196 -0.4747 -0.4882
 3640SOL    HW222557   0.210   3.106   4.365  1.1159 -1.2411 -0.2968
 3641SOL     OW22558   0.369   0.714   2.934 -0.1830 -0.6874 -0.3425
 3641SOL    HW122559   0.459   0.726   2.964 -1.0719  1.9581  1.2422
 3641SOL    HW222560   0.333   0.684   3.017  1.9025 -3.7028 -0.5074
 3642SOL     OW22561   0.359   4.173   5.483 -0.3473 -0.1665 -0.2584
 3642SOL    HW122562   0.362   4.155   5.577  1.5881 -1.2648 -0.5269
 3642SOL    HW222563   0.324   4.262   5.490  3.5532  1.3490  0.0342
 3643SOL     OW22564   1.837   0.574   2.646 -0.0866  0.2988  0.4703
 3643SOL    HW122565   1.792   0.641   2.698 -0.8865  0.3757 -0.3416
 3643SOL    HW222566   1.873   0.620   2.570 -2.4277 -0.1873 -0.9275
 3644SOL     OW22567   1.284   3.073  12.286 -0.4020  0.3057  0.3888
 3644SOL    HW122568   1.258   3.116  12.205  0.3252 -1.9191 -1.0371
 3644SOL    HW222569   1.212   3.088  12.348 -1.8201 -0.2153 -1.1497
 3645SOL     OW22570   3.872   4.036  13.996 -0.2448 -0.5323  0.4667
 3645SOL    HW122571   3.806   4.017  13.930 -0.7578  0.4855  0.6829
 3645SOL    HW222572   3.854   4.130  14.004 -1.8451 -0.6966 -1.2101
 3646SOL     OW22573   4.487   4.535   0.626  0.4320 -0.0249 -0.4616
 3646SOL    HW122574   4.507   4.467   0.689 -1.7553  1.6954  2.0937
 3646SOL    HW222575   4.561   4.524   0.566  1.9913 -0.7894  1.6315
 3647SOL     OW22576   4.150   4.540  17.305  0.1596 -0.2289 -0.5480
 3647SOL    HW122577   4.175   4.630  17.285  3.5127 -1.1777 -0.5995
 3647SOL    HW222578   4.063   4.554  17.343 -0.4223 -1.2229 -1.5159
 3648SOL     OW22579   1.038   0.460   8.384 -0.3532  0.0919 -0.1802
 3648SOL    HW122580   1.057   0.525   8.317  0.5454 -0.4069 -0.4065
 3648SOL    HW222581   1.057   0.373   8.348  1.2693  0.4888 -0.2472
 3649SOL     OW22582   0.740   4.121   6.151  0.1636  0.1611 -0.3104
 3649SOL    HW122583   0.761   4.200   6.200  1.7124  0.2434 -1.0995
 3649SOL    HW222584   0.818   4.107   6.098  0.5043 -0.6519  0.4064
 3650SOL     OW22585   4.560   4.541  11.327 -0.0198  0.0551  0.6462
 3650SOL    HW122586   4.590   4.625  11.292  1.6577 -1.0621 -0.6150
 3650SOL    HW222587   4.522   4.572  11.409 -0.0961  0.8264  0.3176
 3651SOL     OW22588   4.135   0.311  14.740 -0.2191 -0.1709  0.3822
 3651SOL    HW122589   4.063   0.319  14.802 -0.4543 -2.1209  0.3667
 3651SOL    HW222590   4.094   0.266  14.666  0.0174 -1.1217  0.8247
 3652SOL     OW22591   0.920   0.272   2.652 -0.0846  0.5649  0.0943
 3652SOL    HW122592   1.015   0.268   2.639 -0.1584 -0.3907 -0.1429
 3652SOL    HW222593   0.919   0.359   2.693  2.8490  0.2587  0.8460
 3653SOL     OW22594   0.103   2.468   3.347  0.2212  0.3824  0.3876
 3653SOL    HW122595   0.149   2.526   3.408 -3.5956  1.8719  1.8377
 3653SOL    HW222596   0.020   2.466   3.395  1.0916  0.4835  1.9008
 3654SOL     OW22597   4.708   3.737  17.303 -0.2257 -0.4769 -0.4999
 3654SOL    HW122598   4.729   3.656  17.257  2.1913 -2.0384  3.3636
 3654SOL    HW222599   0.011   3.722  17.390  0.0204  0.7167 -0.3957
 3655SOL     OW22600   1.812   4.182   0.045 -0.3066  0.4152  0.1617
 3655SOL    HW122601   1.761   4.187  17.707  2.2451  2.5190 -1.3216
 3655SOL    HW222602   1.864   4.262   0.035  0.0364  0.2634  0.6726
 3656SOL     OW22603   1.064   4.236  15.597 -0.4034  0.0120  0.1039
 3656SOL    HW122604   1.074   4.303  15.665  1.0794  1.4020 -1.4800
 3656SOL    HW222605   0.968   4.229  15.591 -0.3636 -0.6098  0.2606
 3657SOL     OW22606   0.985   1.102  10.357 -0.1186  0.1846 -0.2718
 3657SOL    HW122607   0.964   1.186  10.315 -0.9329  0.3431  0.4446
 3657SOL    HW222608   1.014   1.130  10.444 -0.7477  2.1164 -0.6773
 3658SOL     OW22609   2.405   2.430   7.951  0.0031 -0.1634 -0.0665
 3658SOL    HW122610   2.316   2.462   7.940  0.3856  0.3059 -1.7009
 3658SOL    HW222611   2.389   2.359   8.013  1.9130  0.2686  0.9131
 3659SOL     OW22612   1.402   3.135   6.297 -0.1994 -0.2327 -0.3746
 3659SOL    HW122613   1.448   3.194   6.236 -1.2083 -1.9009 -2.7237
 3659SOL    HW222614   1.375   3.196   6.365  0.3449 -1.0858  0.5914
 3660SOL     OW22615   1.218   3.612   8.478  0.1234  0.2422 -0.4008
 3660SOL    HW122616   1.298   3.587   8.525 -0.9632 -0.6192  0.9668
 3660SOL    HW222617   1.182   3.523   8.481 -1.0749  0.8093  1.4755
 3661SOL     OW22618   2.390   2.088   2.860 -0.0565  0.4123  0.1046
 3661SOL    HW122619   2.312   2.139   2.882  1.1011  1.5131  1.6727
 3661SOL    HW222620   2.358   2.063   2.773 -1.8418  2.0229  0.3098
 3662SOL     OW22621   0.483   0.154   1.024 -0.3088 -0.2591  0.3663
 3662SOL    HW122622   0.519   0.167   0.937 -1.3331  1.0742  0.1289
 3662SOL    HW222623   0.566   0.155   1.072 -1.8326  1.1215  2.9702
 3663SOL     OW22624   4.417   1.675   3.501 -0.5415  0.4523 -0.0020
 3663SOL    HW122625   4.458   1.598   3.538 -0.3123 -0.0366 -1.2738
 3663SOL    HW222626   4.431   1.660   3.407 -0.6001  0.2623  0.0198
 3664SOL     OW22627   3.149   1.141  10.842  0.1060  0.7805  0.3080
 3664SOL    HW122628   3.124   1.067  10.787  0.0244  0.2956  0.9897
 3664SOL    HW222629   3.118   1.214  10.789 -2.3698  0.4896  1.3781
 3665SOL     OW22630   4.473   2.217   5.552 -0.6730  0.3027 -0.3052
 3665SOL    HW122631   4.495   2.259   5.468 -0.2383  0.8259  0.0716
 3665SOL    HW222632   4.381   2.190   5.544 -1.0096  0.6426  2.6239
 3666SOL     OW22633   4.448   2.697   5.226 -0.4978 -0.5172 -0.0337
 3666SOL    HW122634   4.454   2.792   5.239  0.2930 -0.4922 -0.5615
 3666SOL    HW222635   4.359   2.680   5.257 -0.6965  0.1419 -0.2404
 3667SOL     OW22636   1.980   4.429   0.913 -0.1426  0.2462  0.5405
 3667SOL    HW122637   1.931   4.507   0.939 -0.7781  0.1182 -0.2818
 3667SOL    HW222638   2.041   4.465   0.849  0.6522  0.5370  1.4534
 3668SOL     OW22639   1.265   0.133   7.469 -0.5913 -0.2907  0.0037
 3668SOL    HW122640   1.238   0.074   7.540 -0.9972  0.0217  0.1129
 3668SOL    HW222641   1.226   0.087   7.396  0.8809 -0.6709 -0.5345
 3669SOL     OW22642   2.964   2.268   8.368 -1.2515 -0.0637  0.0673
 3669SOL    HW122643   2.881   2.316   8.378  0.5862  3.1792 -0.2040
 3669SOL    HW222644   2.930   2.183   8.341 -1.6409  0.2743 -0.5133
 3670SOL     OW22645   1.374   1.594   6.922  0.0112 -0.3846  0.9389
 3670SOL    HW122646   1.305   1.553   6.974  0.2320 -2.0628 -0.0843
 3670SOL    HW222647   1.441   1.591   6.990 -0.4730 -0.8460  1.3941
 3671SOL     OW22648   1.659   0.542   5.544 -0.0520 -0.1803 -0.4817
 3671SOL    HW122649   1.639   0.594   5.622 -0.4408 -1.4731  0.2797
 3671SOL    HW222650   1.603   0.466   5.560 -0.2746  0.0479 -0.1593
 3672SOL     OW22651   2.105   2.168   9.113  0.1439  0.0679  0.2464
 3672SOL    HW122652   2.174   2.191   9.174 -0.0234 -1.2603  0.9430
 3672SOL    HW222653   2.049   2.246   9.112  2.4260  1.6654 -4.0375
 3673SOL     OW22654   2.973   2.482   3.416 -0.0140 -0.0963 -0.0572
 3673SOL    HW122655   2.984   2.488   3.511  0.8409 -0.8362 -0.1148
 3673SOL    HW222656   2.962   2.387   3.410 -1.4745  0.0266  0.5425
 3674SOL     OW22657   2.769   4.316   9.002 -0.2302 -0.1398  0.4799
 3674SOL    HW122658   2.758   4.335   8.909  0.5382 -1.5563  0.1024
 3674SOL    HW222659   2.853   4.352   9.030  0.2779 -1.8117  1.1214
 3675SOL     OW22660   3.224   2.837   7.591  0.2366  0.2270 -0.6112
 3675SOL    HW122661   3.216   2.905   7.658  4.4957  1.0210 -0.9072
 3675SOL    HW222662   3.319   2.841   7.582  0.2917  1.1524  0.3523
 3676SOL     OW22663   4.165   0.489   5.358  0.3480  0.3329 -0.7627
 3676SOL    HW122664   4.139   0.549   5.288  0.8212  0.4034 -0.8758
 3676SOL    HW222665   4.160   0.556   5.426 -2.1098 -1.3819  0.7618
 3677SOL     OW22666   1.796   1.898   2.860 -0.2306  0.2846 -0.0789
 3677SOL    HW122667   1.848   1.863   2.932 -2.1543  0.5192  1.4135
 3677SOL    HW222668   1.854   1.973   2.842  0.6493 -0.3798  0.0101
 3678SOL     OW22669   0.298   3.098   5.075  0.0758 -0.4811 -0.0475
 3678SOL    HW122670   0.259   3.178   5.111 -2.0892 -0.6305 -2.0801
 3678SOL    HW222671   0.337   3.131   4.995 -2.3741  2.9270  0.1628
 3679SOL     OW22672   1.203   4.196   2.314  0.1043  0.2971 -0.3243
 3679SOL    HW122673   1.172   4.113   2.279 -2.1055  0.1486  1.9741
 3679SOL    HW222674   1.226   4.168   2.402 -1.1267  3.6568  1.0785
 3680SOL     OW22675   0.455   0.807   3.957 -0.0659  0.0873 -0.2099
 3680SOL    HW122676   0.449   0.713   3.972 -1.3806  0.1744 -0.1725
 3680SOL    HW222677   0.472   0.843   4.044 -1.2287  0.0793  0.0166
 3681SOL     OW22678   0.586   1.095  12.987 -0.1469  0.3672  0.0501
 3681SOL    HW122679   0.676   1.064  12.979  0.1664  1.6715 -1.4956
 3681SOL    HW222680   0.596   1.159  12.917 -2.4555  0.6187 -0.0288
 3682SOL     OW22681   2.264   1.554   2.692  1.0574  0.2562  0.2175
 3682SOL    HW122682   2.188   1.497   2.678  1.8549 -0.6607 -0.3804
 3682SOL    HW222683   2.336   1.493   2.706  0.4846  0.0365  2.3647
 3683SOL     OW22684   3.965   3.438  16.671  0.1476 -0.3668 -0.3803
 3683SOL    HW122685   4.043   3.474  16.713 -0.4940 -1.5920  1.8763
 3683SOL    HW222686   3.917   3.521  16.663  1.2647  0.2996 -0.1568
 3684SOL     OW22687   2.812   2.444   0.954 -0.5872  0.2374  0.2291
 3684SOL    HW122688   2.897   2.487   0.941 -0.5488  1.0821  3.5081
 3684SOL    HW222689   2.767   2.508   1.008  1.3208  1.1362  0.7756
 3685SOL     OW22690   1.638   4.599   3.826  0.1741  0.2681  0.1830
 3685SOL    HW122691   1.691   4.603   3.747 -1.9521 -0.2520 -1.2632
 3685SOL    HW222692   1.681   4.537   3.885  0.3664 -0.1191 -0.3724
 3686SOL     OW22693   0.899   1.697   2.602 -0.0374  0.4052 -0.3232
 3686SOL    HW122694   0.992   1.680   2.591 -0.1591  1.3206 -2.9481
 3686SOL    HW222695   0.886   1.677   2.694  2.3323  2.5972  0.4847
 3687SOL     OW22696   1.231   0.518   7.043 -0.0976  0.2290  0.5049
 3687SOL    HW122697   1.224   0.539   6.950  0.1383  1.3001  0.7294
 3687SOL    HW222698   1.142   0.537   7.071 -0.2340  0.5794 -0.1651
 3688SOL     OW22699   3.131   0.529   9.931 -0.4284  0.1067 -0.5509
 3688SOL    HW122700   3.071   0.547  10.003 -0.0227  0.2050 -0.2364
 3688SOL    HW222701   3.195   0.476   9.979  0.3319  1.3157 -0.2407
 3689SOL     OW22702   0.095   4.362   3.626 -0.3056  0.5526 -0.1272
 3689SOL    HW122703   0.156   4.423   3.583 -2.2757  0.4026 -3.1140
 3689SOL    HW222704   0.047   4.414   3.690 -1.6501  2.0230 -2.3445
 3690SOL     OW22705   2.196   2.621   3.825 -0.4458 -0.1467  0.2353
 3690SOL    HW122706   2.121   2.651   3.876 -0.8112  0.3841 -0.6048
 3690SOL    HW222707   2.193   2.528   3.847 -0.0252 -0.2866 -0.2772
 3691SOL     OW22708   3.334   2.681   0.295  0.2139  0.2132 -0.2712
 3691SOL    HW122709   3.417   2.680   0.247  0.5952  1.3031  0.3687
 3691SOL    HW222710   3.371   2.728   0.370 -2.2817  0.2491  0.9283
 3692SOL     OW22711   1.723   1.756  14.210 -0.2604 -0.1836 -0.0461
 3692SOL    HW122712   1.661   1.691  14.178 -0.9668  0.9658 -1.0086
 3692SOL    HW222713   1.677   1.785  14.289 -0.8800  1.5060 -1.0285
 3693SOL     OW22714   2.407   3.461   5.673  0.5207 -0.0943 -0.0175
 3693SOL    HW122715   2.426   3.532   5.612  3.0303 -1.1650 -0.4472
 3693SOL    HW222716   2.341   3.420   5.617 -0.7307  2.3846 -0.3529
 3694SOL     OW22717   0.903   4.378   3.754 -0.2890  0.2092  0.3917
 3694SOL    HW122718   0.904   4.439   3.828 -0.2526  1.1249 -0.3613
 3694SOL    HW222719   0.970   4.420   3.700  0.3096 -0.1175  0.8796
 3695SOL     OW22720   1.229   1.963   9.365  0.4068  0.2401  0.2328
 3695SOL    HW122721   1.251   2.013   9.444  1.1527 -1.3307  1.0303
 3695SOL    HW222722   1.135   1.951   9.375  0.5438 -1.5596 -0.6414
 3696SOL     OW22723   3.667   1.204   0.608 -0.0260  0.0840  0.1237
 3696SOL    HW122724   3.672   1.256   0.689 -0.2109 -0.5540  0.5446
 3696SOL    HW222725   3.595   1.248   0.562 -0.1117 -0.4526 -0.2436
 3697SOL     OW22726   3.120   3.018   1.171  0.7807  0.4540 -0.4522
 3697SOL    HW122727   3.099   3.062   1.253 -0.0984 -1.1770  0.1833
 3697SOL    HW222728   3.214   3.037   1.161  0.5930  0.9206 -1.2920
 3698SOL     OW22729   2.758   4.403  16.355  0.3361  0.4797  0.1221
 3698SOL    HW122730   2.766   4.349  16.276 -0.2781  1.4812 -0.6287
 3698SOL    HW222731   2.813   4.477  16.330  1.1338 -0.7450 -1.8104
 3699SOL     OW22732   0.512   2.425   2.461 -0.0345  0.9123 -0.0485
 3699SOL    HW122733   0.559   2.389   2.536  1.0567  2.1465 -0.1625
 3699SOL    HW222734   0.515   2.514   2.494 -2.9836  2.1500 -3.0629
 3700SOL     OW22735   0.686   1.862  10.668  0.8546  0.9576  0.1126
 3700SOL    HW122736   0.667   1.790  10.609  2.2684  1.0458 -0.4691
 3700SOL    HW222737   0.708   1.813  10.747 -0.7512 -0.0136 -0.0577
 3701SOL     OW22738   4.237   1.133  13.067  0.1327  0.0354 -0.0986
 3701SOL    HW122739   4.178   1.098  13.133 -0.5782  3.6873  1.1963
 3701SOL    HW222740   4.313   1.078  13.087 -1.1059 -2.0234 -0.9972
 3702SOL     OW22741   0.273   4.284  16.462 -0.1343  0.2462 -0.0944
 3702SOL    HW122742   0.302   4.193  16.466 -2.9566 -0.5329  2.9534
 3702SOL    HW222743   0.207   4.277  16.531  0.1455 -1.8522 -0.0309
 3703SOL     OW22744   4.256   0.154  12.213  0.2223 -0.0997  0.3711
 3703SOL    HW122745   4.175   0.204  12.206  1.6105  2.0299 -0.4966
 3703SOL    HW222746   4.305   0.212  12.271  0.2774 -1.6532  1.8998
 3704SOL     OW22747   2.271   1.064   3.541  0.2385  0.1178 -0.7976
 3704SOL    HW122748   2.347   1.055   3.483 -1.3777 -1.3367 -2.7099
 3704SOL    HW222749   2.310   1.117   3.610 -1.1170  1.5306 -1.1252
 3705SOL     OW22750   2.266   2.426   2.225 -0.0746  0.4268 -0.7974
 3705SOL    HW122751   2.336   2.485   2.197 -0.6234 -0.4368 -3.9303
 3705SOL    HW222752   2.263   2.456   2.316  1.0726  1.0795 -0.9755
 3706SOL     OW22753   3.284   1.657  10.816  0.2967  0.5026  0.1686
 3706SOL    HW122754   3.245   1.742  10.838 -2.1681 -0.4345 -0.5488
 3706SOL    HW222755   3.256   1.649  10.725 -0.0832  1.7310  0.1707
 3707SOL     OW22756   1.818   1.460  13.870  0.3675 -0.4492  0.4908
 3707SOL    HW122757   1.833   1.519  13.943  1.0175 -2.1265  1.7308
 3707SOL    HW222758   1.844   1.513  13.795  1.5520 -1.6843  0.0221
 3708SOL     OW22759   2.570   2.886   5.280 -0.2852  0.5031 -0.5575
 3708SOL    HW122760   2.609   2.960   5.327 -0.5322 -0.3981  1.0637
 3708SOL    HW222761   2.643   2.872   5.219  2.5087 -0.1288  2.9625
 3709SOL     OW22762   0.979   2.247   7.662 -0.1114 -0.3622  0.5420
 3709SOL    HW122763   0.886   2.265   7.658 -0.1765 -0.8732 -0.2788
 3709SOL    HW222764   0.995   2.211   7.575  0.2089 -2.6989  1.5566
 3710SOL     OW22765   0.697   0.724   1.945 -0.8595 -0.0985  0.3743
 3710SOL    HW122766   0.754   0.740   1.870 -0.7814 -0.3341  0.3847
 3710SOL    HW222767   0.730   0.802   1.991 -0.4809  0.6969 -1.2378
 3711SOL     OW22768   3.725   2.740  12.654  0.0547  0.0811  0.1190
 3711SOL    HW122769   3.685   2.653  12.656  1.0950 -0.3997  0.0902
 3711SOL    HW222770   3.804   2.734  12.600 -0.2983  2.6035 -0.6547
 3712SOL     OW22771   4.452   3.334  10.804  0.0088  0.3106 -0.0728
 3712SOL    HW122772   4.447   3.248  10.761  0.3241 -0.7374  1.9856
 3712SOL    HW222773   4.542   3.339  10.837  0.6414 -1.1244 -1.5297
 3713SOL     OW22774   4.100   0.603   9.862  0.0412  0.1814  0.5711
 3713SOL    HW122775   4.094   0.534   9.928  2.4402 -1.0896 -0.5342
 3713SOL    HW222776   4.026   0.658   9.888  0.7905  1.4057  0.1330
 3714SOL     OW22777   0.037   0.236   1.794  0.2743 -0.1583  0.1296
 3714SOL    HW122778   0.059   0.180   1.719  2.0684 -1.1993  1.4252
 3714SOL    HW222779   0.104   0.304   1.793  1.9539 -1.8062  0.3316
 3715SOL     OW22780   0.640   3.722   1.950  0.5318  0.2345  0.1446
 3715SOL    HW122781   0.556   3.746   1.988 -2.1563 -1.8948 -4.4462
 3715SOL    HW222782   0.631   3.735   1.856 -0.4135  0.7357  0.3070
 3716SOL     OW22783   2.613   1.260   7.671  0.2887  0.0702 -0.3691
 3716SOL    HW122784   2.524   1.232   7.695  0.5754 -0.5860 -0.0547
 3716SOL    HW222785   2.595   1.252   7.578 -2.0541  2.4233 -0.1185
 3717SOL     OW22786   2.155   0.696   3.730 -0.0079  0.0608  0.1625
 3717SOL    HW122787   2.112   0.743   3.657 -0.8990 -0.2503  0.4834
 3717SOL    HW222788   2.091   0.707   3.800  0.1287 -2.6281  0.7140
 3718SOL     OW22789   0.265   1.743   6.661 -0.1326  0.2107 -0.4063
 3718SOL    HW122790   0.352   1.773   6.684  0.2761 -1.9135  0.8415
 3718SOL    HW222791   0.274   1.732   6.566  1.7125 -0.7127 -0.1236
 3719SOL     OW22792   1.053   3.804   2.589  0.4762  0.6280 -0.6435
 3719SOL    HW122793   1.116   3.800   2.518 -1.3342 -1.7532 -2.1186
 3719SOL    HW222794   1.079   3.882   2.638 -2.7580  0.5865  1.1489
 3720SOL     OW22795   0.147   0.957   2.803  0.1769 -0.6507  0.0801
 3720SOL    HW122796   0.157   0.936   2.711  0.3742 -0.5270  0.0731
 3720SOL    HW222797   0.126   0.869   2.832  1.5399 -0.7551  0.8003
 3721SOL     OW22798   1.241   4.686   3.705 -0.2716 -0.3500 -0.0788
 3721SOL    HW122799   1.208   4.712   3.791  1.0331 -0.4270  0.4502
 3721SOL    HW222800   1.244   0.034   3.659 -0.4492 -0.9146 -1.1115
 3722SOL     OW22801   2.578   2.653  16.298 -0.2958 -0.1041  0.2225
 3722SOL    HW122802   2.558   2.600  16.221  0.0394 -0.5078  0.4113
 3722SOL    HW222803   2.548   2.600  16.373  0.6896  0.1740  0.8178
 3723SOL     OW22804   1.019   0.010   4.855  0.1695 -1.0543  0.5012
 3723SOL    HW122805   0.956   4.717   4.789 -0.5722 -1.0014  1.1800
 3723SOL    HW222806   0.977   0.092   4.883 -1.6881 -2.3717  1.5570
 3724SOL     OW22807   3.123   4.063  10.054  0.1513 -0.3231  0.3353
 3724SOL    HW122808   3.189   4.100  10.113 -0.7743  4.2827 -1.4921
 3724SOL    HW222809   3.052   4.125  10.072  2.4741  1.9966  1.4030
 3725SOL     OW22810   2.053   1.169  11.950  0.1289 -0.0363  0.0842
 3725SOL    HW122811   2.046   1.260  11.978  0.9142 -0.2709  1.0488
 3725SOL    HW222812   2.004   1.165  11.868  0.1475 -3.8321  0.2645
 3726SOL     OW22813   1.437   4.711   1.623 -0.8477 -0.1172 -0.2085
 3726SOL    HW122814   1.408   4.621   1.637 -1.0243 -0.1064 -0.5051
 3726SOL    HW222815   1.359   0.025   1.596 -0.9769  0.2259  0.8111
 3727SOL     OW22816   0.664   1.172  16.586  0.0796  0.0970  0.1794
 3727SOL    HW122817   0.572   1.154  16.604 -0.2524  0.4564 -1.1888
 3727SOL    HW222818   0.671   1.130  16.500  0.0751 -0.4025  0.4181
 3728SOL     OW22819   3.511   3.459   2.770 -0.1181 -0.5009  0.0571
 3728SOL    HW122820   3.579   3.422   2.825 -0.6007 -0.0017  0.9851
 3728SOL    HW222821   3.522   3.399   2.696  1.7697 -0.9663  0.7324
 3729SOL     OW22822   2.437   0.318   2.786  0.2686  0.7986  0.1695
 3729SOL    HW122823   2.443   0.237   2.737  0.0792  0.1463  1.2276
 3729SOL    HW222824   2.403   0.292   2.872 -0.8455 -0.2379 -0.5816
 3730SOL     OW22825   2.028   4.409   8.097  0.0211 -0.4193  0.4380
 3730SOL    HW122826   1.995   4.326   8.064 -1.1093 -0.4772  1.7108
 3730SOL    HW222827   2.118   4.388   8.122 -0.2451  0.4968  2.2013
 3731SOL     OW22828   2.882   1.856   4.413 -0.3572  0.1075  0.4409
 3731SOL    HW122829   2.877   1.796   4.338  0.2844  1.9032 -1.0602
 3731SOL    HW222830   2.974   1.870   4.432 -0.2825 -1.0562  0.8640
 3732SOL     OW22831   4.260   0.619  17.430 -0.0364  0.7136 -0.0093
 3732SOL    HW122832   4.254   0.656  17.342  1.5131 -0.4667 -0.6273
 3732SOL    HW222833   4.327   0.552  17.415 -0.2771  0.3498  0.5941
 3733SOL     OW22834   0.109   1.731   9.013 -0.5632 -0.0724  0.0311
 3733SOL    HW122835   0.171   1.706   8.944 -1.8947  1.4864 -1.7332
 3733SOL    HW222836   0.067   1.807   8.972  0.5227  0.8628  0.6373
 3734SOL     OW22837   1.230   1.768   5.556  0.4069  0.2562 -0.0072
 3734SOL    HW122838   1.299   1.722   5.509 -1.4852 -1.1738 -1.4055
 3734SOL    HW222839   1.274   1.834   5.609 -0.3184  0.6856  0.0595
 3735SOL     OW22840   1.867   3.607   3.862 -0.0415  0.1379  0.3877
 3735SOL    HW122841   1.844   3.657   3.784 -2.0997 -1.4779 -0.0504
 3735SOL    HW222842   1.781   3.574   3.892  0.5911 -3.5320 -1.8837
 3736SOL     OW22843   4.679   0.940   1.141 -0.2667 -0.3923 -0.2462
 3736SOL    HW122844   4.632   0.978   1.215  1.3647 -1.0359  1.1108
 3736SOL    HW222845   4.603   0.921   1.085 -0.2686  0.3366 -0.4944
 3737SOL     OW22846   0.627   0.965   3.192 -0.4042 -0.2153  0.1083
 3737SOL    HW122847   0.555   1.023   3.217  0.0721  0.9468 -1.1902
 3737SOL    HW222848   0.703   1.018   3.217 -1.4644  0.4651  1.8358
 3738SOL     OW22849   2.932   2.645   8.895 -0.5455 -0.3498 -0.4983
 3738SOL    HW122850   2.910   2.734   8.924 -2.7750 -0.9950 -0.2140
 3738SOL    HW222851   3.006   2.666   8.839  2.1455 -1.7211  2.5898
 3739SOL     OW22852   2.396   1.841  16.112 -0.4863  0.0834 -0.2832
 3739SOL    HW122853   2.366   1.846  16.021  1.3248 -1.3561 -0.9555
 3739SOL    HW222854   2.471   1.900  16.110  1.2689 -2.1428 -0.7671
 3740SOL     OW22855   1.739   3.231   4.934 -0.1537 -0.1894  0.2606
 3740SOL    HW122856   1.775   3.171   4.999  1.5335 -0.0783 -0.5734
 3740SOL    HW222857   1.649   3.220   4.965 -0.6458 -0.8896 -1.3938
 3741SOL     OW22858   1.706   1.163   3.278 -0.4776 -0.1666  0.1228
 3741SOL    HW122859   1.699   1.075   3.243 -3.1989  0.0223  0.1602
 3741SOL    HW222860   1.695   1.210   3.195  1.8797  1.4604  0.7288
 3742SOL     OW22861   0.391   3.059  15.259 -0.1811 -0.4489 -0.0618
 3742SOL    HW122862   0.311   3.013  15.234 -1.8190  1.5854  1.3991
 3742SOL    HW222863   0.400   3.053  15.354  0.0562 -0.0619 -0.0578
 3743SOL     OW22864   0.723   1.815   6.868  0.6500  0.1011 -0.1709
 3743SOL    HW122865   0.764   1.793   6.784  1.8724 -0.3947  0.5615
 3743SOL    HW222866   0.698   1.728   6.899  1.1563  0.5737  1.5560
 3744SOL     OW22867   0.957   3.772   1.361  0.1744  0.5469 -0.1690
 3744SOL    HW122868   0.911   3.770   1.445  1.2482 -1.0185  0.3800
 3744SOL    HW222869   1.045   3.746   1.389  0.4892  0.2456 -1.4648
 3745SOL     OW22870   1.996   1.427  15.375 -0.3030  0.8460 -0.2191
 3745SOL    HW122871   2.028   1.397  15.291 -0.4395 -0.0230  0.0397
 3745SOL    HW222872   1.914   1.477  15.365 -0.4156  0.7970  0.4077
 3746SOL     OW22873   2.468   3.135   5.846  0.2703  0.2662  0.3042
 3746SOL    HW122874   2.418   3.158   5.768 -0.3753 -0.2405  0.5675
 3746SOL    HW222875   2.460   3.218   5.894 -1.2987  0.4579 -0.2990
 3747SOL     OW22876   1.890   1.341  10.459 -0.1915  0.7947  0.6620
 3747SOL    HW122877   1.882   1.345  10.555  1.5207  0.9530  0.7940
 3747SOL    HW222878   1.803   1.371  10.433  0.0252  0.3884 -0.5068
 3748SOL     OW22879   4.204   3.780   6.958  0.3112  0.3572 -0.0285
 3748SOL    HW122880   4.140   3.837   7.001 -0.0828 -1.0128  1.1996
 3748SOL    HW222881   4.250   3.830   6.890 -0.1048 -1.5718 -1.7092
 3749SOL     OW22882   0.480   1.659   7.608 -0.1509 -0.1546  0.2541
 3749SOL    HW122883   0.561   1.710   7.606  0.2679 -0.8591 -0.5532
 3749SOL    HW222884   0.447   1.679   7.696 -0.7712  0.4462 -0.1192
 3750SOL     OW22885   1.947   2.993   1.789  0.2942 -0.0271  0.6957
 3750SOL    HW122886   2.003   3.050   1.842 -1.4576 -0.7567  3.3221
 3750SOL    HW222887   1.959   2.904   1.820  1.7281  0.1233  0.5667
 3751SOL     OW22888   0.128   0.080  13.144 -0.3131  0.6098  0.2680
 3751SOL    HW122889   0.129   0.032  13.227  1.1384  1.6714  0.8726
 3751SOL    HW222890   0.222   0.093  13.135 -0.6410  2.4370 -0.5030
 3752SOL     OW22891   4.280   3.238   2.004 -0.0463  0.3802 -0.2122
 3752SOL    HW122892   4.324   3.212   2.085 -0.3097  0.9518  0.1223
 3752SOL    HW222893   4.355   3.259   1.948 -0.1925  3.5176  0.7244
 3753SOL     OW22894   2.548   4.070  16.152  0.2875  0.0397 -0.2851
 3753SOL    HW122895   2.624   4.053  16.096 -0.1901 -2.0132 -0.2855
 3753SOL    HW222896   2.586   4.083  16.238 -0.0412 -0.2210 -0.0994
 3754SOL     OW22897   1.501   2.070  13.790 -0.3595  0.7101  0.2077
 3754SOL    HW122898   1.541   1.995  13.835 -1.8992 -0.0592  0.3119
 3754SOL    HW222899   1.431   2.087  13.853 -0.5018 -0.9506  0.4984
 3755SOL     OW22900   4.340   0.200   7.731  0.3319 -0.0772  0.4682
 3755SOL    HW122901   4.359   0.107   7.739 -1.4595 -0.5715 -1.3344
 3755SOL    HW222902   4.341   0.209   7.636  0.9473  0.8551  0.5589
 3756SOL     OW22903   1.176   1.824   2.184 -0.0923  0.6814 -0.1898
 3756SOL    HW122904   1.148   1.884   2.253  0.2226 -0.3251  0.8060
 3756SOL    HW222905   1.270   1.820   2.204  0.3560  0.3959 -2.3727
 3757SOL     OW22906   1.844   1.805   9.153  0.6041  0.5873  0.0763
 3757SOL    HW122907   1.908   1.784   9.222 -0.7174 -1.5929  0.6263
 3757SOL    HW222908   1.892   1.874   9.107  1.4054 -0.3648 -0.5185
 3758SOL     OW22909   3.399   1.721   3.164  0.2118 -0.2209  0.1934
 3758SOL    HW122910   3.368   1.638   3.128  0.4860 -0.6526  0.9596
 3758SOL    HW222911   3.489   1.722   3.131 -0.7623  1.3698 -2.4233
 3759SOL     OW22912   4.057   3.632   5.932 -0.0087  0.5087  0.0979
 3759SOL    HW122913   4.064   3.664   5.842 -2.6503  1.3267  0.1838
 3759SOL    HW222914   4.143   3.589   5.933 -0.4295 -0.3245 -0.0138
 3760SOL     OW22915   0.861   0.056   6.024  0.2496  0.2435 -0.8008
 3760SOL    HW122916   0.852   0.067   6.119  0.6441 -0.8015 -0.6486
 3760SOL    HW222917   0.888   0.147   6.008  0.8868  0.4257  1.3244
 3761SOL     OW22918   1.244   1.520  12.482  0.2534  0.0211  0.2091
 3761SOL    HW122919   1.183   1.447  12.474 -1.8027  1.5940  1.5727
 3761SOL    HW222920   1.326   1.472  12.493  0.2681  0.1462  0.6598
 3762SOL     OW22921   3.860   3.704   5.253  0.2684  0.7294  0.1448
 3762SOL    HW122922   3.809   3.623   5.246 -1.7702  2.3748 -3.7406
 3762SOL    HW222923   3.923   3.698   5.181  1.1202 -2.6090  1.1571
 3763SOL     OW22924   3.346   3.863   0.563  0.0851 -0.4718 -0.2722
 3763SOL    HW122925   3.269   3.824   0.604 -0.3182  0.0281 -0.5575
 3763SOL    HW222926   3.291   3.920   0.510 -0.2994 -0.1767  0.4566
 3764SOL     OW22927   3.530   3.526   3.849 -0.2244 -0.0532 -0.0427
 3764SOL    HW122928   3.623   3.536   3.829 -0.2674 -0.0976 -0.2605
 3764SOL    HW222929   3.498   3.488   3.767  1.9967 -1.9007 -0.0641
 3765SOL     OW22930   2.928   0.236   9.250 -0.2877 -0.2421  0.5371
 3765SOL    HW122931   2.852   0.179   9.262 -1.3204  1.3269  1.4296
 3765SOL    HW222932   2.886   0.313   9.214 -1.5689 -1.5412 -0.7419
 3766SOL     OW22933   2.879   1.713  15.925 -0.3771  0.0713 -0.0570
 3766SOL    HW122934   2.933   1.788  15.902  0.8920 -0.6291  0.6635
 3766SOL    HW222935   2.801   1.723  15.870 -0.8753 -1.8073  0.2981
 3767SOL     OW22936   3.601   2.022  11.425  0.0281  0.3904 -0.0693
 3767SOL    HW122937   3.640   2.025  11.338 -0.5174 -3.9257 -0.4680
 3767SOL    HW222938   3.626   2.108  11.458  1.2387  0.1428 -0.3600
 3768SOL     OW22939   3.803   0.289   4.559 -0.2623 -0.2787  0.5560
 3768SOL    HW122940   3.864   0.362   4.550  1.4076 -2.0195 -2.1991
 3768SOL    HW222941   3.744   0.307   4.485  0.8253  1.4302  0.1093
 3769SOL     OW22942   4.417   1.988  11.200  0.3728 -0.2216  0.0400
 3769SOL    HW122943   4.492   2.042  11.180  0.0705  0.0387 -0.3807
 3769SOL    HW222944   4.345   2.045  11.172 -0.2728 -1.6788 -1.2956
 3770SOL     OW22945   3.588   1.845   8.676 -0.2375  0.1383 -0.2843
 3770SOL    HW122946   3.505   1.884   8.704  1.2203  1.7528  1.7685
 3770SOL    HW222947   3.641   1.922   8.656  0.3611  0.5083  2.6818
 3771SOL     OW22948   4.507   3.897  17.384 -0.5846 -0.4182  0.0928
 3771SOL    HW122949   4.565   3.823  17.364 -0.5831 -0.9057  1.8903
 3771SOL    HW222950   4.532   3.913  17.475  1.8129  0.9933 -0.8108
 3772SOL     OW22951   0.640   0.451   3.162 -0.5822  0.5035  0.4840
 3772SOL    HW122952   0.703   0.522   3.168 -0.2293  0.2681 -0.5495
 3772SOL    HW222953   0.631   0.434   3.068 -2.3696 -0.2160  0.7706
 3773SOL     OW22954   4.104   1.320   2.189 -0.0720 -0.2378  0.0237
 3773SOL    HW122955   4.079   1.384   2.122 -0.8836  0.1486  0.6934
 3773SOL    HW222956   4.142   1.253   2.132  1.1747  1.5264 -1.2404
 3774SOL     OW22957   2.843   3.728   0.598  0.0349  0.3733 -0.6114
 3774SOL    HW122958   2.921   3.673   0.587 -0.9637 -0.7921 -1.7987
 3774SOL    HW222959   2.832   3.752   0.506 -1.2768 -0.3785 -0.6410
 3775SOL     OW22960   3.448   1.842   6.268 -0.1365  0.1639 -0.0999
 3775SOL    HW122961   3.369   1.791   6.249  0.0109 -0.3789  0.7446
 3775SOL    HW222962   3.405   1.906   6.325 -0.4184  0.8196 -1.0454
 3776SOL     OW22963   0.934   4.365   7.562 -0.1786  0.6260  0.0281
 3776SOL    HW122964   0.902   4.369   7.472  2.2026  0.4301 -0.8287
 3776SOL    HW222965   0.848   4.390   7.595 -0.4221 -1.2208  0.8045
 3777SOL     OW22966   4.102   4.633  10.087 -0.0748 -0.2262 -0.3528
 3777SOL    HW122967   4.170   4.663  10.026 -1.3489  2.5673 -0.4175
 3777SOL    HW222968   4.148   4.638  10.171 -1.9374 -0.4977  0.6736
 3778SOL     OW22969   2.866   4.417   8.327 -0.3448 -0.0326 -0.2165
 3778SOL    HW122970   2.905   4.357   8.390  0.1906  1.4657  0.8750
 3778SOL    HW222971   2.773   4.395   8.332 -0.3412 -0.6508 -2.9431
 3779SOL     OW22972   1.565   1.448  11.947  0.5155 -0.3866 -0.0382
 3779SOL    HW122973   1.589   1.381  11.883  0.7315  0.5201 -0.9170
 3779SOL    HW222974   1.501   1.502  11.900  0.3985 -0.0617  0.5008
 3780SOL     OW22975   1.444   3.990   2.836  0.2555 -0.0923  0.4557
 3780SOL    HW122976   1.523   3.961   2.791 -0.2136  0.4293 -0.7067
 3780SOL    HW222977   1.434   4.078   2.800 -3.4708 -1.2022 -1.1890
 3781SOL     OW22978   0.891   0.009   5.374  0.2095  0.3680 -0.4771
 3781SOL    HW122979   0.834   4.670   5.384  1.5969 -0.7777 -1.1893
 3781SOL    HW222980   0.965   4.696   5.411  0.8208  1.1851 -0.5889
 3782SOL     OW22981   0.774   0.937   2.918 -0.3767 -0.1564 -0.0497
 3782SOL    HW122982   0.814   1.004   2.975 -1.3829  1.3957 -1.1749
 3782SOL    HW222983   0.785   0.975   2.831 -1.0476 -1.0541 -0.5167
 3783SOL     OW22984   0.748   3.718  16.372 -1.0561 -0.2158  0.0246
 3783SOL    HW122985   0.657   3.691  16.381 -1.9481  1.2848 -5.1027
 3783SOL    HW222986   0.761   3.809  16.398  1.2236 -0.5487  0.0896
 3784SOL     OW22987   3.283   3.648  17.506  0.1798 -0.3975 -0.1232
 3784SOL    HW122988   3.295   3.572  17.449  0.1557 -0.7217  0.3085
 3784SOL    HW222989   3.190   3.654  17.527 -0.6342 -2.0350 -3.2564
 3785SOL     OW22990   3.505   0.873   3.678 -0.5587 -0.2665  0.1626
 3785SOL    HW122991   3.580   0.830   3.718 -0.9050  0.0085  1.1143
 3785SOL    HW222992   3.461   0.892   3.761  0.4684  0.2473  0.5807
 3786SOL     OW22993   1.474   1.089   3.435 -0.0176  0.0864  0.3863
 3786SOL    HW122994   1.502   1.005   3.471  0.0656 -0.8867 -1.9205
 3786SOL    HW222995   1.559   1.128   3.418  0.1086 -1.0664 -1.6586
 3787SOL     OW22996   2.303   4.299   2.908 -0.0231 -0.8417 -0.2687
 3787SOL    HW122997   2.259   4.235   2.852 -1.4915 -1.1587  1.2353
 3787SOL    HW222998   2.394   4.269   2.918  0.3860  0.1218 -1.1281
 3788SOL     OW22999   1.276   3.261  11.121  0.4395  0.0431 -0.0423
 3788SOL    HW123000   1.239   3.340  11.082  0.9565  0.1719 -0.2712
 3788SOL    HW223001   1.276   3.200  11.047  2.5502  1.0282 -0.8570
 3789SOL     OW23002   1.098   4.209   4.258 -0.0880 -0.3370  0.1958
 3789SOL    HW123003   1.143   4.154   4.193 -0.2751 -0.8175  0.4727
 3789SOL    HW223004   1.167   4.270   4.285 -1.7711  1.6120  0.0711
 3790SOL     OW23005   3.639   4.274   4.204  0.0577 -0.6548  0.1291
 3790SOL    HW123006   3.651   4.250   4.296 -2.6873 -0.3206  0.5633
 3790SOL    HW223007   3.718   4.326   4.185 -0.2858 -0.2556 -0.1893
 3791SOL     OW23008   3.920   1.858  13.897 -0.4234 -0.0341 -0.5282
 3791SOL    HW123009   3.909   1.934  13.954 -1.0504  0.6500 -1.5503
 3791SOL    HW223010   3.832   1.852  13.861 -0.2827  2.1825 -1.2535
 3792SOL     OW23011   1.071   4.709   8.104 -0.1939 -0.2397  0.2858
 3792SOL    HW123012   1.046   4.692   8.013  1.8429 -1.6702 -0.0087
 3792SOL    HW223013   1.080   4.618   8.131  0.1600  0.3337  2.1316
 3793SOL     OW23014   2.333   1.075   9.865 -0.3356  0.1070  0.2547
 3793SOL    HW123015   2.421   1.107   9.887 -1.0455  0.7205  2.1960
 3793SOL    HW223016   2.335   0.983   9.891  1.6430 -0.5206 -2.0543
 3794SOL     OW23017   3.986   3.011   2.015 -0.2313  0.3711 -0.0589
 3794SOL    HW123018   4.007   3.104   2.012  0.1591  0.2390 -1.4992
 3794SOL    HW223019   3.969   3.002   2.109 -1.2008 -1.0535 -0.3725
 3795SOL     OW23020   4.218   0.212  17.573  0.9740 -0.5239  0.0332
 3795SOL    HW123021   4.186   0.302  17.578 -0.1170 -0.9034 -0.0983
 3795SOL    HW223022   4.158   0.182  17.505  0.3542  0.2941  0.2214
 3796SOL     OW23023   3.216   3.902   7.314 -0.4272  0.3508 -0.1372
 3796SOL    HW123024   3.300   3.926   7.274 -0.4289 -0.2178 -0.4894
 3796SOL    HW223025   3.193   3.993   7.331  1.0179  0.5192  0.9627
 3797SOL     OW23026   0.996   1.498   3.890 -0.6650  0.2216 -0.0882
 3797SOL    HW123027   0.913   1.481   3.846  0.3083 -1.4891 -1.2899
 3797SOL    HW223028   1.045   1.504   3.808 -1.0521 -1.1792 -0.4319
 3798SOL     OW23029   3.596   1.144   1.810 -0.2339  0.0927 -0.7896
 3798SOL    HW123030   3.560   1.066   1.853  1.5277  0.8443  2.0941
 3798SOL    HW223031   3.589   1.120   1.718 -0.9486 -0.9382 -0.4587
 3799SOL     OW23032   1.427   0.205   2.446 -0.4577 -0.2488  0.0490
 3799SOL    HW123033   1.476   0.284   2.425 -0.9995 -0.1897 -1.0016
 3799SOL    HW223034   1.472   0.194   2.529 -0.8389 -0.3899  0.2351
 3800SOL     OW23035   3.119   3.523   5.464  0.1018  0.7718 -0.1486
 3800SOL    HW123036   3.133   3.428   5.469  1.3509  0.9862  0.5786
 3800SOL    HW223037   3.173   3.560   5.395  1.4371 -0.4267  0.2479
 3801SOL     OW23038   2.090   4.203   3.285  0.4121  0.3046  0.4447
 3801SOL    HW123039   2.003   4.229   3.257  1.3464  1.6170 -1.2409
 3801SOL    HW223040   2.081   4.184   3.378  0.5828 -0.6027  0.2783
 3802SOL     OW23041   4.501   2.096   8.403  0.4378  0.2882 -0.4066
 3802SOL    HW123042   4.571   2.029   8.405  0.7264  0.6192  1.2921
 3802SOL    HW223043   4.526   2.154   8.476  2.1751  1.0118 -1.5791
 3803SOL     OW23044   1.709   2.278   9.193 -0.4439 -1.0422 -0.9462
 3803SOL    HW123045   1.739   2.259   9.104  0.5147  1.0287 -1.0524
 3803SOL    HW223046   1.709   2.188   9.227 -1.0883  0.3774  2.7275
 3804SOL     OW23047   3.427   4.386   7.831  0.3002 -0.1893 -0.5481
 3804SOL    HW123048   3.514   4.423   7.847 -0.7544  1.7885  0.6732
 3804SOL    HW223049   3.373   4.466   7.828  0.0876 -0.3655 -1.6149
 3805SOL     OW23050   2.507   1.899  12.930 -0.1789  0.0493  0.0137
 3805SOL    HW123051   2.542   1.872  12.846 -1.0742 -2.6533  0.4950
 3805SOL    HW223052   2.526   1.992  12.920 -0.1983 -0.1902 -2.0608
 3806SOL     OW23053   2.637   0.789   4.431 -0.1660  0.2454  0.2231
 3806SOL    HW123054   2.609   0.718   4.373  1.1327  0.1962 -0.3394
 3806SOL    HW223055   2.681   0.747   4.504 -0.7082 -1.5732 -0.5064
 3807SOL     OW23056   2.402   0.212   4.766  0.3591 -0.7978 -0.4252
 3807SOL    HW123057   2.336   0.266   4.810 -0.8472 -2.1320 -0.6289
 3807SOL    HW223058   2.433   0.277   4.703  0.1080 -0.3086 -0.0537
 3808SOL     OW23059   0.121   3.083   2.302  0.2431 -0.0492 -0.5427
 3808SOL    HW123060   0.190   3.058   2.240  0.7989 -0.4395  0.2417
 3808SOL    HW223061   0.043   3.041   2.265  0.3383  0.1888 -1.0109
 3809SOL     OW23062   2.437   1.060   2.659  0.3614 -0.2193 -0.1853
 3809SOL    HW123063   2.522   1.091   2.628 -0.2328  1.9157  0.3691
 3809SOL    HW223064   2.422   1.102   2.743  0.1860  0.5465 -0.5942
 3810SOL     OW23065   2.529   2.401   6.958  0.1382 -0.1321  0.1338
 3810SOL    HW123066   2.618   2.371   6.939 -0.9722 -2.4664 -1.3392
 3810SOL    HW223067   2.536   2.406   7.054 -0.2858  0.1689  0.1471
 3811SOL     OW23068   2.517   1.998  10.144 -0.3946 -0.1124 -0.0310
 3811SOL    HW123069   2.524   1.966  10.234  0.9150  1.6318  0.4743
 3811SOL    HW223070   2.424   1.980  10.133 -0.4127  0.3826 -0.6686
 3812SOL     OW23071   2.218   0.847   8.124 -0.3091  0.6465 -0.8314
 3812SOL    HW123072   2.275   0.831   8.049  1.3078  2.4158  0.0409
 3812SOL    HW223073   2.276   0.886   8.189 -1.5576  2.3530 -0.7211
 3813SOL     OW23074   3.355   2.070  11.303  0.3303 -0.1944 -0.6338
 3813SOL    HW123075   3.440   2.067  11.347 -0.0046  1.0491  0.0980
 3813SOL    HW223076   3.329   2.157  11.334 -1.4382 -0.2984 -1.8159
 3814SOL     OW23077   2.387   0.384   2.217  0.5738 -0.3541  0.0201
 3814SOL    HW123078   2.379   0.415   2.126  0.7719 -1.4415 -0.3697
 3814SOL    HW223079   2.451   0.443   2.255 -1.5981  1.5337  0.7122
 3815SOL     OW23080   3.570   3.487   7.169  0.1190 -0.2679 -0.3692
 3815SOL    HW123081   3.597   3.533   7.090 -1.7415 -0.7727 -1.2946
 3815SOL    HW223082   3.507   3.424   7.136 -0.4004 -0.2098  0.5193
 3816SOL     OW23083   3.178   4.341   7.142  0.2012  0.5626 -0.1576
 3816SOL    HW123084   3.173   4.275   7.072  1.9468 -0.4286  0.6548
 3816SOL    HW223085   3.092   4.383   7.136 -0.5677 -0.7496  1.7720
 3817SOL     OW23086   4.175   3.891   6.259  0.2679 -0.6234  0.2796
 3817SOL    HW123087   4.135   3.975   6.237  0.3895 -0.1198  1.9915
 3817SOL    HW223088   4.225   3.874   6.179 -0.1874  1.6300 -0.4970
 3818SOL     OW23089   3.183   1.716   9.777 -0.0424  0.2145 -0.0892
 3818SOL    HW123090   3.097   1.709   9.818  0.1128 -0.5164  0.1135
 3818SOL    HW223091   3.216   1.631   9.806  1.5163  0.1048 -2.1853
 3819SOL     OW23092   4.050   2.305   8.572  0.5332 -0.3831  0.3648
 3819SOL    HW123093   4.131   2.255   8.561 -0.8202 -2.2132 -1.4366
 3819SOL    HW223094   3.994   2.228   8.562 -1.3393  1.0238  0.0193
 3820SOL     OW23095   0.191   4.050   9.436  0.1780  0.4132 -0.2140
 3820SOL    HW123096   0.116   4.053   9.496 -0.7316 -1.4514 -1.2672
 3820SOL    HW223097   0.257   3.999   9.484 -0.9419 -0.4583  0.4242
 3821SOL     OW23098   2.009   1.970   4.423  0.2397 -0.7589 -0.1097
 3821SOL    HW123099   2.066   1.922   4.483 -1.6264 -0.4390  1.9328
 3821SOL    HW223100   2.016   1.916   4.344  0.9059 -1.1474  0.2109
 3822SOL     OW23101   1.366   1.115   9.629  0.5024 -0.2195 -0.4120
 3822SOL    HW123102   1.310   1.108   9.552 -2.0504 -0.5258  1.4413
 3822SOL    HW223103   1.452   1.083   9.601  0.5279  2.5351 -3.3655
 3823SOL     OW23104   3.371   3.012   5.018  0.4039  0.7110 -0.5999
 3823SOL    HW123105   3.295   3.007   5.076 -0.5095  1.8161 -1.6731
 3823SOL    HW223106   3.339   2.972   4.937  1.5138  0.9002 -1.1285
 3824SOL     OW23107   3.072   4.690  13.448  0.1835  0.5425 -0.1821
 3824SOL    HW123108   3.029   4.610  13.417 -1.4442  1.3013  0.1328
 3824SOL    HW223109   3.090   4.665  13.539 -0.5139  0.0926 -0.1674
 3825SOL     OW23110   3.265   2.541  11.705  0.0143 -0.1260 -0.2806
 3825SOL    HW123111   3.281   2.634  11.688  2.7047 -0.3126  1.1429
 3825SOL    HW223112   3.171   2.530  11.721 -0.0336 -1.0307 -1.1641
 3826SOL     OW23113   2.241   0.387   8.262 -0.2050 -0.2063  0.1364
 3826SOL    HW123114   2.187   0.461   8.233 -1.7410 -0.8727  1.2830
 3826SOL    HW223115   2.304   0.447   8.302  0.5275 -1.3684  0.7125
 3827SOL     OW23116   2.837   2.206  14.293  0.4521  0.8832 -0.0881
 3827SOL    HW123117   2.789   2.131  14.259  1.6118 -0.9941  2.3797
 3827SOL    HW223118   2.798   2.215  14.380  2.4238  3.0744  0.5654
 3828SOL     OW23119   3.616   1.311   3.912  0.0674  0.0750 -0.1605
 3828SOL    HW123120   3.680   1.290   3.981 -0.4215  0.2070  0.3363
 3828SOL    HW223121   3.663   1.273   3.838 -1.3949  0.6702 -1.3868
 3829SOL     OW23122   3.775   0.928   6.174  0.3880  0.3619  0.2654
 3829SOL    HW123123   3.771   0.833   6.186  0.2162  0.3078 -0.2124
 3829SOL    HW223124   3.863   0.940   6.210  1.2879  1.1557 -2.1936
 3830SOL     OW23125   4.554   1.620   7.675 -0.0978 -0.0675  1.2369
 3830SOL    HW123126   4.612   1.573   7.614  1.5075 -0.5323  3.1078
 3830SOL    HW223127   4.613   1.694   7.693 -0.5405  1.2653 -2.7925
 3831SOL     OW23128   1.666   0.585   7.893  0.0067  0.7223  0.1868
 3831SOL    HW123129   1.715   0.666   7.880  1.6699 -0.3138 -0.0103
 3831SOL    HW223130   1.634   0.558   7.807 -0.1369 -0.6366  0.6762
 3832SOL     OW23131   0.504   1.362   1.831  0.0445  0.0704 -0.3036
 3832SOL    HW123132   0.548   1.285   1.869  1.9597  0.5019 -1.6448
 3832SOL    HW223133   0.544   1.376   1.746 -1.6259  0.0397 -1.0888
 3833SOL     OW23134   3.218   3.338   0.697 -0.1847 -0.3082 -0.0644
 3833SOL    HW123135   3.268   3.267   0.736  0.4526  0.5033  0.6030
 3833SOL    HW223136   3.228   3.395   0.774 -0.9332 -1.6331  1.0107
 3834SOL     OW23137   1.722   3.287   3.224 -0.0954 -0.1454  0.4157
 3834SOL    HW123138   1.661   3.226   3.265  2.3301 -3.4359 -0.8917
 3834SOL    HW223139   1.680   3.283   3.138  1.0740 -0.4713 -0.1516
 3835SOL     OW23140   1.456   1.424   3.188  0.2857  0.8431 -0.7886
 3835SOL    HW123141   1.432   1.481   3.260 -0.1774  0.7531 -0.8713
 3835SOL    HW223142   1.408   1.343   3.207  3.0385 -1.4946 -3.5816
 3836SOL     OW23143   2.122   2.020   6.565 -0.1459 -0.1039  0.4465
 3836SOL    HW123144   2.201   1.967   6.557  0.8762  1.5329 -0.2521
 3836SOL    HW223145   2.066   1.973   6.627 -0.3527 -1.3638 -0.6949
 3837SOL     OW23146   4.668   1.962  12.399 -0.5015  0.2864 -0.2360
 3837SOL    HW123147   4.630   1.993  12.481  0.5496 -1.3475  0.8761
 3837SOL    HW223148   4.683   1.869  12.416 -0.4058  0.5960  1.3716
 3838SOL     OW23149   1.457   4.372   8.281  0.0488 -0.2061  0.6376
 3838SOL    HW123150   1.431   4.291   8.325 -2.1719  0.5141  0.6274
 3838SOL    HW223151   1.439   4.432   8.353  0.8331 -0.4841  1.0711
 3839SOL     OW23152   0.119   1.867  12.649 -0.4715  0.4764 -0.1159
 3839SOL    HW123153   0.180   1.937  12.625  1.8797 -1.3135  0.6587
 3839SOL    HW223154   0.112   1.885  12.743 -0.5146 -2.7512  0.5156
 3840SOL     OW23155   0.043   4.400   6.670 -0.1142  0.0773 -0.3564
 3840SOL    HW123156   4.690   4.428   6.650  0.2282  2.6558  1.6442
 3840SOL    HW223157   0.053   4.428   6.761  1.1258  0.4711 -0.6136
 3841SOL     OW23158   0.265   1.540   0.011  0.1236  0.1150 -0.3322
 3841SOL    HW123159   0.199   1.572  17.692  1.9505 -0.6172 -2.6726
 3841SOL    HW223160   0.262   1.596   0.088  0.6367  2.0878 -1.7670
 3842SOL     OW23161   2.964   4.145   8.103 -0.1694 -0.0015 -0.4421
 3842SOL    HW123162   3.005   4.229   8.083 -0.0345  0.1968  0.7118
 3842SOL    HW223163   3.023   4.097   8.161  0.2443  0.5934 -0.3696
 3843SOL     OW23164   0.435   3.182   5.957  0.2638  0.1182  0.3105
 3843SOL    HW123165   0.352   3.210   5.995 -0.8341 -2.1069 -0.4644
 3843SOL    HW223166   0.481   3.265   5.942 -0.2993  0.1975 -0.9919
 3844SOL     OW23167   3.552   0.917   5.563 -0.5427 -0.2040 -0.2843
 3844SOL    HW123168   3.606   0.960   5.630 -1.0286  0.6843 -0.4672
 3844SOL    HW223169   3.484   0.880   5.619  1.6707 -0.6702  2.1342
 3845SOL     OW23170   3.049   3.461   7.580 -0.1854  0.1220 -0.5243
 3845SOL    HW123171   3.096   3.541   7.601  1.9415 -1.3850  0.4131
 3845SOL    HW223172   2.973   3.479   7.635  0.6031  1.0374  0.2554
 3846SOL     OW23173   4.388   2.108   2.935  0.1229 -0.1489  0.0314
 3846SOL    HW123174   4.417   2.068   2.853  0.1064  1.4467 -0.7564
 3846SOL    HW223175   4.469   2.128   2.982 -0.0399 -3.2581  1.6175
 3847SOL     OW23176   4.355   2.083  11.801 -0.0536  0.0056  0.6000
 3847SOL    HW123177   4.303   2.030  11.741 -0.1062  0.4364  0.2616
 3847SOL    HW223178   4.318   2.080  11.889  1.5706  1.0124  1.3257
 3848SOL     OW23179   1.688   2.445   7.919  0.3103 -0.2639 -0.5135
 3848SOL    HW123180   1.744   2.440   7.842  0.3432  1.9407 -0.6423
 3848SOL    HW223181   1.601   2.419   7.889  0.7770 -1.7073 -0.6233
 3849SOL     OW23182   0.447   2.063  15.902  0.1614 -0.1221  0.3321
 3849SOL    HW123183   0.467   2.105  15.985  3.7993 -1.3343  0.0306
 3849SOL    HW223184   0.520   2.002  15.891  0.3521  0.1996 -0.2194
 3850SOL     OW23185   3.932   3.424   7.862  0.3199 -0.2133  0.0363
 3850SOL    HW123186   3.967   3.451   7.777 -0.1928  1.7794  0.4658
 3850SOL    HW223187   3.870   3.490   7.892  0.0083  0.3711 -1.9485
 3851SOL     OW23188   3.559   1.164   3.220 -0.3117  0.3981 -0.1501
 3851SOL    HW123189   3.542   1.086   3.273 -0.0805 -0.3757 -1.2029
 3851SOL    HW223190   3.611   1.211   3.286 -0.3286 -0.9706  0.8428
 3852SOL     OW23191   1.173   4.534  12.140 -0.6599 -0.4336  0.1516
 3852SOL    HW123192   1.232   4.521  12.215 -0.4214 -0.5601 -0.0580
 3852SOL    HW223193   1.143   4.444  12.125 -1.7203 -0.0455 -0.0398
 3853SOL     OW23194   0.211   3.533   6.817  0.5154  0.8316 -0.3503
 3853SOL    HW123195   0.205   3.588   6.739 -0.1306 -0.2755 -1.0851
 3853SOL    HW223196   0.183   3.451   6.776  0.9614 -0.3523  1.7046
 3854SOL     OW23197   0.063   2.510   9.332  0.5433 -0.4879 -0.2928
 3854SOL    HW123198   4.716   2.559   9.340  0.3227 -0.7106 -1.2586
 3854SOL    HW223199   0.085   2.482   9.421  0.6924 -0.3992 -0.3021
 3855SOL     OW23200   3.583   1.427   5.474  0.1454  0.0962  0.3847
 3855SOL    HW123201   3.611   1.514   5.503 -0.2978  1.5305 -3.4973
 3855SOL    HW223202   3.505   1.420   5.529  0.1706 -1.5771  0.2125
 3856SOL     OW23203   2.676   4.541   7.383  0.8514 -0.0997  0.2385
 3856SOL    HW123204   2.626   4.496   7.452 -0.5601  0.8526 -0.1434
 3856SOL    HW223205   2.610   4.545   7.314  3.9297  0.8638 -2.6058
 3857SOL     OW23206   3.376   4.696  13.465 -0.0949 -0.4873 -0.1729
 3857SOL    HW123207   3.285   4.719  13.444 -0.3104  0.4829  1.7951
 3857SOL    HW223208   3.369   4.601  13.463 -2.1155 -0.3589  0.5527
 3858SOL     OW23209   4.671   2.232  15.698  0.2729 -0.3001 -0.2437
 3858SOL    HW123210   4.641   2.162  15.641  1.4949  0.5285 -1.9040
 3858SOL    HW223211   4.683   2.195  15.785 -2.0192  2.0557  1.0909
 3859SOL     OW23212   2.615   2.314  11.319  0.2778  0.5509 -0.1327
 3859SOL    HW123213   2.621   2.376  11.246  0.0285  0.9076  0.1512
 3859SOL    HW223214   2.664   2.367  11.381  1.6386 -1.1702  0.2711
 3860SOL     OW23215   1.927   2.254   5.000 -0.2587  0.0692 -0.2474
 3860SOL    HW123216   1.886   2.305   5.070 -1.2815 -0.2635 -0.6063
 3860SOL    HW223217   1.993   2.202   5.047 -0.5040  0.3415  0.3913
 3861SOL     OW23218   1.760   3.090   7.698  0.4817  0.4386  0.5554
 3861SOL    HW123219   1.783   3.182   7.684  0.3816  0.4912  0.7371
 3861SOL    HW223220   1.805   3.066   7.778  0.2983  1.5220  0.9817
 3862SOL     OW23221   0.909   1.679   2.864 -0.1348  0.1579  0.4140
 3862SOL    HW123222   0.868   1.742   2.923 -1.4327  0.4969 -0.8396
 3862SOL    HW223223   1.001   1.676   2.891  0.7281  0.6357 -2.5081
 3863SOL     OW23224   0.059   3.846   0.079  0.8347 -0.1436 -0.5588
 3863SOL    HW123225   0.052   3.920   0.140 -1.1973 -1.8231  1.2622
 3863SOL    HW223226   0.055   3.771   0.139 -2.9929  0.5326  0.0680
 3864SOL     OW23227   1.535   0.903   2.714  0.3538  0.7404 -0.2665
 3864SOL    HW123228   1.558   0.955   2.792  0.9600  0.0604  0.0100
 3864SOL    HW223229   1.460   0.955   2.686 -0.3229 -0.3387 -0.4585
 3865SOL     OW23230   3.911   2.755   2.663  0.6046 -0.4854 -0.1614
 3865SOL    HW123231   3.980   2.690   2.650 -0.0194 -1.0454 -0.6637
 3865SOL    HW223232   3.930   2.802   2.743  0.3797  1.4907 -1.2690
 3866SOL     OW23233   3.605   1.044   9.667  0.3068  0.4364  0.4368
 3866SOL    HW123234   3.655   0.963   9.659 -1.5087 -0.8061  1.4750
 3866SOL    HW223235   3.566   1.040   9.754  0.1351  0.3251  0.3548
 3867SOL     OW23236   1.909   2.373   6.987 -0.5185 -0.1639  0.2573
 3867SOL    HW123237   1.989   2.419   6.961 -2.9152  2.5973 -2.1433
 3867SOL    HW223238   1.848   2.409   6.923 -0.5379  1.2127  1.0553
 3868SOL     OW23239   2.547   3.057   7.963  0.0550  0.0958 -0.3719
 3868SOL    HW123240   2.591   3.056   7.878 -0.6060 -0.5135 -0.7032
 3868SOL    HW223241   2.605   2.999   8.012  1.3798  0.1959 -1.8244
 3869SOL     OW23242   2.977   4.659   2.597  0.0851  0.1538 -0.2468
 3869SOL    HW123243   2.980   4.574   2.641 -0.5204  0.7328  0.9266
 3869SOL    HW223244   2.886   4.681   2.577  0.0551  1.0777  0.8975
 3870SOL     OW23245   1.256   0.690  14.106  0.7872 -0.0960  0.4344
 3870SOL    HW123246   1.162   0.705  14.120 -0.0953 -1.3255 -4.1227
 3870SOL    HW223247   1.262   0.599  14.077  0.2728  0.0118 -0.0243
 3871SOL     OW23248   1.670   1.569   1.711  0.0079 -0.0145 -0.5086
 3871SOL    HW123249   1.621   1.503   1.761 -0.3502 -0.3268 -1.2753
 3871SOL    HW223250   1.759   1.553   1.740 -0.2240  0.6177  0.5612
 3872SOL     OW23251   2.650   1.020   7.331 -0.0997  0.1681 -0.3288
 3872SOL    HW123252   2.597   0.946   7.360  2.0266 -0.7815  1.1386
 3872SOL    HW223253   2.595   1.092   7.362  1.5304  1.3856 -0.2433
 3873SOL     OW23254   0.420   2.769   8.376  0.0600  0.0691  0.2339
 3873SOL    HW123255   0.412   2.760   8.281  0.3743 -2.5657  0.4528
 3873SOL    HW223256   0.402   2.860   8.400 -2.1657 -0.0297 -1.0254
 3874SOL     OW23257   1.318   3.244   2.225  0.3952  0.2994  0.1936
 3874SOL    HW123258   1.292   3.326   2.268 -1.9040  0.3513 -1.2860
 3874SOL    HW223259   1.230   3.212   2.204  0.9047 -0.4838 -0.6868
 3875SOL     OW23260   1.959   0.061   5.325 -0.1145 -0.2159 -0.0261
 3875SOL    HW123261   2.035   0.116   5.346 -1.0786 -0.2434  3.6098
 3875SOL    HW223262   1.902   0.081   5.400  2.5310 -0.6756  2.0913
 3876SOL     OW23263   2.630   4.178   6.439 -0.1644 -0.4194 -0.3797
 3876SOL    HW123264   2.593   4.103   6.393 -2.9427  1.6000 -1.4178
 3876SOL    HW223265   2.656   4.229   6.362 -1.9761 -0.2383 -0.8680
 3877SOL     OW23266   1.208   0.649  10.121  0.5351  0.1687  0.4898
 3877SOL    HW123267   1.303   0.648  10.114  0.4148 -0.5433 -1.1315
 3877SOL    HW223268   1.190   0.725  10.177 -1.9224 -0.3606  0.4141
 3878SOL     OW23269   4.177   2.142  13.343 -0.1447 -0.3147  0.3515
 3878SOL    HW123270   4.129   2.063  13.369 -0.1496 -0.0769  1.0519
 3878SOL    HW223271   4.235   2.106  13.275 -1.9540 -1.2269 -0.7129
 3879SOL     OW23272   0.929   3.645   1.926  0.9034  0.7242  0.1505
 3879SOL    HW123273   0.847   3.685   1.955 -0.1909 -1.5569  0.1822
 3879SOL    HW223274   0.996   3.697   1.972  1.8962  0.4114 -0.9327
 3880SOL     OW23275   3.770   3.209   4.206 -0.4748  0.6721  0.1359
 3880SOL    HW123276   3.825   3.137   4.175  0.9163  1.0922  1.6326
 3880SOL    HW223277   3.705   3.206   4.136  1.2886  1.5572 -1.5159
 3881SOL     OW23278   4.218   3.268   5.746  0.3901 -0.0439 -0.1070
 3881SOL    HW123279   4.259   3.276   5.832 -0.5925  1.5431  0.2091
 3881SOL    HW223280   4.123   3.266   5.757  0.2930 -1.1267 -1.0752
 3882SOL     OW23281   2.919   3.820   5.300  0.0369 -0.0771 -0.2091
 3882SOL    HW123282   2.979   3.844   5.230  1.6694 -0.3844  1.0810
 3882SOL    HW223283   2.855   3.892   5.303 -0.4558 -0.4677 -1.5220
 3883SOL     OW23284   1.762   4.515  16.269  0.1318 -0.2735 -0.4427
 3883SOL    HW123285   1.767   4.499  16.363 -0.6952  0.6628 -0.2422
 3883SOL    HW223286   1.684   4.571  16.273  0.0072 -0.5172  0.5390
 3884SOL     OW23287   4.687   4.466   5.483 -0.5124 -0.4919 -0.4348
 3884SOL    HW123288   4.612   4.408   5.494 -1.5262  1.6607  3.9334
 3884SOL    HW223289   0.025   4.412   5.511 -1.2138  0.6889  3.6961
 3885SOL     OW23290   0.555   1.239   5.323  0.1890 -0.1028 -0.0621
 3885SOL    HW123291   0.621   1.280   5.379  0.4127  0.0128 -0.4140
 3885SOL    HW223292   0.606   1.214   5.246 -1.0702 -0.3003 -0.8463
 3886SOL     OW23293   1.817   2.096   2.414 -0.2469  0.6145 -0.4150
 3886SOL    HW123294   1.840   2.036   2.344  1.4286  0.3952  0.3161
 3886SOL    HW223295   1.804   2.174   2.361  1.2302  0.6568 -0.7206
 3887SOL     OW23296   4.249   3.084   6.821 -0.2660  0.2384  0.0828
 3887SOL    HW123297   4.216   3.006   6.775  1.8822 -0.9770  0.5955
 3887SOL    HW223298   4.167   3.121   6.854 -0.5501  0.4597 -0.8421
 3888SOL     OW23299   2.964   2.219   3.450 -0.1195 -0.4601  0.4624
 3888SOL    HW123300   3.014   2.203   3.530 -3.2965  0.1860  2.5921
 3888SOL    HW223301   3.026   2.229   3.377 -0.3303 -1.7472  0.1088
 3889SOL     OW23302   4.289   1.979   4.459 -0.2754  0.2870  0.2623
 3889SOL    HW123303   4.333   2.031   4.392 -1.9294  2.0565  0.5302
 3889SOL    HW223304   4.358   1.961   4.522  0.1268  2.3617  0.4039
 3890SOL     OW23305   1.890   2.359   6.251  0.2396  0.8711 -0.2511
 3890SOL    HW123306   1.985   2.373   6.247  0.3457  0.8165  2.0500
 3890SOL    HW223307   1.892   2.298   6.325 -3.5597 -0.9687 -1.7049
 3891SOL     OW23308   1.160   2.648   5.489  0.3173 -0.1073  0.0471
 3891SOL    HW123309   1.169   2.616   5.579 -0.4480  0.0271  0.1727
 3891SOL    HW223310   1.064   2.645   5.483  0.3870  0.2758 -1.3800
 3892SOL     OW23311   4.704   1.633   8.194  0.8495 -0.7435  0.2250
 3892SOL    HW123312   4.697   1.671   8.281 -0.2710  0.9384 -0.5822
 3892SOL    HW223313   4.658   1.698   8.140  1.5100 -1.6245 -1.4230
 3893SOL     OW23314   1.698   1.868  15.278 -0.1021 -0.2062  0.9153
 3893SOL    HW123315   1.705   1.903  15.189 -0.2354 -1.4117  0.4218
 3893SOL    HW223316   1.708   1.941  15.339 -0.3411 -0.6295  1.4602
 3894SOL     OW23317   0.974   1.710   5.861 -0.7141  0.0105 -0.1789
 3894SOL    HW123318   1.000   1.801   5.869 -0.5093 -0.2359  1.8385
 3894SOL    HW223319   1.038   1.670   5.920 -0.6191 -0.7225 -0.7764
 3895SOL     OW23320   1.513   3.382   3.864 -0.5503  0.1217  0.1604
 3895SOL    HW123321   1.517   3.475   3.883  0.7433  0.0430  0.3361
 3895SOL    HW223322   1.597   3.346   3.893 -0.3506  0.9218  0.5689
 3896SOL     OW23323   3.864   3.233  15.520  1.0063 -0.4034 -0.2206
 3896SOL    HW123324   3.920   3.167  15.479  1.6030  1.1911 -1.9338
 3896SOL    HW223325   3.914   3.313  15.504 -0.0497  0.0354 -1.3078
 3897SOL     OW23326   3.407   4.040  10.643 -0.3152 -0.0323 -0.4827
 3897SOL    HW123327   3.339   4.027  10.710  1.7585  0.4386  1.7215
 3897SOL    HW223328   3.436   3.951  10.627  0.8487 -0.0870  1.9199
 3898SOL     OW23329   0.832   0.959   2.006  0.5210  0.1052 -0.6215
 3898SOL    HW123330   0.893   0.958   1.932  0.0211  0.7924 -1.0353
 3898SOL    HW223331   0.870   1.037   2.046 -2.3891 -0.1785  2.7102
 3899SOL     OW23332   4.297   0.747  15.435  0.5888 -0.4885 -0.1166
 3899SOL    HW123333   4.341   0.799  15.503 -0.2251  2.5351 -1.8901
 3899SOL    HW223334   4.214   0.726  15.479  0.0743  0.4903 -0.6209
 3900SOL     OW23335   0.483   3.080   5.368  0.0400  0.1682  0.2650
 3900SOL    HW123336   0.551   3.072   5.435  1.4719  2.3777 -0.9383
 3900SOL    HW223337   0.451   2.989   5.373  0.5297 -0.0589 -0.6681
 3901SOL     OW23338   4.482   1.052   7.470  0.3507 -0.2665 -0.6504
 3901SOL    HW123339   4.520   0.981   7.418 -0.8678  1.6406 -4.1060
 3901SOL    HW223340   4.517   1.038   7.558 -0.1143  0.9233 -0.2760
 3902SOL     OW23341   2.734   3.017  16.125  0.5673  0.5221 -0.1151
 3902SOL    HW123342   2.829   3.006  16.119  0.7476  0.6653  2.7771
 3902SOL    HW223343   2.720   2.980  16.212  1.6678  1.3031  0.4008
 3903SOL     OW23344   1.945   0.581  11.721  0.8319 -0.2974 -0.4079
 3903SOL    HW123345   1.934   0.488  11.704  0.1151 -0.2133 -0.3914
 3903SOL    HW223346   1.856   0.614  11.714  0.8986  0.2500  1.1691
 3904SOL     OW23347   4.597   2.088  12.712 -0.1249  0.1489 -0.0404
 3904SOL    HW123348   4.677   2.140  12.726  0.1697 -0.4530  0.4813
 3904SOL    HW223349   4.536   2.153  12.676 -0.4379  0.7439  1.5679
 3905SOL     OW23350   1.499   1.495  10.804 -0.5576  0.0110  0.2948
 3905SOL    HW123351   1.553   1.417  10.815  1.0110  1.1032  0.4413
 3905SOL    HW223352   1.517   1.550  10.880 -0.4862  0.9837 -0.4258
 3906SOL     OW23353   1.954   3.639  14.792 -0.0229 -0.3187  0.4496
 3906SOL    HW123354   1.923   3.572  14.731  1.3832 -0.5556 -0.0051
 3906SOL    HW223355   1.908   3.715  14.758  0.7571 -0.1186 -0.1565
 3907SOL     OW23356   0.991   3.892   4.022 -0.3601  0.4984  0.0677
 3907SOL    HW123357   1.026   3.857   4.104 -1.2596  1.3135  0.7983
 3907SOL    HW223358   0.907   3.918   4.060 -0.5990 -0.1029 -0.0400
 3908SOL     OW23359   1.708   3.248   7.351 -0.9980  0.3704 -0.0740
 3908SOL    HW123360   1.678   3.181   7.413 -0.4148 -2.0483 -2.3830
 3908SOL    HW223361   1.620   3.275   7.323 -0.7512  2.4286  1.1694
 3909SOL     OW23362   3.311   1.536  13.306 -0.0696 -0.5071 -0.3479
 3909SOL    HW123363   3.327   1.470  13.238 -2.9596 -1.5396 -0.0138
 3909SOL    HW223364   3.362   1.612  13.279  1.5363 -1.3156  0.4139
 3910SOL     OW23365   3.973   2.574   1.779 -0.5074 -0.7532  0.4664
 3910SOL    HW123366   4.021   2.643   1.734  0.5196  0.1068  2.8877
 3910SOL    HW223367   4.000   2.575   1.870  1.0936 -0.5962 -0.0167
 3911SOL     OW23368   3.800   1.117  16.476  0.0677 -0.2525  0.1962
 3911SOL    HW123369   3.887   1.082  16.493  0.5988  0.6620 -0.6484
 3911SOL    HW223370   3.803   1.162  16.392 -1.5244  0.2279  0.3925
 3912SOL     OW23371   3.883   1.506   9.325 -0.6284 -0.6642  0.1542
 3912SOL    HW123372   3.916   1.417   9.311 -0.1744 -0.4893  0.1129
 3912SOL    HW223373   3.892   1.517   9.420 -1.0714  0.8548  0.0163
 3913SOL     OW23374   0.875   3.659  12.683  0.3644 -0.2094  0.6975
 3913SOL    HW123375   0.942   3.708  12.730 -0.1205  0.6996  0.4588
 3913SOL    HW223376   0.804   3.688  12.740 -1.2981  0.5818 -1.7556
 3914SOL     OW23377   4.282   4.238  11.287  0.3411 -0.1579 -0.2869
 3914SOL    HW123378   4.198   4.223  11.244 -0.0982 -1.4639  1.0483
 3914SOL    HW223379   4.251   4.316  11.334  2.3413  1.9881 -2.4983
 3915SOL     OW23380   1.036   0.003  12.427  0.2673 -0.4477 -0.1308
 3915SOL    HW123381   0.942   0.009  12.444  0.1880  0.5343 -0.9140
 3915SOL    HW223382   1.047   4.654  12.470 -1.1490  1.3164  3.7733
 3916SOL     OW23383   3.151   0.130   4.209 -0.0191  0.3182 -0.2885
 3916SOL    HW123384   3.228   0.172   4.248  0.7344 -0.6132 -0.7588
 3916SOL    HW223385   3.093   0.205   4.198 -0.2192 -0.0811 -2.0433
 3917SOL     OW23386   0.451   3.026   6.278  0.0190 -0.1930  0.0544
 3917SOL    HW123387   0.502   3.053   6.202  0.5714  2.6266  1.3984
 3917SOL    HW223388   0.428   3.111   6.317  1.5189  1.1174 -1.9252
 3918SOL     OW23389   0.427   3.785  10.099 -0.1758 -0.0623  0.3267
 3918SOL    HW123390   0.392   3.850  10.038  0.0526  0.5160  0.8166
 3918SOL    HW223391   0.348   3.776  10.152  0.1134  0.7861  0.8971
 3919SOL     OW23392   4.512   4.469   2.051  0.7676  0.1623 -0.0069
 3919SOL    HW123393   4.516   4.551   2.100 -0.9190 -0.9709  2.0335
 3919SOL    HW223394   4.465   4.410   2.110  1.9467  0.0232  0.7905
 3920SOL     OW23395   3.342   4.285   8.976 -0.4183 -0.0806  0.1987
 3920SOL    HW123396   3.304   4.229   9.044  1.5025 -1.2754  0.2779
 3920SOL    HW223397   3.426   4.306   9.017 -0.1136 -2.4780  0.8119
 3921SOL     OW23398   3.277   1.081   5.712 -0.1199 -1.0005  0.1426
 3921SOL    HW123399   3.331   1.003   5.711  1.0464 -0.1842 -1.0104
 3921SOL    HW223400   3.259   1.079   5.806 -0.3188 -0.5733  0.1171
 3922SOL     OW23401   1.073   0.321   2.924 -0.2357  0.5302 -0.2830
 3922SOL    HW123402   1.104   0.408   2.896  1.7299  0.4071  1.5705
 3922SOL    HW223403   1.064   0.343   3.017 -1.6028  1.0413 -0.5266
 3923SOL     OW23404   3.013   2.845   3.529  0.0484  0.1590 -0.6222
 3923SOL    HW123405   3.022   2.750   3.518 -1.8602 -0.0294 -0.5357
 3923SOL    HW223406   3.045   2.852   3.619 -2.9788 -1.7301  0.6019
 3924SOL     OW23407   3.462   0.096   1.805 -0.3648  0.2689  0.6178
 3924SOL    HW123408   3.396   0.045   1.850 -1.1063  0.8856  0.2254
 3924SOL    HW223409   3.530   0.030   1.789 -0.9592 -0.4788  1.1977
 3925SOL     OW23410   1.026   1.500   8.080 -0.2209 -0.1429  0.2711
 3925SOL    HW123411   1.080   1.507   8.001  0.2133 -0.1522  0.5651
 3925SOL    HW223412   1.023   1.592   8.108 -3.1169 -0.7396  1.9155
 3926SOL     OW23413   4.526   1.518   4.326  0.2706 -0.3349  0.2751
 3926SOL    HW123414   4.458   1.569   4.370  1.5803  1.5245  0.1585
 3926SOL    HW223415   4.602   1.576   4.330  0.9155 -1.1974  0.4262
 3927SOL     OW23416   1.513   1.533   1.098 -0.2189 -0.3572  0.1079
 3927SOL    HW123417   1.592   1.496   1.059  0.0263  0.3908 -0.1120
 3927SOL    HW223418   1.533   1.547   1.191 -0.6547  3.3312 -0.3677
 3928SOL     OW23419   1.499   0.066  14.209 -0.0968  0.0589  0.0452
 3928SOL    HW123420   1.415   0.078  14.254 -0.4150 -3.4566  0.3617
 3928SOL    HW223421   1.566   0.104  14.267 -0.7579  1.0289  0.1700
 3929SOL     OW23422   2.834   1.588  13.547  0.4505  0.4382  0.5037
 3929SOL    HW123423   2.888   1.520  13.588  0.4268 -1.2496 -2.2487
 3929SOL    HW223424   2.759   1.536  13.516  2.9789 -2.2782 -1.0596
 3930SOL     OW23425   3.419   0.659  11.230  0.0930  0.0452 -0.1501
 3930SOL    HW123426   3.471   0.602  11.174  0.3001  0.7718 -0.6924
 3930SOL    HW223427   3.413   0.622  11.318 -1.9921  1.1047  0.1541
 3931SOL     OW23428   2.137   3.875   7.337  0.3498 -0.2723 -0.1284
 3931SOL    HW123429   2.125   3.837   7.251  1.1379 -1.3607  0.2388
 3931SOL    HW223430   2.205   3.816   7.370 -1.5128 -0.7390  2.8509
 3932SOL     OW23431   0.237   0.691   0.725 -0.3708  1.0055  0.0873
 3932SOL    HW123432   0.291   0.642   0.787 -1.0233  3.6663  2.7548
 3932SOL    HW223433   0.173   0.727   0.786 -1.5958 -0.6251 -0.2085
 3933SOL     OW23434   1.131   0.174   8.637 -0.4514 -0.6528 -0.1734
 3933SOL    HW123435   1.102   0.265   8.632 -0.3924 -0.7464 -2.2623
 3933SOL    HW223436   1.210   0.198   8.685 -1.1299  0.2407  0.4905
 3934SOL     OW23437   2.201   1.192   0.732 -0.2850 -0.1566  0.1423
 3934SOL    HW123438   2.178   1.198   0.640 -0.3325  2.7141  0.3358
 3934SOL    HW223439   2.195   1.098   0.745  0.4759 -0.0996  0.9385
 3935SOL     OW23440   2.587   2.543   3.446  0.4595 -0.5157 -0.5081
 3935SOL    HW123441   2.641   2.605   3.495 -1.2932 -0.1883  0.9699
 3935SOL    HW223442   2.597   2.464   3.499  1.1184  0.3505  0.6689
 3936SOL     OW23443   3.708   2.813   1.958 -0.7372 -0.6320 -0.0984
 3936SOL    HW123444   3.657   2.887   1.927 -1.3264 -0.8572  0.3380
 3936SOL    HW223445   3.749   2.786   1.876 -0.8119 -2.7067  0.5478
 3937SOL     OW23446   3.337   3.832   1.550 -0.1468 -0.0115  0.4488
 3937SOL    HW123447   3.351   3.871   1.463  2.1055  2.2079  1.7969
 3937SOL    HW223448   3.396   3.883   1.606  1.1301  0.2749 -1.1384
 3938SOL     OW23449   1.186   2.409  11.566 -0.1991 -1.0964  0.7617
 3938SOL    HW123450   1.242   2.361  11.628 -0.2377  1.7876  3.0601
 3938SOL    HW223451   1.221   2.387  11.480  2.3031 -2.0538  2.0157
 3939SOL     OW23452   3.238   1.901   7.958 -0.2105 -0.0452  0.2828
 3939SOL    HW123453   3.237   1.881   8.052 -0.4343 -2.9440 -0.3491
 3939SOL    HW223454   3.329   1.892   7.931 -0.0077 -1.9552  1.6216
 3940SOL     OW23455   3.298   4.367   8.599 -0.5140  0.0966  0.2054
 3940SOL    HW123456   3.379   4.386   8.647 -0.2293  2.1136 -1.0743
 3940SOL    HW223457   3.325   4.383   8.508 -0.5527  1.0122  0.3581
 3941SOL     OW23458   0.684   0.281   7.031  0.2290 -0.2287  0.1612
 3941SOL    HW123459   0.707   0.188   7.019  0.6652  0.0975 -1.5682
 3941SOL    HW223460   0.659   0.303   6.941 -3.5016 -1.6095  0.8394
 3942SOL     OW23461   2.802   3.998  16.057  0.2043 -0.1249 -0.5790
 3942SOL    HW123462   2.846   3.962  15.980  0.1686 -0.9463 -0.2133
 3942SOL    HW223463   2.867   3.988  16.127 -1.0405  1.6432  0.8177
 3943SOL     OW23464   1.289   3.480   3.391  0.3357  0.4805 -0.0890
 3943SOL    HW123465   1.379   3.454   3.372  0.8021  1.4511  0.7914
 3943SOL    HW223466   1.273   3.428   3.469 -0.8927 -0.5144 -0.9976
 3944SOL     OW23467   4.202   1.975  12.013  0.1833  0.4866 -1.2155
 3944SOL    HW123468   4.136   1.906  12.011 -1.4949  2.1169 -1.8890
 3944SOL    HW223469   4.264   1.944  12.079 -1.2086 -0.2943 -0.2714
 3945SOL     OW23470   1.429   0.858   3.105 -0.0369  0.6438  0.5236
 3945SOL    HW123471   1.523   0.870   3.120  0.1670 -0.7317  0.3447
 3945SOL    HW223472   1.415   0.783   3.162 -0.3049  1.1767  1.1559
 3946SOL     OW23473   1.499   4.584  11.637 -0.2446  0.6257 -0.8011
 3946SOL    HW123474   1.552   4.507  11.615  0.1146  0.7556 -0.4034
 3946SOL    HW223475   1.432   4.570  11.570 -1.2889 -1.1562  0.6356
 3947SOL     OW23476   4.578   3.036   1.848  0.4075  0.2886  0.0714
 3947SOL    HW123477   4.650   3.015   1.789 -0.5324 -0.2897 -0.8622
 3947SOL    HW223478   4.562   3.128   1.825  2.8616  0.3712 -1.2771
 3948SOL     OW23479   3.033   4.404   9.070 -0.3515 -0.2959  0.3842
 3948SOL    HW123480   3.038   4.497   9.090  0.8683 -0.5145  1.1505
 3948SOL    HW223481   3.114   4.392   9.020 -0.7520 -1.1745 -0.0583
 3949SOL     OW23482   4.144   3.015   0.944  0.4958  0.0881  0.6521
 3949SOL    HW123483   4.142   2.943   0.881 -2.1609  1.1287 -0.4640
 3949SOL    HW223484   4.143   2.972   1.030 -1.6268 -1.0623  0.0733
 3950SOL     OW23485   0.403   3.080  15.542  0.0998 -0.3397 -0.3395
 3950SOL    HW123486   0.392   3.011  15.607  0.8631 -1.3017 -1.2383
 3950SOL    HW223487   0.322   3.129  15.559  1.4422  1.6207  0.4321
 3951SOL     OW23488   3.168   3.928  10.434  0.1013  0.8118  0.0630
 3951SOL    HW123489   3.110   3.968  10.498 -0.9781  0.0237 -0.4120
 3951SOL    HW223490   3.245   3.971  10.469  0.9816 -0.0978 -0.7404
 3952SOL     OW23491   3.809   2.941   6.763 -0.1441 -0.1770 -0.1865
 3952SOL    HW123492   3.741   2.986   6.814  0.5921 -0.6206  1.1853
 3952SOL    HW223493   3.771   2.916   6.679 -0.4949 -1.4632  0.3413
 3953SOL     OW23494   2.211   4.542   7.307  0.5079  0.2684 -0.3345
 3953SOL    HW123495   2.267   4.527   7.384  2.0967  0.0377 -1.5313
 3953SOL    HW223496   2.241   4.626   7.271 -1.9141  0.9045 -0.8913
 3954SOL     OW23497   0.221   2.245  14.487  0.1987  0.6447 -0.0397
 3954SOL    HW123498   0.274   2.214  14.413  1.6113  0.9718  0.8274
 3954SOL    HW223499   0.183   2.161  14.512 -1.8651  1.4361 -0.4997
 3955SOL     OW23500   3.217   1.787  17.153 -0.3680 -0.9644  0.0630
 3955SOL    HW123501   3.225   1.782  17.248 -0.0442  2.1897  0.2114
 3955SOL    HW223502   3.165   1.867  17.144 -1.0186 -1.5390 -1.3051
 3956SOL     OW23503   2.007   0.178  16.699  0.6361  0.2678 -0.1728
 3956SOL    HW123504   2.077   0.201  16.759  0.7325  3.6164 -1.5629
 3956SOL    HW223505   2.028   0.246  16.635 -1.5885  0.8286 -0.3239
 3957SOL     OW23506   3.497   1.966  15.000  0.6159  0.0340  0.0467
 3957SOL    HW123507   3.483   2.058  15.022  0.4998 -0.1397  0.6974
 3957SOL    HW223508   3.581   1.977  14.956  1.1625 -2.5455  0.4931
 3958SOL     OW23509   0.986   0.273   2.083  0.4760 -0.1474 -0.0257
 3958SOL    HW123510   1.040   0.213   2.135  2.5748  0.2706 -1.7183
 3958SOL    HW223511   0.992   0.348   2.141 -0.1745 -1.0917  1.2477
 3959SOL     OW23512   0.923   1.189   4.130  0.1755  0.5090  0.3400
 3959SOL    HW123513   0.891   1.185   4.220 -1.2763  1.7535 -0.1101
 3959SOL    HW223514   0.993   1.254   4.136  0.6102  0.0891 -0.1612
 3960SOL     OW23515   1.294   1.515  11.428 -0.6816  0.2665 -0.5574
 3960SOL    HW123516   1.245   1.499  11.509 -0.7800  4.0831  0.1503
 3960SOL    HW223517   1.335   1.601  11.432  0.7939 -0.4580 -0.0817
 3961SOL     OW23518   2.684   2.886   6.649 -0.6391 -0.1352 -0.7473
 3961SOL    HW123519   2.729   2.917   6.728 -0.6101 -0.3376 -0.6851
 3961SOL    HW223520   2.653   2.962   6.600  1.2940  1.1444 -0.0211
 3962SOL     OW23521   2.231   3.376   4.956 -0.2080 -0.5001  0.0867
 3962SOL    HW123522   2.240   3.436   4.882  0.7967 -0.9367 -0.1378
 3962SOL    HW223523   2.162   3.317   4.925 -0.0855 -1.0532  0.8842
 3963SOL     OW23524   1.698   3.949   1.739 -0.7842  0.1073 -0.5279
 3963SOL    HW123525   1.786   3.925   1.709 -0.3761  0.4630  0.4028
 3963SOL    HW223526   1.714   4.004   1.815  3.3053 -1.3497 -0.3375
 3964SOL     OW23527   0.992   2.852   2.511 -0.4050  0.1092 -0.4351
 3964SOL    HW123528   1.072   2.863   2.460  1.4537  1.8997  2.8344
 3964SOL    HW223529   0.941   2.793   2.456  0.9393 -0.2197 -1.3375
 3965SOL     OW23530   3.008   0.533   7.231  0.2106 -0.2469 -0.0593
 3965SOL    HW123531   2.953   0.454   7.228  2.1656 -1.5090 -3.0614
 3965SOL    HW223532   3.092   0.492   7.210  0.1486 -1.1202  1.4075
 3966SOL     OW23533   0.189   0.714   7.367  0.3769 -0.6794  0.4831
 3966SOL    HW123534   0.266   0.660   7.349  1.5011  1.2555 -0.4908
 3966SOL    HW223535   0.230   0.798   7.387 -0.9517  0.4567 -1.4686
 3967SOL     OW23536   2.227   3.332   2.394 -0.2833 -0.1712  0.1077
 3967SOL    HW123537   2.321   3.314   2.390  0.0142  1.3705  0.2598
 3967SOL    HW223538   2.204   3.325   2.302 -0.1807 -1.8720  0.2034
 3968SOL     OW23539   0.070   0.305   1.312  0.3152 -0.1296 -0.0205
 3968SOL    HW123540   4.722   0.281   1.273  0.3597  0.8555 -0.7240
 3968SOL    HW223541   0.044   0.365   1.382  1.4879 -0.9192  1.0975
 3969SOL     OW23542   1.687   0.144   7.801 -0.0680 -0.1860 -0.2313
 3969SOL    HW123543   1.734   0.077   7.851  0.8107  1.4701  1.1767
 3969SOL    HW223544   1.595   0.137   7.825  0.0233 -0.8062 -0.0626
 3970SOL     OW23545   3.794   0.279   2.342  0.6165  0.1522  0.1297
 3970SOL    HW123546   3.779   0.278   2.248 -1.7525 -2.6913  0.5564
 3970SOL    HW223547   3.854   0.209   2.368  0.3771 -0.5794 -1.2760
 3971SOL     OW23548   0.810   4.367   2.040 -0.2376  0.4853  0.4714
 3971SOL    HW123549   0.788   4.332   1.953 -1.5270  0.3778  0.8433
 3971SOL    HW223550   0.859   4.446   2.018 -0.9407  0.3361 -1.7238
 3972SOL     OW23551   2.821   0.749  10.869 -0.2791  0.1360  0.0669
 3972SOL    HW123552   2.776   0.737  10.785  1.7003 -1.2932 -0.7756
 3972SOL    HW223553   2.913   0.741  10.845 -0.4100  0.3513 -0.5043
 3973SOL     OW23554   0.059   2.183   6.361 -0.7120  0.4301 -0.3117
 3973SOL    HW123555   0.036   2.252   6.424 -1.5342  0.0818 -0.2344
 3973SOL    HW223556   0.092   2.236   6.289 -0.0229 -2.0299 -1.7956
 3974SOL     OW23557   1.397   4.512   4.093  0.0755 -0.2488  0.1791
 3974SOL    HW123558   1.492   4.522   4.104  0.1588 -0.7787 -0.0196
 3974SOL    HW223559   1.395   4.477   4.003 -1.4259  1.0862 -0.3024
 3975SOL     OW23560   3.326   3.686   3.986  0.4295 -0.1949  0.3955
 3975SOL    HW123561   3.371   3.624   3.928 -0.3638  0.1298 -0.5647
 3975SOL    HW223562   3.284   3.746   3.924 -1.4864 -0.5983  1.3166
 3976SOL     OW23563   3.031   0.358  11.139  0.1641 -0.1454 -0.0988
 3976SOL    HW123564   3.082   0.279  11.123  1.5178  0.4908  1.1348
 3976SOL    HW223565   3.105   0.415  11.116  2.1919 -2.7028  0.1597
 3977SOL     OW23566   0.254   2.981   9.936 -0.2819 -0.1909  0.3462
 3977SOL    HW123567   0.233   2.891   9.960 -1.1347 -0.1748 -0.3488
 3977SOL    HW223568   0.214   2.978   9.849 -0.9903  1.7978  0.6086
 3978SOL     OW23569   4.429   0.052  15.005  0.3819  0.0596  0.3503
 3978SOL    HW123570   4.440   0.071  15.098  1.1378  2.0137 -0.1542
 3978SOL    HW223571   4.383   4.704  15.012  1.9804 -0.8378 -0.0158
 3979SOL     OW23572   2.352   0.114   1.080 -0.2485  0.1908  0.0878
 3979SOL    HW123573   2.396   0.199   1.083  2.1013 -0.9949 -1.2556
 3979SOL    HW223574   2.401   0.073   1.151 -2.8579  0.8539  2.2812
 3980SOL     OW23575   1.458   2.688   6.748 -0.5948  0.6183  0.1434
 3980SOL    HW123576   1.394   2.629   6.707  0.4955  0.0606 -0.7801
 3980SOL    HW223577   1.535   2.631   6.758 -1.1701 -0.1266  0.3196
 3981SOL     OW23578   3.420   1.538  14.256  0.4596  0.3461  0.3136
 3981SOL    HW123579   3.388   1.619  14.295 -0.2084 -0.1485  0.7908
 3981SOL    HW223580   3.415   1.572  14.167  0.5404 -2.0425 -0.6014
 3982SOL     OW23581   2.902   1.362   8.031  0.3528  0.6023 -0.2813
 3982SOL    HW123582   2.853   1.388   7.952 -1.1300  0.3197  0.5325
 3982SOL    HW223583   2.845   1.297   8.074 -1.1083  2.8789  1.2322
 3983SOL     OW23584   0.289   0.090   3.087  0.4767  0.0781  0.0559
 3983SOL    HW123585   0.289   0.036   3.167  0.5947 -0.9018 -0.6064
 3983SOL    HW223586   0.290   0.174   3.134  2.3750  0.1915 -0.1925
 3984SOL     OW23587   0.925   4.234   1.155 -0.2256 -0.1305  0.0060
 3984SOL    HW123588   0.894   4.201   1.239  0.7338 -0.0119  0.4094
 3984SOL    HW223589   0.955   4.155   1.111  2.2071  0.3350  0.8263
 3985SOL     OW23590   4.415   0.190   3.464  0.5571  0.6517 -0.4563
 3985SOL    HW123591   4.456   0.110   3.496 -1.8950 -0.5212 -0.2437
 3985SOL    HW223592   4.324   0.160   3.456  0.6828  0.3327 -0.6858
 3986SOL     OW23593   4.360   1.914   8.920  0.5285 -0.2171 -0.8043
 3986SOL    HW123594   4.326   1.878   9.002 -0.2505 -1.8614 -1.8346
 3986SOL    HW223595   4.306   1.871   8.854  1.6190 -1.3879 -0.9406
 3987SOL     OW23596   1.619   1.780   1.545 -0.0019 -0.0171 -0.3191
 3987SOL    HW123597   1.631   1.707   1.606  0.4497 -0.8798 -1.4604
 3987SOL    HW223598   1.665   1.851   1.591 -2.7520  1.8035 -0.3087
 3988SOL     OW23599   0.813   1.217   5.560  0.5078 -0.1748  0.6837
 3988SOL    HW123600   0.744   1.185   5.618 -0.1108 -1.8071 -0.9686
 3988SOL    HW223601   0.864   1.142   5.530 -0.9644 -0.7118 -0.4619
 3989SOL     OW23602   1.822   4.690  13.194 -0.3675 -0.1132 -0.2438
 3989SOL    HW123603   1.788   4.663  13.109 -1.6913  0.0423  0.2321
 3989SOL    HW223604   1.917   4.687  13.183 -0.1731  0.9670  1.0610
 3990SOL     OW23605   2.376   3.886  10.927  0.2674 -0.6592  0.1775
 3990SOL    HW123606   2.391   3.974  10.961 -1.3893 -0.4430  0.3508
 3990SOL    HW223607   2.370   3.907  10.834  1.2853 -1.7914 -0.1424
 3991SOL     OW23608   2.385   2.750   2.770  0.2350  0.2005  0.5912
 3991SOL    HW123609   2.426   2.802   2.701  1.3399 -0.1727  0.9683
 3991SOL    HW223610   2.432   2.668   2.759 -1.0565 -0.5447  0.6769
 3992SOL     OW23611   1.079   0.532  10.418  0.0347  0.2613 -0.7989
 3992SOL    HW123612   1.062   0.510  10.326  1.8863  0.9122 -1.2900
 3992SOL    HW223613   1.171   0.513  10.432  0.0619  1.9488  1.2753
 3993SOL     OW23614   2.660   4.374  15.828  0.5412 -0.6563  0.4781
 3993SOL    HW123615   2.730   4.429  15.863  0.2894 -0.3594  0.5143
 3993SOL    HW223616   2.707   4.322  15.764 -0.3395  0.8988 -1.4169
 3994SOL     OW23617   4.378   1.780   8.226 -0.7634  0.1150  0.3807
 3994SOL    HW123618   4.360   1.831   8.304 -0.2451  1.0198 -0.0888
 3994SOL    HW223619   4.386   1.690   8.259 -0.3971  0.5628  1.4847
 3995SOL     OW23620   1.029   0.695   1.329 -0.4340  0.4536 -0.3379
 3995SOL    HW123621   1.075   0.624   1.284  0.7787  2.1829 -1.8003
 3995SOL    HW223622   0.959   0.643   1.369 -0.7140 -0.5231 -2.0584
 3996SOL     OW23623   2.227   3.590   4.041 -0.1325 -0.1835  0.0627
 3996SOL    HW123624   2.204   3.661   4.100  1.6582  0.2408  0.2314
 3996SOL    HW223625   2.288   3.535   4.090 -0.4121  0.2448  0.8817
 3997SOL     OW23626   0.203   0.831   6.862  0.4649  0.2781  0.0550
 3997SOL    HW123627   0.238   0.746   6.888  0.0944  0.2115  0.3360
 3997SOL    HW223628   0.111   0.818   6.884  0.9627 -1.5442  1.0408
 3998SOL     OW23629   1.873   3.650   8.509  0.4102  0.0716 -0.3069
 3998SOL    HW123630   1.860   3.742   8.531  0.1401 -0.0721  0.1380
 3998SOL    HW223631   1.871   3.653   8.413 -0.9955  0.7177 -0.2631
 3999SOL     OW23632   2.512   2.893   8.773 -0.0363  0.2975 -0.4907
 3999SOL    HW123633   2.418   2.877   8.782  0.6419 -3.0276  0.7796
 3999SOL    HW223634   2.544   2.835   8.843  0.0932 -0.4190 -1.1421
 4000SOL     OW23635   2.174   3.586   7.591 -0.0054 -0.5599 -0.2269
 4000SOL    HW123636   2.195   3.498   7.621  1.3100 -1.0143 -2.4985
 4000SOL    HW223637   2.177   3.580   7.496 -0.0175  0.5755 -0.3036
 4001SOL     OW23638   1.497   1.028  15.067 -0.3095 -0.2222  0.2210
 4001SOL    HW123639   1.519   1.078  14.988  2.2806  0.7241  1.5247
 4001SOL    HW223640   1.510   0.937  15.044 -0.1090 -0.3964  1.0049
 4002SOL     OW23641   0.266   0.833   4.199 -0.2860  0.0836 -0.4688
 4002SOL    HW123642   0.287   0.771   4.268  1.1054  2.5305  1.2947
 4002SOL    HW223643   0.191   0.791   4.156 -1.2983  2.5863 -1.1208
 4003SOL     OW23644   0.901   3.057  11.748  0.2494 -0.0078  0.0083
 4003SOL    HW123645   0.951   2.976  11.754  0.5536  0.1733 -0.0703
 4003SOL    HW223646   0.935   3.099  11.669 -0.6179  0.8477  0.0761
 4004SOL     OW23647   0.947   0.684   3.114  0.0453  0.2069 -0.6804
 4004SOL    HW123648   1.030   0.715   3.078  2.3429 -3.7641  1.1707
 4004SOL    HW223649   0.892   0.762   3.106  2.9794  2.8535  4.3198
 4005SOL     OW23650   3.975   1.109   7.061 -0.5974 -0.4203 -0.0404
 4005SOL    HW123651   3.990   1.151   7.146 -0.9693 -0.6193  0.1241
 4005SOL    HW223652   3.881   1.124   7.053 -0.5454 -0.8546 -1.4730
 4006SOL     OW23653   4.561   1.931   6.814 -0.3172  0.9083  0.2701
 4006SOL    HW123654   4.620   1.857   6.803 -0.1105  1.1101  0.0368
 4006SOL    HW223655   4.538   1.944   6.722 -2.5509  1.0254  0.8427
 4007SOL     OW23656   2.717   3.038   3.084 -0.0159 -0.0200 -0.1010
 4007SOL    HW123657   2.666   3.031   3.004  0.8576  2.1334 -0.8583
 4007SOL    HW223658   2.802   3.017   3.047  1.4458  2.3717  1.8707
 4008SOL     OW23659   3.714   3.484   4.150 -0.2263 -0.1275  0.2810
 4008SOL    HW123660   3.741   3.393   4.162  0.2011 -0.0403 -0.0248
 4008SOL    HW223661   3.798   3.527   4.137  0.3996 -0.5006  3.2980
 4009SOL     OW23662   0.286   1.305   9.053 -0.2613 -0.6659 -0.2882
 4009SOL    HW123663   0.279   1.289   9.147 -4.1602 -2.9430 -0.9827
 4009SOL    HW223664   0.248   1.222   9.023 -2.1502  0.3737 -0.7854
 4010SOL     OW23665   1.912   0.544   6.577  0.2651 -0.1159  0.4211
 4010SOL    HW123666   1.901   0.637   6.599  1.1697  0.8308 -3.1352
 4010SOL    HW223667   1.974   0.552   6.504 -0.2684 -1.0817 -0.1251
 4011SOL     OW23668   3.159   4.165   7.357 -0.5380  0.3636 -0.7082
 4011SOL    HW123669   3.083   4.203   7.400  0.7779  1.2636  0.8124
 4011SOL    HW223670   3.170   4.228   7.286 -2.1765  1.3581 -0.0807
 4012SOL     OW23671   2.708   0.052   2.601 -0.4862 -0.2347 -0.3859
 4012SOL    HW123672   2.713   0.109   2.525  0.5765  0.7310  0.4002
 4012SOL    HW223673   2.616   0.061   2.623 -0.3726  1.5201 -0.6091
 4013SOL     OW23674   2.007   0.804  10.974 -0.2778  0.2123  0.0703
 4013SOL    HW123675   2.078   0.801  11.038 -0.0360  1.4281 -0.1398
 4013SOL    HW223676   2.002   0.710  10.956 -1.7860  0.0442  1.3244
 4014SOL     OW23677   1.516   2.225   6.193  0.1811  0.0318  0.4803
 4014SOL    HW123678   1.567   2.158   6.148 -0.2508  0.6110 -0.8699
 4014SOL    HW223679   1.527   2.299   6.132  0.1540  0.8364  1.4478
 4015SOL     OW23680   2.439   1.175   8.632  0.0041 -0.5156  0.4698
 4015SOL    HW123681   2.502   1.125   8.683 -2.4145 -2.8763  1.1697
 4015SOL    HW223682   2.357   1.139   8.668 -1.7202  1.8984 -1.0277
 4016SOL     OW23683   3.373   0.961   2.191  0.1904  0.3999  0.5147
 4016SOL    HW123684   3.322   0.925   2.263 -1.4441  1.0010 -0.3307
 4016SOL    HW223685   3.323   0.920   2.120 -2.3452  2.2585  1.1774
 4017SOL     OW23686   4.534   2.611   7.585 -0.4469 -0.0545  0.2578
 4017SOL    HW123687   4.562   2.524   7.613 -1.2407 -0.9440 -1.6835
 4017SOL    HW223688   4.543   2.595   7.491 -1.5112  0.3881  0.0728
 4018SOL     OW23689   1.994   4.578   2.546  0.1790 -0.0513  0.0192
 4018SOL    HW123690   1.963   4.535   2.466  1.7810  0.5257 -0.9161
 4018SOL    HW223691   1.918   4.631   2.571 -1.5779 -1.1231 -3.0376
 4019SOL     OW23692   0.640   2.821  12.670 -0.3019 -0.1452  0.1587
 4019SOL    HW123693   0.691   2.741  12.680  1.4240  1.1488  1.6362
 4019SOL    HW223694   0.660   2.843  12.579 -0.6660  0.1769  0.1528
 4020SOL     OW23695   0.977   3.411   1.454 -0.3590 -0.4080 -0.3913
 4020SOL    HW123696   0.945   3.409   1.544 -0.9441 -1.4405 -0.6152
 4020SOL    HW223697   1.062   3.454   1.456 -0.5921  0.1843 -3.0352
 4021SOL     OW23698   3.210   0.149   3.329  0.3321 -0.1726 -0.1585
 4021SOL    HW123699   3.295   0.119   3.362 -0.0739 -1.4390 -0.2557
 4021SOL    HW223700   3.225   0.240   3.303  0.2585 -0.5591 -1.5549
 4022SOL     OW23701   2.144   1.007   3.922  0.0090  0.0929 -0.1995
 4022SOL    HW123702   2.101   0.925   3.899  0.5078  0.2034 -1.5210
 4022SOL    HW223703   2.237   0.986   3.914  0.0999  0.4802 -0.1499
 4023SOL     OW23704   3.824   2.462   7.858  0.5403 -0.1955  0.2402
 4023SOL    HW123705   3.857   2.416   7.935  2.7726  1.9473  0.5746
 4023SOL    HW223706   3.882   2.537   7.850 -0.3064  0.4598  0.2603
 4024SOL     OW23707   1.367   2.633   7.976 -0.3274  0.6519  0.6337
 4024SOL    HW123708   1.450   2.676   8.000 -0.0841 -1.3535  3.2911
 4024SOL    HW223709   1.322   2.618   8.059  0.3897  1.1393  1.1151
 4025SOL     OW23710   0.565   4.415   6.122 -0.2916 -0.1302  0.4568
 4025SOL    HW123711   0.526   4.329   6.135  1.4728 -0.9974  0.0986
 4025SOL    HW223712   0.652   4.399   6.159 -0.3174 -1.2167  0.0362
 4026SOL     OW23713   4.730   2.092   1.297 -0.4320  0.0542 -0.3803
 4026SOL    HW123714   4.685   2.173   1.320 -1.2970 -0.5698  0.1157
 4026SOL    HW223715   0.013   2.074   1.389  0.1158  0.5860 -0.3854
 4027SOL     OW23716   2.243   1.439   3.079  0.7364  0.0092  0.4342
 4027SOL    HW123717   2.306   1.369   3.093  0.5819  0.0303  1.2393
 4027SOL    HW223718   2.306   1.500   3.041  0.2237  0.8134  0.8612
 4028SOL     OW23719   3.362   1.907   2.732  0.3778  0.2884  0.3710
 4028SOL    HW123720   3.328   1.996   2.726  2.2124  0.9172 -0.4558
 4028SOL    HW223721   3.312   1.885   2.811 -0.5981 -1.8308 -0.8177
 4029SOL     OW23722   2.036   2.193   2.556  0.5844 -0.7318  0.1557
 4029SOL    HW123723   1.967   2.129   2.536  1.1843 -1.6152  0.9614
 4029SOL    HW223724   2.064   2.194   2.464  0.7793  0.6862  0.2293
 4030SOL     OW23725   1.421   2.728   4.278 -0.6758  1.1632 -0.2027
 4030SOL    HW123726   1.361   2.761   4.211  0.9866  2.7579 -0.9267
 4030SOL    HW223727   1.418   2.633   4.267 -0.0701  1.2299 -0.9596
 4031SOL     OW23728   2.959   1.028   3.810  0.5339  0.0391  0.0216
 4031SOL    HW123729   2.869   1.059   3.799  0.5347  0.5532  1.4026
 4031SOL    HW223730   2.941   0.977   3.890  1.0949 -0.2765 -0.0522
 4032SOL     OW23731   3.944   1.631  14.037  0.5571 -0.0627 -0.0013
 4032SOL    HW123732   3.853   1.610  14.015  0.6829 -1.7574  1.0929
 4032SOL    HW223733   3.946   1.724  14.014 -0.9145 -0.4954 -1.9295
 4033SOL     OW23734   1.590   0.434   2.553  0.0828 -0.0001 -0.4222
 4033SOL    HW123735   1.555   0.501   2.611  1.8533  0.5123  0.0513
 4033SOL    HW223736   1.682   0.461   2.564  0.0779 -1.0013  2.0360
 4034SOL     OW23737   2.694   0.894  11.492  0.3142  0.2284  0.0135
 4034SOL    HW123738   2.673   0.976  11.448 -2.8852  0.3883  1.8457
 4034SOL    HW223739   2.622   0.889  11.556  1.6634 -0.7429  1.4444
 4035SOL     OW23740   3.035   0.964   1.068  0.4369 -0.7762 -0.1103
 4035SOL    HW123741   2.971   1.033   1.085 -0.1663 -0.9123 -1.8037
 4035SOL    HW223742   3.036   0.947   0.974  0.9047 -3.0928  0.3132
 4036SOL     OW23743   1.372   0.944   9.328  0.4464  0.1930  0.4061
 4036SOL    HW123744   1.349   1.034   9.351 -1.1254 -0.2177  0.4329
 4036SOL    HW223745   1.287   0.917   9.293  0.4185  1.8370 -0.8205
 4037SOL     OW23746   0.999   1.268   9.501 -0.2617  0.0187 -0.2868
 4037SOL    HW123747   0.922   1.304   9.543  0.4212  0.9620  0.1530
 4037SOL    HW223748   0.978   1.174   9.505  1.7860 -0.3979  0.9090
 4038SOL     OW23749   0.666   3.819   4.926  0.0204 -0.4401 -0.1456
 4038SOL    HW123750   0.676   3.868   4.845 -0.4004  0.2635  0.2238
 4038SOL    HW223751   0.668   3.726   4.905  1.0615 -0.5816  0.5750
 4039SOL     OW23752   3.752   4.153   1.713 -0.8074 -0.1528 -0.3239
 4039SOL    HW123753   3.741   4.161   1.619 -1.4129  0.2416 -0.2169
 4039SOL    HW223754   3.844   4.127   1.724 -1.1878 -1.3335  0.0917
 4040SOL     OW23755   1.390   1.678  10.622  0.0040  0.2230  0.5481
 4040SOL    HW123756   1.369   1.755  10.674  0.0293  2.1338 -2.2573
 4040SOL    HW223757   1.432   1.619  10.685  1.0776  0.7091  0.2988
 4041SOL     OW23758   2.280   0.479   6.489 -0.3812 -0.0788 -0.6969
 4041SOL    HW123759   2.200   0.427   6.481 -0.1646 -0.6385  0.8620
 4041SOL    HW223760   2.309   0.453   6.576 -0.4475  0.8469 -0.3982
 4042SOL     OW23761   2.373   3.363  12.579  0.3117 -0.4405  0.3366
 4042SOL    HW123762   2.464   3.338  12.568  0.1422 -1.1905  0.6220
 4042SOL    HW223763   2.364   3.427  12.508 -0.4228 -0.1133  0.7159
 4043SOL     OW23764   2.823   1.875  13.551 -0.0102 -0.1405  0.4428
 4043SOL    HW123765   2.831   1.779  13.555 -4.3609 -0.4439  1.2845
 4043SOL    HW223766   2.779   1.892  13.634 -1.1014 -1.4285  0.1342
 4044SOL     OW23767   3.208   1.882   2.104  0.5280  0.1018 -0.4451
 4044SOL    HW123768   3.187   1.824   2.031  0.8240 -1.3221  0.6072
 4044SOL    HW223769   3.127   1.933   2.110  0.8185  0.2929  1.8476
 4045SOL     OW23770   3.040   0.737  11.488  0.0957 -0.3024 -0.1603
 4045SOL    HW123771   3.020   0.657  11.439  0.4598 -1.2817  1.3155
 4045SOL    HW223772   3.093   0.722  11.566  0.9933  2.4483 -0.2215
 4046SOL     OW23773   3.170   2.819   0.591  0.0749  0.2873  0.7949
 4046SOL    HW123774   3.097   2.803   0.651  0.1034 -0.5051  0.6169
 4046SOL    HW223775   3.240   2.833   0.655  2.5256 -0.7914 -1.6428
 4047SOL     OW23776   4.022   0.570   7.561  0.0145 -0.2224  0.6554
 4047SOL    HW123777   4.116   0.570   7.544  0.3797  2.1543  2.5382
 4047SOL    HW223778   4.005   0.476   7.558 -0.4829 -0.0624 -1.2552
 4048SOL     OW23779   2.349   0.586   5.198  0.3094  1.1555  0.2312
 4048SOL    HW123780   2.316   0.515   5.253 -1.8470  0.5575 -1.8362
 4048SOL    HW223781   2.432   0.553   5.162 -0.0941  1.6996 -1.1981
 4049SOL     OW23782   1.567   3.238   0.894  0.3161 -0.8000 -0.5820
 4049SOL    HW123783   1.474   3.253   0.879  0.7125  1.7810 -0.3056
 4049SOL    HW223784   1.612   3.238   0.809  0.9964 -0.2101 -0.2146
 4050SOL     OW23785   3.544   1.913  12.073 -0.0474  0.2751  0.1872
 4050SOL    HW123786   3.548   1.970  12.150  2.4141  1.3840 -0.7780
 4050SOL    HW223787   3.624   1.930  12.024 -0.3771 -0.0549 -0.4674
 4051SOL     OW23788   3.761   0.677   8.152 -0.1125  0.3775  0.3294
 4051SOL    HW123789   3.831   0.689   8.217  0.3595  1.1293 -0.3122
 4051SOL    HW223790   3.712   0.759   8.163 -1.6555 -0.5634  0.4407
 4052SOL     OW23791   0.392   3.125   4.392 -0.0871 -1.1216  0.8799
 4052SOL    HW123792   0.398   3.175   4.310 -0.2398 -0.5697  1.2078
 4052SOL    HW223793   0.476   3.080   4.400  0.2020 -0.7777 -0.1343
 4053SOL     OW23794   2.399   4.533   2.669 -0.2776 -0.0630 -0.0252
 4053SOL    HW123795   2.369   4.471   2.602 -0.5123  0.4438 -0.3876
 4053SOL    HW223796   2.325   4.521   2.728  0.9547 -2.0412  1.1022
 4054SOL     OW23797   1.330   1.711   9.424  0.1109  0.1056  0.5314
 4054SOL    HW123798   1.408   1.700   9.370  0.0619  0.2246  0.4383
 4054SOL    HW223799   1.297   1.795   9.394 -0.0367 -0.2753 -0.3689
 4055SOL     OW23800   0.037   2.572   4.901 -0.7032  0.2915  0.7738
 4055SOL    HW123801   0.046   2.491   4.951  0.1572 -0.5406 -0.7438
 4055SOL    HW223802   4.681   2.590   4.919 -0.4131  1.3004  1.2625
 4056SOL     OW23803   0.110   1.768   2.102  0.1970  0.2906 -0.1127
 4056SOL    HW123804   0.041   1.820   2.060 -2.1452 -2.3575  0.4482
 4056SOL    HW223805   0.052   1.723   2.163  0.3222 -0.0724 -0.2628
 4057SOL     OW23806   3.967   0.325   7.608  0.1934  0.4430  0.0458
 4057SOL    HW123807   3.913   0.315   7.687  3.1148 -1.5994  1.8066
 4057SOL    HW223808   4.053   0.325   7.652 -1.3412  0.6392  3.0426
 4058SOL     OW23809   1.137   4.481   2.892  0.0497  0.5703 -0.0607
 4058SOL    HW123810   1.102   4.552   2.838 -0.3188  0.3605 -0.0989
 4058SOL    HW223811   1.093   4.492   2.977 -0.1210  1.8696 -0.3082
 4059SOL     OW23812   3.463   2.969   8.582 -0.4594 -0.4881  0.1518
 4059SOL    HW123813   3.522   2.956   8.657 -0.3927 -0.1645  0.1580
 4059SOL    HW223814   3.413   2.888   8.587 -2.5770  0.6873 -2.2398
 4060SOL     OW23815   1.691   3.377   6.408  0.3191  0.7281  0.2925
 4060SOL    HW123816   1.687   3.356   6.501  0.0607  2.4929  0.6685
 4060SOL    HW223817   1.784   3.364   6.393 -0.1391  0.1812 -2.1947
 4061SOL     OW23818   0.892   2.437   4.247 -0.6734  0.0057 -0.1460
 4061SOL    HW123819   0.932   2.392   4.321 -0.2530  2.4375  1.0974
 4061SOL    HW223820   0.928   2.384   4.176 -0.5195  0.2776 -0.2712
 4062SOL     OW23821   3.290   1.182  10.200  0.2221 -0.3270  0.2828
 4062SOL    HW123822   3.359   1.204  10.262 -0.4039  0.7201  0.6141
 4062SOL    HW223823   3.239   1.139  10.268  0.2620 -0.5507  0.1705
 4063SOL     OW23824   1.622   1.108   0.311 -0.3877  0.3226  0.3654
 4063SOL    HW123825   1.553   1.175   0.311  0.6576  1.3892 -0.4958
 4063SOL    HW223826   1.569   1.040   0.352  0.4857 -1.1247 -0.9176
 4064SOL     OW23827   2.031   4.282   1.388  0.0625  0.6356 -0.5109
 4064SOL    HW123828   2.002   4.213   1.328  0.8327  1.3900 -1.7214
 4064SOL    HW223829   2.020   4.364   1.340 -0.4506  2.1463  2.1747
 4065SOL     OW23830   1.366   3.037  14.882  0.8255  0.3207  0.0606
 4065SOL    HW123831   1.340   3.106  14.942  0.6244  0.8842 -0.6772
 4065SOL    HW223832   1.372   2.963  14.943  1.0817  1.4795  1.4323
 4066SOL     OW23833   1.416   0.789  16.710  0.0616  0.1594 -0.1311
 4066SOL    HW123834   1.512   0.786  16.710  0.0824  0.5105 -2.4195
 4066SOL    HW223835   1.401   0.883  16.702 -0.7881 -0.1199 -1.9677
 4067SOL     OW23836   0.878   1.166  13.133  0.0476 -0.0461  0.1623
 4067SOL    HW123837   0.875   1.262  13.134 -0.3613 -0.1132  4.1505
 4067SOL    HW223838   0.951   1.134  13.079  1.8581  2.1734  1.3103
 4068SOL     OW23839   4.080   2.954   8.387  0.2447 -0.1833 -0.2339
 4068SOL    HW123840   4.164   2.943   8.431 -0.0558 -0.4074  0.2792
 4068SOL    HW223841   4.062   2.863   8.365 -0.5471 -0.0035 -0.3431
 4069SOL     OW23842   0.729   3.302   1.873 -0.1460  0.7548 -0.1990
 4069SOL    HW123843   0.717   3.339   1.961  0.6943 -0.1009  0.2692
 4069SOL    HW223844   0.725   3.209   1.896 -2.7502  1.4084  2.1442
 4070SOL     OW23845   2.546   0.195   3.368  0.4932 -0.1539 -0.6807
 4070SOL    HW123846   2.616   0.151   3.417 -0.1590  1.9448  2.1556
 4070SOL    HW223847   2.525   0.115   3.320  0.3056 -0.0358 -0.7947
 4071SOL     OW23848   0.326   4.549   4.112 -0.4960  0.0874 -0.0989
 4071SOL    HW123849   0.418   4.551   4.085 -0.8436 -0.5490 -1.3465
 4071SOL    HW223850   0.330   4.501   4.194 -2.6900 -0.7036 -0.4749
 4072SOL     OW23851   2.693   1.230   6.546  0.2952  0.0863  0.2588
 4072SOL    HW123852   2.713   1.237   6.453  1.2120  0.4529  0.4826
 4072SOL    HW223853   2.781   1.237   6.582 -0.1864  0.8708  1.3240
 4073SOL     OW23854   1.375   2.261   0.940  0.0103  0.4222  0.2562
 4073SOL    HW123855   1.402   2.272   0.849 -0.0921  1.0843  0.3111
 4073SOL    HW223856   1.336   2.173   0.940  0.2658  0.3114 -0.3039
 4074SOL     OW23857   2.478   0.708   8.741 -0.1758  0.5004  0.2156
 4074SOL    HW123858   2.414   0.714   8.670  1.1113  0.2144 -0.9614
 4074SOL    HW223859   2.495   0.801   8.756 -1.1991  0.2404  3.0585
 4075SOL     OW23860   2.204   3.803   5.968  0.2003  0.2787 -0.2538
 4075SOL    HW123861   2.246   3.871   5.917  0.6904 -0.5069 -0.8951
 4075SOL    HW223862   2.274   3.743   5.994 -1.2306  0.1288  3.3486
 4076SOL     OW23863   1.801   2.159  13.402 -0.1447  0.1244  0.3935
 4076SOL    HW123864   1.729   2.175  13.463 -1.2070  0.9458 -1.1022
 4076SOL    HW223865   1.839   2.245  13.385 -1.4048  0.1903 -1.9292
 4077SOL     OW23866   2.309   0.635   9.287 -0.1378  0.3714  0.2025
 4077SOL    HW123867   2.355   0.638   9.203 -1.2382 -0.3482 -0.4217
 4077SOL    HW223868   2.370   0.674   9.350  0.6482 -1.0420  0.3130
 4078SOL     OW23869   3.921   3.254   5.445  0.4229 -0.4121  0.0372
 4078SOL    HW123870   3.884   3.258   5.357 -2.5432 -0.3609  1.3075
 4078SOL    HW223871   3.933   3.346   5.467  1.7806 -0.5987  0.0724
 4079SOL     OW23872   4.118   4.178   6.289  0.4200  0.2657 -0.2802
 4079SOL    HW123873   4.101   4.264   6.251  0.2136  0.4679  0.2674
 4079SOL    HW223874   4.039   4.175   6.343  1.5072 -2.5411  1.1594
 4080SOL     OW23875   1.161   3.151   3.253  0.4756  0.1864  0.3969
 4080SOL    HW123876   1.083   3.096   3.245 -1.0896  2.7307 -2.0269
 4080SOL    HW223877   1.132   3.207   3.324 -1.6297 -0.8826  0.4015
 4081SOL     OW23878   0.886   3.986   1.884 -0.1432  0.3222 -0.1017
 4081SOL    HW123879   0.947   3.993   1.957 -2.2765 -1.1355  1.8175
 4081SOL    HW223880   0.816   4.006   1.946 -0.2000 -0.0505 -0.0456
 4082SOL     OW23881   4.297   1.281   3.097  0.3292 -0.4685  0.0450
 4082SOL    HW123882   4.214   1.323   3.074  0.3554 -1.2569 -1.4764
 4082SOL    HW223883   4.304   1.286   3.193  0.9113 -1.2277  0.0395
 4083SOL     OW23884   1.401   1.146   0.070  0.1007  0.2202 -0.4662
 4083SOL    HW123885   1.349   1.067   0.081  2.3435 -0.9242  1.8931
 4083SOL    HW223886   1.400   1.180   0.159 -2.7116 -1.9133  0.3217
 4084SOL     OW23887   2.102   2.667   2.429 -0.3635 -0.5008 -0.0376
 4084SOL    HW123888   2.081   2.732   2.363  0.9555  0.3027  0.3393
 4084SOL    HW223889   2.083   2.704   2.515 -0.4155  1.5626 -0.9532
 4085SOL     OW23890   2.723   4.478   1.063 -0.1253 -0.1794  0.3497
 4085SOL    HW123891   2.720   4.573   1.055 -0.8293 -0.2709 -0.4313
 4085SOL    HW223892   2.657   4.451   1.127 -1.4979 -0.6120 -1.2412
 4086SOL     OW23893   4.601   1.356   8.447  0.7314  0.1695 -0.8475
 4086SOL    HW123894   4.655   1.318   8.377 -0.6011 -0.5084 -1.5217
 4086SOL    HW223895   4.531   1.290   8.449  1.2755 -0.3451  0.4985
 4087SOL     OW23896   2.263   4.727  15.809  0.4060 -0.0172  0.3673
 4087SOL    HW123897   2.236   0.026  15.724  2.1546  1.7428  0.5307
 4087SOL    HW223898   2.264   4.633  15.791 -1.7417  0.1646 -0.6569
 4088SOL     OW23899   2.369   0.065   5.661  0.5628 -0.5141  0.0195
 4088SOL    HW123900   2.338   4.732   5.603 -0.4949 -1.1733  1.3865
 4088SOL    HW223901   2.288   0.076   5.710  2.0538  0.5335  2.2141
 4089SOL     OW23902   2.882   3.905   5.986  0.0735  0.0969  0.4366
 4089SOL    HW123903   2.961   3.909   5.932 -1.7339  3.2899 -1.9713
 4089SOL    HW223904   2.826   3.843   5.940 -0.1201  0.6838 -0.1249
 4090SOL     OW23905   0.170   2.141   5.987 -0.0298 -0.2120 -0.2773
 4090SOL    HW123906   0.126   2.093   5.917 -0.1888 -0.8058  0.2388
 4090SOL    HW223907   0.189   2.065   6.041 -0.0573 -0.3561 -0.4703
 4091SOL     OW23908   3.417   0.467   9.656  0.0804  0.1821 -0.0232
 4091SOL    HW123909   3.430   0.523   9.733  1.5708  0.1013 -0.2065
 4091SOL    HW223910   3.415   0.378   9.690  0.5183  1.0014  2.1868
 4092SOL     OW23911   3.207   3.490  16.358  0.4092  0.2935  0.2846
 4092SOL    HW123912   3.138   3.424  16.362  0.3835  0.3763  1.1444
 4092SOL    HW223913   3.277   3.427  16.375  0.9545  1.7572  3.2868
 4093SOL     OW23914   1.466   0.663   9.041 -0.0233  0.2261 -0.4240
 4093SOL    HW123915   1.483   0.605   9.115  0.4585 -0.8681 -1.4066
 4093SOL    HW223916   1.555   0.694   9.025  0.1031  0.4221  0.6469
 4094SOL     OW23917   0.658   4.111   4.401 -0.8332  0.0444 -0.4123
 4094SOL    HW123918   0.585   4.172   4.408 -0.0456  0.6891  2.1784
 4094SOL    HW223919   0.733   4.169   4.394 -1.7047  1.4637  1.8873
 4095SOL     OW23920   3.203   3.417   3.505  0.0262 -0.8283  0.3073
 4095SOL    HW123921   3.115   3.455   3.503  1.6498  2.8063 -0.5011
 4095SOL    HW223922   3.241   3.456   3.427 -1.6390 -1.6344 -0.9197
 4096SOL     OW23923   3.234   0.005   6.368  0.4213  0.1985 -0.2372
 4096SOL    HW123924   3.259   4.649   6.357 -0.4727 -0.2177  1.2170
 4096SOL    HW223925   3.193   4.733   6.454 -0.5508 -1.6681 -0.8634
 4097SOL     OW23926   2.244   3.518   4.367 -0.1503 -0.5271 -0.7962
 4097SOL    HW123927   2.201   3.447   4.415  1.0423 -1.3641 -0.9615
 4097SOL    HW223928   2.199   3.591   4.408  1.3948  0.2952 -0.5471
 4098SOL     OW23929   0.303   2.658   6.745  0.2634  1.0381 -0.3948
 4098SOL    HW123930   0.388   2.660   6.701 -0.8556  1.1004 -2.5213
 4098SOL    HW223931   0.253   2.720   6.691 -2.3285  1.0326  2.0010
 4099SOL     OW23932   0.925   0.991   5.475  0.0174 -0.6136  0.0609
 4099SOL    HW123933   0.905   0.901   5.451 -0.3305 -0.7454  0.8264
 4099SOL    HW223934   1.009   0.967   5.515  1.2215  0.2899 -1.9416
 4100SOL     OW23935   1.993   3.575  13.129 -0.7538  0.3168 -0.2201
 4100SOL    HW123936   1.980   3.593  13.222  0.8709 -0.1014  0.0861
 4100SOL    HW223937   2.056   3.503  13.133  1.0911  2.0515  1.9317
 4101SOL     OW23938   4.115   1.117   2.381  0.3292  0.4862  0.2297
 4101SOL    HW123939   4.093   1.055   2.311  0.6477  0.1447  0.4344
 4101SOL    HW223940   4.109   1.192   2.322 -1.3669  0.9256  0.9839
 4102SOL     OW23941   2.326   4.228   5.131  0.5992  0.4759  0.5099
 4102SOL    HW123942   2.372   4.182   5.201  0.6095  2.7689  2.0208
 4102SOL    HW223943   2.381   4.306   5.138 -0.7363  1.4220  0.6189
 4103SOL     OW23944   3.036   2.322  14.960  0.0284  0.1030  0.1046
 4103SOL    HW123945   2.957   2.368  14.987  0.1383  0.7094 -0.6203
 4103SOL    HW223946   3.058   2.375  14.883 -2.2818  1.8332  0.6331
 4104SOL     OW23947   0.896   0.066   6.785 -0.0672 -0.1027 -0.2713
 4104SOL    HW123948   0.859   0.059   6.873  0.9619  1.7959  0.3094
 4104SOL    HW223949   0.951   0.143   6.798  0.0735 -0.0289 -1.3138
 4105SOL     OW23950   1.552   4.527   6.201  1.1060 -0.4109  0.0016
 4105SOL    HW123951   1.524   4.494   6.287 -0.2388  1.6658  0.3542
 4105SOL    HW223952   1.562   4.441   6.159 -0.0189  0.2816 -1.6783
 4106SOL     OW23953   0.559   2.338   7.474  0.6211 -0.1862 -0.8196
 4106SOL    HW123954   0.465   2.323   7.463  0.4416  0.9608 -0.7991
 4106SOL    HW223955   0.588   2.262   7.525 -1.9223 -0.7994 -0.3044
 4107SOL     OW23956   0.464   2.155   6.296 -0.7013  0.0893 -0.3469
 4107SOL    HW123957   0.401   2.178   6.365 -3.0551 -0.9813 -2.1173
 4107SOL    HW223958   0.542   2.202   6.325 -1.3282  0.4290  0.8006
 4108SOL     OW23959   3.473   1.972   3.866  0.0131 -0.0927  0.3213
 4108SOL    HW123960   3.416   1.921   3.809  3.8873 -1.8257 -2.0443
 4108SOL    HW223961   3.452   2.064   3.854  1.7198  0.2661  0.0304
 4109SOL     OW23962   0.106   2.504  14.463 -0.1498  0.4826  0.4824
 4109SOL    HW123963   0.102   2.446  14.540 -1.2913 -0.0286  0.0463
 4109SOL    HW223964   0.163   2.573  14.497  0.9220 -0.4162  0.5128
 4110SOL     OW23965   2.588   0.821   7.575  0.0494 -0.0742 -0.7164
 4110SOL    HW123966   2.655   0.889   7.582 -0.2043  0.0531  0.4380
 4110SOL    HW223967   2.616   0.777   7.655  0.1896  1.5499  0.1166
 4111SOL     OW23968   2.205   4.597   9.106 -0.0796 -0.3054 -0.0806
 4111SOL    HW123969   2.150   4.518   9.109 -0.6285  0.1678  2.3756
 4111SOL    HW223970   2.290   4.561   9.132 -0.0041  0.2379  0.4221
 4112SOL     OW23971   0.767   2.956   7.533 -0.0849  0.1618  0.5379
 4112SOL    HW123972   0.776   2.924   7.623  1.5136  1.1521  0.7410
 4112SOL    HW223973   0.771   2.881   7.475 -0.5119 -1.0296  2.0562
 4113SOL     OW23974   2.638   3.990  10.513  0.3238 -0.1633  0.0783
 4113SOL    HW123975   2.547   3.965  10.497  0.2020  0.3735 -0.0780
 4113SOL    HW223976   2.657   3.943  10.594  1.6380  0.6559  0.2412
 4114SOL     OW23977   2.122   3.124  15.130 -0.6527 -0.9511 -0.2594
 4114SOL    HW123978   2.180   3.056  15.164 -0.8830 -0.3417  1.3658
 4114SOL    HW223979   2.038   3.078  15.127 -2.2995  2.0592 -0.4436
 4115SOL     OW23980   1.966   3.466   9.696 -0.5944  0.1379 -0.9023
 4115SOL    HW123981   2.052   3.425   9.680 -0.5472 -0.2200  0.3213
 4115SOL    HW223982   1.930   3.476   9.608 -2.1141 -0.3466 -0.3372
 4116SOL     OW23983   4.193   4.469   6.008 -0.1627 -0.4176  0.2091
 4116SOL    HW123984   4.161   4.386   5.971 -2.5147  0.0564  1.2002
 4116SOL    HW223985   4.142   4.521   5.945 -1.8048 -0.8386  1.1802
 4117SOL     OW23986   2.095   0.240   6.167 -0.1403 -0.0862  0.4999
 4117SOL    HW123987   2.098   0.145   6.171  1.4716 -0.0375  0.4373
 4117SOL    HW223988   2.175   0.260   6.120 -0.3264  0.1148  0.2693
 4118SOL     OW23989   0.508   1.268   7.348  0.0369 -0.7541  0.6226
 4118SOL    HW123990   0.495   1.307   7.434  0.5014  0.8957 -0.0695
 4118SOL    HW223991   0.416   1.248   7.330  0.5917 -2.9555  0.2667
 4119SOL     OW23992   3.736   3.238   6.110 -0.0154  0.1794  0.0500
 4119SOL    HW123993   3.766   3.329   6.120  2.4898 -0.6446 -0.0723
 4119SOL    HW223994   3.651   3.246   6.155  0.1429 -0.5087  0.4585
 4120SOL     OW23995   1.219   2.856   2.750  0.1389  0.4551  0.5578
 4120SOL    HW123996   1.311   2.882   2.751  0.7183 -1.5565  0.3087
 4120SOL    HW223997   1.223   2.777   2.696 -1.6505  1.1183 -0.5511
 4121SOL     OW23998   2.631   4.397   9.833  0.0618  0.7223 -0.9739
 4121SOL    HW123999   2.680   4.467   9.878  0.2782 -0.2772  0.3551
 4121SOL    HW224000   2.638   4.425   9.742  3.5770  1.9123 -0.3579
 4122SOL     OW24001   2.327   3.240  15.288  0.3528  0.2103  0.3937
 4122SOL    HW124002   2.390   3.190  15.339 -0.7518 -1.1273  0.4333
 4122SOL    HW224003   2.278   3.170  15.245  0.4191  0.0065  0.6554
 4123SOL     OW24004   1.079   2.801  12.784 -0.6997  0.4220  0.1991
 4123SOL    HW124005   1.093   2.731  12.721  2.8711  1.7157 -0.4238
 4123SOL    HW224006   1.145   2.867  12.765  0.1287 -0.6353 -0.5855
 4124SOL     OW24007   0.081   1.356  13.127  0.5649 -0.1855  0.1346
 4124SOL    HW124008   4.729   1.328  13.100  0.9240 -1.3737  0.1723
 4124SOL    HW224009   0.073   1.336  13.220  0.8402 -1.5812 -0.1329
 4125SOL     OW24010   1.473   1.894   7.794  0.5024 -0.2587 -0.2394
 4125SOL    HW124011   1.484   1.968   7.734  2.5102 -1.5867 -1.5167
 4125SOL    HW224012   1.399   1.928   7.844  1.1380  1.1580 -0.2527
 4126SOL     OW24013   4.567   1.904  13.378 -0.2891 -0.0563 -0.2672
 4126SOL    HW124014   4.624   1.829  13.394 -2.0772 -1.3901 -0.1278
 4126SOL    HW224015   4.522   1.915  13.461 -2.4931 -0.9593 -1.3430
 4127SOL     OW24016   1.691   0.370   9.341 -0.1519  0.2594 -0.4427
 4127SOL    HW124017   1.637   0.307   9.389  0.2433 -0.8353 -1.4261
 4127SOL    HW224018   1.671   0.454   9.381  2.1482  0.7352 -0.2835
 4128SOL     OW24019   3.011   0.362   3.546 -0.1910  0.3242  0.0869
 4128SOL    HW124020   3.024   0.435   3.486 -2.5976 -0.6416 -1.6008
 4128SOL    HW224021   3.099   0.369   3.584 -0.4737 -2.6060  1.2588
 4129SOL     OW24022   1.857   4.725   7.958 -0.9734 -0.1376 -0.8433
 4129SOL    HW124023   1.828   4.673   8.033  1.0530 -0.7043 -0.4649
 4129SOL    HW224024   1.901   0.058   8.007  0.2491 -1.0397 -0.6846
 4130SOL     OW24025   0.944   3.181  14.676  0.6964 -0.3406 -0.1536
 4130SOL    HW124026   0.883   3.121  14.719  0.1145  1.9604  2.2196
 4130SOL    HW224027   0.896   3.264  14.673 -1.0219 -1.3411 -0.5219
 4131SOL     OW24028   2.688   2.910  16.372 -0.3970  0.6363 -0.6545
 4131SOL    HW124029   2.639   2.830  16.350  1.1134 -0.1572 -1.1234
 4131SOL    HW224030   2.640   2.949  16.445 -0.0204  0.4770 -0.3271
 4132SOL     OW24031   3.701   3.249   5.234  0.9612  0.7660  0.2716
 4132SOL    HW124032   3.645   3.303   5.290 -0.6842  0.0086 -0.6495
 4132SOL    HW224033   3.670   3.278   5.149 -1.1303  0.7816  1.0355
 4133SOL     OW24034   3.545   2.988   6.898  0.8234 -0.0758 -0.1095
 4133SOL    HW124035   3.501   3.050   6.839 -2.1837  0.1760  2.3936
 4133SOL    HW224036   3.505   3.030   6.975  0.7556  1.6821 -1.0988
 4134SOL     OW24037   1.614   2.280  15.032  0.5086  0.0188  0.3905
 4134SOL    HW124038   1.615   2.260  15.126  0.9696 -1.2678  0.1166
 4134SOL    HW224039   1.551   2.350  15.016  1.2196  0.6508  0.3808
 4135SOL     OW24040   2.593   2.991   2.849 -0.1777  0.1125 -0.7046
 4135SOL    HW124041   2.531   3.051   2.806  1.6697  2.7701  0.3585
 4135SOL    HW224042   2.566   2.903   2.823  0.0237  0.6884 -2.9121
 4136SOL     OW24043   3.616   2.037  17.223 -0.0449  0.2692  0.3862
 4136SOL    HW124044   3.591   1.944  17.221  0.5871  0.1164 -0.4345
 4136SOL    HW224045   3.539   2.083  17.188 -0.5590  0.4476  1.7486
 4137SOL     OW24046   4.032   4.315  17.209  0.1992  0.3743 -0.1946
 4137SOL    HW124047   4.012   4.248  17.274 -1.6840  0.5937 -0.5384
 4137SOL    HW224048   4.096   4.368  17.257  0.1309  0.6708 -0.4315
 4138SOL     OW24049   4.151   3.258   7.931  0.3581  0.3939  0.5868
 4138SOL    HW124050   4.130   3.203   8.006  0.0566 -1.6818 -1.0198
 4138SOL    HW224051   4.076   3.317   7.921 -0.6108 -0.6772  1.6025
 4139SOL     OW24052   0.053   3.581   1.335  0.5814 -0.0274  0.2256
 4139SOL    HW124053   0.082   3.666   1.302 -2.2764  1.2983  1.1480
 4139SOL    HW224054   0.126   3.519   1.327  1.4866  1.1948 -0.9782
 4140SOL     OW24055   3.453   1.499   9.935 -0.0178 -0.1052  0.3962
 4140SOL    HW124056   3.454   1.432   9.866  1.7025 -0.3358  0.6319
 4140SOL    HW224057   3.505   1.449   9.998 -0.9180 -2.4135 -0.6969
 4141SOL     OW24058   0.730   2.199  12.563 -0.0206  0.2884 -0.6985
 4141SOL    HW124059   0.784   2.224  12.638 -2.0501  2.3476  0.0878
 4141SOL    HW224060   0.682   2.120  12.586 -0.1400  0.5354 -0.1127
 4142SOL     OW24061   3.185   2.663   4.628  0.2283  0.3507  0.0239
 4142SOL    HW124062   3.190   2.745   4.579  1.8688  1.5370  2.1594
 4142SOL    HW224063   3.117   2.611   4.584  0.2780  1.9002 -1.8558
 4143SOL     OW24064   3.212   3.637   8.484  0.3928  0.1152 -0.5534
 4143SOL    HW124065   3.301   3.674   8.487  0.9250 -1.0866 -1.4952
 4143SOL    HW224066   3.180   3.678   8.565  1.1185  0.1537 -0.2777
 4144SOL     OW24067   0.632   2.972   6.089  0.1880  0.0164 -0.1022
 4144SOL    HW124068   0.586   3.038   6.037  1.0203 -0.0424 -0.9273
 4144SOL    HW224069   0.658   2.914   6.017  2.0136  0.5747  0.1019
 4145SOL     OW24070   1.977   3.248   9.179 -0.4544 -0.0703  0.3582
 4145SOL    HW124071   2.004   3.339   9.166  0.7223 -0.7981 -2.2160
 4145SOL    HW224072   1.942   3.224   9.093 -1.4196  2.2772  0.0721
 4146SOL     OW24073   4.694   0.291  11.024 -0.4871 -0.0431 -0.2104
 4146SOL    HW124074   4.691   0.380  10.988 -1.0447 -0.0920 -0.2907
 4146SOL    HW224075   4.655   0.308  11.109  0.2529  0.8365 -0.0447
 4147SOL     OW24076   2.144   0.348   3.275  0.1592  0.2173 -0.0011
 4147SOL    HW124077   2.227   0.383   3.243  1.2871 -0.8518  1.7457
 4147SOL    HW224078   2.162   0.370   3.367 -0.9708  0.7019  0.0998
 4148SOL     OW24079   3.401   3.466   8.157  0.4064 -0.4298  0.7904
 4148SOL    HW124080   3.354   3.507   8.084 -0.3925 -0.6990  1.1484
 4148SOL    HW224081   3.329   3.451   8.218  0.0226  0.6204  0.5971
 4149SOL     OW24082   4.525   2.582   8.323 -0.0474 -0.2654 -0.4337
 4149SOL    HW124083   4.555   2.492   8.313 -0.8199 -0.3364 -1.9729
 4149SOL    HW224084   4.573   2.598   8.405  1.4415 -1.2843 -1.1093
 4150SOL     OW24085   1.696   2.452  16.497  0.4905 -0.3562  0.3719
 4150SOL    HW124086   1.632   2.522  16.486  0.4895 -0.2308  1.1642
 4150SOL    HW224087   1.723   2.442  16.406 -0.8994 -1.9616  0.1498
 4151SOL     OW24088   4.530   2.464   7.057 -0.1341 -0.3401  0.3233
 4151SOL    HW124089   4.586   2.471   7.134  0.1911 -0.6369  0.1103
 4151SOL    HW224090   4.443   2.461   7.097  0.2445  1.3527  1.2805
 4152SOL     OW24091   0.521   3.473   0.671 -0.0355 -0.2523 -0.1476
 4152SOL    HW124092   0.600   3.525   0.658 -1.7327  1.8084 -2.1239
 4152SOL    HW224093   0.508   3.421   0.592  0.7148 -1.3684  0.4499
 4153SOL     OW24094   1.048   1.384   0.470  0.2056  0.1739 -0.5612
 4153SOL    HW124095   1.056   1.362   0.563  0.9211  2.4298 -0.0915
 4153SOL    HW224096   1.007   1.302   0.444  2.2677 -0.5476 -1.5708
 4154SOL     OW24097   4.194   2.056   0.846  0.0211 -0.1023  0.1392
 4154SOL    HW124098   4.123   2.110   0.881 -0.3009 -0.2061 -0.3540
 4154SOL    HW224099   4.156   2.021   0.765  0.1255  0.4242 -0.1399
 4155SOL     OW24100   2.506   2.924   3.485  0.3265 -0.1391 -0.0104
 4155SOL    HW124101   2.459   2.905   3.404  1.1039 -2.4875  0.1028
 4155SOL    HW224102   2.593   2.945   3.453  0.4817 -1.0980 -0.2076
 4156SOL     OW24103   2.105   2.776   5.236  0.2695 -0.3405 -0.4244
 4156SOL    HW124104   2.179   2.799   5.292  0.1701 -0.1906 -0.3537
 4156SOL    HW224105   2.028   2.813   5.278  1.7698  1.3861  0.7973
 4157SOL     OW24106   2.497   0.323   7.791 -0.0997 -0.2554  0.3956
 4157SOL    HW124107   2.549   0.368   7.725  0.8579 -0.2784  1.1387
 4157SOL    HW224108   2.523   0.233   7.771 -0.4586  0.3546 -2.7254
 4158SOL     OW24109   4.533   4.098  10.118  0.8018  0.4024 -0.1914
 4158SOL    HW124110   4.520   4.184  10.158  4.6871  1.9521 -2.2569
 4158SOL    HW224111   4.490   4.104  10.033 -0.3881 -1.3176  0.2916
 4159SOL     OW24112   4.593   4.157  11.968 -0.5385 -0.5792  0.1621
 4159SOL    HW124113   4.515   4.161  11.913  0.2004  0.4987 -0.8135
 4159SOL    HW224114   4.645   4.087  11.928 -0.6041 -0.1429 -0.6971
 4160SOL     OW24115   1.438   2.026   5.136  0.3335 -0.9185  0.2186
 4160SOL    HW124116   1.486   2.014   5.218 -2.2514 -2.9425  1.4320
 4160SOL    HW224117   1.508   2.023   5.071 -1.1898  1.9161 -1.5780
 4161SOL     OW24118   3.968   1.573   6.526 -0.0188  0.3183 -0.0880
 4161SOL    HW124119   3.949   1.536   6.440 -0.8487 -3.1488  1.5806
 4161SOL    HW224120   4.061   1.594   6.515 -0.2274  1.2869  0.0044
 4162SOL     OW24121   3.481   0.470   0.824  0.9348 -0.7702 -0.0220
 4162SOL    HW124122   3.562   0.506   0.861  1.8080 -0.1172 -2.5799
 4162SOL    HW224123   3.492   0.473   0.729  0.2684 -1.9426 -0.1373
 4163SOL     OW24124   3.072   0.265   5.742 -0.6854  0.1349 -0.0530
 4163SOL    HW124125   3.052   0.351   5.780  0.4817 -0.1943  1.3350
 4163SOL    HW224126   3.067   0.278   5.648  1.0324 -1.5301 -0.3799
 4164SOL     OW24127   1.101   2.470   8.771 -0.1988 -0.5544  0.7163
 4164SOL    HW124128   1.188   2.500   8.744  0.7159 -2.4026  1.5837
 4164SOL    HW224129   1.067   2.543   8.822  0.5449 -1.2378  2.2048
 4165SOL     OW24130   1.639   1.183  16.114 -0.4626 -0.1043 -0.0384
 4165SOL    HW124131   1.719   1.145  16.151  0.6313  0.3027 -2.0081
 4165SOL    HW224132   1.658   1.275  16.134 -0.9921 -0.2717  1.2801
 4166SOL     OW24133   0.232   3.473   2.916 -0.0321  0.0965 -0.0413
 4166SOL    HW124134   0.267   3.411   2.979  1.3467  0.7609 -0.1522
 4166SOL    HW224135   0.309   3.475   2.859  0.1707 -1.3619  0.1740
 4167SOL     OW24136   3.365   0.905   8.237  0.0068 -0.0913 -0.3173
 4167SOL    HW124137   3.317   0.892   8.319 -0.8895  1.4464 -0.6088
 4167SOL    HW224138   3.385   0.815   8.212 -3.1296 -0.7972 -0.2120
 4168SOL     OW24139   1.010   0.423   1.497 -0.2473 -0.4245 -0.2633
 4168SOL    HW124140   1.011   0.335   1.535  1.7371  0.2190  1.2053
 4168SOL    HW224141   0.933   0.419   1.441  0.1085 -1.2076 -0.7103
 4169SOL     OW24142   2.721   2.270   9.081  0.0144  0.1009 -0.2536
 4169SOL    HW124143   2.814   2.279   9.101 -0.7431  0.7865  2.8768
 4169SOL    HW224144   2.694   2.360   9.102 -0.2184 -0.0276  0.0011
 4170SOL     OW24145   0.436   1.108  10.741 -0.5099 -0.5188 -0.0627
 4170SOL    HW124146   0.425   1.179  10.678  0.2586 -0.2089  0.1365
 4170SOL    HW224147   0.499   1.051  10.698  1.3196  0.6407  1.0623
 4171SOL     OW24148   1.718   1.675   8.690  0.2106  0.2259  0.1126
 4171SOL    HW124149   1.703   1.745   8.626  0.4682  0.1920  0.0173
 4171SOL    HW224150   1.699   1.711   8.776  2.9866  0.6433  0.5487
 4172SOL     OW24151   0.311   3.972   5.165  0.6729  0.7959 -0.4797
 4172SOL    HW124152   0.400   3.943   5.183  0.4498  0.1254 -0.4498
 4172SOL    HW224153   0.337   4.046   5.109 -0.4580  0.5920 -1.2806
 4173SOL     OW24154   4.130   2.214  16.508  0.3597 -0.3943 -0.1056
 4173SOL    HW124155   4.203   2.185  16.452  0.0034  1.9703 -1.8221
 4173SOL    HW224156   4.069   2.142  16.492 -2.3533  1.6463  1.1247
 4174SOL     OW24157   3.739   4.243   2.162 -0.1062 -0.0755  0.7416
 4174SOL    HW124158   3.771   4.153   2.157 -0.5770 -0.2364  0.6093
 4174SOL    HW224159   3.675   4.231   2.232  0.4212 -1.2180  1.0309
 4175SOL     OW24160   1.691   1.225   4.026  0.4640  0.3538  0.0873
 4175SOL    HW124161   1.653   1.298   3.977 -1.4202 -0.6117  0.1112
 4175SOL    HW224162   1.685   1.149   3.969  1.6422 -1.1461  1.9339
 4176SOL     OW24163   1.965   1.890  10.839  0.4914  0.6555  0.2649
 4176SOL    HW124164   1.904   1.838  10.891  0.3186 -0.6477 -1.2264
 4176SOL    HW224165   2.049   1.889  10.884  0.6216  0.4246  0.0240
 4177SOL     OW24166   2.083   0.208   2.857  0.3331  0.1697  0.2374
 4177SOL    HW124167   2.060   0.289   2.903 -1.1585 -0.2939  0.3163
 4177SOL    HW224168   2.070   0.247   2.771  0.5545 -1.0431 -0.3317
 4178SOL     OW24169   2.847   2.830   7.371 -0.8563 -0.5227 -0.4273
 4178SOL    HW124170   2.800   2.756   7.409 -0.9493 -0.9386 -1.3409
 4178SOL    HW224171   2.933   2.795   7.346 -0.5966 -0.3570  0.2222
 4179SOL     OW24172   2.818   3.350  10.746  0.1806  0.2629  0.1568
 4179SOL    HW124173   2.832   3.257  10.762  0.1240  0.4117  1.1081
 4179SOL    HW224174   2.903   3.387  10.769  1.0760 -1.4789 -0.4028
 4180SOL     OW24175   0.996   2.040   4.252 -0.7394  0.4436 -0.8449
 4180SOL    HW124176   1.062   2.073   4.312 -0.9691  0.3426 -0.5365
 4180SOL    HW224177   1.042   1.975   4.199 -0.7470  0.9458 -1.4633
 4181SOL     OW24178   1.326   0.953   1.947  0.1581  0.6683 -0.4737
 4181SOL    HW124179   1.332   0.905   2.029 -1.5208  1.8503  0.3662
 4181SOL    HW224180   1.283   0.889   1.890  3.5927 -1.5634 -0.5489
 4182SOL     OW24181   2.451   1.652   5.785  0.8512  0.0816 -0.0018
 4182SOL    HW124182   2.416   1.730   5.743  2.9075  0.3291 -1.2444
 4182SOL    HW224183   2.451   1.584   5.718 -3.3368  0.1825 -0.0459
 4183SOL     OW24184   2.637   1.410   4.249  0.4313 -0.3600 -0.3754
 4183SOL    HW124185   2.619   1.495   4.289  1.1285 -0.2281 -0.3436
 4183SOL    HW224186   2.722   1.388   4.288  0.1927 -1.5189 -0.5065
 4184SOL     OW24187   3.837   1.247  17.285  0.0573 -0.7113  0.6764
 4184SOL    HW124188   3.747   1.213  17.290  0.7636 -2.3149  2.5810
 4184SOL    HW224189   3.824   1.341  17.295  0.1881 -0.8130  1.8029
 4185SOL     OW24190   2.057   3.735  17.626  0.6466  0.3692  0.6146
 4185SOL    HW124191   2.141   3.700  17.654 -0.0399 -1.1640  0.7812
 4185SOL    HW224192   2.026   3.797  17.692 -0.2816  0.9808 -0.3873
 4186SOL     OW24193   1.864   1.778   7.775 -0.2526 -0.2611 -0.0777
 4186SOL    HW124194   1.814   1.724   7.713 -0.3478  0.4222 -0.6016
 4186SOL    HW224195   1.838   1.745   7.861 -0.1029 -0.1128  0.0234
 4187SOL     OW24196   0.876   2.434  13.418 -0.4215 -0.0505  0.1052
 4187SOL    HW124197   0.902   2.376  13.490 -3.3421  0.0969  1.2457
 4187SOL    HW224198   0.946   2.498  13.406 -0.3065 -0.6464 -2.5208
 4188SOL     OW24199   2.855   3.076   3.816  0.0150  0.1130  0.0697
 4188SOL    HW124200   2.898   3.137   3.757 -0.0011  0.0978  0.0423
 4188SOL    HW224201   2.777   3.049   3.767  0.3329  1.1040 -0.9775
 4189SOL     OW24202   3.780   0.303   3.281 -0.4539 -0.0139 -0.3819
 4189SOL    HW124203   3.753   0.234   3.221  0.4930  0.5908 -1.5152
 4189SOL    HW224204   3.874   0.306   3.265 -0.1636 -2.0259  1.0159
 4190SOL     OW24205   0.377   1.616   5.829  0.4873 -0.2073 -0.1087
 4190SOL    HW124206   0.324   1.620   5.908 -3.8344 -0.4913 -2.9622
 4190SOL    HW224207   0.448   1.562   5.864  1.5506  1.7437  0.7330
 4191SOL     OW24208   1.920   2.843   9.044 -0.5152 -0.0923 -0.4068
 4191SOL    HW124209   1.907   2.805   8.957  0.7730  1.2970 -1.1961
 4191SOL    HW224210   1.835   2.829   9.086 -0.4511 -0.0012 -0.2481
 4192SOL     OW24211   2.148   3.343   5.803  0.3697 -0.1445  0.4124
 4192SOL    HW124212   2.152   3.380   5.715 -1.3450  0.8286  0.7524
 4192SOL    HW224213   2.054   3.332   5.818  0.4027 -1.5667 -0.4309
 4193SOL     OW24214   0.092   1.023   8.444  0.3604  0.1346 -0.1262
 4193SOL    HW124215   0.166   1.024   8.382 -0.1575 -1.2401 -0.7570
 4193SOL    HW224216   0.023   1.042   8.381  1.0729  3.4199  0.0752
 4194SOL     OW24217   3.771   0.045   8.324 -0.2797 -0.7691 -0.5573
 4194SOL    HW124218   3.702   4.723   8.356  0.1117 -1.4356 -0.9195
 4194SOL    HW224219   3.843   4.719   8.314  0.7819  0.1115  1.5062
 4195SOL     OW24220   1.109   3.398   2.728 -0.0060 -0.4262 -0.0047
 4195SOL    HW124221   1.153   3.483   2.730  0.5998 -0.7213 -0.7378
 4195SOL    HW224222   1.058   3.410   2.808 -0.7320 -0.6087 -0.4436
 4196SOL     OW24223   3.425   2.558   9.805 -0.1056 -0.2330 -0.4187
 4196SOL    HW124224   3.331   2.561   9.819 -0.3513  0.3729 -2.1985
 4196SOL    HW224225   3.443   2.487   9.867  2.0190  1.0368  0.4468
 4197SOL     OW24226   1.538   3.335   6.199  0.7727 -0.5562 -0.3132
 4197SOL    HW124227   1.583   3.354   6.282  1.2152 -1.6193 -0.3038
 4197SOL    HW224228   1.590   3.394   6.144  1.7927 -0.5917  0.6076
 4198SOL     OW24229   1.465   2.909   8.425 -0.0759 -0.4721  0.3315
 4198SOL    HW124230   1.529   2.860   8.476 -1.4732 -0.1405  2.4153
 4198SOL    HW224231   1.493   3.000   8.434  0.6998 -0.7014  0.2011
 4199SOL     OW24232   3.825   1.280  11.828 -0.4101 -0.2115 -0.3547
 4199SOL    HW124233   3.874   1.210  11.871 -0.2429  0.8043  1.1363
 4199SOL    HW224234   3.740   1.242  11.805 -1.1737  1.3961 -0.2615
 4200SOL     OW24235   4.215   1.229  11.062 -0.4038 -0.0514 -0.0406
 4200SOL    HW124236   4.238   1.239  11.154  0.4510  0.4708 -0.3078
 4200SOL    HW224237   4.174   1.315  11.058  0.0982  0.1688 -0.4070
 4201SOL     OW24238   3.969   1.867   0.359  0.4760  0.2402  0.0573
 4201SOL    HW124239   4.060   1.857   0.389  0.4103  0.3413  0.2886
 4201SOL    HW224240   3.958   1.781   0.320 -1.0846  0.3704  0.2376
 4202SOL     OW24241   1.666   1.376  10.282  0.2459  0.0335  0.1071
 4202SOL    HW124242   1.637   1.285  10.282  2.1811 -0.5698 -2.1047
 4202SOL    HW224243   1.593   1.414  10.234 -0.7685 -1.2747  0.6377
 4203SOL     OW24244   3.828   3.082   2.624  0.0643  0.0703 -0.5367
 4203SOL    HW124245   3.914   3.056   2.590 -0.3472 -1.9170 -0.0126
 4203SOL    HW224246   3.791   3.120   2.544 -0.2557 -1.5564 -1.1512
 4204SOL     OW24247   2.206   1.534   4.496 -0.6142 -0.3072  0.3081
 4204SOL    HW124248   2.195   1.450   4.450  0.2432  0.4890 -1.3545
 4204SOL    HW224249   2.232   1.583   4.418 -1.2563 -0.0816  0.2457
 4205SOL     OW24250   3.788   2.982   5.680  0.4285  0.5186 -0.1977
 4205SOL    HW124251   3.751   3.010   5.597 -0.8730 -1.0126 -0.1291
 4205SOL    HW224252   3.721   3.016   5.740  1.1329  0.5958  0.5473
 4206SOL     OW24253   2.785   0.664   2.276  0.4566  0.2144  0.0017
 4206SOL    HW124254   2.824   0.577   2.277 -0.1135 -0.0479 -0.6152
 4206SOL    HW224255   2.863   0.720   2.278 -0.0589  0.8950  1.5503
 4207SOL     OW24256   2.400   2.630   2.152 -0.5279  0.0235 -0.1177
 4207SOL    HW124257   2.405   2.693   2.224 -1.5670  2.6147 -2.3204
 4207SOL    HW224258   2.331   2.668   2.098 -1.3582 -1.3930 -0.0554
 4208SOL     OW24259   2.777   0.076   8.406  0.2480  0.4251 -0.1088
 4208SOL    HW124260   2.838   0.061   8.334 -1.7030  0.3482 -1.7594
 4208SOL    HW224261   2.693   0.066   8.361  0.0123 -1.7133  0.7896
 4209SOL     OW24262   4.612   2.348   7.746  0.0150 -0.4409 -0.5100
 4209SOL    HW124263   4.664   2.274   7.777 -1.8449 -1.8495 -0.8114
 4209SOL    HW224264   4.539   2.346   7.807 -0.3716 -1.3351 -1.0111
 4210SOL     OW24265   1.111   2.988   7.837 -0.1117  0.1900  0.0937
 4210SOL    HW124266   1.024   2.965   7.871 -0.8665  1.2601 -1.1220
 4210SOL    HW224267   1.108   2.954   7.748  0.8351 -1.2538  0.6102
 4211SOL     OW24268   3.157   1.831   4.347  0.0938  0.3608  0.3197
 4211SOL    HW124269   3.239   1.811   4.392  1.6328  0.4286 -2.4557
 4211SOL    HW224270   3.168   1.804   4.256  1.1108  2.2646 -0.1346
 4212SOL     OW24271   3.062   0.866   4.288  0.1752  0.1536  0.4880
 4212SOL    HW124272   3.108   0.942   4.253 -0.0566 -0.1969 -0.5860
 4212SOL    HW224273   3.092   0.861   4.379  1.4900  0.0474  0.0476
 4213SOL     OW24274   1.433   0.950   0.491 -0.1041  0.1487  0.1440
 4213SOL    HW124275   1.472   0.863   0.493  0.0408  0.2143  0.1955
 4213SOL    HW224276   1.484   1.003   0.553 -1.3771  3.0873 -1.2923
 4214SOL     OW24277   2.413   0.772   3.677  0.2960 -0.1837 -0.0188
 4214SOL    HW124278   2.320   0.760   3.696  0.3842  0.2186  0.6815
 4214SOL    HW224279   2.443   0.682   3.668  2.3966  0.4954  0.3825
 4215SOL     OW24280   4.220   3.417   7.234  0.6497  0.7817 -0.2646
 4215SOL    HW124281   4.251   3.378   7.152  0.4290  2.0488 -0.9610
 4215SOL    HW224282   4.177   3.497   7.204  0.4440  0.6903 -0.2094
 4216SOL     OW24283   4.201   2.343  15.361 -0.2688 -0.4021 -0.5298
 4216SOL    HW124284   4.135   2.274  15.371 -0.1344 -0.4801 -0.1579
 4216SOL    HW224285   4.224   2.322  15.271 -1.4575  0.0948 -0.9367
 4217SOL     OW24286   1.593   2.101  14.707  0.0396 -0.1053 -0.3315
 4217SOL    HW124287   1.577   2.037  14.776  0.7126  0.3963  0.2789
 4217SOL    HW224288   1.506   2.096  14.667 -0.4633 -0.7590  0.8390
 4218SOL     OW24289   2.767   2.981   3.377 -0.2745 -0.0986 -0.5876
 4218SOL    HW124290   2.829   2.912   3.402  1.0243 -0.7001 -5.5008
 4218SOL    HW224291   2.782   2.979   3.283 -0.2416 -0.2626 -0.5789
 4219SOL     OW24292   2.499   3.278  17.065 -0.0031  0.0105  0.3754
 4219SOL    HW124293   2.559   3.338  17.020 -1.0107 -0.1106 -1.1577
 4219SOL    HW224294   2.415   3.303  17.027  0.6713  0.8422 -0.5886
 4220SOL     OW24295   2.771   4.054   5.329  1.0953  0.1989  0.6467
 4220SOL    HW124296   2.704   4.122   5.318  0.5512 -0.0755  2.2407
 4220SOL    HW224297   2.838   4.107   5.285 -1.9249  2.8136 -0.8609
 4221SOL     OW24298   2.126   2.052   7.958 -0.0257 -0.7334 -0.1134
 4221SOL    HW124299   2.207   2.086   7.997 -0.3903  0.4918 -0.3959
 4221SOL    HW224300   2.117   1.971   8.008  0.6529 -0.6384  0.1698
 4222SOL     OW24301   3.464   1.142  12.160 -0.5630 -0.2941  0.0533
 4222SOL    HW124302   3.407   1.146  12.084 -1.0517 -0.4041  0.4177
 4222SOL    HW224303   3.408   1.100  12.225  1.1612 -2.6254  0.0266
 4223SOL     OW24304   0.705   3.346  12.414 -0.4363  0.4643 -0.3906
 4223SOL    HW124305   0.663   3.300  12.341 -1.6857 -1.0126  1.2449
 4223SOL    HW224306   0.705   3.277  12.480 -2.3816 -2.0219 -2.9505
 4224SOL     OW24307   2.733   0.260  13.951  0.1582 -0.1308  0.0332
 4224SOL    HW124308   2.687   0.266  13.867  2.6658 -1.7719 -1.4416
 4224SOL    HW224309   2.697   0.176  13.979  1.6353 -0.5877  0.5414
 4225SOL     OW24310   1.142   1.740   6.788 -0.1279 -0.7892  0.0485
 4225SOL    HW124311   1.149   1.828   6.824  1.1344 -0.4893 -0.9220
 4225SOL    HW224312   1.229   1.707   6.811  1.2304  2.1990 -0.7793
 4226SOL     OW24313   4.313   3.043   6.202 -0.2566 -0.0005  0.1194
 4226SOL    HW124314   4.398   3.010   6.229  0.7701  1.7462 -1.0267
 4226SOL    HW224315   4.310   3.121   6.257  0.1989  1.0493 -1.3406
 4227SOL     OW24316   3.132   4.170   6.883 -0.2369  0.3296 -0.0980
 4227SOL    HW124317   3.080   4.093   6.907  0.1375 -0.2894 -1.2802
 4227SOL    HW224318   3.181   4.143   6.806  0.0396  2.5107 -0.6985
 4228SOL     OW24319   0.338   3.615   1.031 -0.1533  0.1127 -0.6621
 4228SOL    HW124320   0.405   3.548   1.016  1.2041  1.0158  1.4309
 4228SOL    HW224321   0.298   3.575   1.109 -0.9936 -0.6647 -1.4974
 4229SOL     OW24322   3.188   3.309   1.523 -0.1655 -0.0369 -0.1970
 4229SOL    HW124323   3.171   3.308   1.429 -0.7981 -1.5368 -0.0695
 4229SOL    HW224324   3.273   3.264   1.523  0.1875  0.6275  0.3312
 4230SOL     OW24325   0.102   0.350   6.389  0.2673 -0.7557 -0.1182
 4230SOL    HW124326   0.024   0.353   6.334 -0.6855  3.4507  1.4894
 4230SOL    HW224327   0.163   0.372   6.318  2.3235 -1.0048  1.5716
 4231SOL     OW24328   2.979   1.486   8.266  0.0934  0.2815  0.5240
 4231SOL    HW124329   2.945   1.428   8.334 -0.8948  0.3796  0.1208
 4231SOL    HW224330   2.952   1.450   8.181  0.4547  3.2610 -0.8477
 4232SOL     OW24331   3.117   4.626  15.646 -0.1609 -0.2937 -0.0040
 4232SOL    HW124332   3.052   4.674  15.697 -1.1582 -0.2381 -1.3298
 4232SOL    HW224333   3.192   4.667  15.688  1.3195 -0.2770 -2.6460
 4233SOL     OW24334   3.490   2.119   5.736  0.1035 -0.1606  0.3247
 4233SOL    HW124335   3.563   2.119   5.797  2.1698 -1.3533 -2.1315
 4233SOL    HW224336   3.447   2.203   5.755 -0.8891 -0.8415  1.0749
 4234SOL     OW24337   2.025   2.833  13.904 -0.0700 -0.1265  0.2960
 4234SOL    HW124338   2.028   2.738  13.899 -0.8901 -0.2609  2.2587
 4234SOL    HW224339   1.966   2.841  13.979  0.6879  0.6369  0.8174
 4235SOL     OW24340   4.425   3.254   7.926  0.2427  0.1291 -0.1106
 4235SOL    HW124341   4.345   3.201   7.922 -0.8455  1.9428 -2.4612
 4235SOL    HW224342   4.400   3.341   7.895  0.7253 -0.1895 -1.3878
 4236SOL     OW24343   3.663   0.848   4.179 -0.3664  0.6218 -0.5662
 4236SOL    HW124344   3.582   0.898   4.186  1.6916  3.8911 -0.0437
 4236SOL    HW224345   3.686   0.828   4.088 -0.1849 -2.1884  0.0974
 4237SOL     OW24346   1.944   1.369   2.231 -0.4749 -0.0422 -0.4412
 4237SOL    HW124347   1.909   1.367   2.142  0.4190 -0.4149 -0.7772
 4237SOL    HW224348   1.917   1.454   2.267 -0.8892  1.0698 -3.3048
 4238SOL     OW24349   1.495   2.243   9.979 -0.2357  0.0732 -0.2909
 4238SOL    HW124350   1.544   2.161   9.982 -2.7335 -1.5052 -2.3514
 4238SOL    HW224351   1.562   2.296   9.937  0.6730 -1.4051 -0.6943
 4239SOL     OW24352   0.879   4.318   4.881  0.1285  0.1581  0.4709
 4239SOL    HW124353   0.840   4.247   4.932 -2.6616  0.9609 -0.5083
 4239SOL    HW224354   0.852   4.307   4.790  0.6653 -1.0509  0.4624
 4240SOL     OW24355   0.387   4.720  14.826  0.4868 -0.8801  0.1802
 4240SOL    HW124356   0.442   0.027  14.892 -0.5880  0.4579  0.1946
 4240SOL    HW224357   0.374   4.638  14.875 -0.9441 -1.4332 -1.1234
 4241SOL     OW24358   3.574   1.381   6.828  0.3054 -0.3772 -0.3994
 4241SOL    HW124359   3.542   1.306   6.777  1.1859 -1.0968  0.1142
 4241SOL    HW224360   3.554   1.438   6.754 -1.6499  0.0680  0.4661
 4242SOL     OW24361   1.808   3.977  14.454  0.0167 -0.2457  0.0090
 4242SOL    HW124362   1.723   3.995  14.494 -0.1262  0.5679 -0.6453
 4242SOL    HW224363   1.795   3.884  14.467  0.3200 -0.3726 -0.5670
 4243SOL     OW24364   0.505   4.545   6.590 -0.0034 -0.2053  0.0115
 4243SOL    HW124365   0.430   4.487   6.574  0.1279 -0.6723  1.0999
 4243SOL    HW224366   0.460   4.629   6.596  0.5901  0.2028 -1.2643
 4244SOL     OW24367   0.474   2.087   5.601 -0.0926 -0.6155 -0.8328
 4244SOL    HW124368   0.417   2.137   5.659 -0.0973  0.0850 -1.4285
 4244SOL    HW224369   0.473   1.999   5.637 -1.6286 -0.3822 -0.2870
 4245SOL     OW24370   3.877   2.632   4.680  0.0901 -0.2750 -0.1372
 4245SOL    HW124371   3.971   2.616   4.690  0.5318  2.8000  0.6499
 4245SOL    HW224372   3.870   2.635   4.584  1.3243  0.9411 -0.1873
 4246SOL     OW24373   1.908   2.310   5.890  0.3957  0.4206 -0.0497
 4246SOL    HW124374   1.891   2.402   5.871  0.6727  0.6177  0.6676
 4246SOL    HW224375   1.911   2.309   5.986  0.4306  1.8732 -0.0328
 4247SOL     OW24376   2.424   1.919   7.712  0.5360 -0.0717 -0.3030
 4247SOL    HW124377   2.361   1.850   7.690  0.0084 -0.4308  2.2779
 4247SOL    HW224378   2.472   1.869   7.778  0.1838  1.3922  1.0775
 4248SOL     OW24379   1.618   0.319   7.164  0.0568  0.2389 -0.1439
 4248SOL    HW124380   1.580   0.237   7.134 -0.0885  0.4985 -0.6754
 4248SOL    HW224381   1.669   0.348   7.088 -0.1999 -1.3004 -0.8965
 4249SOL     OW24382   2.351   3.296   6.504  0.3194  0.1075 -0.1371
 4249SOL    HW124383   2.441   3.322   6.482 -0.4996  0.0583 -3.4322
 4249SOL    HW224384   2.312   3.295   6.417  0.6634 -4.5732 -0.2262
 4250SOL     OW24385   4.530   4.318   2.374 -0.5382  0.8763 -0.7669
 4250SOL    HW124386   4.499   4.399   2.334  1.6781  1.2337 -1.7534
 4250SOL    HW224387   4.531   4.267   2.293  0.6663  0.3350 -0.4113
 4251SOL     OW24388   2.977   2.632  15.713 -0.5957 -0.1375  0.5202
 4251SOL    HW124389   2.912   2.654  15.780  0.3957  0.3550  1.3258
 4251SOL    HW224390   3.043   2.701  15.721  1.3104 -1.5583 -2.9178
 4252SOL     OW24391   0.815   2.089   6.140 -0.1717 -0.1891  0.2098
 4252SOL    HW124392   0.904   2.054   6.135 -0.2610 -0.5238  0.9976
 4252SOL    HW224393   0.794   2.088   6.233 -0.3306  0.5324  0.1853
 4253SOL     OW24394   3.978   3.072  16.000  0.4058  0.0802 -0.2277
 4253SOL    HW124395   4.036   2.998  15.984 -2.0753 -0.9914 -4.2383
 4253SOL    HW224396   4.023   3.126  16.064 -1.9651  0.4185  1.1448
 4254SOL     OW24397   3.520   3.606   4.364 -0.0991 -0.7355  0.0426
 4254SOL    HW124398   3.577   3.603   4.287 -2.5761  0.0502 -1.8395
 4254SOL    HW224399   3.504   3.513   4.381  0.4675 -1.3637 -2.8928
 4255SOL     OW24400   4.719   2.060  11.431 -0.5670 -0.5415  0.4514
 4255SOL    HW124401   4.691   1.987  11.487 -0.3294 -0.6250  0.4601
 4255SOL    HW224402   0.037   2.019  11.363 -0.1341  0.4365  0.2128
 4256SOL     OW24403   3.101   3.713   1.987  0.0982 -0.9418  0.0991
 4256SOL    HW124404   3.157   3.729   2.063 -2.3748  0.6587  1.5648
 4256SOL    HW224405   3.155   3.649   1.940  0.4444 -1.3599  1.0706
 4257SOL     OW24406   0.987   2.836  15.193  0.3387  0.1074  0.1980
 4257SOL    HW124407   0.923   2.832  15.122 -0.5071  1.6100  0.8759
 4257SOL    HW224408   0.933   2.859  15.269  0.4780 -3.2607  1.3059
 4258SOL     OW24409   1.052   0.116   6.334 -0.3528  0.0161  0.1048
 4258SOL    HW124410   1.041   0.073   6.419 -2.5757  1.5187  0.5660
 4258SOL    HW224411   0.960   0.125   6.310  0.3930  3.5806 -1.3752
 4259SOL     OW24412   1.584   3.917   8.434  0.2705 -0.8795  0.0845
 4259SOL    HW124413   1.637   3.895   8.357  0.8580 -1.9540  0.7867
 4259SOL    HW224414   1.630   3.993   8.470 -2.0177 -0.1534  1.4589
 4260SOL     OW24415   4.574   0.429   1.891 -0.3847 -0.1668 -0.3871
 4260SOL    HW124416   4.657   0.461   1.926 -0.7670  1.9279 -1.3775
 4260SOL    HW224417   4.602   0.344   1.856 -2.6522 -0.3767 -1.7233
 4261SOL     OW24418   1.438   2.738   2.486 -0.6257 -0.3878  0.1011
 4261SOL    HW124419   1.403   2.693   2.563 -0.0299 -1.2889 -0.1560
 4261SOL    HW224420   1.451   2.661   2.431 -2.3672 -0.5018 -0.1535
 4262SOL     OW24421   2.478   3.072  15.473 -0.0945 -0.0902  0.0427
 4262SOL    HW124422   2.513   2.985  15.451  1.6767  0.1789  1.7220
 4262SOL    HW224423   2.458   3.049  15.563  0.8327 -2.2734 -0.3028
 4263SOL     OW24424   3.836   4.439   4.675  0.3853  0.2404 -0.1942
 4263SOL    HW124425   3.827   4.519   4.727  0.4197  1.5380 -2.1974
 4263SOL    HW224426   3.927   4.419   4.694  0.8053  1.6448 -0.7484
 4264SOL     OW24427   2.028   0.999  12.881 -0.5425  0.6651  0.0750
 4264SOL    HW124428   2.034   1.083  12.836 -0.1250  0.5193 -0.1338
 4264SOL    HW224429   2.116   0.963  12.875 -0.5029  0.8347 -0.2932
 4265SOL     OW24430   1.627   3.143   3.524  1.0749  0.0412  0.0118
 4265SOL    HW124431   1.705   3.186   3.558 -0.8207  0.9134  3.2188
 4265SOL    HW224432   1.646   3.049   3.533 -0.8917 -0.5651 -1.9366
 4266SOL     OW24433   3.507   3.990  15.318 -0.2182 -0.2935  0.0336
 4266SOL    HW124434   3.498   3.909  15.368  0.8810 -0.4615 -0.0562
 4266SOL    HW224435   3.435   3.991  15.254 -0.6573  0.7894  0.5296
 4267SOL     OW24436   1.453   0.341   6.415  0.4972  0.0852  0.1329
 4267SOL    HW124437   1.367   0.380   6.429  0.0663 -0.3604 -1.3182
 4267SOL    HW224438   1.510   0.415   6.437  1.2814 -0.8914  1.3593
 4268SOL     OW24439   0.464   1.409   1.425 -0.2664  0.0878  0.5220
 4268SOL    HW124440   0.549   1.370   1.444 -0.5001 -1.1339 -0.9175
 4268SOL    HW224441   0.464   1.485   1.482 -1.1377  0.6535 -0.2252
 4269SOL     OW24442   1.391   4.028   8.855  0.3221 -0.0475 -0.2166
 4269SOL    HW124443   1.436   4.093   8.801  1.8401 -0.1687  0.9106
 4269SOL    HW224444   1.433   3.951   8.817  2.9137  0.3137  1.9492
 4270SOL     OW24445   4.653   3.777   3.285 -0.0917  0.6694 -0.0096
 4270SOL    HW124446   4.567   3.816   3.301 -0.8468 -0.8802 -0.3430
 4270SOL    HW224447   4.698   3.850   3.241  0.7012  0.4222  0.3868
 4271SOL     OW24448   3.789   3.520  17.684  0.1247  0.1407 -0.1538
 4271SOL    HW124449   3.742   3.492  17.606 -1.0035  0.5722  0.3722
 4271SOL    HW224450   3.792   3.613  17.664  1.7148  0.2286  0.5314
 4272SOL     OW24451   4.543   1.314   6.216  0.1382 -0.4897  0.3422
 4272SOL    HW124452   4.488   1.237   6.201 -1.3083  0.3530  1.2570
 4272SOL    HW224453   4.505   1.374   6.151  0.9107  0.7259  1.0067
 4273SOL     OW24454   2.866   0.063   5.083  0.1203 -0.3700  0.1227
 4273SOL    HW124455   2.934   0.044   5.148 -2.1428 -0.5264  2.4472
 4273SOL    HW224456   2.920   0.076   5.005  1.3614  0.3806  1.1029
 4274SOL     OW24457   1.310   4.682   6.546 -0.4071 -0.1000 -0.2340
 4274SOL    HW124458   1.249   4.610   6.535  1.4174 -1.4092 -1.6885
 4274SOL    HW224459   1.305   4.689   6.641 -3.2442 -0.5735 -0.3254
 4275SOL     OW24460   2.165   3.205  12.640 -0.1925  0.3710  0.0754
 4275SOL    HW124461   2.239   3.251  12.602  0.0992  1.3366  1.8394
 4275SOL    HW224462   2.186   3.114  12.618  0.8019 -0.0377  2.7117
 4276SOL     OW24463   2.281   0.832  17.293  0.2120 -0.0477  0.6306
 4276SOL    HW124464   2.199   0.840  17.341  0.0396 -0.3764  0.3914
 4276SOL    HW224465   2.341   0.794  17.358  0.5237  0.3294  0.5648
 4277SOL     OW24466   3.049   3.843   0.898  0.0469  0.2071  1.1236
 4277SOL    HW124467   3.101   3.892   0.963  0.9730 -1.0109  1.2947
 4277SOL    HW224468   2.972   3.900   0.899  0.6115  0.9866  0.3546
 4278SOL     OW24469   4.020   1.532   5.774 -0.6770  0.2450 -0.3600
 4278SOL    HW124470   3.964   1.522   5.852 -2.1640  1.1904 -1.3263
 4278SOL    HW224471   3.957   1.562   5.709 -1.5686 -1.7481 -0.4370
 4279SOL     OW24472   3.976   2.741   3.703  0.3156  0.5413 -0.1439
 4279SOL    HW124473   3.944   2.713   3.616 -0.2444 -1.3478  0.6680
 4279SOL    HW224474   3.956   2.659   3.749 -1.6970  0.6625 -0.7901
 4280SOL     OW24475   2.295   3.847   2.938  0.0243  0.3718  0.3540
 4280SOL    HW124476   2.314   3.754   2.949  0.3092  0.2331 -1.2345
 4280SOL    HW224477   2.207   3.853   2.976 -0.2904 -0.1405 -0.2931
 4281SOL     OW24478   1.586   1.837   3.794 -0.0768 -0.0995  0.1202
 4281SOL    HW124479   1.596   1.911   3.854 -1.2370 -1.2718  1.7504
 4281SOL    HW224480   1.678   1.811   3.791  0.0405  0.2176  1.0191
 4282SOL     OW24481   2.664   2.775   6.011  0.4456 -0.3205 -0.1088
 4282SOL    HW124482   2.715   2.738   5.939 -0.7826  1.0387 -1.6843
 4282SOL    HW224483   2.670   2.869   5.994 -0.4915 -0.3569 -0.6350
 4283SOL     OW24484   1.216   2.130  15.790 -0.0155  0.3627 -0.2522
 4283SOL    HW124485   1.259   2.099  15.711  0.0316  1.0595 -0.5051
 4283SOL    HW224486   1.280   2.117  15.860  0.0915 -1.0595 -0.6112
 4284SOL     OW24487   2.105   0.502  11.306 -0.1371 -0.1674 -0.1825
 4284SOL    HW124488   2.173   0.565  11.331 -0.2863 -0.7629  1.7210
 4284SOL    HW224489   2.113   0.425  11.362 -2.4965  1.2154  2.0703
 4285SOL     OW24490   2.407   1.374   2.487 -0.3027 -0.2944 -0.4601
 4285SOL    HW124491   2.323   1.391   2.445 -0.8037 -0.0831  0.6212
 4285SOL    HW224492   2.458   1.309   2.438  2.5076  1.8234 -0.3853
 4286SOL     OW24493   3.542   4.486  12.578 -0.1775 -0.3864 -0.0575
 4286SOL    HW124494   3.621   4.538  12.591  0.2305 -0.9894 -0.1585
 4286SOL    HW224495   3.483   4.508  12.650 -0.4652 -0.7240 -0.1919
 4287SOL     OW24496   1.195   1.540   7.107 -0.3703 -0.1321  1.2132
 4287SOL    HW124497   1.232   1.456   7.131  0.4054 -0.1689 -0.1139
 4287SOL    HW224498   1.102   1.522   7.119 -0.5274 -0.1513  0.0308
 4288SOL     OW24499   1.133   1.927   7.590  0.1966 -0.2736  0.5485
 4288SOL    HW124500   1.194   1.855   7.611  2.1019  1.1731 -0.0768
 4288SOL    HW224501   1.160   1.985   7.662  1.9378  0.1220 -0.4267
 4289SOL     OW24502   0.965   2.384  14.616  0.0688 -0.2209  0.1146
 4289SOL    HW124503   1.034   2.338  14.665  0.5370  0.5002  0.1445
 4289SOL    HW224504   0.903   2.386  14.689 -1.6660  0.8428 -1.4161
 4290SOL     OW24505   0.368   3.278   3.600 -0.0350 -0.1566  0.5547
 4290SOL    HW124506   0.341   3.332   3.674 -0.9577  0.9551 -0.5853
 4290SOL    HW224507   0.463   3.277   3.611  0.0589  1.1582 -0.0605
 4291SOL     OW24508   4.395   3.717   7.171 -0.2952 -0.1507  0.4862
 4291SOL    HW124509   4.327   3.760   7.120 -0.1930  1.1065  1.4201
 4291SOL    HW224510   4.407   3.642   7.113  1.2404 -0.3985  1.1148
 4292SOL     OW24511   3.670   1.392   2.157 -0.1781 -0.5173 -0.1945
 4292SOL    HW124512   3.587   1.364   2.116 -1.9768  0.1181  3.0374
 4292SOL    HW224513   3.654   1.413   2.249  0.8385 -0.2980 -0.0706
 4293SOL     OW24514   4.699   0.224   2.391 -0.0348  0.5054 -0.1049
 4293SOL    HW124515   4.722   0.132   2.405 -1.7662 -0.0157 -0.6682
 4293SOL    HW224516   0.038   0.242   2.335 -0.0304  2.6106  0.5757
 4294SOL     OW24517   2.195   0.801   5.192  0.3659 -0.2464  0.5668
 4294SOL    HW124518   2.255   0.727   5.199  2.7125  1.5598 -0.6418
 4294SOL    HW224519   2.118   0.762   5.233  0.8214 -1.0210  0.6729
 4295SOL     OW24520   2.307   0.498   3.896  0.6406 -0.4327 -0.3192
 4295SOL    HW124521   2.380   0.552   3.927  1.6953 -1.1399 -1.5536
 4295SOL    HW224522   2.261   0.552   3.831 -0.3362 -0.4545  0.3494
 4296SOL     OW24523   4.732   4.625   3.738 -0.7660 -0.0296 -0.0233
 4296SOL    HW124524   4.688   4.669   3.811  0.7384  1.4601 -0.0036
 4296SOL    HW224525   4.660   4.626   3.675 -0.5800 -2.1886 -0.2674
 4297SOL     OW24526   2.575   2.106   7.936  0.0435  0.0861 -0.0936
 4297SOL    HW124527   2.607   2.108   7.846  3.1187 -0.3297  0.9771
 4297SOL    HW224528   2.658   2.127   7.979  0.7338  0.8398 -1.8021
 4298SOL     OW24529   0.520   1.962   4.331 -0.6090 -0.9761 -0.1947
 4298SOL    HW124530   0.586   2.031   4.329 -1.4530 -0.1736 -0.2154
 4298SOL    HW224531   0.574   1.894   4.291 -0.0939 -1.0827  0.6845
 4299SOL     OW24532   1.123   3.774  15.737 -0.4261 -0.0403 -0.1405
 4299SOL    HW124533   1.126   3.728  15.821  1.8053 -1.3323 -0.9189
 4299SOL    HW224534   1.134   3.864  15.768  0.6826  0.2332 -1.3269
 4300SOL     OW24535   2.378   0.235  17.684  0.2901 -0.0827 -0.1260
 4300SOL    HW124536   2.471   0.243  17.665  0.4051  1.4233  1.0933
 4300SOL    HW224537   2.340   0.176  17.619  0.5471 -0.2149 -0.1542
 4301SOL     OW24538   4.633   3.681  15.028  0.2572 -0.6543 -0.6391
 4301SOL    HW124539   4.706   3.670  14.967 -0.0224 -2.7115 -0.6229
 4301SOL    HW224540   4.599   3.591  15.035  1.8505 -1.2929 -1.1869
 4302SOL     OW24541   3.429   4.276   5.506 -0.0669 -0.6089  0.2816
 4302SOL    HW124542   3.458   4.345   5.445 -0.8520 -0.8986 -0.4146
 4302SOL    HW224543   3.503   4.216   5.501  0.1456 -0.4141  1.1259
 4303SOL     OW24544   4.725   4.697  13.373 -0.0671  0.0234  0.2632
 4303SOL    HW124545   4.651   0.019  13.358  0.4445  0.5811 -0.1569
 4303SOL    HW224546   4.702   4.631  13.307 -2.0475  3.3528 -2.3768
 4304SOL     OW24547   3.181   0.302  10.763  0.2453  0.0135 -0.1324
 4304SOL    HW124548   3.271   0.300  10.794 -0.0259  0.6946  0.6861
 4304SOL    HW224549   3.160   0.391  10.790  0.4497  0.9369 -3.0564
 4305SOL     OW24550   1.341   2.908   9.510 -0.6014  0.1099  0.6611
 4305SOL    HW124551   1.370   2.973   9.574 -0.5389  0.2548  0.4851
 4305SOL    HW224552   1.388   2.828   9.534 -0.1720  0.8528  2.2276
 4306SOL     OW24553   0.888   1.238  16.761  0.0859 -0.1496  0.0655
 4306SOL    HW124554   0.891   1.143  16.776 -1.1891  0.2506  2.8616
 4306SOL    HW224555   0.819   1.237  16.695 -0.3068 -2.2008  0.5002
 4307SOL     OW24556   4.410   0.882  11.723 -0.2028  0.8524 -0.6250
 4307SOL    HW124557   4.471   0.937  11.772  1.9165 -0.8972 -1.3250
 4307SOL    HW224558   4.328   0.922  11.751 -0.2216  0.2118  0.2420
 4308SOL     OW24559   0.850   2.083  11.918 -0.6212  0.0332 -0.1166
 4308SOL    HW124560   0.866   2.170  11.881 -1.6045  1.0286  1.7728
 4308SOL    HW224561   0.793   2.102  11.993  0.0712 -0.7503  0.6024
 4309SOL     OW24562   3.458   3.043  14.653 -0.2213 -0.1145 -0.3325
 4309SOL    HW124563   3.493   3.059  14.565 -1.2362 -1.1750 -0.9237
 4309SOL    HW224564   3.419   3.125  14.684  3.1825  0.8349  1.4169
 4310SOL     OW24565   0.346   3.439  16.543  0.5980  0.2104  0.0722
 4310SOL    HW124566   0.278   3.495  16.580 -1.6646 -1.0854 -2.1121
 4310SOL    HW224567   0.370   3.406  16.629  1.9802 -1.7765 -1.0632
 4311SOL     OW24568   2.659   3.099   7.717  0.1577 -0.0730 -0.3095
 4311SOL    HW124569   2.626   3.051   7.641 -0.1451 -0.0383 -0.2010
 4311SOL    HW224570   2.754   3.088   7.706 -0.1121 -0.8816 -1.7738
 4312SOL     OW24571   2.825   3.773  17.107 -0.2800 -0.8747  0.0072
 4312SOL    HW124572   2.886   3.701  17.124  1.8114  0.4743 -1.8807
 4312SOL    HW224573   2.847   3.837  17.174 -0.8068 -2.0792  1.3447
 4313SOL     OW24574   3.004   4.699   3.301  0.5213 -0.4296 -0.3146
 4313SOL    HW124575   3.071   0.030   3.288 -3.5164  3.7306  0.5265
 4313SOL    HW224576   3.007   4.642   3.224 -0.8453  0.4750 -1.0232
 4314SOL     OW24577   3.057   1.327  13.313 -0.2198  0.2397  0.1102
 4314SOL    HW124578   3.069   1.389  13.385 -1.5517  0.3885  0.1921
 4314SOL    HW224579   2.994   1.269  13.355 -0.9650  0.9247 -0.0877
 4315SOL     OW24580   1.179   2.003   5.265  0.6419  0.3691 -0.2710
 4315SOL    HW124581   1.271   2.019   5.248  1.1172 -1.4426  0.5853
 4315SOL    HW224582   1.161   2.090   5.300 -1.9346 -0.6804  1.0716
 4316SOL     OW24583   3.929   2.772   1.399 -0.0241 -0.4611  0.0447
 4316SOL    HW124584   3.848   2.724   1.380 -0.3531 -0.2064  0.8148
 4316SOL    HW224585   3.992   2.710   1.435  0.5712 -1.4885 -2.7960
 4317SOL     OW24586   3.116   3.829  12.751  0.5510 -0.0779 -0.3179
 4317SOL    HW124587   3.128   3.784  12.667 -1.1227 -0.7374 -0.1973
 4317SOL    HW224588   3.055   3.899  12.729 -1.7243 -1.3084  2.0282
 4318SOL     OW24589   3.104   0.876  10.133  0.2207 -0.1799 -0.1395
 4318SOL    HW124590   3.119   0.957  10.181  0.0797 -1.1807  1.5954
 4318SOL    HW224591   3.088   0.913  10.046  0.2765  0.5244  0.1503
 4319SOL     OW24592   0.817   3.388  11.501 -0.1289  0.0106  0.1383
 4319SOL    HW124593   0.884   3.320  11.487  0.1533  0.2307  0.4182
 4319SOL    HW224594   0.746   3.333  11.533  1.1111 -0.1442  2.6640
 4320SOL     OW24595   3.838   3.607   2.701  0.1965  0.5232 -0.0256
 4320SOL    HW124596   3.879   3.617   2.787  2.0651  1.5826 -1.0476
 4320SOL    HW224597   3.766   3.668   2.717  1.0377  2.0819 -2.2443
 4321SOL     OW24598   2.525   3.901  14.776 -0.7960 -0.0571 -0.7069
 4321SOL    HW124599   2.546   3.848  14.698  0.0807  0.1343 -0.6069
 4321SOL    HW224600   2.601   3.880  14.831  1.1595  0.1843 -3.3375
 4322SOL     OW24601   2.026   0.366   2.659  0.6398 -0.0097  0.0488
 4322SOL    HW124602   1.961   0.436   2.655  0.4603 -0.1391  0.6689
 4322SOL    HW224603   2.064   0.358   2.572  1.3010  1.5429  0.2047
 4323SOL     OW24604   2.072   4.602  11.775  0.1610  0.8042 -0.2292
 4323SOL    HW124605   2.101   4.601  11.684 -0.1477  0.0538 -0.3204
 4323SOL    HW224606   2.123   4.666  11.824  0.8229 -1.4675  2.0818
 4324SOL     OW24607   4.240   1.624   6.271  0.1355 -0.3220 -0.5172
 4324SOL    HW124608   4.303   1.588   6.333 -0.4326 -0.3701  0.0395
 4324SOL    HW224609   4.180   1.549   6.262 -0.2716 -0.3484  2.2509
 4325SOL     OW24610   0.700   2.059   4.718 -0.8878  0.0010 -0.0775
 4325SOL    HW124611   0.715   2.002   4.793 -0.0649  0.3743  0.0495
 4325SOL    HW224612   0.767   2.033   4.655  0.4380  1.0012  0.8930
 4326SOL     OW24613   2.507   2.765   4.792  0.1216 -0.3432 -0.3642
 4326SOL    HW124614   2.419   2.728   4.804  0.1754  0.4008  2.4744
 4326SOL    HW224615   2.512   2.807   4.707  1.5897 -5.2705 -2.7170
 4327SOL     OW24616   4.397   0.640   7.204 -0.2082 -0.1029 -0.7072
 4327SOL    HW124617   4.400   0.665   7.111  0.4526  0.4605 -0.5367
 4327SOL    HW224618   4.319   0.687   7.233  0.0245  0.3683 -0.8410
 4328SOL     OW24619   4.626   2.259   3.011 -0.1516  0.0043  0.0662
 4328SOL    HW124620   4.549   2.275   3.066 -1.6937  0.2513 -2.1476
 4328SOL    HW224621   4.689   2.247   3.081 -0.2318  0.6782  0.2556
 4329SOL     OW24622   2.699   1.450   3.964 -0.5692 -0.2483  0.8328
 4329SOL    HW124623   2.606   1.471   3.954  0.1744  2.6249 -0.2093
 4329SOL    HW224624   2.700   1.440   4.059 -0.5375 -2.0817  0.6375
 4330SOL     OW24625   0.492   0.186   2.627 -0.0410  0.6784  0.0352
 4330SOL    HW124626   0.444   0.204   2.708  1.0949  0.7026  0.6955
 4330SOL    HW224627   0.536   0.270   2.616 -0.4455  0.9703  0.5804
 4331SOL     OW24628   3.876   0.580   6.918 -0.6318 -0.4649 -0.7132
 4331SOL    HW124629   3.965   0.549   6.936 -0.6580 -0.0560  0.1657
 4331SOL    HW224630   3.884   0.666   6.959  0.9867 -1.0344  0.1810
 4332SOL     OW24631   3.692   4.199   7.153 -0.1910  0.2583  0.0163
 4332SOL    HW124632   3.673   4.108   7.177  1.4874 -1.1616 -3.9837
 4332SOL    HW224633   3.777   4.216   7.193 -0.3964 -1.0555  0.9985
 4333SOL     OW24634   2.009   3.394  12.743 -0.0768 -0.1034  0.4363
 4333SOL    HW124635   2.081   3.347  12.701 -0.5217  1.4995 -2.1088
 4333SOL    HW224636   1.958   3.318  12.770 -0.5711 -0.7234 -2.2486
 4334SOL     OW24637   2.683   1.697   3.079  0.4289 -0.2958 -0.2935
 4334SOL    HW124638   2.651   1.655   3.159 -1.0175  0.9844 -0.2065
 4334SOL    HW224639   2.744   1.758   3.120 -1.0355  0.5562  0.6282
 4335SOL     OW24640   3.388   1.833  11.107  0.1991 -0.0369  0.2101
 4335SOL    HW124641   3.327   1.764  11.133 -0.5755  1.1984  1.6521
 4335SOL    HW224642   3.358   1.909  11.157 -0.9720 -0.6666  0.4612
 4336SOL     OW24643   2.293   0.723  11.486 -0.1453 -0.3111  0.5858
 4336SOL    HW124644   2.274   0.794  11.548  0.9833  0.5923 -0.1020
 4336SOL    HW224645   2.356   0.662  11.525  2.1303  2.1850  0.8535
 4337SOL     OW24646   3.718   3.876   4.060 -0.3764  0.0778 -0.4405
 4337SOL    HW124647   3.776   3.914   4.127 -0.1879  0.3404 -0.7524
 4337SOL    HW224648   3.635   3.898   4.101 -0.0070  0.1224  0.2820
 4338SOL     OW24649   3.194   0.116   6.794 -0.5943 -0.2337  0.0930
 4338SOL    HW124650   3.190   0.084   6.884  3.6270 -0.6941  0.0781
 4338SOL    HW224651   3.288   0.125   6.784 -0.1163 -1.5733  3.4412
 4339SOL     OW24652   0.067   1.743   3.506  0.0362 -0.3998 -0.7150
 4339SOL    HW124653   0.131   1.765   3.439  0.7265 -1.2170 -0.3209
 4339SOL    HW224654   0.106   1.777   3.587 -2.5853 -0.4863  0.5987
 4340SOL     OW24655   0.684   3.679   3.504  0.4469 -0.0074 -0.1922
 4340SOL    HW124656   0.687   3.610   3.437  0.4391  0.4349 -0.6497
 4340SOL    HW224657   0.766   3.728   3.499 -1.3594  2.9602 -0.7233
 4341SOL     OW24658   2.213   3.510   8.764  0.0105  0.6409 -0.1377
 4341SOL    HW124659   2.158   3.495   8.687 -1.4069 -1.4510  1.2718
 4341SOL    HW224660   2.242   3.420   8.782  1.1547  0.8595 -0.8739
 4342SOL     OW24661   0.982   3.174   7.520  0.5292  0.4824  0.6168
 4342SOL    HW124662   0.918   3.142   7.585 -1.8252  0.4473 -1.7160
 4342SOL    HW224663   1.031   3.092   7.517  1.6941  1.1750  1.1234
 4343SOL     OW24664   3.761   3.582   7.321  0.5235 -0.2817  0.0417
 4343SOL    HW124665   3.746   3.543   7.407 -1.4033  0.4218  0.0131
 4343SOL    HW224666   3.679   3.546   7.285  0.4804 -0.4340  0.2938
 4344SOL     OW24667   0.768   3.170  17.358 -0.2028  0.0984  0.0023
 4344SOL    HW124668   0.768   3.251  17.408  1.0638  0.4270 -0.5260
 4344SOL    HW224669   0.702   3.119  17.404  1.1126  0.4844  2.3034
 4345SOL     OW24670   3.401   0.859   5.797  0.3685 -0.0543 -0.4993
 4345SOL    HW124671   3.472   0.874   5.860  0.6875  0.8265 -1.0627
 4345SOL    HW224672   3.369   0.773   5.823 -0.0070 -0.3504 -1.9039
 4346SOL     OW24673   2.169   2.568  10.599  0.4303 -0.4905  0.0089
 4346SOL    HW124674   2.167   2.663  10.610  0.4052 -0.6059  0.9361
 4346SOL    HW224675   2.093   2.560  10.540 -0.0223  3.3619  0.0902
 4347SOL     OW24676   0.249   2.647   3.510  0.1395  0.5252 -0.1569
 4347SOL    HW124677   0.202   2.703   3.572  0.8769  0.2433  0.6657
 4347SOL    HW224678   0.292   2.589   3.573  1.1662  1.3062 -0.1296
 4348SOL     OW24679   4.287   0.560   7.507 -0.0693 -0.2187 -0.3276
 4348SOL    HW124680   4.290   0.467   7.485 -1.6987 -0.8463  2.0344
 4348SOL    HW224681   4.337   0.588   7.430 -0.3027 -1.3374 -0.8924
 4349SOL     OW24682   3.999   0.044   3.685  0.9974  0.1237 -0.2451
 4349SOL    HW124683   4.093   0.029   3.693  1.0451  0.9467  0.7777
 4349SOL    HW224684   4.002   0.132   3.647  0.2333  1.1557  2.0760
 4350SOL     OW24685   2.902   2.375  12.650  0.1937  0.1722  0.1023
 4350SOL    HW124686   2.824   2.328  12.680  1.3076 -1.9285 -0.3384
 4350SOL    HW224687   2.969   2.307  12.643  1.4202  1.5228 -1.3812
 4351SOL     OW24688   3.037   1.417  13.608 -0.0230  0.1925  0.0735
 4351SOL    HW124689   3.109   1.480  13.599  0.0721  0.2007  0.9210
 4351SOL    HW224690   3.035   1.396  13.701  1.0321 -0.8817 -0.1453
 4352SOL     OW24691   2.650   0.693   2.026  0.1789 -0.3000  0.3977
 4352SOL    HW124692   2.711   0.678   2.099 -0.1442  0.5946  0.8535
 4352SOL    HW224693   2.702   0.658   1.954 -0.0123  0.5806 -0.1600
 4353SOL     OW24694   3.531   1.308   5.879 -0.0835  0.1885 -0.4928
 4353SOL    HW124695   3.518   1.294   5.972  1.6789 -2.4645 -0.6459
 4353SOL    HW224696   3.559   1.398   5.867  0.8321 -0.0045  0.2108
 4354SOL     OW24697   1.191   0.251   2.681  0.0567  0.3711 -0.5176
 4354SOL    HW124698   1.228   0.277   2.765 -0.3247  0.4938 -0.3854
 4354SOL    HW224699   1.267   0.227   2.629 -0.7110 -1.8316 -0.6228
 4355SOL     OW24700   0.996   2.263  12.250 -0.6670 -0.0156 -0.1839
 4355SOL    HW124701   0.912   2.300  12.276 -0.6487 -0.1284  0.0314
 4355SOL    HW224702   1.016   2.230  12.337  1.0191  0.6189 -0.3188
 4356SOL     OW24703   3.379   3.338   7.610  0.5303 -0.6401 -0.4768
 4356SOL    HW124704   3.348   3.264   7.557 -0.6945 -2.4100  2.7369
 4356SOL    HW224705   3.316   3.402   7.576  0.4989 -1.5439 -2.1111
 4357SOL     OW24706   1.460   3.622   6.575  0.3771 -0.0842 -0.4073
 4357SOL    HW124707   1.459   3.708   6.532 -2.1426  0.6569  1.1135
 4357SOL    HW224708   1.503   3.632   6.659  1.9271 -2.8195 -0.8847
 4358SOL     OW24709   2.980   2.647  10.143 -0.3944 -0.1154  0.0412
 4358SOL    HW124710   3.025   2.619  10.223 -0.3455 -0.6969 -0.1875
 4358SOL    HW224711   2.947   2.561  10.116 -0.2946 -0.7628  1.9904
 4359SOL     OW24712   1.351   2.685   4.882  0.4084 -0.2173 -0.2482
 4359SOL    HW124713   1.261   2.714   4.868  0.3516 -0.2716  0.0093
 4359SOL    HW224714   1.347   2.590   4.890 -1.4602 -0.3229 -2.3969
 4360SOL     OW24715   0.025   3.977  10.176  0.2252  0.2444  0.4445
 4360SOL    HW124716   0.037   3.940  10.089  0.0255  0.4113  0.3475
 4360SOL    HW224717   4.681   4.029  10.172 -1.5087 -2.4783  0.2301
 4361SOL     OW24718   4.588   2.530   5.602  0.2406  0.4523 -0.2814
 4361SOL    HW124719   4.492   2.529   5.606  0.2481 -0.0923 -0.2093
 4361SOL    HW224720   4.603   2.510   5.510 -2.6141 -2.2059 -0.1812
 4362SOL     OW24721   1.368   3.790   1.621  0.1006  0.2089  0.2259
 4362SOL    HW124722   1.317   3.736   1.681 -3.6922  3.2478 -0.2550
 4362SOL    HW224723   1.452   3.745   1.634  0.6959  0.7312 -1.7335
 4363SOL     OW24724   4.240   1.984   3.128  0.3284  0.0552  0.8158
 4363SOL    HW124725   4.256   1.889   3.128  1.1465  0.1992 -0.0450
 4363SOL    HW224726   4.289   2.035   3.065  0.9019 -1.6014 -0.0790
 4364SOL     OW24727   2.909   3.743  12.905  0.3432 -0.1735  0.1426
 4364SOL    HW124728   2.996   3.772  12.877 -1.1460  0.6352 -3.6584
 4364SOL    HW224729   2.939   3.686  12.976  1.6201  3.4830  2.5620
 4365SOL     OW24730   2.061   3.245   3.165 -0.4116  0.2898 -0.1553
 4365SOL    HW124731   2.103   3.210   3.244  0.0573 -0.6644 -0.8347
 4365SOL    HW224732   2.095   3.182   3.102  2.5018  2.2190 -0.5327
 4366SOL     OW24733   4.422   2.984   3.318 -0.3341  0.0013 -0.1031
 4366SOL    HW124734   4.486   3.054   3.305 -3.3961  2.6924 -0.7555
 4366SOL    HW224735   4.478   2.910   3.340 -0.8677 -1.1333 -2.4778
 4367SOL     OW24736   1.517   0.915   6.939  0.1105  0.3275  0.1504
 4367SOL    HW124737   1.534   0.821   6.930 -0.1841  0.6735 -4.1321
 4367SOL    HW224738   1.422   0.916   6.948  0.1655  0.8242  0.7267
 4368SOL     OW24739   4.333   3.122  11.640  0.2143 -0.4835 -0.4144
 4368SOL    HW124740   4.345   3.058  11.710 -0.1264  0.8585  0.8686
 4368SOL    HW224741   4.427   3.136  11.633  0.0482  0.4781 -0.6159
 4369SOL     OW24742   2.055   0.062   8.785  0.2376  0.5735 -0.1728
 4369SOL    HW124743   2.101   4.715   8.774  0.0466  0.4131  0.2474
 4369SOL    HW224744   2.036   0.067   8.879  3.8553 -1.3051  0.6446
 4370SOL     OW24745   1.367   0.058   5.366  0.5759  0.4026  0.7958
 4370SOL    HW124746   1.462   0.065   5.360  0.5116  0.1049 -0.4900
 4370SOL    HW224747   1.360   0.004   5.287 -0.8776  0.9482  0.5435
 4371SOL     OW24748   1.702   2.958  16.831 -0.9334 -0.7247 -0.2792
 4371SOL    HW124749   1.774   2.995  16.780 -0.8635  1.3293  1.2881
 4371SOL    HW224750   1.663   2.901  16.766  0.5298 -0.3386 -1.4833
 4372SOL     OW24751   2.325   1.831   6.509  0.2278 -0.0264  0.6948
 4372SOL    HW124752   2.329   1.790   6.423  0.1514  0.0492  0.6555
 4372SOL    HW224753   2.300   1.754   6.560 -0.1898  0.3358  1.0296
 4373SOL     OW24754   3.259   4.511  14.609  0.2941 -0.7882  0.5470
 4373SOL    HW124755   3.294   4.528  14.697  2.1807 -1.1498 -0.1279
 4373SOL    HW224756   3.200   4.440  14.635 -0.7235  1.2102  3.7145
 4374SOL     OW24757   1.012   3.890   4.713 -0.3286 -0.1046 -0.0145
 4374SOL    HW124758   0.924   3.923   4.699  0.1975  2.6715  3.2531
 4374SOL    HW224759   1.065   3.936   4.648 -0.7581 -1.3800 -1.2772
 4375SOL     OW24760   2.722   4.709   3.874 -0.1821  0.1972  0.0080
 4375SOL    HW124761   2.732   4.667   3.788 -1.0942 -1.6832  0.8031
 4375SOL    HW224762   2.773   4.644   3.923 -0.5224 -0.3997 -0.4334
 4376SOL     OW24763   4.653   2.663   3.810  0.3607  0.1564 -0.1614
 4376SOL    HW124764   4.638   2.661   3.905 -0.0302 -0.7456 -0.2445
 4376SOL    HW224765   4.597   2.593   3.778  0.7281  0.3083 -1.1361
 4377SOL     OW24766   0.993   0.612  14.484 -0.7656 -0.7596  0.6290
 4377SOL    HW124767   1.053   0.591  14.555  0.7344 -2.6477 -1.2551
 4377SOL    HW224768   0.948   0.529  14.472  0.7327 -0.9339 -3.6665
 4378SOL     OW24769   2.944   1.586   6.550 -0.1348  0.0671  0.3526
 4378SOL    HW124770   2.950   1.584   6.455  0.4896  1.0708  0.3698
 4378SOL    HW224771   3.010   1.519   6.568 -0.8212 -0.4057  1.1302
 4379SOL     OW24772   3.756   3.770   5.655  0.2223 -0.1401 -0.7788
 4379SOL    HW124773   3.763   3.707   5.727 -0.3161 -0.9100 -1.4009
 4379SOL    HW224774   3.836   3.821   5.667  0.6561 -0.9945 -0.0602
 4380SOL     OW24775   2.436   0.425   0.347  0.0051  0.0149  0.0467
 4380SOL    HW124776   2.420   0.491   0.279 -1.4413  1.3497  1.6601
 4380SOL    HW224777   2.476   0.355   0.296 -0.6380 -0.4254  0.1389
 4381SOL     OW24778   3.722   3.610   4.575  0.1066 -0.4766  0.3406
 4381SOL    HW124779   3.724   3.569   4.488 -3.5020  0.9543 -0.4380
 4381SOL    HW224780   3.629   3.602   4.599 -0.2597  1.1437 -0.5607
 4382SOL     OW24781   1.974   3.770   7.669 -0.2305  0.1950 -0.4585
 4382SOL    HW124782   2.050   3.712   7.659  0.2113  0.4676  1.3382
 4382SOL    HW224783   1.913   3.717   7.617 -0.4355 -2.2469  2.2948
 4383SOL     OW24784   1.544   2.183   2.777  0.1105 -0.0082  0.2047
 4383SOL    HW124785   1.579   2.230   2.701 -1.5228  0.3745 -0.3020
 4383SOL    HW224786   1.456   2.211   2.754  0.0484 -0.1048  0.3240
 4384SOL     OW24787   3.050   2.403  12.185  0.0269 -0.2381  0.2066
 4384SOL    HW124788   3.076   2.330  12.129  1.2810  0.5966 -0.3060
 4384SOL    HW224789   3.120   2.390  12.249 -0.5863 -1.4775  0.6070
 4385SOL     OW24790   0.039   4.467   2.052  0.4112 -0.5909  0.1347
 4385SOL    HW124791   0.065   4.551   2.015 -0.3347 -0.4241 -0.0078
 4385SOL    HW224792   4.681   4.482   2.040  1.0070  0.6134 -2.9084
 4386SOL     OW24793   2.593   4.113   7.388 -0.1589  0.3221  0.4266
 4386SOL    HW124794   2.609   4.080   7.300 -0.2898  0.0666  0.4985
 4386SOL    HW224795   2.504   4.080   7.404  0.6736 -3.0214 -1.7952
 4387SOL     OW24796   2.007   4.423  14.041 -0.5963  0.1759 -0.1236
 4387SOL    HW124797   1.969   4.501  14.082  1.2994  1.4920 -0.8881
 4387SOL    HW224798   2.033   4.373  14.119 -1.7943 -2.1725 -1.2437
 4388SOL     OW24799   0.470   1.930   3.313 -0.5468 -0.2547  0.0488
 4388SOL    HW124800   0.456   1.871   3.240 -0.5661  1.3931 -1.2737
 4388SOL    HW224801   0.542   1.983   3.280 -0.6178  0.7123  1.4122
 4389SOL     OW24802   3.437   0.288   9.336 -0.1783 -0.4886 -0.1913
 4389SOL    HW124803   3.382   0.359   9.303 -1.7361 -2.2689 -1.4867
 4389SOL    HW224804   3.508   0.329   9.383  0.6001 -1.4954 -0.4762
 4390SOL     OW24805   1.101   3.492   3.172 -0.3753 -0.2178  0.1002
 4390SOL    HW124806   1.128   3.480   3.263  0.2010  2.1821  0.2609
 4390SOL    HW224807   1.184   3.487   3.124  0.1687 -1.1618  1.1417
 4391SOL     OW24808   2.359   4.394   3.278  0.2302  0.4976  0.0917
 4391SOL    HW124809   2.301   4.326   3.244 -0.0713  0.4680  0.6826
 4391SOL    HW224810   2.416   4.342   3.335 -0.1657  0.7033  0.6726
 4392SOL     OW24811   2.535   4.596   1.435 -0.4718  0.1302  0.3274
 4392SOL    HW124812   2.440   4.593   1.443 -0.3191  0.4305  2.4344
 4392SOL    HW224813   2.562   4.505   1.439  1.3125  0.5961 -1.2018
 4393SOL     OW24814   0.896   2.328   6.055 -0.0732 -0.0346  0.8304
 4393SOL    HW124815   0.883   2.234   6.071  1.2117  0.0320  2.2081
 4393SOL    HW224816   0.917   2.357   6.144 -0.2734 -0.4863  1.0264
 4394SOL     OW24817   0.612   1.120   8.105 -0.6458 -0.4877  0.1814
 4394SOL    HW124818   0.679   1.181   8.075 -1.1600  1.0807  2.1914
 4394SOL    HW224819   0.538   1.182   8.104  0.1747  0.4727 -0.4643
 4395SOL     OW24820   0.708   0.312  13.383 -0.3503 -0.6785 -0.1649
 4395SOL    HW124821   0.688   0.224  13.415 -1.6869 -0.1200  0.5279
 4395SOL    HW224822   0.622   0.328  13.343 -0.1004 -0.4709 -0.6186
 4396SOL     OW24823   4.415   0.393   3.288 -0.1914 -0.0453  0.0731
 4396SOL    HW124824   4.439   0.332   3.358  0.6720  0.1445 -0.0547
 4396SOL    HW224825   4.336   0.361   3.244  0.2581 -2.2227  0.8389
 4397SOL     OW24826   3.392   0.637   6.143  0.3708  0.4548 -0.5570
 4397SOL    HW124827   3.408   0.721   6.186  1.2672  0.1036 -0.1850
 4397SOL    HW224828   3.426   0.575   6.208 -2.6312 -1.0988 -0.4751
 4398SOL     OW24829   2.530   4.394  14.608  0.0332 -0.1274 -0.2746
 4398SOL    HW124830   2.607   4.451  14.599 -1.0440  1.5246  1.1288
 4398SOL    HW224831   2.463   4.462  14.601 -1.9347 -2.0468 -0.0981
 4399SOL     OW24832   0.517   2.776   7.360  0.4795 -0.7418  0.1169
 4399SOL    HW124833   0.498   2.793   7.452 -2.1929 -0.5085 -0.4702
 4399SOL    HW224834   0.512   2.868   7.333  1.0265 -0.3809  1.2602
 4400SOL     OW24835   2.508   0.129  16.934 -0.0879  0.1217  0.6142
 4400SOL    HW124836   2.489   0.155  16.844 -2.0308 -0.6358  0.8239
 4400SOL    HW224837   2.472   0.200  16.987 -1.9894  0.4745 -1.1586
 4401SOL     OW24838   1.096   4.119  12.164 -0.0002  0.0846 -0.3334
 4401SOL    HW124839   1.110   4.138  12.257  0.0332  0.8538 -0.4896
 4401SOL    HW224840   1.043   4.041  12.174 -0.4065  0.0060 -3.2904
 4402SOL     OW24841   1.546   1.043   4.282 -1.0887  0.1698  0.4705
 4402SOL    HW124842   1.591   0.962   4.308  1.5409  1.4972  0.0660
 4402SOL    HW224843   1.589   1.060   4.198  0.1759  0.9664  1.2741
 4403SOL     OW24844   3.807   4.463  10.880  0.0484 -0.1633  0.1555
 4403SOL    HW124845   3.831   4.548  10.843  2.5401 -1.5174 -1.2962
 4403SOL    HW224846   3.863   4.408  10.826  0.1309 -0.1595  0.2380
 4404SOL     OW24847   3.246   4.651   2.508 -0.7321  0.4732  0.2651
 4404SOL    HW124848   3.249   4.564   2.468  2.7716  0.6162  0.2136
 4404SOL    HW224849   3.155   4.655   2.535 -1.0289  0.1432 -0.6818
 4405SOL     OW24850   2.229   3.269   8.644 -0.3462 -1.1168 -0.0812
 4405SOL    HW124851   2.158   3.266   8.579 -1.3791 -1.8779  1.0796
 4405SOL    HW224852   2.308   3.248   8.595  0.3535 -0.8226  0.9257
 4406SOL     OW24853   0.894   2.478   5.813 -0.4430  0.4593 -0.0159
 4406SOL    HW124854   0.931   2.430   5.888  0.5116  1.5015  0.1853
 4406SOL    HW224855   0.809   2.504   5.849 -1.5008 -0.5536 -1.7976
 4407SOL     OW24856   1.461   2.504  12.669  0.1395  0.4492 -0.2516
 4407SOL    HW124857   1.378   2.476  12.630  0.3206 -0.8879  0.3021
 4407SOL    HW224858   1.525   2.502  12.598  0.7551  0.4520  0.3003
 4408SOL     OW24859   3.195   1.075   4.064 -0.5810 -0.1545  0.1331
 4408SOL    HW124860   3.137   1.029   4.003 -1.1242 -0.6059  0.9874
 4408SOL    HW224861   3.246   1.135   4.011  0.2560 -1.4183 -0.5028
 4409SOL     OW24862   4.225   4.671   3.043  0.5048  0.1635 -0.2227
 4409SOL    HW124863   4.212   4.627   2.959  2.5333 -0.9102  0.0361
 4409SOL    HW224864   4.187   0.022   3.029 -0.7241 -0.4688 -0.7872
 4410SOL     OW24865   1.170   2.950   8.468 -0.3890 -0.3611 -0.1901
 4410SOL    HW124866   1.203   3.029   8.510  0.3794  0.6857 -2.7688
 4410SOL    HW224867   1.247   2.922   8.418  0.9960  1.2448  1.0730
 4411SOL     OW24868   3.046   3.200   2.366  0.0947 -0.0631  0.4870
 4411SOL    HW124869   2.973   3.207   2.428  0.2244  1.4787  0.4593
 4411SOL    HW224870   3.072   3.290   2.352  2.5769 -0.3656  3.3435
 4412SOL     OW24871   0.137   0.488  17.253  0.5013 -0.6761 -0.2328
 4412SOL    HW124872   0.217   0.489  17.306  0.9368  1.5840 -0.9444
 4412SOL    HW224873   0.148   0.565  17.197  2.3935 -0.0379  1.0221
 4413SOL     OW24874   0.746   1.737   7.591 -0.4373  0.0376 -0.0136
 4413SOL    HW124875   0.827   1.750   7.542 -1.4537  0.3744 -1.5937
 4413SOL    HW224876   0.768   1.770   7.679 -1.6201 -2.3904  1.1957
 4414SOL     OW24877   1.602   1.581   2.017 -0.6459  0.0340  0.0119
 4414SOL    HW124878   1.531   1.624   2.065  0.3003  0.7336  0.7889
 4414SOL    HW224879   1.613   1.645   1.946 -1.7544  1.6319  1.2898
 4415SOL     OW24880   1.120   2.361   8.472 -0.6475  0.0421 -0.3565
 4415SOL    HW124881   1.099   2.382   8.563 -0.7118  0.6456 -0.5090
 4415SOL    HW224882   1.047   2.400   8.424  0.3383  1.8020 -0.4531
 4416SOL     OW24883   1.537   2.356  13.146  0.0265  0.1915  0.1557
 4416SOL    HW124884   1.472   2.308  13.095  0.5633 -0.3635 -0.0012
 4416SOL    HW224885   1.509   2.341  13.236  0.0989  1.2173  0.3556
 4417SOL     OW24886   3.084   2.850  13.920  0.8357  0.4878  0.0186
 4417SOL    HW124887   3.168   2.896  13.928  0.1633  1.4525  1.7298
 4417SOL    HW224888   3.117   2.761  13.908 -0.5012 -0.1538  1.1193
 4418SOL     OW24889   1.352   3.797  15.175 -1.2632 -0.1234 -0.0563
 4418SOL    HW124890   1.364   3.719  15.229 -1.1624 -0.8508 -1.1447
 4418SOL    HW224891   1.378   3.766  15.088  0.7940  0.4776  0.3371
 4419SOL     OW24892   1.479   1.964   7.372 -0.1575 -0.5154  0.8762
 4419SOL    HW124893   1.472   2.022   7.296 -0.5359 -0.6323  0.8243
 4419SOL    HW224894   1.571   1.977   7.395 -0.2321  2.2235 -0.3012
 4420SOL     OW24895   1.711   1.815   4.933 -0.2499  0.2840  0.1366
 4420SOL    HW124896   1.760   1.821   4.851  0.3261 -0.1656  0.4539
 4420SOL    HW224897   1.692   1.908   4.947 -0.1788  0.2382  0.5217
 4421SOL     OW24898   2.816   0.950   1.308 -0.4342  0.5329 -0.1478
 4421SOL    HW124899   2.827   0.932   1.214  0.1749  1.3783 -0.2341
 4421SOL    HW224900   2.824   0.860   1.337 -1.3107  0.9716  1.4263
 4422SOL     OW24901   0.661   0.418   4.588 -0.3431 -0.3409 -0.0679
 4422SOL    HW124902   0.660   0.492   4.526  1.0399 -0.0878  0.2170
 4422SOL    HW224903   0.725   0.439   4.656 -1.2815  1.2729  0.3225
 4423SOL     OW24904   0.560   1.416   8.697  1.2429  0.1042  0.3118
 4423SOL    HW124905   0.598   1.502   8.717 -1.6747  1.3987  0.2219
 4423SOL    HW224906   0.480   1.426   8.748  1.0940 -1.2526  0.3446
 4424SOL     OW24907   0.593   2.896  14.353  0.1887 -0.1633 -0.3243
 4424SOL    HW124908   0.543   2.870  14.275  0.0175  1.1151 -0.6326
 4424SOL    HW224909   0.524   2.938  14.404 -0.3602 -1.0532 -0.3289
 4425SOL     OW24910   2.147   4.530   7.595  0.3433  0.0332  0.2227
 4425SOL    HW124911   2.122   4.438   7.594 -0.3315  0.2274 -0.8006
 4425SOL    HW224912   2.078   4.563   7.652  1.6305  1.0426  1.2068
 4426SOL     OW24913   0.401   1.277   2.916 -0.0057  0.5326 -0.0808
 4426SOL    HW124914   0.420   1.192   2.877 -1.5500  1.0090 -1.8668
 4426SOL    HW224915   0.313   1.266   2.951 -0.2779 -1.7350 -1.4944
 4427SOL     OW24916   0.620   0.138   3.153 -0.2675 -0.0610  0.0476
 4427SOL    HW124917   0.573   0.064   3.114 -2.4095  0.9271  0.7319
 4427SOL    HW224918   0.546   0.199   3.153  0.6704  1.0702 -1.2549
 4428SOL     OW24919   2.512   0.064   0.497 -0.7899 -0.0395 -0.1098
 4428SOL    HW124920   2.522   4.718   0.545  2.0497  0.9374  0.9310
 4428SOL    HW224921   2.475   0.021   0.419  1.3295 -0.4149 -0.9254
 4429SOL     OW24922   0.996   2.965   8.966  0.6991  0.3896  0.1991
 4429SOL    HW124923   1.040   2.891   8.926 -1.4207 -0.0764 -1.2324
 4429SOL    HW224924   0.943   2.933   9.040  1.2014  1.1632  0.9027
 4430SOL     OW24925   0.415   2.622   7.128  0.0178 -0.3405 -0.1278
 4430SOL    HW124926   0.439   2.684   7.059 -1.8674  0.0623 -0.4228
 4430SOL    HW224927   0.407   2.677   7.205  2.2557  1.2786 -1.0407
 4431SOL     OW24928   3.520   1.489  12.641 -0.3703 -0.1531  0.2391
 4431SOL    HW124929   3.496   1.399  12.618 -0.7348  0.4726 -1.8691
 4431SOL    HW224930   3.588   1.472  12.706  0.1992  0.4251 -0.2060
 4432SOL     OW24931   1.845   0.372   0.677  0.0052  0.3270  0.0861
 4432SOL    HW124932   1.814   0.324   0.754  0.2285 -1.6171 -1.0269
 4432SOL    HW224933   1.906   0.311   0.635 -0.7962 -0.4303  0.0185
 4433SOL     OW24934   3.261   0.117  12.173 -0.6652  0.4099 -0.3588
 4433SOL    HW124935   3.224   0.193  12.127  2.8828  2.0294 -0.5039
 4433SOL    HW224936   3.349   0.119  12.136 -0.5159 -0.4950 -0.0536
 4434SOL     OW24937   1.922   0.195   4.947 -0.1406 -0.0416 -0.1353
 4434SOL    HW124938   1.994   0.134   4.930 -1.8460 -1.8326 -0.9269
 4434SOL    HW224939   1.848   0.159   4.898  1.4177 -0.8075 -1.9210
 4435SOL     OW24940   2.035   0.475   4.390 -1.0599 -0.1497  0.0092
 4435SOL    HW124941   2.038   0.381   4.406  0.0567  0.0143  0.7761
 4435SOL    HW224942   2.116   0.490   4.341 -0.6748 -1.2835  0.3053
 4436SOL     OW24943   0.484   2.660   2.616 -0.2539  0.3743  1.1639
 4436SOL    HW124944   0.455   2.751   2.617 -4.0209 -0.8107 -0.0766
 4436SOL    HW224945   0.440   2.613   2.686 -0.0196  0.1381  1.1542
 4437SOL     OW24946   0.522   4.382  17.203 -0.0859 -0.3838 -0.3659
 4437SOL    HW124947   0.569   4.464  17.190  0.6767 -0.5288  1.4688
 4437SOL    HW224948   0.437   4.400  17.163  1.0292  1.4410 -1.8709
 4438SOL     OW24949   3.751   2.341   8.420 -0.8279 -0.4976  0.1659
 4438SOL    HW124950   3.820   2.404   8.397 -0.9454 -0.2310  0.5419
 4438SOL    HW224951   3.674   2.393   8.398 -0.9401 -0.3200  0.9498
 4439SOL     OW24952   0.310   2.472   6.360  0.6139  0.1822  0.3173
 4439SOL    HW124953   0.256   2.411   6.309 -0.1607  2.5393 -1.6950
 4439SOL    HW224954   0.301   2.554   6.311 -1.5104 -0.2130  0.0344
 4440SOL     OW24955   0.690   4.223   4.126  0.3166  0.2055 -0.4069
 4440SOL    HW124956   0.703   4.230   4.032 -2.6444 -1.8265 -0.9595
 4440SOL    HW224957   0.770   4.190   4.167  1.4359 -1.1812 -3.7517
 4441SOL     OW24958   2.175   0.142  11.321  0.0517  0.0647 -0.5465
 4441SOL    HW124959   2.248   0.094  11.362 -0.4549  0.1079  0.4091
 4441SOL    HW224960   2.196   0.233  11.344 -0.6845  0.0377  0.2169
 4442SOL     OW24961   0.169   2.905   6.911 -0.0151 -0.2549  0.1785
 4442SOL    HW124962   0.084   2.936   6.879  0.3122 -0.9098 -1.3221
 4442SOL    HW224963   0.135   2.867   6.991 -0.5389 -1.2382 -0.5099
 4443SOL     OW24964   1.727   1.002   2.564  0.1081 -0.0191 -0.3408
 4443SOL    HW124965   1.697   1.086   2.600 -2.6285 -0.0050 -2.6148
 4443SOL    HW224966   1.662   0.945   2.605  1.8612 -0.6034  1.6099
 4444SOL     OW24967   0.353   2.080  14.890  0.0773  0.1875  0.5788
 4444SOL    HW124968   0.397   2.104  14.809  1.5838  0.7179  1.5431
 4444SOL    HW224969   0.280   2.024  14.864  1.6768 -2.5025  1.8347
 4445SOL     OW24970   4.341   1.747   4.243  0.5409 -0.1637  0.2986
 4445SOL    HW124971   4.338   1.843   4.251 -0.5864  0.1078 -2.9399
 4445SOL    HW224972   4.433   1.732   4.225  0.4598 -0.9874  0.5998
 4446SOL     OW24973   2.369   0.152   8.639 -0.0377 -0.2873  0.1575
 4446SOL    HW124974   2.286   0.169   8.594  0.0505  0.3394  0.2294
 4446SOL    HW224975   2.376   0.056   8.645 -1.0976 -0.4889 -1.6298
 4447SOL     OW24976   4.172   2.667   4.727  0.1545 -0.4297  0.6200
 4447SOL    HW124977   4.204   2.753   4.698 -2.4940  0.5484  0.6126
 4447SOL    HW224978   4.248   2.611   4.711 -0.7955 -0.1331 -4.8061
 4448SOL     OW24979   3.511   3.547   0.311  0.3323  0.0675  0.1185
 4448SOL    HW124980   3.439   3.574   0.368 -0.6753  1.5591 -1.9066
 4448SOL    HW224981   3.479   3.558   0.222  0.5218 -1.4607 -0.1385
 4449SOL     OW24982   3.626   0.296   4.335 -0.6073 -0.3210 -1.0333
 4449SOL    HW124983   3.663   0.238   4.269 -0.3343  0.1267 -1.2763
 4449SOL    HW224984   3.598   0.374   4.287 -1.7450  1.5630  2.6418
 4450SOL     OW24985   2.529   4.711   6.355  0.3116 -0.0523  0.2231
 4450SOL    HW124986   2.590   4.638   6.361 -0.0730 -0.1500  2.8546
 4450SOL    HW224987   2.469   4.681   6.423  0.5751 -0.2031  0.3880
 4451SOL     OW24988   3.125   1.551   5.459 -0.2541 -0.3879  0.0682
 4451SOL    HW124989   3.067   1.628   5.457 -0.5217 -0.5809  0.3803
 4451SOL    HW224990   3.156   1.563   5.549  2.5142 -2.6418 -0.6024
 4452SOL     OW24991   2.664   0.499   0.797  0.1235 -0.5557 -0.0918
 4452SOL    HW124992   2.610   0.510   0.718 -3.1305 -0.0856  2.1688
 4452SOL    HW224993   2.699   0.410   0.789  0.1739 -0.7403  2.1492
 4453SOL     OW24994   2.864   2.781  12.446 -0.1347 -0.0808 -0.7182
 4453SOL    HW124995   2.870   2.693  12.408 -2.0032 -1.0616  1.2698
 4453SOL    HW224996   2.770   2.787  12.466  0.4153  1.7886  1.2422
 4454SOL     OW24997   3.949   4.546  17.070 -0.3342  0.3815 -0.1816
 4454SOL    HW124998   4.000   4.476  17.110 -1.6107 -0.5968 -0.2620
 4454SOL    HW224999   4.005   4.622  17.057 -1.3400  1.0359 -0.7344
 4455SOL     OW25000   1.315   4.435   5.629  0.2772 -0.2458  0.6467
 4455SOL    HW125001   1.356   4.371   5.687 -0.0452 -1.0456 -0.0040
 4455SOL    HW225002   1.279   4.506   5.682 -0.3473  0.5053 -0.7664
 4456SOL     OW25003   2.112   0.741  16.375 -0.0351 -0.5364  0.4422
 4456SOL    HW125004   2.174   0.783  16.435  0.5696  2.4062 -2.2840
 4456SOL    HW225005   2.087   0.803  16.308 -2.5721 -1.4830  0.5207
 4457SOL     OW25006   4.217   3.197  16.742  0.2548  0.9696 -0.5081
 4457SOL    HW125007   4.281   3.126  16.746 -0.5325  0.4781  3.6335
 4457SOL    HW225008   4.195   3.201  16.835  1.1342  1.1980 -0.3053
 4458SOL     OW25009   3.132   3.076  10.680 -0.2944  0.0171 -0.2427
 4458SOL    HW125010   3.190   3.063  10.756 -0.9147  0.7705  0.3551
 4458SOL    HW225011   3.182   3.028  10.614 -0.1667 -1.0399  0.6282
 4459SOL     OW25012   1.912   4.593   1.705 -0.4172  0.3875  0.0499
 4459SOL    HW125013   1.877   4.530   1.642 -1.0293  0.1483  0.6291
 4459SOL    HW225014   1.835   4.648   1.717 -0.6555  0.1102 -0.2010
 4460SOL     OW25015   0.288   0.740  13.051  0.0505 -0.3465 -0.2099
 4460SOL    HW125016   0.260   0.683  13.122 -1.9822  0.6380 -0.2276
 4460SOL    HW225017   0.373   0.701  13.032  0.7565  0.8056  0.5931
 4461SOL     OW25018   3.462   0.178  11.315 -0.3417 -0.7357 -0.3339
 4461SOL    HW125019   3.409   0.173  11.236 -0.9349  1.5684 -0.0934
 4461SOL    HW225020   3.551   0.158  11.286  0.7161  2.6584  0.6078
 4462SOL     OW25021   2.265   0.553  11.733 -0.2061 -0.3795 -0.1301
 4462SOL    HW125022   2.228   0.478  11.781 -1.5555  0.5169  0.2335
 4462SOL    HW225023   2.199   0.617  11.760  1.4534  1.5927 -0.8571
 4463SOL     OW25024   2.533   4.538   4.207  0.1162 -0.1645 -0.3623
 4463SOL    HW125025   2.577   4.581   4.281 -1.2674  0.0209  0.3665
 4463SOL    HW225026   2.459   4.598   4.199 -0.6830 -1.0390  0.3758
 4464SOL     OW25027   0.613   4.540   4.877  0.1404  0.5120 -0.0620
 4464SOL    HW125028   0.576   4.452   4.887 -0.1149  0.5664 -0.5145
 4464SOL    HW225029   0.641   4.563   4.965 -0.4491  0.7343  0.0666
 4465SOL     OW25030   2.044   3.985   6.467 -0.5946  0.3094  0.0330
 4465SOL    HW125031   2.075   3.911   6.520  0.2307  0.0533 -0.8058
 4465SOL    HW225032   2.041   3.953   6.377 -0.3256 -2.6165  1.0668
 4466SOL     OW25033   4.147   2.778   1.721 -0.0716 -0.7426  0.7614
 4466SOL    HW125034   4.182   2.815   1.640 -0.4350 -0.4102  0.7568
 4466SOL    HW225035   4.218   2.798   1.782  2.5133 -1.1511 -2.1170
 4467SOL     OW25036   1.005   0.142   9.783  0.1986 -0.0936  0.8597
 4467SOL    HW125037   0.952   0.191   9.720 -0.1725  1.5289  2.4091
 4467SOL    HW225038   0.974   0.052   9.774 -1.0423  0.2407  1.7865
 4468SOL     OW25039   1.536   0.327   4.643 -0.5256  0.8389 -0.1128
 4468SOL    HW125040   1.578   0.405   4.607 -0.7881  0.9866 -0.0984
 4468SOL    HW225041   1.492   0.291   4.566 -0.3064  1.9600 -0.7496
 4469SOL     OW25042   2.107   0.448   3.544 -0.1728  0.1968 -0.0746
 4469SOL    HW125043   2.068   0.451   3.631 -0.7201 -0.7672 -0.2941
 4469SOL    HW225044   2.133   0.539   3.526  2.2745 -0.7048 -1.1556
 4470SOL     OW25045   2.960   4.135   9.152 -0.0705 -0.4610 -0.9790
 4470SOL    HW125046   2.958   4.227   9.124  1.7737 -0.0893  0.0985
 4470SOL    HW225047   3.052   4.112   9.161  0.5858  3.0676  1.4017
 4471SOL     OW25048   2.243   0.803   6.099  0.4765  0.0603  0.1067
 4471SOL    HW125049   2.216   0.783   6.188 -1.3280 -1.8641 -0.8540
 4471SOL    HW225050   2.317   0.860   6.115  0.6128  0.1706 -0.8733
 4472SOL     OW25051   1.631   1.638   7.098  0.0298 -0.6044 -0.1461
 4472SOL    HW125052   1.565   1.607   7.159  0.1114 -1.3473 -0.4376
 4472SOL    HW225053   1.640   1.734   7.098 -2.1713 -0.4065  1.9443
 4473SOL     OW25054   1.943   2.595   8.514 -0.1522 -0.0644 -0.0130
 4473SOL    HW125055   2.001   2.535   8.467 -2.4141 -2.9107  0.8588
 4473SOL    HW225056   1.856   2.582   8.477 -1.3516  0.4846  2.6211
 4474SOL     OW25057   1.235   2.769   6.546 -0.7453  0.3497  0.2396
 4474SOL    HW125058   1.243   2.838   6.480 -0.2443  2.7394  2.8504
 4474SOL    HW225059   1.224   2.817   6.627  0.8209  0.9440  0.1101
 4475SOL     OW25060   0.332   4.179  11.195 -0.2935  0.3067  0.3197
 4475SOL    HW125061   0.383   4.114  11.243 -1.3044 -2.1306 -1.9227
 4475SOL    HW225062   0.347   4.259  11.247  2.7824 -0.4045  0.5446
 4476SOL     OW25063   0.501   1.637   1.595  0.6863 -0.2872 -0.0699
 4476SOL    HW125064   0.428   1.649   1.655  0.7087 -0.8159  0.0620
 4476SOL    HW225065   0.516   1.720   1.550  1.8633 -0.2797  0.3361
 4477SOL     OW25066   4.032   4.572  12.347  0.2139 -0.0485 -0.3060
 4477SOL    HW125067   4.072   4.576  12.260  2.2214 -1.6569  0.5411
 4477SOL    HW225068   4.085   4.637  12.393  1.2807 -0.8439 -0.3969
 4478SOL     OW25069   0.054   3.116   7.526 -0.0602 -0.3448 -0.1148
 4478SOL    HW125070   0.122   3.182   7.512  0.5028 -0.9427 -0.2114
 4478SOL    HW225071   0.110   3.045   7.494  1.2107  0.0922  1.1561
 4479SOL     OW25072   3.424   2.522  15.661 -0.6472 -0.1779 -0.5118
 4479SOL    HW125073   3.345   2.536  15.609 -1.4133 -4.0580 -0.4055
 4479SOL    HW225074   3.412   2.435  15.699  0.0014  0.3060  0.7842
 4480SOL     OW25075   0.166   3.694   9.876  0.1628  0.4613 -0.0031
 4480SOL    HW125076   0.087   3.731   9.915  1.9984  1.0561  3.1820
 4480SOL    HW225077   0.190   3.623   9.936  1.3805  0.7082 -0.1917
 4481SOL     OW25078   1.309   2.128  14.983 -0.2838 -0.0726 -0.1114
 4481SOL    HW125079   1.240   2.114  15.048 -1.5639 -1.6265 -1.8309
 4481SOL    HW225080   1.366   2.181  15.039 -2.0415  0.2974  1.3468
 4482SOL     OW25081   0.767   3.643   7.135 -0.4328 -0.5993  0.2038
 4482SOL    HW125082   0.683   3.678   7.163 -0.5325  0.7266 -1.7261
 4482SOL    HW225083   0.796   3.604   7.218  2.7668 -1.4252 -1.3014
 4483SOL     OW25084   2.681   1.563   2.507  0.2647  0.1237  0.1015
 4483SOL    HW125085   2.587   1.555   2.519  0.0122  2.0094 -0.5419
 4483SOL    HW225086   2.709   1.591   2.594  1.3371  1.1192 -0.5482
 4484SOL     OW25087   3.681   1.975   2.109  0.0336  0.4751  0.1001
 4484SOL    HW125088   3.613   1.922   2.150 -0.7379  2.4238  1.3536
 4484SOL    HW225089   3.623   2.026   2.052  0.9720  0.2388 -1.0766
 4485SOL     OW25090   0.748   3.190   9.592 -0.0542  0.6703 -0.3597
 4485SOL    HW125091   0.784   3.278   9.601  5.2600 -1.6734  1.4451
 4485SOL    HW225092   0.655   3.209   9.583 -0.0739  1.7608  1.9557
 4486SOL     OW25093   3.212   2.473   3.164 -0.1333 -0.2746 -0.4463
 4486SOL    HW125094   3.142   2.522   3.207  1.1147  3.6543 -2.8812
 4486SOL    HW225095   3.279   2.540   3.149 -0.4967  0.2901  0.4670
 4487SOL     OW25096   4.215   1.473  12.832  0.1447  0.3087 -0.3243
 4487SOL    HW125097   4.156   1.441  12.764  0.6436 -0.3494 -0.4440
 4487SOL    HW225098   4.271   1.538  12.790 -0.2192 -0.0745 -1.3873
 4488SOL     OW25099   1.449   4.608   3.364 -0.2806  0.0735  0.5826
 4488SOL    HW125100   1.444   4.667   3.439 -1.3527  0.9359 -0.1565
 4488SOL    HW225101   1.512   4.665   3.321 -1.0023  0.4265 -0.0137
 4489SOL     OW25102   0.383   4.160   8.169 -0.2730  0.4248 -0.0863
 4489SOL    HW125103   0.419   4.095   8.108 -0.4899  0.7760 -0.5819
 4489SOL    HW225104   0.389   4.111   8.251 -1.1451 -0.2766 -0.4382
 4490SOL     OW25105   2.942   1.195  16.569 -0.2958 -0.6286  0.1704
 4490SOL    HW125106   2.922   1.287  16.549 -1.1019 -0.5497  1.3416
 4490SOL    HW225107   2.963   1.194  16.662 -1.8755 -3.0802  0.5051
 4491SOL     OW25108   4.024   3.723   4.570  0.2413  0.0529  0.0938
 4491SOL    HW125109   3.951   3.664   4.553 -0.8227  1.6204 -0.8354
 4491SOL    HW225110   4.040   3.761   4.483  2.1844  3.3251  1.8768
 4492SOL     OW25111   4.385   4.458   3.237 -0.0160 -0.2653 -0.3946
 4492SOL    HW125112   4.325   4.500   3.298  0.0101  0.8290 -1.1341
 4492SOL    HW225113   4.326   4.449   3.162 -1.1784 -1.6592  0.6815
 4493SOL     OW25114   3.519   4.024  10.054 -0.4113 -0.3386  0.1863
 4493SOL    HW125115   3.457   4.072  10.110  0.4452  1.0615 -0.0722
 4493SOL    HW225116   3.521   4.086   9.981  1.7852  0.7561  1.2025
 4494SOL     OW25117   4.198   1.656  14.089 -0.2002 -0.5446 -0.2802
 4494SOL    HW125118   4.111   1.633  14.055 -0.1712  0.2644 -0.8972
 4494SOL    HW225119   4.205   1.593  14.161 -0.2102  0.8089  0.8818
 4495SOL     OW25120   1.701   4.193   8.054 -0.1584 -0.1911  0.4477
 4495SOL    HW125121   1.780   4.165   8.007 -0.8688 -4.7159  1.8919
 4495SOL    HW225122   1.634   4.155   7.997 -0.1169 -1.6672  1.3675
 4496SOL     OW25123   1.939   1.715   3.017  0.3165 -0.0564  0.1342
 4496SOL    HW125124   1.940   1.619   3.017  1.5533 -0.0487 -0.6572
 4496SOL    HW225125   2.010   1.739   2.958 -2.3482  0.3712 -2.9112
 4497SOL     OW25126   3.825   4.015   2.893 -0.0016  0.1279 -0.1618
 4497SOL    HW125127   3.751   4.074   2.904 -0.3304 -0.4636  0.8322
 4497SOL    HW225128   3.874   4.071   2.833  1.8482 -1.5651 -0.2584
 4498SOL     OW25129   3.665   1.643   5.251 -0.0304 -0.0560  0.1722
 4498SOL    HW125130   3.746   1.599   5.275  0.9524  2.2069  0.9596
 4498SOL    HW225131   3.695   1.724   5.292 -0.3506  0.2961 -0.2883
 4499SOL     OW25132   2.018   1.268  12.812 -0.2108  0.0465  0.1177
 4499SOL    HW125133   1.933   1.265  12.768 -0.4540 -0.3308  0.6073
 4499SOL    HW225134   2.040   1.350  12.768 -1.8715 -0.1936 -1.1701
 4500SOL     OW25135   2.184   1.291   1.516  0.2870  0.0590  0.0568
 4500SOL    HW125136   2.129   1.220   1.550  0.3429  0.0519  0.1339
 4500SOL    HW225137   2.207   1.250   1.433  2.0225 -1.4044  1.2613
 4501SOL     OW25138   0.740   0.041   5.729  0.3595  0.1965 -0.1552
 4501SOL    HW125139   0.815   4.736   5.686 -1.3867 -1.8505 -1.2379
 4501SOL    HW225140   0.776   0.043   5.818 -1.5865  1.6057  0.5900
 4502SOL     OW25141   0.692   1.619   8.801  0.0096 -0.0800 -0.3867
 4502SOL    HW125142   0.737   1.703   8.794  1.2859 -0.6628  0.8592
 4502SOL    HW225143   0.690   1.602   8.895 -0.1921 -0.5811 -0.4764
 4503SOL     OW25144   4.054   1.761  11.428  0.6492 -0.3840  0.2551
 4503SOL    HW125145   4.147   1.769  11.407  0.1272  0.3173 -1.8323
 4503SOL    HW225146   4.021   1.689  11.374  0.4376 -1.5416  1.9136
 4504SOL     OW25147   2.443   2.173  12.867 -0.1715  0.0968 -0.0294
 4504SOL    HW125148   2.399   2.258  12.876 -0.0877  0.2054 -0.6206
 4504SOL    HW225149   2.416   2.153  12.777  0.6734 -0.4380 -0.1535
 4505SOL     OW25150   0.054   0.841   3.309 -0.2600 -0.7655 -0.7530
 4505SOL    HW125151   0.038   0.824   3.401 -0.5073  2.1168 -0.2750
 4505SOL    HW225152   0.148   0.825   3.310 -0.2094 -0.5464 -1.5586
 4506SOL     OW25153   4.330   3.200   1.686  0.7749  0.0909 -0.0523
 4506SOL    HW125154   4.239   3.184   1.714 -0.2102  2.3090 -2.0334
 4506SOL    HW225155   4.327   3.234   1.597  0.7415  0.2552  0.0111
 4507SOL     OW25156   1.280   2.330  10.083 -0.0059 -0.0072  0.2185
 4507SOL    HW125157   1.309   2.363  10.168  0.1094 -1.3643  0.7010
 4507SOL    HW225158   1.366   2.302  10.052  0.5313 -0.8091  2.3922
 4508SOL     OW25159   3.014   3.410   0.986 -0.1290  0.2972 -0.2792
 4508SOL    HW125160   2.968   3.469   0.926 -1.4143  0.4113  0.8158
 4508SOL    HW225161   3.100   3.454   0.981 -1.1680  2.1451 -1.7959
 4509SOL     OW25162   0.477   2.181   5.061  0.5103  0.2675  0.7553
 4509SOL    HW125163   0.470   2.086   5.068 -0.6151  0.2486 -0.7228
 4509SOL    HW225164   0.423   2.200   5.138 -0.5212  1.1489 -0.1931
 4510SOL     OW25165   1.540   1.631   2.425 -0.4365  0.0835  0.0637
 4510SOL    HW125166   1.453   1.623   2.387 -0.7026  0.5629  0.5707
 4510SOL    HW225167   1.538   1.716   2.469 -0.1978  0.5784 -0.8926
 4511SOL     OW25168   3.911   3.749  17.544 -0.6050  0.4036  0.0984
 4511SOL    HW125169   3.973   3.746  17.616 -1.1372  0.2700  0.5509
 4511SOL    HW225170   3.961   3.730  17.465  1.5365  2.9155  0.8421
 4512SOL     OW25171   4.236   2.585   7.637 -0.3950  0.1435 -0.2581
 4512SOL    HW125172   4.313   2.617   7.591 -0.3961  1.5074  0.6854
 4512SOL    HW225173   4.251   2.495   7.665  1.3077  0.4364 -0.2648
 4513SOL     OW25174   3.071   4.022   5.600  0.1412  0.2770 -0.0092
 4513SOL    HW125175   3.085   3.944   5.547  2.5197  1.1655 -0.6874
 4513SOL    HW225176   3.107   4.087   5.541 -0.2000  0.2832 -0.2058
 4514SOL     OW25177   2.426   4.482   8.926 -0.0919 -0.4928 -0.1409
 4514SOL    HW125178   2.479   4.408   8.896  2.8119  1.1101  0.9679
 4514SOL    HW225179   2.388   4.449   9.007 -2.8329  0.5141 -1.0232
 4515SOL     OW25180   2.872   3.520  17.480 -0.1282 -0.3777 -0.4356
 4515SOL    HW125181   2.806   3.587  17.462 -0.0771  0.5292  2.7390
 4515SOL    HW225182   2.857   3.495  17.571  2.3447 -2.4240 -0.5865
 4516SOL     OW25183   0.508   1.230  14.692  0.4527 -0.1136 -0.7702
 4516SOL    HW125184   0.502   1.316  14.652  2.6975  1.5465  2.4242
 4516SOL    HW225185   0.531   1.167  14.624  0.4100  0.0627 -0.9450
 4517SOL     OW25186   3.193   0.042   8.841  0.1688  0.1522 -0.3761
 4517SOL    HW125187   3.134   0.115   8.856 -1.0339 -1.3449  2.2907
 4517SOL    HW225188   3.144   4.709   8.795  2.4737 -1.8453  0.1199
 4518SOL     OW25189   2.115   0.109   5.751  0.3221 -0.2150  0.2104
 4518SOL    HW125190   2.081   0.168   5.818 -0.1142  0.1259 -0.3101
 4518SOL    HW225191   2.039   0.101   5.693 -1.5316 -0.9935  2.7728
 4519SOL     OW25192   2.076   3.981   4.070  0.4789 -0.1024  0.0053
 4519SOL    HW125193   1.992   3.949   4.037 -0.0617  0.0144  1.2688
 4519SOL    HW225194   2.048   4.017   4.153  1.0322  2.9968 -1.1589
 4520SOL     OW25195   2.265   1.464   9.878 -0.3317 -0.0400 -0.5362
 4520SOL    HW125196   2.304   1.475   9.964 -1.3278  0.2405 -0.1141
 4520SOL    HW225197   2.340   1.446   9.821 -0.4202  3.7098 -1.8362
 4521SOL     OW25198   4.247   2.263   6.599 -0.3699  0.6773 -0.1608
 4521SOL    HW125199   4.199   2.205   6.658  1.4582 -1.6635 -0.9499
 4521SOL    HW225200   4.170   2.289   6.548 -0.6223 -1.2540 -0.8015
 4522SOL     OW25201   1.293   1.610   2.330 -0.1113 -0.1805 -0.3959
 4522SOL    HW125202   1.258   1.586   2.416  0.7620 -1.1532 -0.3128
 4522SOL    HW225203   1.241   1.562   2.265  0.4909 -1.2003 -0.1339
 4523SOL     OW25204   2.232   0.395   4.920 -0.1195 -0.4379 -0.2295
 4523SOL    HW125205   2.170   0.450   4.967  0.9114 -0.0827  0.7407
 4523SOL    HW225206   2.178   0.360   4.850 -0.0380 -0.6218 -0.2006
 4524SOL     OW25207   2.148   1.709  11.963  0.1509  0.2565 -0.4969
 4524SOL    HW125208   2.206   1.768  11.916  1.6203 -0.6946  0.1120
 4524SOL    HW225209   2.081   1.772  11.989 -1.2300 -1.1866 -0.4964
 4525SOL     OW25210   1.419   0.169   7.895  0.2189  0.0190  0.1162
 4525SOL    HW125211   1.389   0.111   7.825  2.5854 -0.0658 -0.8361
 4525SOL    HW225212   1.382   0.254   7.869  0.1322  0.7991  2.7770
 4526SOL     OW25213   3.196   4.158  16.792 -0.3839  0.3968  0.5458
 4526SOL    HW125214   3.184   4.253  16.800 -0.7218  0.3053  1.1248
 4526SOL    HW225215   3.117   4.129  16.747 -1.5701  1.6543  1.7744
 4527SOL     OW25216   2.910   1.238   8.853  0.3309  0.0335  0.0062
 4527SOL    HW125217   2.815   1.229   8.855  0.3279 -0.3627 -2.1336
 4527SOL    HW225218   2.916   1.332   8.871  0.5396 -0.2537  1.4675
 4528SOL     OW25219   1.039   2.622  10.659  0.5323  0.1659  0.0997
 4528SOL    HW125220   1.087   2.704  10.657  0.1023  0.4216  0.1977
 4528SOL    HW225221   0.959   2.644  10.610  0.6004 -1.0137 -0.5430
 4529SOL     OW25222   0.979   0.584   6.916 -0.8178  0.1614  0.0401
 4529SOL    HW125223   0.958   0.641   6.989 -0.6141  0.2550  0.0246
 4529SOL    HW225224   0.959   0.641   6.842 -1.3800 -2.7305 -2.0403
 4530SOL     OW25225   2.285   1.248   7.978 -0.4634 -0.2590  0.4369
 4530SOL    HW125226   2.329   1.178   8.026  2.8851 -1.1527 -3.9537
 4530SOL    HW225227   2.307   1.228   7.887  1.7968  0.2475  0.8945
 4531SOL     OW25228   2.464   0.497   0.621  0.5876  0.2897 -0.5016
 4531SOL    HW125229   2.482   0.498   0.527 -0.9731 -1.0883 -0.8079
 4531SOL    HW225230   2.392   0.559   0.632 -0.0175 -0.2086 -1.6804
 4532SOL     OW25231   4.509   1.970  12.178  0.2302 -0.8251 -0.4507
 4532SOL    HW125232   4.567   1.946  12.249 -1.1676  0.9274  1.2942
 4532SOL    HW225233   4.443   1.903  12.197  0.4299 -1.3903 -1.7280
 4533SOL     OW25234   3.593   0.487   7.341 -0.2104 -0.2468  0.5855
 4533SOL    HW125235   3.685   0.462   7.336 -0.0596  0.6540 -1.0455
 4533SOL    HW225236   3.605   0.581   7.344  4.6319 -0.8529  0.4870
 4534SOL     OW25237   3.306   0.488   8.059  0.3784 -0.5320  0.4966
 4534SOL    HW125238   3.310   0.560   8.123  0.0657  0.9582 -1.1680
 4534SOL    HW225239   3.381   0.439   8.093  1.3614  0.9587  0.4833
 4535SOL     OW25240   1.282   2.333   2.473 -0.3078  0.1564 -0.2114
 4535SOL    HW125241   1.257   2.390   2.400 -0.4071  1.8521  1.1624
 4535SOL    HW225242   1.377   2.336   2.458  0.4355 -1.7796  4.1306
 4536SOL     OW25243   0.655   4.260   3.676  0.1982  0.4010 -0.3347
 4536SOL    HW125244   0.741   4.299   3.692  0.1075  0.0318  1.0928
 4536SOL    HW225245   0.655   4.183   3.734  2.6262  1.1262  0.6045
 4537SOL     OW25246   2.138   4.619   8.368  0.3866 -0.1402 -0.1196
 4537SOL    HW125247   2.173   4.554   8.307  0.0338  0.6696 -1.2008
 4537SOL    HW225248   2.179   4.700   8.340 -1.0572  1.0068  1.0816
 4538SOL     OW25249   1.217   0.399   7.544 -0.4008 -0.2293 -0.1870
 4538SOL    HW125250   1.178   0.419   7.459 -2.3251 -0.2232  0.7156
 4538SOL    HW225251   1.231   0.307   7.522  1.4403  0.2172 -0.9247
 4539SOL     OW25252   0.882   2.413  14.354  0.0812  0.7495  0.1735
 4539SOL    HW125253   0.920   2.401  14.441  2.5439  0.2278 -0.9819
 4539SOL    HW225254   0.888   2.508  14.342 -2.2279  1.0330  1.2310
 4540SOL     OW25255   3.439   0.104   8.537 -0.1919 -0.6088  0.2995
 4540SOL    HW125256   3.439   0.196   8.509  1.0053 -0.8535 -0.5046
 4540SOL    HW225257   3.366   0.103   8.599 -0.2838  0.2033  0.2080
 4541SOL     OW25258   1.301   1.280  10.508  0.0507 -0.0622  0.3389
 4541SOL    HW125259   1.346   1.235  10.579 -1.0039 -0.2733  0.8811
 4541SOL    HW225260   1.210   1.274  10.539 -0.4802  2.1677 -0.7722
 4542SOL     OW25261   0.495   2.349  10.534 -0.4529 -0.8659 -0.2247
 4542SOL    HW125262   0.571   2.292  10.547  0.7466  1.0375  1.1434
 4542SOL    HW225263   0.527   2.425  10.583 -1.4034 -0.5946 -0.0171
 4543SOL     OW25264   3.272   2.896   1.778  0.2159  0.1757 -0.0986
 4543SOL    HW125265   3.367   2.889   1.769  0.4674  0.8331  2.1980
 4543SOL    HW225266   3.270   2.972   1.836 -2.5859  0.9428 -1.1537
 4544SOL     OW25267   3.469   3.588   0.015  0.1074  0.3804  0.0577
 4544SOL    HW125268   3.418   3.620  17.683 -0.0510  0.2506  0.1089
 4544SOL    HW225269   3.562   3.591  17.733  0.1285 -1.4836 -0.1158
 4545SOL     OW25270   2.550   3.832  15.340  0.2024  0.1681  0.0974
 4545SOL    HW125271   2.536   3.849  15.433 -1.1339  1.4685 -0.3387
 4545SOL    HW225272   2.636   3.872  15.325  0.3073 -0.9613 -2.2719
 4546SOL     OW25273   2.181   1.070   8.915  0.4135  0.3518 -0.0516
 4546SOL    HW125274   2.095   1.063   8.874 -0.4501  0.7547  1.6872
 4546SOL    HW225275   2.168   1.153   8.961 -1.8929 -1.2838  2.3113
 4547SOL     OW25276   2.852   1.085   3.318  0.4026 -0.2420 -0.4039
 4547SOL    HW125277   2.932   1.118   3.360  1.3920 -2.2496 -0.6848
 4547SOL    HW225278   2.855   0.991   3.335  0.2750  0.0631  1.2609
 4548SOL     OW25279   3.546   2.514  13.577 -0.7014  0.0499  0.1616
 4548SOL    HW125280   3.595   2.519  13.659  0.2882 -0.9057 -0.3716
 4548SOL    HW225281   3.474   2.577  13.584 -0.6776 -0.2518  3.2262
 4549SOL     OW25282   4.118   4.314   7.325  0.1360 -0.4844 -1.1773
 4549SOL    HW125283   4.104   4.400   7.364 -1.3659 -0.4226 -1.8414
 4549SOL    HW225284   4.180   4.276   7.388 -0.0682  0.6837 -0.2569
 4550SOL     OW25285   4.100   1.022  13.284  0.6874  0.0611 -0.0367
 4550SOL    HW125286   4.016   1.015  13.329  1.1713  1.0499  1.0242
 4550SOL    HW225287   4.161   1.038  13.356  0.1026 -0.0160  0.4715
 4551SOL     OW25288   1.525   2.299   4.013  0.1988  0.2536  0.2209
 4551SOL    HW125289   1.609   2.282   4.057  1.2360 -0.3372 -1.9596
 4551SOL    HW225290   1.479   2.217   4.030 -1.2625  0.9853 -0.2840
 4552SOL     OW25291   0.128   3.538   2.331 -0.8788  0.1497 -0.1446
 4552SOL    HW125292   0.187   3.541   2.256 -1.5452 -1.9034 -0.7571
 4552SOL    HW225293   0.173   3.610   2.376 -0.4414 -1.6652  2.3257
 4553SOL     OW25294   2.166   2.087   5.003  0.4898 -0.4595  0.1993
 4553SOL    HW125295   2.205   2.062   4.919  2.5750  0.1886  0.9721
 4553SOL    HW225296   2.171   2.181   4.985  0.7801 -0.5656 -0.2822
 4554SOL     OW25297   2.326   3.177   2.706  0.4761  0.3700 -0.2246
 4554SOL    HW125298   2.287   3.103   2.658  2.1588 -0.7956  0.2128
 4554SOL    HW225299   2.263   3.243   2.677  0.7043 -0.6075 -3.0203
 4555SOL     OW25300   4.010   3.534   6.962  0.3146  0.7981  0.4434
 4555SOL    HW125301   4.066   3.560   7.035  1.9243 -2.0442  0.2179
 4555SOL    HW225302   4.077   3.526   6.894 -1.0418 -1.1191 -0.6803
 4556SOL     OW25303   1.958   0.795   3.868  0.0907 -0.0330 -0.0471
 4556SOL    HW125304   1.888   0.742   3.907 -1.9746  1.0847 -2.2037
 4556SOL    HW225305   1.898   0.858   3.827 -1.9385 -0.9675  1.4929
 4557SOL     OW25306   0.903   4.362   0.610  0.1560  0.6427  0.0079
 4557SOL    HW125307   0.936   4.322   0.691  2.8773 -1.0759 -1.9434
 4557SOL    HW225308   0.947   4.304   0.548  1.8131 -0.7616  2.5120
 4558SOL     OW25309   1.791   3.844   6.116  0.0025  0.3642 -0.0157
 4558SOL    HW125310   1.726   3.832   6.047  0.2841 -0.0332 -0.2077
 4558SOL    HW225311   1.761   3.789   6.189 -0.0312  0.0532 -0.2660
 4559SOL     OW25312   1.871   1.939   3.578  0.2949  0.0041 -0.0320
 4559SOL    HW125313   1.918   2.018   3.605  0.2461 -0.7347  2.1569
 4559SOL    HW225314   1.938   1.871   3.576  1.1065  0.8407 -1.3021
 4560SOL     OW25315   0.476   1.232   5.959  0.2622 -0.1798 -0.3131
 4560SOL    HW125316   0.510   1.322   5.956 -0.0809 -0.0718 -0.9335
 4560SOL    HW225317   0.390   1.239   6.000 -0.5175  0.6456 -2.0813
 4561SOL     OW25318   1.802   2.878  10.671 -0.0997 -0.4774 -0.2607
 4561SOL    HW125319   1.757   2.954  10.708  0.3392 -0.7564  0.8212
 4561SOL    HW225320   1.891   2.899  10.700 -1.3376  2.4235  1.4162
 4562SOL     OW25321   3.717   2.612   1.387 -0.1372  0.2696  0.6232
 4562SOL    HW125322   3.698   2.533   1.439 -0.7809 -0.1136 -0.1745
 4562SOL    HW225323   3.652   2.593   1.318 -0.2462  0.9396  0.5469
 4563SOL     OW25324   4.012   3.168   7.582 -0.0885 -0.0966 -0.1740
 4563SOL    HW125325   3.975   3.091   7.540  0.6041 -0.7326  0.3826
 4563SOL    HW225326   4.071   3.128   7.646  0.7812 -1.1273 -1.6313
 4564SOL     OW25327   4.629   3.238  13.175 -0.5685 -1.1346  0.2255
 4564SOL    HW125328   4.705   3.184  13.151 -1.1812 -1.5060 -0.9029
 4564SOL    HW225329   4.659   3.328  13.165  0.3865 -1.5986 -1.1495
 4565SOL     OW25330   1.911   2.517   5.619  0.0090  0.2177 -0.6168
 4565SOL    HW125331   1.981   2.571   5.582 -1.1022  0.6202 -2.1284
 4565SOL    HW225332   1.903   2.549   5.709 -0.3180  1.9782 -1.2606
 4566SOL     OW25333   1.605   1.113  14.829 -0.2675 -0.6842  0.8364
 4566SOL    HW125334   1.668   1.042  14.818 -1.1462 -1.9757  4.2389
 4566SOL    HW225335   1.534   1.067  14.785 -1.4590  2.2266 -0.2872
 4567SOL     OW25336   4.247   2.797  16.817  0.2508  0.1506 -0.6787
 4567SOL    HW125337   4.237   2.807  16.912  1.0776  3.8397 -0.9781
 4567SOL    HW225338   4.310   2.868  16.803  1.7107 -1.1923 -0.8874
 4568SOL     OW25339   1.937   2.672   4.337 -0.6356 -1.2342 -0.7861
 4568SOL    HW125340   1.846   2.655   4.361  0.0904 -1.8169  1.5959
 4568SOL    HW225341   1.959   2.594   4.285  2.8321 -1.4860  1.0833
 4569SOL     OW25342   2.192   2.913   9.099  0.6140 -0.2269  0.5519
 4569SOL    HW125343   2.187   2.919   9.004 -0.9779  0.4969  0.6925
 4569SOL    HW225344   2.099   2.929   9.111  0.4749 -1.8145  1.6059
 4570SOL     OW25345   4.177   2.299   5.781 -0.4824 -0.0056  0.3857
 4570SOL    HW125346   4.240   2.360   5.817  0.0628 -0.2226 -0.1884
 4570SOL    HW225347   4.225   2.219   5.804 -0.0904 -0.3326 -1.5655
 4571SOL     OW25348   3.167   3.732   6.590  0.1989 -0.7129  0.1182
 4571SOL    HW125349   3.147   3.642   6.565  0.2284 -0.6124 -0.2688
 4571SOL    HW225350   3.247   3.720   6.640 -0.2489 -1.2512  0.7094
 4572SOL     OW25351   3.998   3.371   1.326 -0.1146  0.5709  0.2040
 4572SOL    HW125352   4.047   3.360   1.245 -0.8048 -0.7274 -0.0407
 4572SOL    HW225353   3.961   3.459   1.320  1.5429  1.0227 -3.4857
 4573SOL     OW25354   4.021   0.421   1.033  0.1173  0.3239  0.0030
 4573SOL    HW125355   3.936   0.441   0.993 -0.6468 -1.1155  0.9164
 4573SOL    HW225356   4.053   0.348   0.980  0.4526 -0.1025  0.7957
 4574SOL     OW25357   1.581   3.510  17.415 -0.0310 -0.1249 -0.1323
 4574SOL    HW125358   1.637   3.490  17.340 -2.5820 -0.0574 -2.0138
 4574SOL    HW225359   1.562   3.417  17.428 -2.3287  0.5208  1.1270
 4575SOL     OW25360   1.441   2.501   9.405  0.1574 -0.2777 -0.2537
 4575SOL    HW125361   1.498   2.520   9.331  0.0699  1.2866  0.0796
 4575SOL    HW225362   1.495   2.435   9.449  1.4612 -0.4713 -2.1566
 4576SOL     OW25363   1.801   3.723   2.274  0.0448  0.0128  0.5494
 4576SOL    HW125364   1.881   3.682   2.306  0.0036 -1.5579 -1.3188
 4576SOL    HW225365   1.788   3.804   2.323 -0.3969  0.3563 -0.1404
 4577SOL     OW25366   2.517   3.400   5.299  0.4758  0.0632  0.5656
 4577SOL    HW125367   2.562   3.399   5.214  0.4589  3.1678  0.5322
 4577SOL    HW225368   2.563   3.467   5.349  1.0028 -0.8235  1.2838
 4578SOL     OW25369   4.382   2.374   8.196  0.2966  0.9227 -0.6622
 4578SOL    HW125370   4.436   2.440   8.154 -0.1968  1.4267 -0.5048
 4578SOL    HW225371   4.294   2.411   8.185  0.4415  0.7301 -2.4381
 4579SOL     OW25372   0.722   4.216   2.778  0.3170 -0.0222 -0.1629
 4579SOL    HW125373   0.701   4.241   2.688  0.6499  0.8561 -0.0016
 4579SOL    HW225374   0.816   4.236   2.776  0.4557 -0.9719 -3.0486
 4580SOL     OW25375   0.431   3.997  13.873 -0.4893  0.0052 -0.1739
 4580SOL    HW125376   0.359   4.060  13.865 -1.4654 -1.0494  0.2688
 4580SOL    HW225377   0.427   3.972  13.966 -0.7749 -2.2398 -0.7766
 4581SOL     OW25378   3.072   4.685  15.021 -0.3487  0.2297 -0.1867
 4581SOL    HW125379   3.011   4.612  15.023  0.9643 -0.7934  2.2495
 4581SOL    HW225380   3.040   4.729  14.942 -1.3481  0.8214  0.5469
 4582SOL     OW25381   1.642   1.717   7.938 -0.3171 -0.2713 -0.3644
 4582SOL    HW125382   1.583   1.778   7.894 -0.5370 -0.1881  0.0468
 4582SOL    HW225383   1.688   1.771   8.003 -0.7727  1.7455 -1.7248
 4583SOL     OW25384   2.115   3.539   3.351 -0.3029  0.0684  0.5848
 4583SOL    HW125385   2.109   3.493   3.268 -2.1086  1.0358  0.1854
 4583SOL    HW225386   2.041   3.497   3.394 -3.5320  2.1714 -2.9281
 4584SOL     OW25387   1.557   0.390   5.786  0.0568  0.0995  0.2359
 4584SOL    HW125388   1.498   0.331   5.739  1.0457 -0.7080  0.0169
 4584SOL    HW225389   1.508   0.463   5.823 -0.7620 -1.3005  1.8800
 4585SOL     OW25390   4.450   1.376   7.764 -0.0747 -0.0216  0.5653
 4585SOL    HW125391   4.490   1.463   7.766  0.0193 -0.0837  1.2216
 4585SOL    HW225392   4.372   1.390   7.818 -0.7792  1.3119 -0.7618
 4586SOL     OW25393   4.326   2.002   6.928  0.3990  0.2281 -1.0501
 4586SOL    HW125394   4.274   1.955   6.862  2.4117 -1.7838 -1.1881
 4586SOL    HW225395   4.411   1.981   6.890  0.4395 -0.7884 -0.3895
 4587SOL     OW25396   3.860   0.631  14.844  0.2992  0.0606  0.1672
 4587SOL    HW125397   3.954   0.648  14.850  0.7102 -1.8003 -0.8549
 4587SOL    HW225398   3.851   0.656  14.935  4.2227 -0.3494  0.6816
 4588SOL     OW25399   2.938   2.548   6.263  0.4402  0.1858  0.5737
 4588SOL    HW125400   2.931   2.459   6.296  0.8220 -0.0887 -0.1007
 4588SOL    HW225401   3.020   2.566   6.308  0.2976  2.7244 -0.1631
 4589SOL     OW25402   2.394   0.721   7.116 -0.0681  0.3063 -0.3972
 4589SOL    HW125403   2.400   0.782   7.042  0.0565  0.3795 -0.3266
 4589SOL    HW225404   2.328   0.761   7.173 -1.5640 -0.6507 -1.4683
 4590SOL     OW25405   4.040   1.724   5.464 -0.3012  0.1766  0.2923
 4590SOL    HW125406   3.975   1.703   5.532 -0.9703 -0.7371 -0.6272
 4590SOL    HW225407   4.070   1.814   5.478  1.3721 -0.1032 -1.6202
 4591SOL     OW25408   2.093   3.523   9.114  0.4208 -0.2523 -0.6477
 4591SOL    HW125409   2.059   3.580   9.045  0.8914  1.3057  0.4251
 4591SOL    HW225410   2.092   3.581   9.190  0.7995 -0.3318 -0.5809
 4592SOL     OW25411   2.062   2.297   3.461 -0.8173 -0.6562 -0.2228
 4592SOL    HW125412   2.125   2.333   3.398 -0.0406 -2.1674 -0.2974
 4592SOL    HW225413   1.989   2.357   3.441 -1.4056 -1.1364  0.5194
 4593SOL     OW25414   4.208   3.015   3.476  0.2671 -0.0540  0.2589
 4593SOL    HW125415   4.214   2.923   3.452  1.9054  0.0023  0.4357
 4593SOL    HW225416   4.286   3.039   3.425  0.7881 -1.8894  0.1828
 4594SOL     OW25417   0.749   0.250   2.407  0.0574  0.2592  0.0510
 4594SOL    HW125418   0.747   0.242   2.503 -0.6296 -0.0177  0.0177
 4594SOL    HW225419   0.840   0.227   2.390 -0.0001  2.1734 -2.6874
 4595SOL     OW25420   4.023   0.835  15.482  0.2174  0.7119  0.3067
 4595SOL    HW125421   3.942   0.784  15.476  0.8305 -0.2252 -0.0383
 4595SOL    HW225422   4.018   0.902  15.414 -1.5007  0.6293  0.3312
 4596SOL     OW25423   3.757   2.408  15.330 -0.0055  0.1193 -0.6100
 4596SOL    HW125424   3.704   2.475  15.372  1.9672  0.6422  1.0695
 4596SOL    HW225425   3.730   2.398  15.239  1.0866  1.5367 -1.0833
 4597SOL     OW25426   0.532   4.398  13.626  0.1006 -0.0032  0.4239
 4597SOL    HW125427   0.474   4.386  13.701 -1.9995  0.8005 -1.0664
 4597SOL    HW225428   0.539   4.309  13.590  1.9356  1.1233 -2.0076
 4598SOL     OW25429   4.036   0.697   0.281 -0.1393  0.7855 -0.5505
 4598SOL    HW125430   4.045   0.790   0.302  1.3403  0.6448 -0.5884
 4598SOL    HW225431   4.049   0.645   0.361 -0.9695 -0.2060 -1.0526
 4599SOL     OW25432   2.686   1.838   7.252  0.0603 -0.0206  0.2866
 4599SOL    HW125433   2.697   1.813   7.160  4.5883 -0.6330  1.0426
 4599SOL    HW225434   2.734   1.920   7.261 -0.9654  0.4684  1.2904
 4600SOL     OW25435   0.582   2.520  13.412  0.0958 -0.3648 -0.1504
 4600SOL    HW125436   0.664   2.489  13.375 -0.6862 -1.8892 -0.6216
 4600SOL    HW225437   0.618   2.593  13.462 -1.0603  0.2143 -0.1513
 4601SOL     OW25438   0.850   3.257   6.799 -0.7468  0.7225  0.0862
 4601SOL    HW125439   0.775   3.315   6.784 -1.4900 -0.4042 -0.5203
 4601SOL    HW225440   0.815   3.170   6.815 -0.1675  0.4089 -0.3671
 4602SOL     OW25441   3.788   1.030  14.886 -0.2908 -0.3007 -0.7365
 4602SOL    HW125442   3.782   0.999  14.795 -1.1873  1.1169 -1.1628
 4602SOL    HW225443   3.723   0.971  14.924  0.8710 -0.2371  1.3156
 4603SOL     OW25444   2.093   3.527   0.915 -0.6909  0.2617 -0.2611
 4603SOL    HW125445   2.062   3.487   0.996  0.0785 -2.3136 -1.2378
 4603SOL    HW225446   2.139   3.604   0.946 -1.2717 -0.0878  1.4376
 4604SOL     OW25447   2.753   2.880   8.617  0.4596  0.3570  0.1622
 4604SOL    HW125448   2.753   2.948   8.550 -1.0011  1.3042  1.1108
 4604SOL    HW225449   2.659   2.881   8.637  0.5440  1.2893  0.5332
 4605SOL     OW25450   1.166   1.534   3.178  0.0026  0.5376  0.0769
 4605SOL    HW125451   1.182   1.578   3.095 -2.1393  0.2703 -0.4802
 4605SOL    HW225452   1.211   1.602   3.228 -0.2986  0.8305 -0.0519
 4606SOL     OW25453   3.378   4.619   4.201  0.1913  0.3566  0.2869
 4606SOL    HW125454   3.376   4.608   4.106 -0.0877  0.5253  0.2724
 4606SOL    HW225455   3.304   4.569   4.233 -0.5496  3.2299  3.2063
 4607SOL     OW25456   4.452   1.528  12.624  0.2948 -0.2822 -0.4637
 4607SOL    HW125457   4.547   1.513  12.624  0.8335  2.9986  0.0075
 4607SOL    HW225458   4.448   1.623  12.632  0.3043 -0.1301 -2.1973
 4608SOL     OW25459   0.277   1.030  13.834  0.2317 -0.3351 -0.1320
 4608SOL    HW125460   0.279   0.939  13.865 -1.2634 -0.3994 -0.2212
 4608SOL    HW225461   0.368   1.056  13.828  0.1056 -0.0147 -0.6360
 4609SOL     OW25462   4.023   1.265   8.628 -0.3750 -0.2429 -0.8071
 4609SOL    HW125463   4.026   1.314   8.710  1.2613 -0.0405 -0.9680
 4609SOL    HW225464   4.104   1.214   8.635 -0.4945 -0.4034 -0.6088
 4610SOL     OW25465   1.905   3.930   5.746 -0.4582 -0.1596  0.2698
 4610SOL    HW125466   1.936   3.876   5.819 -1.8905 -1.7107 -0.2834
 4610SOL    HW225467   1.934   3.881   5.669 -1.9264 -0.1755 -0.2742
 4611SOL     OW25468   2.458   0.704   5.910 -0.5192 -0.0188  0.2755
 4611SOL    HW125469   2.414   0.672   5.830 -1.1868  2.4289 -0.3410
 4611SOL    HW225470   2.398   0.689   5.983 -0.6605  1.9299  0.5411
 4612SOL     OW25471   0.689   1.778   4.217 -0.2378  0.0601  0.5754
 4612SOL    HW125472   0.712   1.764   4.126  3.8221  2.1974  1.2382
 4612SOL    HW225473   0.761   1.727   4.254 -1.6859 -3.2695 -1.2740
 4613SOL     OW25474   4.483   0.531   5.229  0.0321  0.0041  0.0435
 4613SOL    HW125475   4.455   0.515   5.139 -1.1884  0.7873  0.2805
 4613SOL    HW225476   4.578   0.526   5.215  0.2092  0.2650  1.1404
 4614SOL     OW25477   3.183   0.215  14.750 -0.4167 -0.1247 -0.3657
 4614SOL    HW125478   3.133   0.264  14.684 -0.8902  0.9144  0.7486
 4614SOL    HW225479   3.122   0.192  14.821 -3.1459  0.5109 -2.4782
 4615SOL     OW25480   1.608   4.246   3.666  0.1291 -0.3236 -0.1823
 4615SOL    HW125481   1.687   4.273   3.712  0.2960 -0.4124 -0.4152
 4615SOL    HW225482   1.595   4.178   3.731  1.1100  0.1089  0.4592
 4616SOL     OW25483   2.111   2.427   8.379  0.6274  0.1518  1.0648
 4616SOL    HW125484   2.197   2.415   8.337  0.8353 -1.4620  1.9284
 4616SOL    HW225485   2.063   2.346   8.360 -0.0125 -0.0071  3.3937
 4617SOL     OW25486   2.266   1.990   2.644  0.2135  0.0104  0.4624
 4617SOL    HW125487   2.185   2.032   2.615  0.3270 -1.0251 -1.3042
 4617SOL    HW225488   2.315   1.975   2.563 -1.6523 -3.6559  0.0162
 4618SOL     OW25489   3.796   4.530   6.045 -0.2752 -0.2157  0.7258
 4618SOL    HW125490   3.775   4.551   5.954  1.0299  1.4481  0.8266
 4618SOL    HW225491   3.863   4.592   6.073 -2.1157  1.5002  1.3004
 4619SOL     OW25492   4.161   4.073  11.695  0.1251  0.4248 -0.4212
 4619SOL    HW125493   4.111   4.014  11.639 -0.1015  1.1407 -0.9747
 4619SOL    HW225494   4.225   4.010  11.728 -0.4144  0.4183  0.6407
 4620SOL     OW25495   3.879   1.608   3.200  0.6043  0.1247 -0.2640
 4620SOL    HW125496   3.962   1.577   3.236 -0.0231 -0.3287  0.7986
 4620SOL    HW225497   3.910   1.685   3.152 -1.4638 -0.2843 -2.2665
 4621SOL     OW25498   0.583   2.644   9.893  0.3368 -0.7728  0.6415
 4621SOL    HW125499   0.587   2.680   9.804 -0.3337  0.0703  0.9516
 4621SOL    HW225500   0.610   2.720   9.944 -2.3633  0.0931  0.7766
 4622SOL     OW25501   1.987   0.474   2.011 -0.0844  0.2663  0.1019
 4622SOL    HW125502   1.925   0.527   2.061  0.3122  0.9903 -0.1714
 4622SOL    HW225503   2.001   0.401   2.071 -1.3648  0.6471  0.8569
 4623SOL     OW25504   0.067   2.219  14.970  0.5430 -0.4209 -0.7247
 4623SOL    HW125505   0.093   2.127  14.964  1.6884 -0.0035 -2.0053
 4623SOL    HW225506   4.709   2.198  14.963  0.9300 -2.0126 -1.1733
 4624SOL     OW25507   0.059   0.080   7.200 -0.1317  0.2593 -0.1881
 4624SOL    HW125508   0.052   0.161   7.249 -0.5346 -0.1113  0.3700
 4624SOL    HW225509   4.717   0.037   7.235 -0.1284 -0.2210 -0.7606
 4625SOL     OW25510   0.376   2.167   5.319 -0.3079 -0.0805  0.0389
 4625SOL    HW125511   0.409   2.163   5.409 -0.5252  2.3164  0.2296
 4625SOL    HW225512   0.284   2.176   5.345 -0.1103 -1.6686  1.2391
 4626SOL     OW25513   3.993   3.059  15.344 -0.4649  0.0905 -0.6130
 4626SOL    HW125514   4.040   3.006  15.280  2.2497  1.1048  0.5141
 4626SOL    HW225515   3.992   3.145  15.302  0.3223  0.0145 -0.7794
 4627SOL     OW25516   3.587   1.800  11.591  0.7356 -0.0093  0.1651
 4627SOL    HW125517   3.571   1.885  11.551  1.6019 -0.2737 -0.7411
 4627SOL    HW225518   3.674   1.820  11.627  1.4139  0.4368 -1.7127
 4628SOL     OW25519   2.023   1.946   6.277 -0.3698  0.3217 -0.1841
 4628SOL    HW125520   2.054   1.861   6.308 -0.2387  0.9638  1.4747
 4628SOL    HW225521   2.062   1.948   6.190  0.1969  3.5079  0.1581
 4629SOL     OW25522   2.537   1.034   3.241 -0.1114  0.0446  0.3136
 4629SOL    HW125523   2.451   0.996   3.222  0.2890 -0.7666  0.1095
 4629SOL    HW225524   2.591   0.959   3.266 -1.1719 -0.3874  1.3385
 4630SOL     OW25525   1.213   4.732   6.801  0.0219 -0.4398 -0.2306
 4630SOL    HW125526   1.215   4.728   6.896 -1.0019  0.7607 -0.1543
 4630SOL    HW225527   1.212   0.092   6.798 -1.6782 -0.4622 -0.7574
 4631SOL     OW25528   2.191   1.352   1.804 -0.4207 -0.0745 -0.2943
 4631SOL    HW125529   2.260   1.379   1.864  0.7218 -2.3902 -0.5774
 4631SOL    HW225530   2.239   1.351   1.722  1.8971  0.8305  1.0411
 4632SOL     OW25531   1.968   4.420  13.765  0.2771 -0.5160 -0.4023
 4632SOL    HW125532   2.003   4.426  13.854  0.7452  0.5124 -0.6540
 4632SOL    HW225533   1.888   4.373  13.789 -1.5019  2.9927  0.5158
 4633SOL     OW25534   0.003   2.337   8.054  0.6698 -0.3071 -0.4276
 4633SOL    HW125535   0.000   2.366   8.145 -3.0007 -1.1966 -0.2355
 4633SOL    HW225536   4.669   2.387   8.013  1.4749  0.8542 -0.3693
 4634SOL     OW25537   4.632   3.670  15.774  0.5880  0.2889  0.5424
 4634SOL    HW125538   4.599   3.600  15.718 -0.9446  1.3633  0.0990
 4634SOL    HW225539   4.575   3.743  15.751 -0.4823 -0.5113  0.6535
 4635SOL     OW25540   1.565   3.868   5.982 -0.0064 -0.5238 -0.2903
 4635SOL    HW125541   1.510   3.863   6.061 -0.9204 -2.0124 -1.0125
 4635SOL    HW225542   1.528   3.951   5.952 -0.5460 -0.3011  0.9993
 4636SOL     OW25543   2.721   0.696   5.777 -0.3896 -0.1617 -0.8443
 4636SOL    HW125544   2.744   0.608   5.750 -0.6657 -0.2574 -0.7654
 4636SOL    HW225545   2.636   0.685   5.820  0.2892 -0.6965  0.3640
 4637SOL     OW25546   2.668   2.539  12.169  0.2701  0.2565 -0.0432
 4637SOL    HW125547   2.636   2.533  12.259  0.8659 -2.1061  0.0324
 4637SOL    HW225548   2.629   2.617  12.131 -0.8797 -0.5939 -0.6288
 4638SOL     OW25549   1.732   1.745   9.512 -0.4812 -0.3699  0.2645
 4638SOL    HW125550   1.671   1.746   9.438  2.4981 -1.2178 -2.1742
 4638SOL    HW225551   1.704   1.807   9.579  2.9211 -1.5016  2.7512
 4639SOL     OW25552   0.676   4.632   3.522 -0.3186 -0.0453  0.9685
 4639SOL    HW125553   0.671   4.565   3.591 -0.0820 -1.4707 -0.3881
 4639SOL    HW225554   0.636   4.582   3.451 -2.4158  0.2913  1.9217
 4640SOL     OW25555   0.502   2.134   8.974 -0.0057  0.3741 -0.0377
 4640SOL    HW125556   0.505   2.040   8.953 -1.2625  0.0137  1.3377
 4640SOL    HW225557   0.409   2.154   8.965 -0.0797 -0.0782 -0.2732
 4641SOL     OW25558   4.054   0.940  17.345  0.6172 -0.3172  0.0478
 4641SOL    HW125559   4.124   0.999  17.375  1.6193 -2.0846  1.2353
 4641SOL    HW225560   4.107   0.866  17.315  0.4089 -0.1289 -0.7591
 4642SOL     OW25561   2.653   1.817   8.206  0.4141 -0.2925  0.6207
 4642SOL    HW125562   2.646   1.725   8.230  0.3489  0.1272  2.1658
 4642SOL    HW225563   2.711   1.805   8.130  1.6059 -1.1930  1.6736
 4643SOL     OW25564   2.886   0.075   9.503  0.0166  0.3728  0.6325
 4643SOL    HW125565   2.887   4.716   9.504  0.6504  0.3798  0.3616
 4643SOL    HW225566   2.976   0.088   9.472 -0.3081 -1.1741 -0.9364
 4644SOL     OW25567   1.405   2.320   7.843 -0.3434 -0.3318 -0.2566
 4644SOL    HW125568   1.374   2.410   7.830  1.2055 -0.0076 -1.8110
 4644SOL    HW225569   1.363   2.290   7.923  1.7883  0.3974  1.1496
 4645SOL     OW25570   3.196   3.448   9.240 -0.1084 -0.8619 -0.5754
 4645SOL    HW125571   3.264   3.449   9.306 -0.1783 -2.0303 -0.4860
 4645SOL    HW225572   3.147   3.522   9.276 -1.7117 -1.4178 -1.5871
 4646SOL     OW25573   0.503   2.786   4.206 -0.0595  0.3826  0.2696
 4646SOL    HW125574   0.464   2.846   4.144 -1.0795 -2.4481 -1.8356
 4646SOL    HW225575   0.431   2.758   4.263 -1.9355  0.8580 -1.8803
 4647SOL     OW25576   2.196   3.772   8.872  0.1746  0.3770 -0.2878
 4647SOL    HW125577   2.230   3.691   8.835 -1.1164 -0.2167 -0.1797
 4647SOL    HW225578   2.264   3.802   8.933  0.2606 -0.4387  0.0103
 4648SOL     OW25579   3.626   2.522   8.119  0.2920 -0.1070  0.0192
 4648SOL    HW125580   3.663   2.437   8.096  1.7209  0.7356 -0.8276
 4648SOL    HW225581   3.692   2.581   8.082 -0.0160  0.8950  1.0642
 4649SOL     OW25582   4.344   2.524   5.945 -0.6952 -0.4130  0.0947
 4649SOL    HW125583   4.380   2.595   5.998  0.4076 -0.1376 -1.0254
 4649SOL    HW225584   4.404   2.538   5.872 -0.5809  0.1980  0.3085
 4650SOL     OW25585   1.508   4.213   4.103  0.0604 -0.3153  0.3358
 4650SOL    HW125586   1.437   4.247   4.157  1.5930  1.0346  1.5377
 4650SOL    HW225587   1.466   4.137   4.063  0.8737  0.4140 -1.9277
 4651SOL     OW25588   3.959   3.390   8.259  0.1105 -0.0687  0.5509
 4651SOL    HW125589   3.910   3.472   8.255 -0.1458 -0.2019  1.0922
 4651SOL    HW225590   3.899   3.340   8.204 -1.2007  2.7819 -0.6181
 4652SOL     OW25591   3.654   2.066   4.965  0.1495 -0.2661 -0.2103
 4652SOL    HW125592   3.688   2.057   4.876  1.6317 -1.0277  0.4471
 4652SOL    HW225593   3.733   2.034   5.008 -0.6141  1.1253  2.2150
 4653SOL     OW25594   3.478   1.851  17.061 -0.1182  0.5509  0.0056
 4653SOL    HW125595   3.518   1.764  17.056  0.9136  0.9582  1.3715
 4653SOL    HW225596   3.383   1.836  17.056 -0.3077  2.2700 -1.8469
 4654SOL     OW25597   4.131   1.406   6.030  0.6732  0.2831  0.8543
 4654SOL    HW125598   4.142   1.493   5.992 -0.3656  1.4144  3.1209
 4654SOL    HW225599   4.221   1.377   6.015  0.4696 -0.9910  2.0895
 4655SOL     OW25600   2.240   4.226   1.941  0.2356  0.3186  0.2003
 4655SOL    HW125601   2.165   4.278   1.971 -0.3407 -0.4541  0.1039
 4655SOL    HW225602   2.309   4.292   1.938 -0.0834  0.5945 -1.0842
 4656SOL     OW25603   3.099   4.618   8.639  0.2806 -0.7859 -0.2236
 4656SOL    HW125604   3.135   4.529   8.639  1.4864 -0.2981  1.2473
 4656SOL    HW225605   3.106   4.633   8.545  0.0566  0.5588 -0.0212
 4657SOL     OW25606   2.762   1.840   1.697 -0.3135 -0.6654 -0.1314
 4657SOL    HW125607   2.817   1.832   1.619  0.8838  0.3917  0.6032
 4657SOL    HW225608   2.718   1.756   1.691  0.6157 -1.2140  0.7191
 4658SOL     OW25609   2.732   0.666   9.814 -0.0434 -0.2485 -0.0279
 4658SOL    HW125610   2.792   0.715   9.759  0.4029 -1.8490 -0.9800
 4658SOL    HW225611   2.701   0.592   9.763  0.4058 -0.4951  0.0510
 4659SOL     OW25612   3.345   4.690  11.536 -0.0014 -0.7338 -0.0440
 4659SOL    HW125613   3.423   4.638  11.555  0.5580  0.8238  1.9932
 4659SOL    HW225614   3.322   4.734  11.618 -2.0371 -1.7201 -0.0941
 4660SOL     OW25615   4.462   2.681  10.412  0.7810 -0.1676 -0.4071
 4660SOL    HW125616   4.466   2.591  10.445 -1.2976  0.6361  2.0812
 4660SOL    HW225617   4.492   2.739  10.482 -0.1025  0.1884 -0.3166
 4661SOL     OW25618   2.113   1.856   4.182  0.1114 -0.1446 -0.2827
 4661SOL    HW125619   2.190   1.802   4.201  0.4016 -0.1946 -1.5529
 4661SOL    HW225620   2.055   1.799   4.132 -0.3379  0.4510 -0.4383
 4662SOL     OW25621   4.542   1.023   7.727  0.9138  0.4036 -0.1193
 4662SOL    HW125622   4.512   1.062   7.809 -0.3928 -1.3414  0.2336
 4662SOL    HW225623   4.589   0.948   7.762  2.1043 -0.0489 -2.7294
 4663SOL     OW25624   3.341   1.252   3.901 -0.1830  0.0145 -0.0236
 4663SOL    HW125625   3.408   1.320   3.903  0.7872 -1.0717  3.5581
 4663SOL    HW225626   3.371   1.210   3.820  0.0454  2.8116 -1.3889
 4664SOL     OW25627   4.451   0.566  14.491 -0.2474  0.2425 -0.2112
 4664SOL    HW125628   4.514   0.560  14.563  1.3378 -0.9017 -1.6839
 4664SOL    HW225629   4.430   0.475  14.475 -2.9126  0.7635  0.4155
 4665SOL     OW25630   0.728   2.321  12.317 -0.3053 -0.0179 -0.6921
 4665SOL    HW125631   0.715   2.286  12.406  1.1678  1.6747  0.1809
 4665SOL    HW225632   0.707   2.412  12.338 -2.7203 -0.7012 -0.1561
 4666SOL     OW25633   3.989   0.961   1.864  0.6011  0.5319  0.0329
 4666SOL    HW125634   3.980   1.055   1.882  0.0938  0.1487  1.7857
 4666SOL    HW225635   4.075   0.954   1.823  0.6523 -0.4961  0.3134
 4667SOL     OW25636   2.626   0.806   8.448 -0.1735  0.6269  0.1024
 4667SOL    HW125637   2.579   0.733   8.488  0.2481 -1.8733 -3.8993
 4667SOL    HW225638   2.606   0.796   8.354  1.8249  1.6826 -0.4361
 4668SOL     OW25639   4.465   3.762   7.922 -0.5249 -0.0465 -0.5640
 4668SOL    HW125640   4.371   3.766   7.941  0.2037  0.4571  2.9303
 4668SOL    HW225641   4.476   3.784   7.830 -0.1627  0.2826 -0.4451
 4669SOL     OW25642   0.549   1.569   8.072 -0.0094 -0.2807 -0.2591
 4669SOL    HW125643   0.495   1.579   8.150  1.7312  0.2262  0.8689
 4669SOL    HW225644   0.573   1.476   8.078 -0.1553 -0.2040  1.4223
 4670SOL     OW25645   0.245   2.695  11.902 -0.3878 -0.9638  0.2983
 4670SOL    HW125646   0.176   2.645  11.859 -1.3378 -0.7065  1.5224
 4670SOL    HW225647   0.321   2.678  11.847 -0.2520  0.5748  0.0072
 4671SOL     OW25648   3.884   2.434   5.884  0.9937  0.1088 -0.2396
 4671SOL    HW125649   3.870   2.529   5.889  0.3246  0.0156 -0.2976
 4671SOL    HW225650   3.865   2.428   5.790 -0.0417 -1.2964  0.0600
 4672SOL     OW25651   1.825   4.473   5.959 -0.5631  0.5470  0.0288
 4672SOL    HW125652   1.834   4.424   6.041 -1.1323 -0.9199 -0.7888
 4672SOL    HW225653   1.777   4.551   5.986 -2.2677  0.3587 -2.5249
 4673SOL     OW25654   2.688   1.166   2.634  0.1571  0.2679  0.0622
 4673SOL    HW125655   2.757   1.226   2.604 -1.7431  2.4908  0.1625
 4673SOL    HW225656   2.689   1.173   2.730 -0.0386  1.6344 -0.0418
 4674SOL     OW25657   4.633   3.550   7.614 -0.0118  0.6358  0.5320
 4674SOL    HW125658   4.703   3.520   7.672  2.2973  3.6395 -0.6914
 4674SOL    HW225659   4.600   3.465   7.585  0.3922  1.1201 -1.3180
 4675SOL     OW25660   0.164   1.865   4.263  0.0736  0.1609 -0.1583
 4675SOL    HW125661   0.213   1.916   4.198 -0.2256  0.2678 -0.3010
 4675SOL    HW225662   0.095   1.928   4.283  1.6175  2.7017 -2.8498
 4676SOL     OW25663   0.574   2.078   3.099 -0.1725  0.4870 -0.1277
 4676SOL    HW125664   0.598   2.168   3.074 -0.2381  0.6128  0.2746
 4676SOL    HW225665   0.531   2.052   3.017 -0.3678 -1.4354  0.5822
 4677SOL     OW25666   4.528   3.816   5.308 -0.0186  0.0818 -0.2962
 4677SOL    HW125667   4.546   3.772   5.225 -0.5320 -2.4298  0.9187
 4677SOL    HW225668   4.608   3.787   5.352 -1.4536  0.0665  2.2945
 4678SOL     OW25669   4.413   3.228  17.293  0.3991  0.3835  0.2859
 4678SOL    HW125670   4.326   3.252  17.326  0.0522  0.6139 -0.8170
 4678SOL    HW225671   4.459   3.221  17.377  1.0344  1.2178 -0.0001
 4679SOL     OW25672   3.703   2.280  13.251  0.1044  0.0099  0.1906
 4679SOL    HW125673   3.637   2.288  13.321 -0.6797  2.0166 -0.7691
 4679SOL    HW225674   3.788   2.277  13.296  0.6536 -2.4904 -1.0452
 4680SOL     OW25675   4.361   0.304   5.327 -0.2248  0.0022 -0.2820
 4680SOL    HW125676   4.296   0.372   5.314  0.9078  1.0193 -0.6178
 4680SOL    HW225677   4.438   0.362   5.330 -1.4217  1.5201  1.0156
 4681SOL     OW25678   3.238   4.480   6.007 -0.4685 -0.1389 -0.0198
 4681SOL    HW125679   3.167   4.441   6.058 -0.4191  1.5052  1.2920
 4681SOL    HW225680   3.254   4.409   5.945 -0.7588 -0.2753  0.0646
 4682SOL     OW25681   3.355   1.703   8.889  0.1888  0.7891  0.2439
 4682SOL    HW125682   3.274   1.677   8.846 -0.4925  0.2459  1.8917
 4682SOL    HW225683   3.363   1.632   8.952 -0.0138 -1.1202 -1.8847
 4683SOL     OW25684   3.219   1.759   3.364  0.5878 -0.3055 -0.2796
 4683SOL    HW125685   3.234   1.842   3.408 -0.3228 -0.4723  0.3476
 4683SOL    HW225686   3.298   1.741   3.313  2.1691 -1.2035  2.4914
 4684SOL     OW25687   4.069   4.534   0.003  0.4031 -0.6154 -0.5012
 4684SOL    HW125688   4.158   4.514   0.031 -0.0336 -1.0555  0.5659
 4684SOL    HW225689   4.052   4.468  17.678 -0.7014  0.2029 -1.0395
 4685SOL     OW25690   0.640   0.326   2.901  0.0434 -0.0221  0.0175
 4685SOL    HW125691   0.545   0.328   2.908 -0.1084  1.5642 -2.5571
 4685SOL    HW225692   0.663   0.237   2.927  1.3661  0.2540 -0.2093
 4686SOL     OW25693   3.004   3.380   3.858  0.2282  0.1831  0.2856
 4686SOL    HW125694   3.056   3.395   3.937 -1.0318  1.4497  0.8584
 4686SOL    HW225695   2.947   3.455   3.847  1.6386  1.0586 -1.0657
 4687SOL     OW25696   4.093   2.916   6.643  0.3359  0.0106  0.0978
 4687SOL    HW125697   4.070   2.966   6.564 -1.6891  1.0273  1.3139
 4687SOL    HW225698   4.003   2.904   6.675 -0.3848  0.4018 -1.7724
 4688SOL     OW25699   0.932   3.563  16.237 -0.3562  0.0665 -0.1202
 4688SOL    HW125700   0.860   3.609  16.280 -0.2310  0.8398 -0.7457
 4688SOL    HW225701   0.904   3.561  16.146  0.9069  0.2824 -0.5056
 4689SOL     OW25702   0.882   3.071   5.889 -0.0217 -0.1121 -0.3252
 4689SOL    HW125703   0.950   3.023   5.937  1.4107  0.3954 -1.8769
 4689SOL    HW225704   0.925   3.072   5.804  0.1638 -1.6932 -0.2641
 4690SOL     OW25705   0.098   2.243  12.778  0.3701 -0.5256 -0.1149
 4690SOL    HW125706   0.045   2.314  12.814  1.3453 -0.0022  0.3008
 4690SOL    HW225707   0.173   2.250  12.837 -0.4455 -2.5044  1.1489
 4691SOL     OW25708   2.696   0.644   6.630 -0.5983  0.0763 -0.2898
 4691SOL    HW125709   2.727   0.555   6.614  0.8748  0.2686  1.4212
 4691SOL    HW225710   2.681   0.639   6.725 -1.7011 -0.0027 -0.4629
 4692SOL     OW25711   3.637   4.574  14.450  0.1107 -0.1958 -0.3037
 4692SOL    HW125712   3.639   4.480  14.429 -0.3363 -0.0956 -0.7780
 4692SOL    HW225713   3.547   4.594  14.427  0.9375  2.8038 -0.8884
 4693SOL     OW25714   0.200   0.269  16.489  0.6612 -0.2450  0.2208
 4693SOL    HW125715   0.235   0.358  16.498 -1.9120  0.8260 -0.2157
 4693SOL    HW225716   0.266   0.236  16.429  0.9326 -0.4840  0.6591
 4694SOL     OW25717   2.757   1.351  11.518  0.6106 -0.2723 -0.4669
 4694SOL    HW125718   2.801   1.404  11.585  1.7553 -0.0462 -1.3969
 4694SOL    HW225719   2.832   1.300  11.488  2.3905  3.0866 -1.7633
 4695SOL     OW25720   4.381   1.523  16.759  0.3567  0.3043 -0.4934
 4695SOL    HW125721   4.453   1.469  16.727  1.2712  1.8147 -0.9548
 4695SOL    HW225722   4.358   1.584  16.689 -0.0074  0.5755 -0.1419
 4696SOL     OW25723   2.884   3.922  17.337  0.2894 -0.4280  0.3663
 4696SOL    HW125724   2.832   3.913  17.416  2.0994 -0.5504  1.5458
 4696SOL    HW225725   2.861   4.014  17.327  1.5726 -0.0329  1.0586
 4697SOL     OW25726   2.900   0.574   3.932 -0.3984 -0.2177 -0.1984
 4697SOL    HW125727   2.909   0.553   4.025 -3.2954  0.8517  0.3190
 4697SOL    HW225728   2.967   0.519   3.893  1.2487  2.6584 -1.3828
 4698SOL     OW25729   2.848   1.045   7.145 -0.0947  0.3443 -0.1465
 4698SOL    HW125730   2.925   1.018   7.194 -0.2041 -0.2307 -0.2909
 4698SOL    HW225731   2.778   1.014   7.203 -1.7164  0.6830 -1.9374
 4699SOL     OW25732   4.636   4.456   5.075 -0.5194 -0.3583 -0.2798
 4699SOL    HW125733   4.572   4.421   5.136 -0.4006 -2.1154 -1.1699
 4699SOL    HW225734   4.626   4.388   5.009  0.8515 -0.1499 -0.7086
 4700SOL     OW25735   0.181   4.171   4.910 -0.1465  0.4776  0.1335
 4700SOL    HW125736   0.209   4.215   4.990  0.4136  1.2174 -0.4690
 4700SOL    HW225737   0.133   4.096   4.946  0.5297 -0.1965 -0.3721
 4701SOL     OW25738   1.583   2.016   0.207  0.3580 -0.1776 -0.1696
 4701SOL    HW125739   1.671   2.045   0.228 -0.0718  0.2607  1.0257
 4701SOL    HW225740   1.585   2.006   0.112 -2.0432 -1.7751 -0.0622
 4702SOL     OW25741   4.243   2.771   8.598 -0.1061 -0.1623 -0.1507
 4702SOL    HW125742   4.245   2.784   8.693  3.2347 -0.1120 -0.2273
 4702SOL    HW225743   4.317   2.824   8.569 -0.5425 -0.1894 -1.2887
 4703SOL     OW25744   0.113   1.519   5.060  0.3406 -0.2706  0.3019
 4703SOL    HW125745   0.033   1.467   5.070  0.8181 -1.3546 -1.5319
 4703SOL    HW225746   0.144   1.535   5.150 -1.8585  1.2320  0.7981
 4704SOL     OW25747   1.155   0.913  10.253 -0.1515 -0.0446 -0.0541
 4704SOL    HW125748   1.085   0.959  10.299 -1.4406 -2.9223  0.8525
 4704SOL    HW225749   1.223   0.981  10.257 -1.2219  0.9170  2.1331
 4705SOL     OW25750   1.513   0.734  15.027  0.0743  0.6557 -0.4839
 4705SOL    HW125751   1.473   0.666  14.973  1.4379 -1.1817  0.8090
 4705SOL    HW225752   1.603   0.703  15.036 -0.3496 -0.2041  0.7851
 4706SOL     OW25753   4.332   3.063  10.175 -0.2044  0.2737  0.4298
 4706SOL    HW125754   4.302   3.060  10.084 -1.5267 -1.5971  0.9203
 4706SOL    HW225755   4.377   2.979  10.182  0.4607  0.6498  0.5828
 4707SOL     OW25756   0.435   0.014  10.841  0.1152 -0.3798 -0.1760
 4707SOL    HW125757   0.464   4.661  10.860 -0.8752 -0.8838 -1.0751
 4707SOL    HW225758   0.483   0.052  10.915  0.3564  3.0810 -2.1237
 4708SOL     OW25759   3.832   3.215  14.266  0.7228  0.5929 -0.0415
 4708SOL    HW125760   3.870   3.299  14.293 -1.0824  0.8886  1.5570
 4708SOL    HW225761   3.742   3.232  14.292  0.0840 -0.9454 -1.2513
 4709SOL     OW25762   4.501   1.006   6.162  0.0645  0.7038  0.0542
 4709SOL    HW125763   4.443   0.938   6.129 -0.4852  0.7652  0.9044
 4709SOL    HW225764   4.518   0.977   6.252  0.6676  2.4420  0.4979
 4710SOL     OW25765   1.455   3.701   7.639 -0.3011  0.2181 -0.2549
 4710SOL    HW125766   1.379   3.736   7.685  0.6070  2.1560 -0.2157
 4710SOL    HW225767   1.525   3.740   7.691  0.1982  1.8385 -2.1314
 4711SOL     OW25768   4.420   0.939   6.823 -0.3420 -0.2116  0.1702
 4711SOL    HW125769   4.506   0.980   6.834 -0.9170  0.5994  1.6382
 4711SOL    HW225770   4.436   0.898   6.738  0.9215 -1.1279  0.8511
 4712SOL     OW25771   1.369   1.798   1.733 -0.0104 -0.1945 -0.3279
 4712SOL    HW125772   1.306   1.738   1.773  0.2168 -0.4781 -0.3970
 4712SOL    HW225773   1.390   1.743   1.657  1.4804 -0.4432  0.2676
 4713SOL     OW25774   0.965   0.824   0.378  0.5626 -0.0189  0.6377
 4713SOL    HW125775   0.971   0.739   0.423 -1.5957 -0.9339 -0.8075
 4713SOL    HW225776   1.020   0.869   0.443  0.6286  0.4298  0.2706
 4714SOL     OW25777   2.786   0.368   4.935  0.8390  0.3659  0.1088
 4714SOL    HW125778   2.727   0.293   4.930 -0.3163  1.3980 -1.8301
 4714SOL    HW225779   2.789   0.397   4.844  0.5274 -1.3888 -0.4668
 4715SOL     OW25780   1.528   2.399   2.040 -0.0593 -0.5288  0.5689
 4715SOL    HW125781   1.440   2.385   2.005  0.1484 -1.5298  0.4498
 4715SOL    HW225782   1.568   2.417   1.955  1.5953  2.8220  2.0247
 4716SOL     OW25783   0.091   4.609   7.604 -0.6150 -0.2178 -0.3802
 4716SOL    HW125784   0.167   4.572   7.649 -0.8460  1.4809  1.4011
 4716SOL    HW225785   0.099   4.563   7.520  0.6118  0.4305 -0.6243
 4717SOL     OW25786   2.966   2.418   9.094  0.0009  0.0379 -0.2711
 4717SOL    HW125787   2.993   2.492   9.039  3.0873 -1.1221 -0.3340
 4717SOL    HW225788   2.995   2.350   9.034  1.3336  0.0179  0.3981
 4718SOL     OW25789   2.940   1.590   6.256  0.1638  0.2294  0.3157
 4718SOL    HW125790   2.846   1.610   6.255  0.4942  1.8166  0.8316
 4718SOL    HW225791   2.962   1.599   6.164  0.2736 -0.3455  0.2867
 4719SOL     OW25792   2.160   3.818   3.805 -0.3169  0.6009 -0.1822
 4719SOL    HW125793   2.157   3.800   3.899 -1.0692 -2.8395 -0.8768
 4719SOL    HW225794   2.227   3.757   3.775  0.2682  0.1271  2.0804
 4720SOL     OW25795   2.361   2.828   5.747 -0.3377  0.4383  0.0709
 4720SOL    HW125796   2.334   2.918   5.731  2.3283  1.7456  3.0203
 4720SOL    HW225797   2.452   2.829   5.717  0.6441 -1.6412  3.0018
 4721SOL     OW25798   1.832   1.807   8.139 -0.1616  0.9782  0.0390
 4721SOL    HW125799   1.781   1.784   8.216 -0.5692 -1.1551 -0.8664
 4721SOL    HW225800   1.891   1.733   8.127  0.2686  1.1991  0.7945
 4722SOL     OW25801   1.539   2.426   5.953 -0.0133  0.1075  0.0617
 4722SOL    HW125802   1.595   2.467   6.019 -0.3987  1.1179 -0.2298
 4722SOL    HW225803   1.453   2.457   5.980 -0.4639 -0.2254 -0.9738
 4723SOL     OW25804   1.032   3.419   8.500  0.8250  0.5258  0.0996
 4723SOL    HW125805   0.983   3.461   8.572  0.4662 -0.9039  0.6862
 4723SOL    HW225806   0.965   3.392   8.437  1.1110  1.3270 -0.5473
 4724SOL     OW25807   0.094   1.523   3.276  0.0370 -0.4204  0.4948
 4724SOL    HW125808   0.114   1.616   3.277  2.4095 -0.9238  0.7273
 4724SOL    HW225809   0.028   1.517   3.207  0.0228 -2.0917  0.6536
 4725SOL     OW25810   4.490   2.105   4.210  0.1953  0.0525  0.4026
 4725SOL    HW125811   4.550   2.161   4.160 -2.0807  0.0529 -2.2807
 4725SOL    HW225812   4.417   2.086   4.152  2.1459 -0.7623 -1.7900
 4726SOL     OW25813   3.672   3.455  10.198 -1.1923 -0.0147 -0.3771
 4726SOL    HW125814   3.623   3.372  10.202 -0.2881 -0.5468 -0.2815
 4726SOL    HW225815   3.678   3.475  10.105  1.3861  1.1575  0.0678
 4727SOL     OW25816   2.355   2.110   1.394 -0.0265  0.7002  0.3357
 4727SOL    HW125817   2.422   2.086   1.458  1.9595  1.4280 -1.4353
 4727SOL    HW225818   2.369   2.038   1.333 -1.3917  0.9027 -0.2144
 4728SOL     OW25819   0.694   2.177  13.995  0.2065 -0.1057  0.3247
 4728SOL    HW125820   0.788   2.164  13.983  0.2138  0.8137 -0.7064
 4728SOL    HW225821   0.688   2.216  14.082 -2.5679  0.0755  0.0675
 4729SOL     OW25822   3.657   2.053   2.920 -0.2976 -0.4974 -0.5450
 4729SOL    HW125823   3.619   2.113   2.856  1.4186  3.0376  1.7244
 4729SOL    HW225824   3.617   2.083   3.002  0.9241 -1.3867  0.3698
 4730SOL     OW25825   3.209   3.122   2.686 -0.0849  0.0574  0.0883
 4730SOL    HW125826   3.248   3.203   2.653 -3.0118  1.7032  0.6604
 4730SOL    HW225827   3.227   3.053   2.623  0.1406  0.0214  0.1906
 4731SOL     OW25828   4.725   3.770   2.259 -0.4598  0.6456  0.1148
 4731SOL    HW125829   4.650   3.725   2.221  0.4413 -0.8826  0.1381
 4731SOL    HW225830   0.017   3.695   2.312 -0.6487  0.9350  0.6279
 4732SOL     OW25831   0.741   4.497  12.569  0.1610  0.3847  0.8640
 4732SOL    HW125832   0.653   4.459  12.574 -0.0725  0.8399  0.1583
 4732SOL    HW225833   0.767   4.465  12.483 -1.3193  1.0336  0.1829
 4733SOL     OW25834   0.789   2.073   8.645  0.1530 -0.6232  0.3545
 4733SOL    HW125835   0.841   2.125   8.706 -1.3441 -0.0587  1.1456
 4733SOL    HW225836   0.807   1.987   8.683 -1.0258  0.3085  3.0173
 4734SOL     OW25837   1.892   1.035   0.799  0.3879  0.5671 -0.3737
 4734SOL    HW125838   1.833   0.959   0.801 -0.7810  1.4426 -2.0275
 4734SOL    HW225839   1.948   1.015   0.875 -0.8874 -0.2717  0.3599
 4735SOL     OW25840   4.374   1.183   9.927  0.5121 -0.2646 -0.0647
 4735SOL    HW125841   4.417   1.157  10.009  1.0315 -0.3424 -0.3604
 4735SOL    HW225842   4.304   1.119   9.920  1.2643 -1.4353  2.9001
 4736SOL     OW25843   3.483   3.744   5.001  0.0345 -0.2709  0.2344
 4736SOL    HW125844   3.390   3.756   5.023  0.0587 -1.2898  0.8939
 4736SOL    HW225845   3.499   3.669   5.058 -1.4126  0.1585  1.2069
 4737SOL     OW25846   2.148   2.270   7.469  0.2358 -0.1214  0.1239
 4737SOL    HW125847   2.146   2.293   7.562  0.8867  0.3609  0.0195
 4737SOL    HW225848   2.219   2.206   7.476  0.1266 -0.1292  1.1778
 4738SOL     OW25849   2.844   1.498   2.299 -0.4446 -0.5211  0.1985
 4738SOL    HW125850   2.816   1.569   2.242  0.7517 -1.1535 -1.1825
 4738SOL    HW225851   2.790   1.531   2.371  1.6307 -0.4961  1.7695
 4739SOL     OW25852   2.575   0.427   5.142 -0.3701 -0.3694 -0.1223
 4739SOL    HW125853   2.606   0.419   5.232  2.9033  1.2168 -1.1210
 4739SOL    HW225854   2.659   0.431   5.096 -0.4729  0.3237 -0.2424
 4740SOL     OW25855   0.913   1.430   4.764  0.0204 -0.6540  0.1132
 4740SOL    HW125856   0.914   1.431   4.668  0.2499 -0.8756  0.1137
 4740SOL    HW225857   1.002   1.432   4.799 -0.5244  1.4453  1.3502
 4741SOL     OW25858   2.584   1.649   3.577 -0.0095 -0.1320  0.2206
 4741SOL    HW125859   2.577   1.725   3.635 -1.4169 -0.0813  0.0008
 4741SOL    HW225860   2.672   1.617   3.593  0.1913  1.3195  2.0520
 4742SOL     OW25861   4.673   2.857  11.595 -0.3971 -0.0316  0.0655
 4742SOL    HW125862   4.591   2.813  11.613 -0.4746  0.3406  0.6039
 4742SOL    HW225863   4.628   2.940  11.606 -1.4476 -0.5705 -0.1332
 4743SOL     OW25864   3.889   2.243  14.800 -0.1476 -0.6024 -0.2057
 4743SOL    HW125865   3.887   2.296  14.720  0.0738 -1.0138 -0.4834
 4743SOL    HW225866   3.979   2.252  14.830 -0.6065  0.6185  0.7802
 4744SOL     OW25867   2.536   3.970   4.422 -0.2896  0.2026 -0.0060
 4744SOL    HW125868   2.531   3.889   4.471 -0.9049  1.1457  1.4890
 4744SOL    HW225869   2.452   3.966   4.378  0.6308 -0.4589 -1.7017
 4745SOL     OW25870   3.205   2.630   8.677 -0.1888  0.1321 -0.4852
 4745SOL    HW125871   3.227   2.548   8.631  0.9550  0.0024  0.2734
 4745SOL    HW225872   3.268   2.637   8.748  0.5587  1.4116 -1.2711
 4746SOL     OW25873   1.948   3.767   1.895  0.0907  0.4814  0.0811
 4746SOL    HW125874   1.868   3.814   1.922 -0.8414 -1.2609  0.3442
 4746SOL    HW225875   2.010   3.838   1.911  1.2175 -0.0755 -1.8926
 4747SOL     OW25876   2.677   0.394   5.376  0.4452 -0.0731  0.4998
 4747SOL    HW125877   2.745   0.437   5.429 -0.0540 -0.7478  1.6988
 4747SOL    HW225878   2.633   0.338   5.440 -2.2643  3.0229  1.3680
 4748SOL     OW25879   1.159   3.661   2.784 -0.3300  0.8045 -0.1885
 4748SOL    HW125880   1.078   3.625   2.821  0.3506  0.8197  1.3402
 4748SOL    HW225881   1.124   3.723   2.721  1.5534 -0.1710 -2.1952
 4749SOL     OW25882   0.616   1.211  13.254 -0.6070 -0.5680 -0.5271
 4749SOL    HW125883   0.653   1.299  13.259 -1.0116 -0.4474  0.4261
 4749SOL    HW225884   0.686   1.167  13.205 -0.7949 -2.7230  1.1290
 4750SOL     OW25885   2.683   3.410  14.782  0.0344 -0.1169  0.5357
 4750SOL    HW125886   2.615   3.473  14.808  0.6102  0.4425  0.6772
 4750SOL    HW225887   2.688   3.359  14.863  1.2279  0.1955  0.6589
 4751SOL     OW25888   1.134   4.016   2.737  0.5201 -0.2671 -0.0726
 4751SOL    HW125889   1.224   4.030   2.766  0.4394  1.3355 -0.6024
 4751SOL    HW225890   1.102   4.105   2.753 -3.9951 -2.3361  2.3975
 4752SOL     OW25891   0.796   1.383   5.123  0.2518  0.2879  0.0579
 4752SOL    HW125892   0.858   1.322   5.083 -1.5104 -1.0676 -0.6145
 4752SOL    HW225893   0.735   1.389   5.049 -2.3919 -2.2066  2.0687
 4753SOL     OW25894   2.097   1.954  11.494  0.0231  0.0139  0.1526
 4753SOL    HW125895   2.105   2.045  11.523  1.3379 -0.6040  1.6698
 4753SOL    HW225896   2.015   1.956  11.443 -0.3622 -0.1834  0.7708
 4754SOL     OW25897   3.604   1.423   5.065  0.2334 -0.2621 -0.9237
 4754SOL    HW125898   3.557   1.356   5.114 -0.2121  0.4381 -0.4021
 4754SOL    HW225899   3.591   1.497   5.124  0.2220 -0.6203 -0.4800
 4755SOL     OW25900   2.798   1.115   5.967  0.0911  0.5830  0.0071
 4755SOL    HW125901   2.789   1.122   5.872  0.1562 -0.7931 -0.0972
 4755SOL    HW225902   2.858   1.190   5.972  0.8555 -0.1496  1.6658
 4756SOL     OW25903   0.225   1.417   4.813  0.2971 -0.4494 -0.3600
 4756SOL    HW125904   0.164   1.351   4.845 -0.5527  0.5212  0.0131
 4756SOL    HW225905   0.226   1.483   4.882  5.6899 -1.0522  0.1476
 4757SOL     OW25906   0.019   0.636   5.992  0.2009  0.2015  0.8310
 4757SOL    HW125907   4.708   0.568   6.040  0.9532 -1.0119 -0.1525
 4757SOL    HW225908   4.693   0.657   5.922  1.3265 -0.8692 -0.4773
 4758SOL     OW25909   1.268   1.176   6.578 -0.0527 -0.1619 -0.1822
 4758SOL    HW125910   1.348   1.224   6.557 -1.3354  1.6667 -0.7791
 4758SOL    HW225911   1.263   1.202   6.670  2.2989 -2.1876  0.5282
 4759SOL     OW25912   1.260   4.196  15.067  0.1926 -0.1984  0.6370
 4759SOL    HW125913   1.300   4.173  14.983  1.0920 -0.4159  1.1262
 4759SOL    HW225914   1.335   4.235  15.112 -0.4538  2.1013 -0.2704
 4760SOL     OW25915   3.630   2.885  17.668 -0.0295 -0.1168  0.3280
 4760SOL    HW125916   3.620   2.825  17.594  1.9795  0.7260 -0.6208
 4760SOL    HW225917   3.575   2.957  17.638  0.7280  0.2731 -0.1234
 4761SOL     OW25918   4.037   0.373   8.943 -0.2106  0.0600 -0.1740
 4761SOL    HW125919   3.973   0.318   8.986  2.3430 -2.6040  0.2296
 4761SOL    HW225920   4.110   0.375   9.006  1.3271  0.5820 -1.9681
 4762SOL     OW25921   3.217   2.010   7.398  0.2053  0.0324  0.1696
 4762SOL    HW125922   3.288   1.953   7.369  0.0090 -0.2771  0.3011
 4762SOL    HW225923   3.144   1.963   7.359  1.1162 -0.3630 -1.0428
 4763SOL     OW25924   2.512   4.218   8.907 -0.1913 -0.2471  0.4969
 4763SOL    HW125925   2.530   4.135   8.865 -1.4316 -0.5983  0.6594
 4763SOL    HW225926   2.589   4.232   8.963  1.0507 -1.4696 -0.9167
 4764SOL     OW25927   1.947   0.164   0.877  0.2786 -0.1401 -0.1869
 4764SOL    HW125928   2.013   0.140   0.812  0.4259  0.0383 -0.1009
 4764SOL    HW225929   2.009   0.181   0.947 -0.4440 -0.1397  0.4522
 4765SOL     OW25930   4.515   3.388   4.455 -0.0941  0.3180 -0.6075
 4765SOL    HW125931   4.608   3.394   4.434  0.2854 -1.2743  0.6223
 4765SOL    HW225932   4.479   3.470   4.422  4.1006  0.9681 -3.5046
 4766SOL     OW25933   3.792   3.892   0.237  0.4374  0.0707 -0.3060
 4766SOL    HW125934   3.721   3.911   0.176 -0.0428  1.1628  0.5819
 4766SOL    HW225935   3.759   3.918   0.323 -0.0514  1.8384 -1.0256
 4767SOL     OW25936   1.854   3.617  12.788 -0.2615  0.1374 -0.4484
 4767SOL    HW125937   1.838   3.584  12.700  1.5868 -0.6562 -0.4925
 4767SOL    HW225938   1.903   3.538  12.811  0.5978  1.0648  0.9088
 4768SOL     OW25939   4.694   4.665   9.277  0.5242  0.0967  0.0061
 4768SOL    HW125940   0.003   4.592   9.319  0.6518  1.7328  2.7038
 4768SOL    HW225941   4.625   4.623   9.225 -0.1246  0.4081  0.6273
 4769SOL     OW25942   0.621   2.012  14.358 -0.2282 -0.1452  0.2956
 4769SOL    HW125943   0.658   2.059  14.432  0.6944  0.0020 -0.2635
 4769SOL    HW225944   0.632   2.079  14.291  1.5561 -0.3481  0.3822
 4770SOL     OW25945   4.413   0.420   6.962 -0.1724 -0.5366 -0.4742
 4770SOL    HW125946   4.442   0.338   7.001  0.6742 -0.0511 -0.0641
 4770SOL    HW225947   4.329   0.429   7.007  0.5872  0.1455  0.8101
 4771SOL     OW25948   0.175   4.003   7.880  0.3799 -0.1850 -0.4644
 4771SOL    HW125949   0.222   3.919   7.876  1.5666  0.4775 -0.4821
 4771SOL    HW225950   0.120   3.984   7.955 -0.4376  0.9442 -0.7837
 4772SOL     OW25951   1.205   1.984   6.926  0.5080  0.3490  0.2755
 4772SOL    HW125952   1.232   1.949   7.010  1.8730 -0.8747 -0.6737
 4772SOL    HW225953   1.279   2.036   6.895  1.9143 -0.2246  2.6722
 4773SOL     OW25954   4.246   3.809  17.167 -0.4521 -0.3294 -0.1439
 4773SOL    HW125955   4.300   3.872  17.216 -0.1063 -0.8021  0.0793
 4773SOL    HW225956   4.213   3.754  17.237  0.5712 -0.7755 -0.0190
 4774SOL     OW25957   4.501   3.530   1.360 -0.0858 -0.5798  0.0334
 4774SOL    HW125958   4.591   3.502   1.371  0.2016 -0.0971 -1.0638
 4774SOL    HW225959   4.475   3.491   1.276 -1.2518  0.2054  0.0196
 4775SOL     OW25960   2.057   3.480   6.202 -0.3671 -0.6002 -0.5324
 4775SOL    HW125961   2.028   3.427   6.276  0.0069 -0.8163 -0.5376
 4775SOL    HW225962   2.152   3.482   6.218  0.2383  0.7047 -4.3632
 4776SOL     OW25963   2.629   4.525   4.858  0.0183  0.0910 -1.1039
 4776SOL    HW125964   2.724   4.531   4.843  0.5375 -0.2803  1.8904
 4776SOL    HW225965   2.635   4.504   4.951 -3.1383  1.4500 -0.5980
 4777SOL     OW25966   0.337   3.476   3.777 -0.3764  0.3085 -0.1032
 4777SOL    HW125967   0.286   3.522   3.843  1.6684  2.3609  0.0630
 4777SOL    HW225968   0.380   3.551   3.735 -2.1713  2.1022  1.2578
 4778SOL     OW25969   3.280   3.193   6.080 -0.5251  0.0743  0.5457
 4778SOL    HW125970   3.231   3.113   6.065  1.3822 -0.7728 -1.0667
 4778SOL    HW225971   3.339   3.195   6.005 -0.3937 -1.8389  0.6068
 4779SOL     OW25972   2.039   3.735   7.074 -0.1707 -0.5553 -0.2964
 4779SOL    HW125973   2.091   3.784   7.011 -0.8225 -0.4004 -0.7184
 4779SOL    HW225974   1.953   3.757   7.038 -0.5510  2.3131  2.4367
 4780SOL     OW25975   0.780   4.448  11.911 -0.2562  0.2191  0.7084
 4780SOL    HW125976   0.806   4.502  11.986  0.5441  1.1615 -0.2568
 4780SOL    HW225977   0.767   4.359  11.944  0.3756  0.0283  0.4349
 4781SOL     OW25978   2.615   1.552   8.279  0.0816  0.5592 -0.5725
 4781SOL    HW125979   2.625   1.484   8.345  1.2457  2.5037  1.2809
 4781SOL    HW225980   2.553   1.513   8.217  1.0043  0.7279 -1.5992
 4782SOL     OW25981   4.720   1.699  12.497  0.1951  0.0344 -0.1056
 4782SOL    HW125982   0.015   1.770  12.554  0.4997 -0.5637  0.4697
 4782SOL    HW225983   4.722   1.620  12.551  0.3984 -0.0395 -0.2211
 4783SOL     OW25984   4.483   4.298  17.552 -0.0820  0.2425 -0.0008
 4783SOL    HW125985   4.498   4.298  17.647 -0.6739 -0.7527  0.1046
 4783SOL    HW225986   4.537   4.372  17.525  0.6110 -0.6768 -1.1442
 4784SOL     OW25987   1.155   0.942   6.434  0.0451  0.5377 -0.3989
 4784SOL    HW125988   1.214   0.935   6.358  0.4100  0.2943 -0.0898
 4784SOL    HW225989   1.173   1.028   6.471 -0.3542 -0.0902  1.2255
 4785SOL     OW25990   2.641   3.314   1.437  0.2283  0.3189 -0.0767
 4785SOL    HW125991   2.695   3.388   1.463  0.8575  0.0493 -0.6119
 4785SOL    HW225992   2.582   3.286   1.507  2.8811  0.8574  2.3461
 4786SOL     OW25993   4.682   3.478   5.833  0.2323  0.2477  0.2215
 4786SOL    HW125994   4.636   3.400   5.800  1.4478 -0.4798  0.2512
 4786SOL    HW225995   4.649   3.482   5.922 -0.4455 -0.3231 -0.0016
 4787SOL     OW25996   3.616   2.757   0.763  0.2527 -0.0553 -0.0328
 4787SOL    HW125997   3.530   2.795   0.750  1.2161  2.7715  1.8507
 4787SOL    HW225998   3.655   2.814   0.830 -0.1434 -2.6292  2.4015
 4788SOL     OW25999   0.720   2.871   6.344  0.0909 -0.1981  0.3497
 4788SOL    HW126000   0.738   2.782   6.313 -1.3279 -0.1059 -0.7525
 4788SOL    HW226001   0.690   2.913   6.263  0.8390 -0.6855 -0.1854
 4789SOL     OW26002   4.668   3.180   7.944 -0.3180  0.7201  0.1919
 4789SOL    HW126003   4.581   3.216   7.926 -1.0843 -1.2067  0.0405
 4789SOL    HW226004   4.668   3.176   8.040 -1.7562 -0.0837  0.1526
 4790SOL     OW26005   3.200   0.214   9.168 -0.6367  0.2767 -0.8382
 4790SOL    HW126006   3.108   0.190   9.160  0.0723 -3.0628  0.9347
 4790SOL    HW226007   3.185   0.304   9.141 -3.8882 -0.4630 -1.5190
 4791SOL     OW26008   2.471   0.870   4.741  0.0835 -0.0576 -0.4983
 4791SOL    HW126009   2.412   0.876   4.815 -0.1854 -1.7156 -0.5768
 4791SOL    HW226010   2.409   0.887   4.670  0.0907  1.2068 -0.2015
 4792SOL     OW26011   4.006   0.651  14.386 -0.4083  0.0220  0.2747
 4792SOL    HW126012   3.963   0.660  14.301 -1.6040  1.9040  1.0966
 4792SOL    HW226013   4.093   0.682  14.359 -0.4088 -1.9516 -2.0172
 4793SOL     OW26014   2.811   3.561   2.267 -0.7543 -0.3275 -0.0662
 4793SOL    HW126015   2.795   3.584   2.176 -2.2724 -0.5419  0.1379
 4793SOL    HW226016   2.903   3.534   2.265 -0.4451  0.8413 -1.3798
 4794SOL     OW26017   4.620   0.948   8.642  0.5957  0.6703  0.0086
 4794SOL    HW126018   4.666   0.868   8.666 -1.5297 -0.7339 -0.5828
 4794SOL    HW226019   4.655   0.965   8.554  1.9395 -0.0210  0.4028
 4795SOL     OW26020   3.175   1.066   7.716  0.8199 -0.3623  0.5383
 4795SOL    HW126021   3.120   0.989   7.700  1.3171 -0.4036 -1.0385
 4795SOL    HW226022   3.243   1.042   7.779 -0.3120 -0.3664  1.7351
 4796SOL     OW26023   3.287   1.425   5.267 -0.3619  0.0099 -0.1408
 4796SOL    HW126024   3.297   1.512   5.228 -1.2060  0.1221 -0.1197
 4796SOL    HW226025   3.243   1.450   5.348  0.3291  0.3818  0.1133
 4797SOL     OW26026   0.448   1.502   7.049  0.7811  0.3801 -0.5945
 4797SOL    HW126027   0.424   1.557   7.123 -0.1247 -0.6586 -0.1112
 4797SOL    HW226028   0.362   1.489   7.010  1.0541  1.9827 -1.7279
 4798SOL     OW26029   4.254   2.193   7.525  0.2052 -0.1761 -0.1046
 4798SOL    HW126030   4.346   2.168   7.511 -0.4181 -1.3566 -2.0273
 4798SOL    HW226031   4.242   2.158   7.613 -0.6589  0.5607  0.0729
 4799SOL     OW26032   0.680   3.962   2.318 -0.1799  0.0862  0.3273
 4799SOL    HW126033   0.616   4.011   2.370  0.0228  2.3298 -1.5325
 4799SOL    HW226034   0.756   3.962   2.376 -0.4880  1.1832  0.7351
 4800SOL     OW26035   1.139   0.411  13.643  0.5275 -0.2259 -0.4281
 4800SOL    HW126036   1.195   0.350  13.690  0.6492  0.0904 -0.1671
 4800SOL    HW226037   1.089   0.343  13.598 -1.1635  2.0189 -1.9858
 4801SOL     OW26038   3.137   3.312   7.894 -0.3146 -0.1007 -0.1129
 4801SOL    HW126039   3.189   3.392   7.899 -3.1283  1.6862  0.8815
 4801SOL    HW226040   3.154   3.270   7.979  1.7750 -0.9746 -0.9690
 4802SOL     OW26041   1.824   2.969  17.066  0.3106 -0.2552  0.1001
 4802SOL    HW126042   1.910   2.951  17.030  0.6874  0.7725  0.4961
 4802SOL    HW226043   1.775   2.954  16.985 -0.5484  2.6553  0.0795
 4803SOL     OW26044   1.622   2.354  11.913 -0.3426  0.1717  0.0342
 4803SOL    HW126045   1.547   2.333  11.969 -0.3401  2.4905  0.9224
 4803SOL    HW226046   1.616   2.449  11.921  0.5707  0.1030  1.7109
 4804SOL     OW26047   4.100   2.668  16.633 -0.0901 -0.0550 -0.1752
 4804SOL    HW126048   4.086   2.581  16.670 -2.4415  0.0598 -0.8025
 4804SOL    HW226049   4.150   2.708  16.705  1.6673 -0.3756 -1.2204
 4805SOL     OW26050   1.692   2.835   4.184  0.1996 -0.0021  0.3432
 4805SOL    HW126051   1.718   2.795   4.267  0.4615  0.7611  0.6268
 4805SOL    HW226052   1.598   2.819   4.182  0.4765 -1.7091  0.8549
 4806SOL     OW26053   1.058   2.578   1.942 -0.1129 -0.4181 -0.5979
 4806SOL    HW126054   1.017   2.501   1.981 -0.9341  0.1998 -0.2450
 4806SOL    HW226055   1.086   2.627   2.019 -0.8938 -1.6278  0.4607
 4807SOL     OW26056   2.975   0.594  17.198  0.4588  0.3328  0.3650
 4807SOL    HW126057   2.914   0.668  17.191 -1.5982 -1.3248  0.7275
 4807SOL    HW226058   2.920   0.518  17.179 -2.2093  1.8780  1.9791
 4808SOL     OW26059   2.238   0.941   8.660  0.2345  0.2311  0.4050
 4808SOL    HW126060   2.146   0.934   8.685  0.1916 -2.6831 -0.4595
 4808SOL    HW226061   2.252   0.847   8.644  2.6780  0.5310  0.7849
 4809SOL     OW26062   0.607   3.181   8.391 -0.0068  0.4566  0.8390
 4809SOL    HW126063   0.639   3.234   8.463 -0.1138  0.0146  1.2139
 4809SOL    HW226064   0.667   3.194   8.317  3.4752 -1.9964  3.1902
 4810SOL     OW26065   1.702   0.320   5.226 -0.3643 -0.5819  0.0217
 4810SOL    HW126066   1.764   0.326   5.299 -1.7442 -0.3228  1.1671
 4810SOL    HW226067   1.672   0.230   5.235  0.3932 -0.9687 -1.3386
 4811SOL     OW26068   0.843   4.608   4.684 -0.0478  0.2680 -0.2441
 4811SOL    HW126069   0.782   4.646   4.620 -0.6205  1.2599  0.8953
 4811SOL    HW226070   0.786   4.573   4.753  1.2486 -0.8832  0.2280
 4812SOL     OW26071   4.471   3.576   3.723  0.1906  0.2459 -0.1625
 4812SOL    HW126072   4.514   3.622   3.651  1.6329 -2.1628 -0.8501
 4812SOL    HW226073   4.380   3.605   3.717 -0.2428 -1.1128 -0.1755
 4813SOL     OW26074   2.990   2.839  10.357 -0.0124  0.3046  0.9577
 4813SOL    HW126075   3.063   2.900  10.344 -0.5315  0.6828 -0.1688
 4813SOL    HW226076   2.977   2.798  10.272 -0.4425  1.2669  0.5681
 4814SOL     OW26077   3.823   3.647  16.724  0.2942 -0.1046 -0.0895
 4814SOL    HW126078   3.834   3.729  16.772  0.4470 -0.2057  0.0511
 4814SOL    HW226079   3.734   3.620  16.744 -0.1201  0.8306 -0.6621
 4815SOL     OW26080   2.361   3.373   5.960 -0.0369  0.0185 -0.2770
 4815SOL    HW126081   2.278   3.354   5.917  0.2206  2.3568 -1.7772
 4815SOL    HW226082   2.381   3.445   5.901  1.4931 -0.9508 -0.9332
 4816SOL     OW26083   2.983   3.921   7.896  0.3741 -0.5909  0.2273
 4816SOL    HW126084   2.997   3.994   7.956 -1.3313  1.0561 -1.3520
 4816SOL    HW226085   2.963   3.846   7.950 -1.1410 -0.3828 -0.0383
 4817SOL     OW26086   2.022   3.351   3.898  0.2573  0.1563  0.1627
 4817SOL    HW126087   1.929   3.349   3.873  0.5332 -1.3953 -0.7645
 4817SOL    HW226088   2.046   3.442   3.881 -2.1195  0.6711 -0.4878
 4818SOL     OW26089   3.556   2.199   2.705 -0.8604 -0.0319  0.6600
 4818SOL    HW126090   3.581   2.173   2.616 -0.5312 -0.5899  0.9178
 4818SOL    HW226091   3.465   2.170   2.709 -1.4488  1.5603 -1.1263
 4819SOL     OW26092   4.541   0.590   3.433 -0.1183 -0.6773 -0.2140
 4819SOL    HW126093   4.487   0.555   3.362  2.1179  0.0428 -2.2332
 4819SOL    HW226094   4.624   0.561   3.395  0.8066  2.7026 -0.7912
 4820SOL     OW26095   4.174   1.477  13.320 -0.0302 -0.3627  0.6274
 4820SOL    HW126096   4.149   1.456  13.230  0.8252  0.6124  0.1609
 4820SOL    HW226097   4.248   1.419  13.339  0.7401  1.1056  2.1710
 4821SOL     OW26098   1.316   0.512   6.170 -0.3730  0.6994  0.3946
 4821SOL    HW126099   1.387   0.449   6.181 -0.8377  0.6483  2.9393
 4821SOL    HW226100   1.372   0.577   6.125  0.7186 -0.5070  0.0092
 4822SOL     OW26101   0.456   1.576   0.413  0.0476  0.3972  0.0213
 4822SOL    HW126102   0.505   1.542   0.339 -0.1156 -0.2344  0.2000
 4822SOL    HW226103   0.391   1.632   0.371  1.6865  3.2391  1.2306
 4823SOL     OW26104   1.444   1.029   8.602  0.0125 -0.3215 -0.5714
 4823SOL    HW126105   1.472   1.098   8.542  0.5702  2.0242  2.3989
 4823SOL    HW226106   1.365   1.068   8.640 -0.2285 -0.3326 -1.0513
 4824SOL     OW26107   1.235   0.203  13.796  0.7855 -0.2248  0.2985
 4824SOL    HW126108   1.291   0.136  13.756  0.6753  0.4733 -1.0220
 4824SOL    HW226109   1.221   0.158  13.880  0.4076  1.3958  1.1108
 4825SOL     OW26110   4.285   4.328   8.167 -0.0108  0.2910  0.2836
 4825SOL    HW126111   4.207   4.306   8.218 -0.3041  1.3735  0.2998
 4825SOL    HW226112   4.289   4.249   8.112  2.9151  0.4622  0.2210
 4826SOL     OW26113   3.809   2.834   6.055 -0.1988 -0.4144  0.1959
 4826SOL    HW126114   3.724   2.827   6.099 -0.7083 -0.9518 -0.8854
 4826SOL    HW226115   3.868   2.826   6.131 -1.0552  1.3445  1.0363
 4827SOL     OW26116   0.819   4.670   7.662 -0.5599 -0.1927 -0.5724
 4827SOL    HW126117   0.743   4.629   7.621  1.0745 -2.3153 -1.4205
 4827SOL    HW226118   0.793   4.733   7.729 -0.0832 -0.0738 -0.4992
 4828SOL     OW26119   4.372   4.726  12.723 -0.4413  0.1763 -0.4069
 4828SOL    HW126120   4.369   4.688  12.811  1.7019  1.1487  0.0635
 4828SOL    HW226121   4.459   4.692  12.706 -0.4042 -0.2190  0.5813
 4829SOL     OW26122   3.809   4.347   0.100 -0.2373  0.6923 -0.0299
 4829SOL    HW126123   3.832   4.436   0.125 -3.4982  2.0924 -2.1364
 4829SOL    HW226124   3.897   4.311   0.085 -0.0545  1.7895 -1.5152
 4830SOL     OW26125   3.268   0.046   9.673  0.2679  0.7333 -0.2664
 4830SOL    HW126126   3.216   0.058   9.594 -1.7515  1.4660  1.1614
 4830SOL    HW226127   3.247   4.690   9.689 -0.2981  0.6810 -1.3341
 4831SOL     OW26128   1.068   2.763   3.317 -0.4327 -0.0769  0.0804
 4831SOL    HW126129   1.007   2.746   3.245  1.2497 -2.3916 -0.7943
 4831SOL    HW226130   1.005   2.801   3.378 -0.5752 -0.3581  0.1094
 4832SOL     OW26131   1.503   3.323   8.856 -0.1922 -0.0178  0.0018
 4832SOL    HW126132   1.525   3.298   8.945 -2.7213 -1.5461  0.2221
 4832SOL    HW226133   1.584   3.349   8.813  0.0103 -0.4321  0.1439
 4833SOL     OW26134   2.646   4.632  10.206 -0.1124 -0.3919 -0.3348
 4833SOL    HW126135   2.582   4.670  10.267 -0.6324 -3.0705  0.8146
 4833SOL    HW226136   2.666   4.551  10.253  0.9845  0.3914  0.5332
 4834SOL     OW26137   4.644   4.208   5.531 -0.5642  0.1888 -0.8031
 4834SOL    HW126138   4.709   4.202   5.461  0.9574 -0.7374  0.6829
 4834SOL    HW226139   4.665   4.142   5.596  0.4436 -0.0857 -1.4023
 4835SOL     OW26140   2.966   3.011   4.727  0.0668  0.0856  0.0441
 4835SOL    HW126141   3.037   3.017   4.791  0.0208  3.3993 -0.2371
 4835SOL    HW226142   2.899   3.008   4.796 -0.1733  0.0047 -0.1941
 4836SOL     OW26143   0.159   1.922   1.114 -0.5485 -0.0711  0.5938
 4836SOL    HW126144   0.101   1.988   1.153  0.5133  1.4947 -0.4447
 4836SOL    HW226145   0.194   1.880   1.193 -1.1651 -2.0430 -0.1860
 4837SOL     OW26146   2.540   3.530  15.456 -0.1017  0.0095 -0.3647
 4837SOL    HW126147   2.487   3.504  15.531  0.2238  0.3916  0.0034
 4837SOL    HW226148   2.519   3.622  15.436  3.2083  0.3100 -2.3609
 4838SOL     OW26149   4.575   0.445   7.298  0.4976  0.5037  0.4250
 4838SOL    HW126150   4.511   0.515   7.280 -3.1541 -2.2482  2.6874
 4838SOL    HW226151   4.649   0.479   7.248 -1.2054  2.3779 -0.8496
 4839SOL     OW26152   4.019   0.978  16.601  0.5424  0.2488  0.0151
 4839SOL    HW126153   3.940   0.989  16.654 -0.9376 -1.2229 -1.8829
 4839SOL    HW226154   4.062   1.056  16.635 -1.3756  1.4566 -0.3304
 4840SOL     OW26155   4.471   0.870   5.434 -0.4975  0.0141  0.2701
 4840SOL    HW126156   4.377   0.859   5.444 -0.7210  0.8930 -0.8704
 4840SOL    HW226157   4.499   0.784   5.464 -2.8952  0.0197  2.4951
 4841SOL     OW26158   3.397   0.860   3.930 -0.6554  0.1676 -1.0845
 4841SOL    HW126159   3.423   0.925   3.996 -0.8907 -0.5101 -0.3178
 4841SOL    HW226160   3.350   0.797   3.985 -1.9903 -0.5419 -3.0623
 4842SOL     OW26161   1.510   2.762  16.685 -0.1434  0.2434  0.1741
 4842SOL    HW126162   1.497   2.670  16.663  1.0579  0.2066 -0.4106
 4842SOL    HW226163   1.473   2.807  16.608 -0.6754 -0.0731  0.2421
 4843SOL     OW26164   0.901   4.565   5.026 -0.7040 -0.4453  0.2180
 4843SOL    HW126165   0.959   4.628   4.981  0.5756 -1.5632  0.2959
 4843SOL    HW226166   0.895   4.493   4.963 -0.7208 -0.8435  0.6768
 4844SOL     OW26167   0.150   0.224   6.625 -0.4542 -0.3579 -0.0849
 4844SOL    HW126168   0.134   0.294   6.562 -1.0036  0.0136  0.4782
 4844SOL    HW226169   0.097   0.152   6.588  1.3177 -1.8675  0.3059
 4845SOL     OW26170   0.053   3.171   3.190  0.1894  0.4441  0.3924
 4845SOL    HW126171   0.010   3.153   3.274  1.0408  0.8267  0.9088
 4845SOL    HW226172   4.718   3.144   3.131  0.3414 -0.5680  0.6704
 4846SOL     OW26173   1.764   2.203   8.935 -0.0309  0.8482 -0.0740
 4846SOL    HW126174   1.679   2.223   8.895 -0.5521  0.1594  0.6802
 4846SOL    HW226175   1.813   2.248   8.866  1.7313 -0.7157  0.1681
 4847SOL     OW26176   0.094   0.985  13.011  0.5296  0.0994 -0.4301
 4847SOL    HW126177   0.175   1.006  13.057  0.6813  1.3769 -1.3043
 4847SOL    HW226178   0.100   1.050  12.942 -0.9712  0.7088  0.0026
 4848SOL     OW26179   3.992   4.080   9.826 -0.3951  0.1505 -0.1678
 4848SOL    HW126180   3.936   4.141   9.777  2.1261  0.8643 -2.1631
 4848SOL    HW226181   3.991   4.106   9.918 -2.0446 -1.8416  0.3771
 4849SOL     OW26182   2.704   4.651   6.887 -0.2844 -0.3237 -0.1803
 4849SOL    HW126183   2.701   4.718   6.955  1.1120  0.1495 -0.5684
 4849SOL    HW226184   2.628   4.665   6.832 -0.6660  0.9692  0.6764
 4850SOL     OW26185   4.200   1.661  10.392  0.0867 -0.0717 -0.8596
 4850SOL    HW126186   4.149   1.735  10.426  1.1135 -0.6485  1.9176
 4850SOL    HW226187   4.137   1.591  10.409 -0.7884  0.8812 -0.2057
 4851SOL     OW26188   3.013   2.089   2.111 -0.1751  0.2705 -0.3531
 4851SOL    HW126189   2.975   2.049   2.032 -2.4383 -1.1279  1.4522
 4851SOL    HW226190   2.980   2.178   2.100  1.8498  1.0086 -0.4739
 4852SOL     OW26191   4.667   1.107   4.685  0.0607  0.2454 -0.3209
 4852SOL    HW126192   4.580   1.072   4.704  0.8191 -0.2460  2.1122
 4852SOL    HW226193   4.647   1.174   4.619 -2.1839  0.5547  0.6815
 4853SOL     OW26194   2.340   0.142   2.356  0.8902 -0.1518  0.1408
 4853SOL    HW126195   2.344   0.220   2.300 -0.0695 -1.5585 -1.8857
 4853SOL    HW226196   2.275   0.087   2.311 -1.5340  1.2636  1.9325
 4854SOL     OW26197   2.335   0.886   0.397  0.3751 -0.2677 -0.5504
 4854SOL    HW126198   2.332   0.880   0.301 -1.5782 -0.3816 -0.4696
 4854SOL    HW226199   2.320   0.977   0.421 -0.8129 -0.2669 -1.2925
 4855SOL     OW26200   2.308   0.198   2.991 -0.0184  0.0991  0.4345
 4855SOL    HW126201   2.331   0.112   3.027  1.6144 -1.1848 -3.7017
 4855SOL    HW226202   2.230   0.168   2.942 -0.5040 -1.9251  2.4400
 4856SOL     OW26203   1.858   4.512  16.928  0.0100 -0.0804 -0.0519
 4856SOL    HW126204   1.826   4.575  16.863  1.2040  0.4167 -0.1635
 4856SOL    HW226205   1.844   4.566  17.006 -2.4569 -1.9610  0.8007
 4857SOL     OW26206   3.995   4.592   7.014 -0.2467 -0.9919  0.3545
 4857SOL    HW126207   4.034   4.518   6.966  3.8978  0.8102  1.0027
 4857SOL    HW226208   3.916   4.544   7.042 -2.0273  2.2335  0.8165
 4858SOL     OW26209   3.805   2.963   7.712  0.4609  0.4566  0.2424
 4858SOL    HW126210   3.822   3.035   7.773 -2.1799  0.7161  0.6791
 4858SOL    HW226211   3.850   2.985   7.630 -0.4358  2.4880  0.2853
 4859SOL     OW26212   3.691   1.908   7.644  0.4766 -0.1711  0.4946
 4859SOL    HW126213   3.735   1.911   7.559 -0.1609 -1.2282  0.1214
 4859SOL    HW226214   3.608   1.866   7.621  0.8040  0.0664 -1.1396
 4860SOL     OW26215   4.004   1.413   8.370  0.4379 -0.4454 -0.5009
 4860SOL    HW126216   4.039   1.343   8.314  0.4577 -0.2926 -0.6791
 4860SOL    HW226217   4.001   1.376   8.458  1.3679 -2.8468 -1.4655
 4861SOL     OW26218   4.576   3.198   3.000  0.3436 -0.5279 -0.1262
 4861SOL    HW126219   4.597   3.246   2.920  0.6645  1.2976  1.0422
 4861SOL    HW226220   4.524   3.254   3.058  1.5977 -2.0673  2.5037
 4862SOL     OW26221   4.408   4.339  10.781 -0.3809 -0.6343  0.0255
 4862SOL    HW126222   4.453   4.400  10.839  1.3929 -2.8965  1.0707
 4862SOL    HW226223   4.332   4.310  10.833  0.1429  1.4250  1.9361
 4863SOL     OW26224   0.193   2.660   8.070 -0.3428 -0.2837 -0.0752
 4863SOL    HW126225   0.193   2.641   8.164  1.6822  1.0768  0.1943
 4863SOL    HW226226   0.167   2.752   8.081  1.5683  0.6568 -3.3440
 4864SOL     OW26227   4.492   2.758   1.274 -0.3015 -0.0269 -0.0288
 4864SOL    HW126228   4.452   2.843   1.292 -1.3642 -0.3325 -0.9412
 4864SOL    HW226229   4.408   2.716   1.254  0.5413 -1.8969  0.3111
 4865SOL     OW26230   4.091   3.703  13.485  0.2407 -0.0157  0.0743
 4865SOL    HW126231   4.021   3.768  13.476  1.2097  0.8212 -1.4888
 4865SOL    HW226232   4.069   3.670  13.572 -2.4935 -2.4778 -1.5509
 4866SOL     OW26233   1.252   3.404  16.416 -0.3640 -0.1631 -0.4272
 4866SOL    HW126234   1.287   3.319  16.392 -1.7063 -0.2995 -1.9411
 4866SOL    HW226235   1.216   3.398  16.504 -2.5949  0.6342 -1.2631
 4867SOL     OW26236   1.253   4.408  12.441  0.0402  0.0641 -0.3549
 4867SOL    HW126237   1.222   4.319  12.432  0.3516  0.0491 -1.3039
 4867SOL    HW226238   1.182   4.432  12.500  0.5314 -1.4744  0.8619
 4868SOL     OW26239   0.214   1.995   6.965  0.0176  0.3274 -0.0372
 4868SOL    HW126240   0.150   1.934   6.929  0.9579  0.0856 -1.2921
 4868SOL    HW226241   0.254   2.056   6.904  0.4478 -0.5872 -0.6656
 4869SOL     OW26242   0.013   4.133   3.306 -0.0743  0.0574 -0.3256
 4869SOL    HW126243   4.665   4.161   3.269 -0.7081 -1.3048  0.0563
 4869SOL    HW226244   0.034   4.056   3.254 -1.1823 -0.4048 -0.1067
 4870SOL     OW26245   3.370   0.345   8.461  0.2159  0.2538 -0.0506
 4870SOL    HW126246   3.406   0.429   8.488  1.0483  0.0746 -0.5917
 4870SOL    HW226247   3.400   0.348   8.370 -0.2894 -1.0318 -0.2605
 4871SOL     OW26248   2.843   4.333   7.322  0.0199 -0.2482 -0.0816
 4871SOL    HW126249   2.810   4.418   7.350  1.7754  0.8298 -1.2703
 4871SOL    HW226250   2.811   4.277   7.393 -0.0299  0.0192  0.1043
 4872SOL     OW26251   4.467   4.132  17.239  0.4344 -0.1159  0.1989
 4872SOL    HW126252   4.500   4.054  17.282 -0.2682 -0.2955  0.4087
 4872SOL    HW226253   4.412   4.161  17.311 -0.8345  0.6212 -1.0534
 4873SOL     OW26254   1.017   1.652   0.610  0.0222  0.2982 -0.4056
 4873SOL    HW126255   1.048   1.585   0.549 -0.7260 -0.6568  0.2436
 4873SOL    HW226256   0.929   1.621   0.632  1.1775 -1.4234  1.8148
 4874SOL     OW26257   0.212   0.270   8.316  0.9852 -0.7227  0.4732
 4874SOL    HW126258   0.284   0.236   8.264  0.4973 -2.5821  1.0053
 4874SOL    HW226259   0.162   0.310   8.245  3.0156 -3.3943 -2.4171
 4875SOL     OW26260   2.136   4.729   1.613 -0.0841 -0.2148 -0.1615
 4875SOL    HW126261   2.044   4.713   1.633  0.0834  0.0463  0.8452
 4875SOL    HW226262   2.137   0.084   1.584  1.5956 -0.0884  0.2357
 4876SOL     OW26263   1.431   3.478   8.136 -0.4083 -0.3345 -0.3484
 4876SOL    HW126264   1.375   3.441   8.204  0.3293  0.5424  0.7309
 4876SOL    HW226265   1.428   3.568   8.169 -0.0318 -1.1677  1.9287
 4877SOL     OW26266   1.310   0.652   4.530  0.4361  0.2080 -0.1132
 4877SOL    HW126267   1.359   0.576   4.562  0.4284  0.3434  0.2184
 4877SOL    HW226268   1.234   0.645   4.588 -0.2643  3.4962 -0.6397
 4878SOL     OW26269   3.086   3.901  17.546  0.5259 -0.2257  0.4243
 4878SOL    HW126270   3.009   3.925  17.599 -0.5721 -0.0129 -1.2744
 4878SOL    HW226271   3.052   3.902  17.457  1.0472 -1.6531  0.2129
 4879SOL     OW26272   0.573   0.810   7.507 -0.3958 -0.0288 -0.3782
 4879SOL    HW126273   0.553   0.755   7.431 -0.0683  0.4423 -0.8137
 4879SOL    HW226274   0.492   0.862   7.498  0.5009  1.4822  0.2071
 4880SOL     OW26275   1.445   1.669   4.586  0.3624 -0.0842 -0.0007
 4880SOL    HW126276   1.515   1.610   4.558 -0.3046 -0.1565 -1.4674
 4880SOL    HW226277   1.368   1.634   4.543 -1.7300  2.9710  1.2086
 4881SOL     OW26278   3.198   1.728   7.558 -0.2304  0.4392  0.0863
 4881SOL    HW126279   3.223   1.643   7.521  0.1165  0.4861  0.2139
 4881SOL    HW226280   3.137   1.763   7.493 -0.3254  0.8688  0.4123
 4882SOL     OW26281   0.768   3.584  13.441  0.1469  0.6118 -0.1132
 4882SOL    HW126282   0.851   3.624  13.414  0.4991 -1.7423 -2.5752
 4882SOL    HW226283   0.713   3.659  13.421 -0.0894  0.8085  1.2830
 4883SOL     OW26284   2.539   1.845   8.803  0.4462 -0.8904  0.7856
 4883SOL    HW126285   2.545   1.857   8.708 -2.9375 -1.0779  0.5501
 4883SOL    HW226286   2.603   1.914   8.822  0.2754 -0.2773 -0.8827
 4884SOL     OW26287   3.552   0.045   9.949 -0.3577 -0.1081  0.0144
 4884SOL    HW126288   3.578   4.719  10.017 -1.7886 -1.1313 -0.3725
 4884SOL    HW226289   3.638   0.087   9.944 -0.5292  0.0643 -1.6125
 4885SOL     OW26290   3.366   4.545   8.241 -0.0352  0.1138  0.0746
 4885SOL    HW126291   3.391   4.454   8.257 -1.0000 -0.3550 -1.1264
 4885SOL    HW226292   3.273   4.542   8.263  0.7548  0.9308  3.4690
 4886SOL     OW26293   0.975   1.987   9.056 -0.0555 -0.7072 -0.9033
 4886SOL    HW126294   0.975   1.911   9.114 -1.4514 -0.2737 -0.3243
 4886SOL    HW226295   1.012   2.057   9.109 -0.6569 -1.2168  0.1837
 4887SOL     OW26296   2.541   4.146   2.268  0.1240 -0.1224  0.2112
 4887SOL    HW126297   2.551   4.240   2.258 -1.1446 -0.0751 -0.6236
 4887SOL    HW226298   2.448   4.127   2.265 -0.1061  0.7843  1.7748
 4888SOL     OW26299   0.888   0.025   3.615 -0.0778  0.0296  0.3591
 4888SOL    HW126300   0.947   4.686   3.625  2.0386  1.6058 -0.1432
 4888SOL    HW226301   0.814   4.727   3.564  0.5646 -0.9825  0.0961
 4889SOL     OW26302   4.302   4.573  12.969 -0.1407 -0.2642 -0.0547
 4889SOL    HW126303   4.277   4.490  13.011 -1.1716  0.8202  1.4820
 4889SOL    HW226304   4.242   4.641  13.000 -0.3559  0.1019 -1.2912
 4890SOL     OW26305   3.310   2.393   2.923 -0.5730  0.7878  0.1093
 4890SOL    HW126306   3.273   2.451   2.989  1.2231 -0.6135  2.3609
 4890SOL    HW226307   3.402   2.419   2.933 -0.3594  1.0747 -2.5479
 4891SOL     OW26308   2.467   3.182   1.884  0.0616  0.3583  0.4367
 4891SOL    HW126309   2.515   3.102   1.904  0.3226  0.6583  0.9893
 4891SOL    HW226310   2.489   3.210   1.795 -0.1078  2.4918  1.0719
 4892SOL     OW26311   4.637   0.223   2.685 -0.5836  0.1554  0.2241
 4892SOL    HW126312   4.673   0.311   2.670  0.3168 -0.1526  0.5775
 4892SOL    HW226313   4.663   0.174   2.608  1.1548 -0.4349  1.1648
 4893SOL     OW26314   4.185   3.475   0.916 -0.7351 -0.1942 -0.5367
 4893SOL    HW126315   4.235   3.410   0.867 -1.0745 -2.1176  1.6635
 4893SOL    HW226316   4.126   3.420   0.967  0.6474 -1.3553 -0.1988
 4894SOL     OW26317   4.383   3.103   0.007 -0.4459 -0.6897 -0.1835
 4894SOL    HW126318   4.305   3.108  17.695  0.0778 -0.1179 -0.8889
 4894SOL    HW226319   4.451   3.119  17.683 -0.5885  2.2796  0.3573
 4895SOL     OW26320   1.277   0.647  13.647 -0.3100  0.4783  0.2776
 4895SOL    HW126321   1.262   0.563  13.692  0.9381 -0.0740 -0.3421
 4895SOL    HW226322   1.199   0.643  13.592 -1.5560 -0.6790  2.0968
 4896SOL     OW26323   0.815   0.230   1.455 -0.1369  0.1892 -0.2537
 4896SOL    HW126324   0.885   0.172   1.487 -1.1494 -0.9571 -0.1141
 4896SOL    HW226325   0.736   0.196   1.496 -1.1484 -0.3858 -2.7378
 4897SOL     OW26326   0.993   3.836   7.552  0.0209  0.0408  0.3108
 4897SOL    HW126327   1.020   3.874   7.469 -1.1859 -0.3074 -0.2445
 4897SOL    HW226328   0.906   3.798   7.539 -0.0368  0.2931 -0.0288
 4898SOL     OW26329   0.616   3.795  12.659  0.5764 -0.4180  0.3038
 4898SOL    HW126330   0.582   3.712  12.626  1.1699 -0.2651 -0.6796
 4898SOL    HW226331   0.534   3.844  12.666  1.0003  0.6282 -2.1111
 4899SOL     OW26332   4.100   0.447  17.599 -0.1986 -0.1224 -0.7191
 4899SOL    HW126333   4.045   0.471  17.674  0.4533  0.4332 -0.4272
 4899SOL    HW226334   4.106   0.527  17.547  0.9788  0.1919 -0.0894
 4900SOL     OW26335   3.149   1.182   8.755 -0.3646 -0.0308  0.3630
 4900SOL    HW126336   3.187   1.268   8.736 -0.4731  0.2944  1.6436
 4900SOL    HW226337   3.069   1.208   8.801  0.1535 -0.3115  1.4202
 4901SOL     OW26338   3.922   3.623   1.355 -0.2027 -0.2008 -0.0733
 4901SOL    HW126339   3.989   3.689   1.372 -0.5945  0.8399 -2.5037
 4901SOL    HW226340   3.863   3.664   1.291 -2.2979  0.9426  2.6099
 4902SOL     OW26341   2.154   4.677   2.788 -0.1253 -0.0068 -0.0867
 4902SOL    HW126342   2.152   0.036   2.796  0.6510  0.0533 -0.6404
 4902SOL    HW226343   2.101   4.669   2.708 -0.6925  0.1585  0.2720
 4903SOL     OW26344   2.591   2.342   7.318  0.2753  0.2342 -0.4341
 4903SOL    HW126345   2.626   2.427   7.342 -0.7226  0.1541  1.3061
 4903SOL    HW226346   2.500   2.351   7.347  0.4538  1.7149 -0.3342
 4904SOL     OW26347   0.213   0.158   3.647 -0.0753 -0.2590 -0.0030
 4904SOL    HW126348   0.286   0.205   3.607  0.9174 -0.7907  1.1418
 4904SOL    HW226349   0.253   0.084   3.693  0.9129  1.1124  1.3556
 4905SOL     OW26350   3.723   3.288   2.903  0.3059 -0.1746  0.0631
 4905SOL    HW126351   3.815   3.305   2.883 -0.0445  1.4095 -0.1876
 4905SOL    HW226352   3.719   3.206   2.853  1.7826  0.7465 -1.5614
 4906SOL     OW26353   2.978   1.623   5.978 -0.4374 -0.3811  0.2383
 4906SOL    HW126354   3.020   1.630   5.892  0.5926  1.1471  0.8606
 4906SOL    HW226355   3.004   1.531   5.989  1.6035  0.3358  1.4924
 4907SOL     OW26356   0.456   4.370   7.303 -0.0421 -0.2950  0.0989
 4907SOL    HW126357   0.452   4.275   7.319 -1.3669  0.1179  2.1861
 4907SOL    HW226358   0.426   4.376   7.212  0.0353  0.0485  0.0952
 4908SOL     OW26359   0.933   0.819   7.850 -0.2620  0.0179 -0.1429
 4908SOL    HW126360   0.840   0.841   7.852 -0.0070  0.8881  3.3506
 4908SOL    HW226361   0.934   0.758   7.777  0.8847  0.2331 -0.3026
 4909SOL     OW26362   0.482   3.868   1.041  0.1654 -0.0555  0.3579
 4909SOL    HW126363   0.458   3.781   1.071 -1.2826 -0.4658 -2.0333
 4909SOL    HW226364   0.568   3.888   1.077  1.3889 -2.1728 -1.3940
 4910SOL     OW26365   2.966   2.534   2.744  0.2430  0.0192  0.2985
 4910SOL    HW126366   2.965   2.438   2.746  1.0424  0.0095  0.2155
 4910SOL    HW226367   3.055   2.561   2.721 -0.8213  1.1533 -2.5654
 4911SOL     OW26368   3.281   4.135   7.615 -0.2749 -0.0180 -0.4489
 4911SOL    HW126369   3.216   4.078   7.656  1.4786 -1.2117  0.6839
 4911SOL    HW226370   3.269   4.132   7.521 -0.8342  3.1026 -0.4727
 4912SOL     OW26371   1.587   1.972   4.064  0.6182 -0.1370  0.7475
 4912SOL    HW126372   1.496   1.999   4.074  0.7526  0.4162  0.4433
 4912SOL    HW226373   1.612   1.959   4.155 -0.1310  1.3950  1.1586
 4913SOL     OW26374   2.790   1.349   4.765  0.1511 -0.1660  0.6363
 4913SOL    HW126375   2.730   1.414   4.802 -0.9798 -1.2669  0.7306
 4913SOL    HW226376   2.875   1.378   4.797 -0.6677  0.4789  2.2448
 4914SOL     OW26377   1.801   0.712   0.727 -0.6806 -0.0070  0.6179
 4914SOL    HW126378   1.750   0.688   0.649  1.2648 -1.2423 -0.2701
 4914SOL    HW226379   1.821   0.629   0.770  1.6503  0.0672 -0.3183
 4915SOL     OW26380   2.374   4.727  12.993 -0.0325  0.2115  0.0489
 4915SOL    HW126381   2.418   0.076  12.991 -0.0584  0.2285  0.2289
 4915SOL    HW226382   2.439   4.660  13.009  1.1542  1.3410 -0.0466
 4916SOL     OW26383   4.120   3.921   5.178 -0.1468  0.1273 -0.2558
 4916SOL    HW126384   4.179   3.885   5.112  0.5848  2.4433 -0.8846
 4916SOL    HW226385   4.044   3.941   5.125 -0.0896 -0.1572 -0.4463
 4917SOL     OW26386   0.794   4.328  12.358  0.5882  0.1755 -0.1626
 4917SOL    HW126387   0.845   4.274  12.418  0.5680  1.5514  1.0798
 4917SOL    HW226388   0.714   4.275  12.360  1.3064 -0.8453  1.2349
 4918SOL     OW26389   1.547   1.005   1.053  0.0555  0.2156 -0.1301
 4918SOL    HW126390   1.579   1.028   0.966  1.0306 -0.5718  0.0052
 4918SOL    HW226391   1.597   0.926   1.075  0.2361  0.3909  0.0811
 4919SOL     OW26392   3.192   0.547   5.562 -0.5429  0.2350  0.6171
 4919SOL    HW126393   3.112   0.507   5.528  0.7936 -1.2901 -0.7133
 4919SOL    HW226394   3.164   0.637   5.581 -2.4601  0.2210 -2.1517
 4920SOL     OW26395   4.695   0.365   5.490 -0.0275  0.0195 -0.2792
 4920SOL    HW126396   0.033   0.307   5.475 -0.0257  0.1486 -0.7673
 4920SOL    HW226397   4.629   0.305   5.525 -0.4024  1.0741  0.8408
 4921SOL     OW26398   4.431   1.298   2.707 -0.4322 -0.0992 -0.4043
 4921SOL    HW126399   4.509   1.314   2.655 -1.2804 -0.0903 -1.6828
 4921SOL    HW226400   4.416   1.205   2.689  1.2193 -0.4336 -0.0200
 4922SOL     OW26401   4.233   2.013  10.573 -0.0669 -0.3297  0.3754
 4922SOL    HW126402   4.273   1.964  10.645  1.1413  1.2986  0.8281
 4922SOL    HW226403   4.149   1.971  10.554 -1.4424  2.2883  0.6396
 4923SOL     OW26404   0.060   1.695   6.865 -0.0478  0.1320  0.1909
 4923SOL    HW126405   0.127   1.720   6.801  1.6314  0.9889  2.2762
 4923SOL    HW226406   0.116   1.652   6.930  0.4461  1.2888  0.5207
 4924SOL     OW26407   2.639   2.595   2.891  0.1360  0.0370 -0.0219
 4924SOL    HW126408   2.703   2.581   2.961 -0.0454  2.7751  0.6948
 4924SOL    HW226409   2.554   2.583   2.933 -0.8904  1.1471 -1.7565
 4925SOL     OW26410   0.093   2.020  14.645 -0.2185 -0.2060  0.1549
 4925SOL    HW126411   0.075   1.939  14.598  0.7988 -0.7895  0.7763
 4925SOL    HW226412   0.084   1.994  14.737 -0.4535  0.3498  0.2902
 4926SOL     OW26413   3.256   0.331  11.997 -0.0079 -0.0983 -0.0126
 4926SOL    HW126414   3.313   0.295  11.929  0.5662  0.1679  0.3288
 4926SOL    HW226415   3.318   0.389  12.041 -1.0219 -0.5914  2.0975
 4927SOL     OW26416   3.178   2.202   5.141  0.0910 -0.1759  0.4048
 4927SOL    HW126417   3.263   2.218   5.101 -1.8073  0.2111 -3.4976
 4927SOL    HW226418   3.121   2.231   5.070 -1.3510 -2.0983  0.7804
 4928SOL     OW26419   3.708   1.852  12.316 -0.1871 -0.8654 -0.4826
 4928SOL    HW126420   3.676   1.931  12.359 -1.3734 -0.6609 -1.7377
 4928SOL    HW226421   3.660   1.786  12.366 -1.0796 -0.3280 -0.6306
 4929SOL     OW26422   1.543   4.518   5.470  0.2123  0.5157 -0.2505
 4929SOL    HW126423   1.580   4.476   5.392 -2.3365 -0.3177 -1.0067
 4929SOL    HW226424   1.463   4.467   5.482  0.3744  0.4576  0.6164
 4930SOL     OW26425   2.503   0.045   7.732  0.3678  0.0912 -0.2304
 4930SOL    HW126426   2.482   4.690   7.712  3.4136 -0.6563 -0.0264
 4930SOL    HW226427   2.470   0.047   7.822  1.2545 -2.1692  0.1499
 4931SOL     OW26428   2.944   1.558   2.745 -0.0117  1.0115  0.0980
 4931SOL    HW126429   2.986   1.478   2.714 -0.6167  0.8181 -0.2306
 4931SOL    HW226430   2.998   1.626   2.704  2.9891 -0.1518  2.1050
 4932SOL     OW26431   0.736   0.552   5.582  0.0130  0.4953  0.2879
 4932SOL    HW126432   0.728   0.593   5.496  1.2686  1.1591  0.4824
 4932SOL    HW226433   0.789   0.474   5.563 -0.2416  0.6764 -1.1948
 4933SOL     OW26434   2.627   0.598   7.238 -0.0805  0.4684  0.7949
 4933SOL    HW126435   2.613   0.504   7.247  2.0009 -0.0147 -0.9758
 4933SOL    HW226436   2.545   0.627   7.198  0.5960  0.1661 -0.8053
 4934SOL     OW26437   2.328   1.255   0.379 -0.3653  0.3667  0.6513
 4934SOL    HW126438   2.269   1.326   0.356  0.1904  1.8014  3.6767
 4934SOL    HW226439   2.260   1.195   0.410  0.1717 -0.6776 -0.1716
 4935SOL     OW26440   2.265   3.272   5.245 -0.4291  0.7945 -0.0284
 4935SOL    HW126441   2.246   3.236   5.158  0.4387  0.6376 -0.1541
 4935SOL    HW226442   2.338   3.331   5.226  1.9712 -2.5082 -1.0586
 4936SOL     OW26443   0.168   0.821   5.182 -0.0425  0.0364 -0.1469
 4936SOL    HW126444   0.174   0.768   5.261  3.0929 -0.7759 -0.9595
 4936SOL    HW226445   0.074   0.815   5.162 -0.1538  0.4893  0.2417
 4937SOL     OW26446   3.839   0.524   5.509  0.0119  0.1861  0.4079
 4937SOL    HW126447   3.824   0.578   5.432 -1.8963  0.1458  0.7472
 4937SOL    HW226448   3.933   0.520   5.524  0.1261  3.6484  0.6299
 4938SOL     OW26449   1.796   2.758   2.608 -0.1910 -0.1276  0.2527
 4938SOL    HW126450   1.870   2.700   2.630  0.3207  0.5579  0.3389
 4938SOL    HW226451   1.741   2.732   2.682 -1.1199 -0.7052 -0.6419
 4939SOL     OW26452   2.530   1.917   6.035  0.0131  0.3706 -0.0877
 4939SOL    HW126453   2.555   1.930   5.943  2.6765 -2.4957  0.2105
 4939SOL    HW226454   2.618   1.903   6.071 -0.0784 -0.3052 -0.1284
 4940SOL     OW26455   4.597   0.786  14.741  0.1616 -0.1578  0.0267
 4940SOL    HW126456   4.572   0.749  14.825  0.7826  0.2406  0.3839
 4940SOL    HW226457   4.624   0.703  14.702 -1.0041  0.2084 -1.5657
 4941SOL     OW26458   0.459   0.668   6.587 -0.1837 -0.4014  0.5852
 4941SOL    HW126459   0.401   0.627   6.523  0.6641 -1.0648  0.2505
 4941SOL    HW226460   0.542   0.627   6.564 -0.9653 -1.9552  0.5676
 4942SOL     OW26461   1.894   0.188   8.129 -0.5271  0.3375  0.2535
 4942SOL    HW126462   1.921   0.192   8.221  1.2488 -2.9828 -0.0958
 4942SOL    HW226463   1.915   0.276   8.098 -0.1154 -0.2597 -1.2030
 4943SOL     OW26464   0.276   2.397   6.618 -0.4638 -0.0303  0.1776
 4943SOL    HW126465   0.297   2.478   6.664  1.8613 -0.1140 -0.7203
 4943SOL    HW226466   0.294   2.407   6.524  1.3516 -2.9827  0.2132
 4944SOL     OW26467   0.479   0.903   5.252 -0.0077 -0.1246  0.0862
 4944SOL    HW126468   0.449   0.964   5.319  2.0489  1.3208 -0.3276
 4944SOL    HW226469   0.424   0.932   5.180  1.1594 -1.8552 -1.4831
 4945SOL     OW26470   3.057   4.349   6.165  0.4651 -0.2501  0.5009
 4945SOL    HW126471   2.978   4.299   6.146  1.9861 -1.8001 -1.7348
 4945SOL    HW226472   3.117   4.287   6.205 -0.2813 -1.3910 -0.1669
 4946SOL     OW26473   0.126   1.200   2.938  0.2572 -0.4705 -0.4350
 4946SOL    HW126474   0.083   1.177   3.020  2.6698  0.2546  1.0301
 4946SOL    HW226475   0.135   1.118   2.890  0.1809 -0.8563  0.2043
 4947SOL     OW26476   1.884   3.318   5.825 -0.1761 -0.2737 -0.2674
 4947SOL    HW126477   1.857   3.226   5.820 -0.8166 -0.2202  2.0162
 4947SOL    HW226478   1.796   3.354   5.843  1.1705  1.7901  2.2522
 4948SOL     OW26479   0.796   3.283   5.296  0.2682  0.0878 -0.5062
 4948SOL    HW126480   0.739   3.267   5.371 -0.7441  1.8609 -0.8924
 4948SOL    HW226481   0.735   3.270   5.224  1.1400  2.6047 -1.7164
 4949SOL     OW26482   2.473   0.222  10.172  0.3248  0.4609 -0.1387
 4949SOL    HW126483   2.556   0.263  10.195  0.2388  0.0485  0.9437
 4949SOL    HW226484   2.434   0.198  10.256 -0.9064 -1.7873 -1.3520
 4950SOL     OW26485   2.901   0.837   3.631 -0.1832  0.2978 -0.2171
 4950SOL    HW126486   2.908   0.916   3.576  0.2349 -1.6027 -2.8891
 4950SOL    HW226487   2.942   0.863   3.713 -1.0657  0.0014  0.3182
 4951SOL     OW26488   3.634   2.796   8.291 -0.2232  0.2318  0.7096
 4951SOL    HW126489   3.673   2.743   8.221 -2.3067 -0.0125 -0.2586
 4951SOL    HW226490   3.585   2.863   8.243  1.7930  1.6202  0.5871
 4952SOL     OW26491   3.044   1.125   3.480 -0.5753 -0.1837 -0.0172
 4952SOL    HW126492   3.073   1.177   3.554 -3.0719  1.0257  0.1225
 4952SOL    HW226493   3.109   1.055   3.482 -1.0204 -0.5900  0.4389
 4953SOL     OW26494   4.397   1.180  12.139 -0.1075 -0.5233  1.5391
 4953SOL    HW126495   4.414   1.165  12.046  1.4324  2.4340  1.3626
 4953SOL    HW226496   4.395   1.275  12.147  1.2548 -0.2159 -1.8530
 4954SOL     OW26497   0.855   3.479  17.375  0.8897  0.4965  0.2032
 4954SOL    HW126498   0.947   3.460  17.357  0.6728 -0.3914  0.0272
 4954SOL    HW226499   0.844   3.544  17.305  0.7551 -0.9219 -1.0902
 4955SOL     OW26500   0.032   3.403  12.879  0.4993  0.0539 -0.4428
 4955SOL    HW126501   0.072   3.320  12.904  0.3819  0.7800  2.1650
 4955SOL    HW226502   0.004   3.444  12.961 -1.0745  1.8157 -1.8623
 4956SOL     OW26503   0.596   0.730   0.443 -0.0528 -0.1980 -0.0755
 4956SOL    HW126504   0.657   0.804   0.442  0.6584 -0.7807  1.5782
 4956SOL    HW226505   0.622   0.682   0.364 -1.0474  0.1366 -0.6141
 4957SOL     OW26506   3.986   1.009   6.583  0.1187  0.1723 -0.0051
 4957SOL    HW126507   3.908   1.062   6.568 -0.0388 -0.1678 -0.4011
 4957SOL    HW226508   4.042   1.029   6.508 -0.4892  3.3374  0.3818
 4958SOL     OW26509   4.017   4.142   4.117 -0.1541  0.0697  0.7819
 4958SOL    HW126510   3.991   4.233   4.134 -2.3830 -0.6752  1.4336
 4958SOL    HW226511   4.079   4.125   4.188  0.7794 -0.1707 -0.0940
 4959SOL     OW26512   3.967   2.002   4.273  0.2877  0.2276  0.5102
 4959SOL    HW126513   3.936   1.914   4.250  1.1418  0.4500 -1.4729
 4959SOL    HW226514   3.992   1.995   4.365 -0.7025 -0.6189  0.7180
 4960SOL     OW26515   0.192   2.990   6.024  0.0421 -0.0653 -0.0156
 4960SOL    HW126516   0.114   2.982   5.969  0.7356  3.7833 -1.6174
 4960SOL    HW226517   0.254   3.022   5.959 -0.9844  0.4996 -0.7269
 4961SOL     OW26518   0.568   2.143   6.031  0.3483  0.2472  0.1668
 4961SOL    HW126519   0.650   2.096   6.046 -0.4986 -1.3984 -0.3994
 4961SOL    HW226520   0.523   2.146   6.116  0.0786 -2.5522  0.1163
 4962SOL     OW26521   3.323   2.333   4.461  0.3576 -0.6681  0.2468
 4962SOL    HW126522   3.334   2.243   4.430 -0.1824 -1.4350  2.2497
 4962SOL    HW226523   3.280   2.318   4.546 -0.6803 -0.1283 -0.1842
 4963SOL     OW26524   3.864   0.218   5.770 -0.0475 -0.0429  0.0135
 4963SOL    HW126525   3.870   0.199   5.676  3.4380  0.6504  0.0895
 4963SOL    HW226526   3.788   0.276   5.764 -1.9131 -2.2357  2.5722
 4964SOL     OW26527   4.214   0.168   4.125  0.5594  0.5759  0.0433
 4964SOL    HW126528   4.154   0.138   4.057  2.0264 -2.7113  0.1910
 4964SOL    HW226529   4.294   0.124   4.097 -1.6562 -2.3689 -1.6409
 4965SOL     OW26530   2.555   3.960   1.821  0.6288 -0.1244  0.0412
 4965SOL    HW126531   2.593   3.929   1.903  1.0307  0.4440  0.0664
 4965SOL    HW226532   2.463   3.937   1.837 -0.0170  1.6753 -1.1306
 4966SOL     OW26533   2.092   3.724  11.416  0.2180  0.0570  0.5001
 4966SOL    HW126534   2.074   3.769  11.333 -0.8412 -2.1979 -0.4790
 4966SOL    HW226535   2.083   3.801  11.473 -1.5832  0.8918 -0.8924
 4967SOL     OW26536   2.536   1.101   1.264 -0.5644  0.1120 -0.5987
 4967SOL    HW126537   2.594   1.119   1.338 -2.4841 -3.0434  1.6791
 4967SOL    HW226538   2.452   1.144   1.280 -0.6510  0.0237 -0.8082
 4968SOL     OW26539   2.690   3.986  10.235  0.0931  0.0469 -0.0327
 4968SOL    HW126540   2.724   3.898  10.249  3.4511  1.3666  0.3070
 4968SOL    HW226541   2.669   4.012  10.325 -3.2010  2.1100 -1.4410
 4969SOL     OW26542   1.798   4.381   4.779 -0.3435  0.6789  0.3371
 4969SOL    HW126543   1.837   4.430   4.852 -1.7272 -0.6290  1.9560
 4969SOL    HW226544   1.814   4.441   4.706  0.3788  0.6501  0.4678
 4970SOL     OW26545   0.989   3.431   6.928  0.6518  0.3304 -0.6285
 4970SOL    HW126546   0.924   3.389   6.871  1.2585 -1.0814 -0.2744
 4970SOL    HW226547   1.032   3.490   6.866 -4.1238  0.6807 -3.6751
 4971SOL     OW26548   2.368   0.721   7.939 -0.0898 -0.1018  0.2572
 4971SOL    HW126549   2.447   0.680   7.974  0.6099  1.0905  0.0727
 4971SOL    HW226550   2.326   0.639   7.912 -1.0498 -0.0375  1.5425
 4972SOL     OW26551   1.891   3.425   3.426 -0.3822 -0.2662  0.0088
 4972SOL    HW126552   1.862   3.365   3.358  0.9114 -0.3376 -0.4615
 4972SOL    HW226553   1.810   3.424   3.479 -0.6114  0.3725 -0.3399
 4973SOL     OW26554   1.119   3.302   5.711 -0.3733  0.1097 -0.3709
 4973SOL    HW126555   1.097   3.209   5.701 -0.1075 -0.1480  1.4579
 4973SOL    HW226556   1.195   3.305   5.653 -1.1916  2.4320 -1.3144
 4974SOL     OW26557   2.581   4.119   1.583  0.3662  0.5951 -0.0389
 4974SOL    HW126558   2.497   4.161   1.598  1.3675  1.8684  2.0943
 4974SOL    HW226559   2.591   4.058   1.656 -1.1021 -0.4463 -0.7231
 4975SOL     OW26560   4.195   2.993   3.137 -0.3336  0.1376 -0.2410
 4975SOL    HW126561   4.261   2.982   3.205 -1.2521 -0.6709  0.5244
 4975SOL    HW226562   4.249   2.993   3.057 -2.0309  0.4585 -1.3986
 4976SOL     OW26563   3.205   0.322   5.250 -0.1498  0.8257 -0.0417
 4976SOL    HW126564   3.261   0.284   5.183  2.6031  1.1281  2.0823
 4976SOL    HW226565   3.263   0.386   5.291  1.4922 -0.4236 -0.4586
 4977SOL     OW26566   1.023   4.266   2.760 -0.4435  0.4446  0.9026
 4977SOL    HW126567   1.032   4.335   2.826 -0.8370  0.3536  1.0495
 4977SOL    HW226568   1.015   4.313   2.676  2.4189 -2.2205 -0.8474
 4978SOL     OW26569   0.488   1.890  12.024  0.0078 -0.7694  0.1946
 4978SOL    HW126570   0.547   1.829  11.980  3.5936  3.3415 -0.6503
 4978SOL    HW226571   0.554   1.959  12.030 -0.4039 -0.5175  2.0497
 4979SOL     OW26572   1.783   4.129   6.130  0.5339  0.1504  0.2291
 4979SOL    HW126573   1.782   4.034   6.131  0.6026  0.1270 -1.9848
 4979SOL    HW226574   1.759   4.141   6.038  0.2868  1.1466  0.4194
 4980SOL     OW26575   4.699   2.414   6.853  0.2183 -0.1533 -0.0248
 4980SOL    HW126576   4.673   2.322   6.862 -1.0606  0.2452  0.2823
 4980SOL    HW226577   4.645   2.449   6.923 -0.0063  1.1104 -0.8302
 4981SOL     OW26578   2.222   0.929   4.580 -0.0883 -0.3662  0.0673
 4981SOL    HW126579   2.272   0.923   4.498  0.1159 -2.9737  0.3720
 4981SOL    HW226580   2.245   1.016   4.613 -0.9236  0.5914 -1.8211
 4982SOL     OW26581   3.307   4.698  10.683  0.1653 -0.1845  0.2557
 4982SOL    HW126582   3.335   4.612  10.713 -1.2699 -0.2131  1.4907
 4982SOL    HW226583   3.251   4.685  10.606 -1.6964  0.0346  1.5980
 4983SOL     OW26584   2.770   3.036   4.536  0.7267  0.5685  0.0607
 4983SOL    HW126585   2.841   2.972   4.548 -0.5984 -1.4063 -2.5224
 4983SOL    HW226586   2.809   3.109   4.582 -0.0080  0.6551  0.5472
 4984SOL     OW26587   4.465   3.024   4.365  0.1905  0.0995 -0.4006
 4984SOL    HW126588   4.389   2.974   4.335 -0.4109  1.1239 -0.5910
 4984SOL    HW226589   4.545   2.983   4.334  0.1613  0.3346 -0.7835
 4985SOL     OW26590   2.620   0.186   7.019 -0.2883 -0.1219 -0.0911
 4985SOL    HW126591   2.568   0.229   7.087 -2.1852 -2.5621  0.0438
 4985SOL    HW226592   2.700   0.235   7.034 -0.2794 -0.1204 -0.1470
 4986SOL     OW26593   3.594   1.596   3.902  0.7830 -0.1033 -0.3953
 4986SOL    HW126594   3.561   1.599   3.812  0.5616  1.8709 -0.2510
 4986SOL    HW226595   3.592   1.501   3.909  0.8777 -0.2235 -1.8610
 4987SOL     OW26596   1.826   3.081   8.151  0.0345 -0.0549  0.1024
 4987SOL    HW126597   1.839   3.032   8.070 -2.9727 -1.0941  0.2300
 4987SOL    HW226598   1.859   3.030   8.225 -0.1671 -1.1996 -0.6031
 4988SOL     OW26599   1.250   4.548  14.479 -0.5514 -0.1975  0.0293
 4988SOL    HW126600   1.190   4.512  14.545 -0.2503 -0.2750  0.2561
 4988SOL    HW226601   1.218   4.637  14.490  1.3364  0.3164  1.3304
 4989SOL     OW26602   4.567   0.443   3.058 -0.0398  0.1079 -0.0203
 4989SOL    HW126603   4.622   0.513   3.094  0.3830 -0.5257  0.5758
 4989SOL    HW226604   4.543   0.398   3.139 -0.7640 -0.1200 -0.3688
 4990SOL     OW26605   1.381   1.997  15.374  0.0715  0.4463  0.2052
 4990SOL    HW126606   1.340   1.989  15.460 -0.7784 -0.8587 -0.3263
 4990SOL    HW226607   1.397   1.905  15.355  1.3784  0.8431 -0.6266
 4991SOL     OW26608   3.126   0.755  17.385  0.5267  0.0820 -0.8771
 4991SOL    HW126609   3.221   0.741  17.378  0.7769  1.7770 -0.8376
 4991SOL    HW226610   3.081   0.689  17.333 -1.1743 -0.3490  1.1428
 4992SOL     OW26611   0.970   2.673   6.475 -0.6742  0.2344 -0.2702
 4992SOL    HW126612   1.065   2.671   6.467 -0.6351  3.2800 -0.3812
 4992SOL    HW226613   0.945   2.713   6.392  0.2637  2.4300  0.4939
 4993SOL     OW26614   3.537   1.192   2.949 -0.2570  0.1431 -0.6395
 4993SOL    HW126615   3.596   1.262   2.924  0.2433  0.1561  0.5775
 4993SOL    HW226616   3.557   1.181   3.042 -0.1841  0.8193 -0.5773
 4994SOL     OW26617   3.333   1.863   8.205  0.0456 -0.0289  0.2247
 4994SOL    HW126618   3.410   1.904   8.244 -1.3345  2.3799  0.4408
 4994SOL    HW226619   3.279   1.862   8.284 -0.3435  2.6452  0.0215
 4995SOL     OW26620   1.594   1.000   8.018 -0.5514 -0.0869 -0.3120
 4995SOL    HW126621   1.660   0.984   7.951 -0.9486 -2.1383 -0.2160
 4995SOL    HW226622   1.605   0.930   8.082 -2.2832  2.9122  3.2366
 4996SOL     OW26623   2.539   1.483   1.129  0.0635  0.9048 -0.1127
 4996SOL    HW126624   2.492   1.451   1.207 -1.5485  1.9684 -0.6370
 4996SOL    HW226625   2.519   1.577   1.128 -0.3387  0.7946 -2.2996
 4997SOL     OW26626   0.096   4.212  11.460  0.2170 -0.1117  0.2892
 4997SOL    HW126627   0.006   4.195  11.431 -0.0347  1.7158 -0.0004
 4997SOL    HW226628   0.096   4.162  11.542 -1.5640 -1.3216 -0.4488
 4998SOL     OW26629   2.033   1.581   0.780  0.3468  0.5163  0.5115
 4998SOL    HW126630   1.957   1.631   0.811  1.4765  2.8658 -0.5007
 4998SOL    HW226631   2.011   1.494   0.813 -1.5493  0.7422 -0.1573
 4999SOL     OW26632   2.557   1.108  11.347  0.0350 -0.3178 -0.6624
 4999SOL    HW126633   2.476   1.159  11.345 -0.4754 -1.0122  1.3053
 4999SOL    HW226634   2.611   1.140  11.275 -1.9625  0.2669 -1.8883
 5000SOL     OW26635   2.881   3.084  10.765  0.4770 -0.1511  0.3990
 5000SOL    HW126636   2.864   2.992  10.747  1.2689  0.0036 -1.2275
 5000SOL    HW226637   2.972   3.086  10.735  0.6873 -1.0544  1.0031
 5001SOL     OW26638   4.424   0.714   3.898 -0.2494 -0.3819 -0.5694
 5001SOL    HW126639   4.492   0.778   3.875 -1.8078  2.0428  1.6441
 5001SOL    HW226640   4.450   0.684   3.986 -0.3238 -1.8212 -1.0435
 5002SOL     OW26641   4.417   3.274  10.423  0.0670 -0.1540 -0.3453
 5002SOL    HW126642   4.508   3.305  10.418  0.1411 -0.1031  1.5134
 5002SOL    HW226643   4.438   3.211  10.492 -0.8062 -1.0958 -0.9458
 5003SOL     OW26644   1.931   0.279  11.460  0.4994  0.3361 -0.1737
 5003SOL    HW126645   1.861   0.321  11.410  0.6057  1.1922  0.3995
 5003SOL    HW226646   1.954   0.207  11.402  1.1291  1.0905 -0.8481
 5004SOL     OW26647   0.764   0.153   7.849  0.3422 -0.2747  0.0576
 5004SOL    HW126648   0.688   0.185   7.897 -0.5007  0.7123 -1.9620
 5004SOL    HW226649   0.791   0.239   7.817 -0.5162  0.0064  0.1122
 5005SOL     OW26650   2.884   2.072  16.090 -0.4031  0.2015  0.2973
 5005SOL    HW126651   2.916   2.013  16.022 -0.8896  0.9572 -0.5957
 5005SOL    HW226652   2.873   2.153  16.040 -0.1589 -0.7263 -1.2492
 5006SOL     OW26653   1.549   3.894   4.070  0.0208  0.7979 -0.6867
 5006SOL    HW126654   1.601   3.866   4.145 -0.4152  2.9655  0.4375
 5006SOL    HW226655   1.461   3.866   4.094  0.4743 -0.7508 -0.8223
 5007SOL     OW26656   0.210   2.904   9.320 -0.5008 -0.8190  0.1378
 5007SOL    HW126657   0.230   2.998   9.323  2.2098 -1.3441 -1.3608
 5007SOL    HW226658   0.261   2.878   9.397  1.8330 -0.4483 -1.2985
 5008SOL     OW26659   3.634   2.654  15.416 -0.0039 -0.2191 -0.7668
 5008SOL    HW126660   3.543   2.673  15.439  0.0467 -1.9578  0.8745
 5008SOL    HW226661   3.688   2.722  15.457 -2.1189 -0.6276  2.6967
 5009SOL     OW26662   0.351   1.730  14.827 -0.2628  0.1905  0.3761
 5009SOL    HW126663   0.382   1.812  14.788 -0.9451  0.3163  0.1132
 5009SOL    HW226664   0.401   1.663  14.780  1.7898 -1.0397  4.2022
 5010SOL     OW26665   0.574   3.953   1.789  0.4096 -0.1069  0.1242
 5010SOL    HW126666   0.615   3.987   1.869  0.3571 -0.3950  0.2716
 5010SOL    HW226667   0.607   4.021   1.729 -0.8907  0.2337 -0.1888
 5011SOL     OW26668   4.329   0.839   7.751  0.4360 -0.0335 -0.0670
 5011SOL    HW126669   4.375   0.921   7.732 -0.2845  0.3760 -0.0269
 5011SOL    HW226670   4.257   0.870   7.805  0.3762  1.5144 -1.0083
 5012SOL     OW26671   2.113   4.497   2.983  0.2796  0.4646 -0.3192
 5012SOL    HW126672   2.175   4.425   2.968 -0.3783 -0.0229 -0.7112
 5012SOL    HW226673   2.122   4.548   2.903 -1.4832  2.2639  0.6297
 5013SOL     OW26674   2.323   0.878   6.923 -0.3771 -0.0425 -0.2678
 5013SOL    HW126675   2.383   0.952   6.928  0.5683 -0.7304 -1.1968
 5013SOL    HW226676   2.238   0.910   6.953  0.6700  0.5219  2.0917
 5014SOL     OW26677   1.607   2.435   8.355 -0.1513 -0.0822 -0.0575
 5014SOL    HW126678   1.627   2.384   8.276  0.7475 -1.8957  1.3452
 5014SOL    HW226679   1.511   2.430   8.348 -0.0101  0.0188 -1.9993
 5015SOL     OW26680   0.445   1.245   4.739  0.3460 -0.0461 -0.4557
 5015SOL    HW126681   0.385   1.318   4.758  2.2104  1.7478 -1.4487
 5015SOL    HW226682   0.397   1.170   4.774 -0.5586  0.3316 -0.8765
 5016SOL     OW26683   1.732   0.820   0.964  0.8748  0.3749  0.5065
 5016SOL    HW126684   1.778   0.779   0.890 -1.3372  2.0522 -1.8006
 5016SOL    HW226685   1.683   0.741   0.989 -1.7917  1.3481 -1.7162
 5017SOL     OW26686   2.068   0.215   0.596 -0.0057  0.3045  0.1909
 5017SOL    HW126687   2.152   0.240   0.635 -0.0707 -0.6031  0.9081
 5017SOL    HW226688   2.086   0.193   0.504 -2.3256 -0.7894  0.0033
 5018SOL     OW26689   3.296   2.228   7.867  0.3522  0.1497  0.3398
 5018SOL    HW126690   3.317   2.163   7.800 -1.0934  1.6611 -1.5564
 5018SOL    HW226691   3.258   2.298   7.815 -0.1515 -0.0838  0.3892
 5019SOL     OW26692   1.733   2.973  13.785 -0.0876 -0.0117 -0.4642
 5019SOL    HW126693   1.798   3.043  13.775 -0.3343  0.2436 -0.2924
 5019SOL    HW226694   1.649   3.013  13.762 -0.5926 -0.9118 -0.1797
 5020SOL     OW26695   2.474   2.744   0.003  0.1560 -0.2531 -0.2459
 5020SOL    HW126696   2.477   2.839   0.000  2.4245 -0.3810 -1.8221
 5020SOL    HW226697   2.464   2.727   0.097  2.2218 -3.4172 -0.5708
 5021SOL     OW26698   3.442   0.886   2.656  0.4379 -0.3374 -0.3571
 5021SOL    HW126699   3.421   0.980   2.659 -1.2109 -0.7723  1.5440
 5021SOL    HW226700   3.457   0.871   2.562 -2.0259 -1.0563 -0.6463
 5022SOL     OW26701   4.323   0.504   5.006  0.6821  0.2593 -0.1555
 5022SOL    HW126702   4.328   0.409   5.009 -2.0258  0.0838 -0.6952
 5022SOL    HW226703   4.286   0.512   4.918  1.2304 -0.3334 -0.4330
 5023SOL     OW26704   0.155   2.284  16.853  0.4366  0.2656  0.1954
 5023SOL    HW126705   0.203   2.225  16.795  0.8575  1.1040 -0.3017
 5023SOL    HW226706   0.126   2.226  16.923 -0.8900  0.5397 -0.1266
 5024SOL     OW26707   3.254   4.210  15.452  0.1807 -0.7376 -0.0069
 5024SOL    HW126708   3.317   4.247  15.514 -1.4937  2.0322  0.0479
 5024SOL    HW226709   3.220   4.282  15.399 -0.1853 -0.1914  0.9672
 5025SOL     OW26710   3.200   2.291   2.463 -0.1458  0.3549  0.5440
 5025SOL    HW126711   3.135   2.264   2.528  1.5970  0.0630  2.1663
 5025SOL    HW226712   3.234   2.211   2.423  1.4396  1.5968 -0.5796
 5026SOL     OW26713   2.918   0.716   8.138 -0.2872 -0.1582 -0.0445
 5026SOL    HW126714   2.925   0.785   8.204  1.4818 -2.0880  1.8221
 5026SOL    HW226715   2.905   0.645   8.201  0.9703  0.5350  0.9960
 5027SOL     OW26716   2.491   2.955   7.047  0.8194  0.4403 -0.0753
 5027SOL    HW126717   2.564   3.011   7.019 -0.3534  0.5043 -2.9574
 5027SOL    HW226718   2.536   2.872   7.032  0.5547 -0.0177  1.6055
 5028SOL     OW26719   3.257   0.211  11.475  0.7058  0.2528  0.3610
 5028SOL    HW126720   3.242   0.123  11.509  0.0532  0.6535  1.0975
 5028SOL    HW226721   3.331   0.198  11.417  0.2062 -1.9496  0.2263
 5029SOL     OW26722   0.094   0.139   3.918 -0.1913  0.0287 -0.7585
 5029SOL    HW126723   0.172   0.084   3.930 -0.3421 -0.1929 -0.8160
 5029SOL    HW226724   0.102   0.148   3.823 -0.4401 -0.5791 -0.8370
 5030SOL     OW26725   3.008   1.957  12.775 -0.0863 -0.2120  0.4138
 5030SOL    HW126726   2.951   1.979  12.849 -1.2151  1.9589 -1.1045
 5030SOL    HW226727   3.082   1.933  12.831  1.3700  1.3379 -0.8363
 5031SOL     OW26728   3.092   0.181   2.618 -0.1219 -0.2426  0.5758
 5031SOL    HW126729   3.047   0.097   2.618  0.7238 -0.7045 -0.0642
 5031SOL    HW226730   3.102   0.202   2.525  2.0237  4.0826  1.7393
 5032SOL     OW26731   0.681   1.075   5.046  0.9222 -0.0037 -0.3025
 5032SOL    HW126732   0.715   0.988   5.065  1.0491 -0.3345 -2.0303
 5032SOL    HW226733   0.664   1.067   4.952 -2.6583  0.2660  0.3156
 5033SOL     OW26734   1.894   3.954  11.745 -0.4327  0.0228 -0.2336
 5033SOL    HW126735   1.821   3.895  11.725  1.6634 -1.5050 -3.4388
 5033SOL    HW226736   1.961   3.890  11.766  1.3282  1.1685 -2.3439
 5034SOL     OW26737   0.492   2.163  14.657  0.1481  0.1850  0.0456
 5034SOL    HW126738   0.445   2.237  14.617 -1.4461  0.0725  1.7166
 5034SOL    HW226739   0.583   2.164  14.629  0.2034 -2.1405  0.1627
 5035SOL     OW26740   2.965   3.958   3.471  0.4201 -0.0350 -0.7010
 5035SOL    HW126741   2.899   4.024   3.490 -0.8280 -0.4772 -3.4670
 5035SOL    HW226742   2.963   3.969   3.376 -0.8457  1.2672 -0.5171
 5036SOL     OW26743   0.853   3.816   8.789 -0.8188 -0.3711  0.1577
 5036SOL    HW126744   0.881   3.901   8.754  0.2117 -1.1534 -0.9096
 5036SOL    HW226745   0.872   3.764   8.711 -0.5810 -2.1472  1.3974
 5037SOL     OW26746   3.174   2.577   1.840 -0.1860 -0.3650  0.0078
 5037SOL    HW126747   3.236   2.554   1.910  0.1005  0.0585 -0.1063
 5037SOL    HW226748   3.199   2.668   1.824 -3.4508  0.5212 -0.0305
 5038SOL     OW26749   4.056   0.860   8.216 -0.3058  0.3148 -0.2953
 5038SOL    HW126750   4.062   0.883   8.308  0.1295  1.0244 -0.5048
 5038SOL    HW226751   4.038   0.768   8.234 -0.0350  0.1769 -0.7273
 5039SOL     OW26752   4.458   4.247   1.830  0.1835 -0.9574  0.3474
 5039SOL    HW126753   4.376   4.293   1.848  1.6433  1.4409  0.8747
 5039SOL    HW226754   4.417   4.166   1.801 -2.6144  0.1224  1.3223
 5040SOL     OW26755   4.537   3.809   3.564 -0.1177 -0.1075 -0.3332
 5040SOL    HW126756   4.506   3.854   3.485 -0.3345 -0.2096 -0.3073
 5040SOL    HW226757   4.561   3.875   3.629  0.9947  1.9517 -2.8274
 5041SOL     OW26758   2.486   4.428  11.023 -0.1870 -0.1903 -0.4645
 5041SOL    HW126759   2.553   4.428  10.954 -0.7004 -1.1717 -0.9641
 5041SOL    HW226760   2.430   4.501  10.997 -0.0119 -0.5228 -1.7884
 5042SOL     OW26761   4.474   0.224   4.658  0.3341 -0.0432  0.2381
 5042SOL    HW126762   4.379   0.225   4.646  0.6244  0.3498 -1.9171
 5042SOL    HW226763   4.509   0.168   4.589  1.3843  0.5489  0.3009
 5043SOL     OW26764   3.252   3.946   8.550 -0.5593  0.4162 -0.0427
 5043SOL    HW126765   3.298   4.008   8.605  1.2348 -0.7566 -0.2355
 5043SOL    HW226766   3.327   3.892   8.526 -0.9085 -0.0319 -0.1378
 5044SOL     OW26767   0.140   4.042  14.789  0.1436 -0.2201 -0.1753
 5044SOL    HW126768   0.220   4.010  14.831 -0.9766 -0.8172  1.5196
 5044SOL    HW226769   0.082   3.998  14.852 -0.8273  1.6488  0.2449
 5045SOL     OW26770   4.228   1.491   5.563 -0.0994 -0.1632  0.2084
 5045SOL    HW126771   4.176   1.501   5.643 -0.2423  1.0183 -0.0343
 5045SOL    HW226772   4.219   1.578   5.524  0.3015  0.3343  1.2139
 5046SOL     OW26773   3.418   3.930   7.075  0.1231 -0.2312 -0.2160
 5046SOL    HW126774   3.422   3.996   7.005  3.3287  1.9972  2.0808
 5046SOL    HW226775   3.326   3.906   7.062  0.3316 -0.1498 -1.8193
 5047SOL     OW26776   0.233   1.130  14.079  0.1179  0.4871  0.3185
 5047SOL    HW126777   0.247   1.108  13.987  0.4526  2.0145  0.0072
 5047SOL    HW226778   0.139   1.147  14.079 -0.1359 -0.8688  1.9278
 5048SOL     OW26779   2.148   1.029   9.659  0.1022  0.5762 -0.9137
 5048SOL    HW126780   2.189   1.046   9.744  0.0457 -1.0145 -0.5803
 5048SOL    HW226781   2.061   1.058   9.684  0.4809 -1.8302  3.1724
 5049SOL     OW26782   0.714   3.665   0.677  0.6581 -0.2216 -0.1528
 5049SOL    HW126783   0.726   3.686   0.769  0.4698 -0.9412  0.0340
 5049SOL    HW226784   0.756   3.739   0.633  0.2049 -0.2029 -0.5540
 5050SOL     OW26785   0.640   3.534   6.023 -0.7539 -0.0223 -0.1974
 5050SOL    HW126786   0.705   3.507   5.958 -0.7881  0.4019 -0.4102
 5050SOL    HW226787   0.604   3.607   5.973  1.3711  1.4497  0.4240
 5051SOL     OW26788   4.365   1.243   5.257  0.0370 -0.0377  0.0135
 5051SOL    HW126789   4.355   1.328   5.214 -0.1951  0.3997  0.9335
 5051SOL    HW226790   4.271   1.226   5.261 -0.3216  1.6579 -1.2516
 5052SOL     OW26791   2.751   0.052   5.630 -0.3250 -0.2351 -0.0542
 5052SOL    HW126792   2.772   0.096   5.713  0.4179 -1.1784  0.2662
 5052SOL    HW226793   2.722   4.702   5.661 -0.3431 -0.1405  0.1929
 5053SOL     OW26794   4.723   1.456  12.612  0.1616 -0.2277  0.0957
 5053SOL    HW126795   4.688   1.368  12.626 -1.9766  0.3013 -1.8273
 5053SOL    HW226796   0.078   1.430  12.617  0.2701  0.2970  0.9355
 5054SOL     OW26797   0.671   2.096  13.396 -0.0250 -0.0121 -0.5028
 5054SOL    HW126798   0.623   2.177  13.381  0.1258  0.0785 -0.4987
 5054SOL    HW226799   0.598   2.039  13.421  0.1589 -0.1287 -0.2251
 5055SOL     OW26800   1.181   1.125   0.859  0.0979 -0.1238 -0.0306
 5055SOL    HW126801   1.205   1.033   0.871  1.4327  0.4515  1.7762
 5055SOL    HW226802   1.229   1.159   0.935  1.1716 -0.2893 -0.6448
 5056SOL     OW26803   2.685   4.369   2.191  0.4885  0.6451 -0.2455
 5056SOL    HW126804   2.707   4.384   2.283  0.5470 -0.6403 -0.0571
 5056SOL    HW226805   2.646   4.455   2.177  2.2584  1.5228  0.1434
 5057SOL     OW26806   0.984   3.948  13.608  0.1896 -0.1998  0.2731
 5057SOL    HW126807   0.999   4.042  13.618  0.1715 -0.0505 -1.2229
 5057SOL    HW226808   1.025   3.918  13.690  0.7054  0.3369  0.2098
 5058SOL     OW26809   1.977   1.804   9.402  0.4266 -0.1977  0.3939
 5058SOL    HW126810   2.031   1.871   9.443 -0.5522  2.0129 -1.9411
 5058SOL    HW226811   1.895   1.804   9.451 -0.3602  3.8482 -0.9313
 5059SOL     OW26812   0.223   2.943  14.670 -0.7790 -0.1671 -0.2325
 5059SOL    HW126813   0.145   2.919  14.719  0.2948 -1.3791  0.8956
 5059SOL    HW226814   0.287   2.971  14.736 -1.3347 -2.0898  1.1259
 5060SOL     OW26815   0.015   1.272   7.091 -0.1203 -0.2292 -0.1339
 5060SOL    HW126816   0.005   1.182   7.120  0.8945  0.7499  3.2109
 5060SOL    HW226817   4.685   1.269   7.021  1.3390 -0.1801 -1.5023
 5061SOL     OW26818   3.439   3.213   4.869 -0.7552  0.0359 -0.0285
 5061SOL    HW126819   3.420   3.143   4.932  0.2467 -0.2661 -0.0548
 5061SOL    HW226820   3.394   3.179   4.792 -2.0869  0.9231  0.3620
 5062SOL     OW26821   1.469   3.708  14.470  0.0273  0.1745 -0.8933
 5062SOL    HW126822   1.455   3.645  14.541  0.3081 -1.1011 -1.9876
 5062SOL    HW226823   1.541   3.659  14.431 -0.0733  1.0172 -2.1488
 5063SOL     OW26824   1.582   4.668   8.298  0.2132  0.1517 -0.0950
 5063SOL    HW126825   1.640   4.597   8.271  1.9238  1.5835 -0.1860
 5063SOL    HW226826   1.517   4.679   8.229 -0.4036  0.3849  0.5221
 5064SOL     OW26827   2.371   0.453   6.769 -0.0239  0.4269 -0.4568
 5064SOL    HW126828   2.375   0.365   6.808 -0.5183  0.5083 -0.2214
 5064SOL    HW226829   2.449   0.450   6.714 -0.0241  0.3675 -0.4537
 5065SOL     OW26830   4.632   0.187  12.017 -0.2898  0.0921  0.0550
 5065SOL    HW126831   4.681   0.111  11.986 -0.6428 -0.2357  0.2967
 5065SOL    HW226832   4.620   0.164  12.109  1.8232  1.4144  0.6477
 5066SOL     OW26833   1.261   0.053   1.394  0.6719 -0.4680 -0.6907
 5066SOL    HW126834   1.338   4.735   1.375 -0.2708 -1.9839 -0.2539
 5066SOL    HW226835   1.283   0.128   1.339  1.1447  0.3092  0.5695
 5067SOL     OW26836   2.411   1.900   4.064  0.1631  0.0283 -0.0632
 5067SOL    HW126837   2.487   1.948   4.098 -0.8697  0.8283  1.1282
 5067SOL    HW226838   2.349   1.970   4.043 -0.2969  0.6140  3.2115
 5068SOL     OW26839   2.593   3.140   6.532  0.5249  0.0836 -0.4092
 5068SOL    HW126840   2.616   3.183   6.450  3.6403 -0.6149  0.1073
 5068SOL    HW226841   2.500   3.117   6.532  0.2677  1.1288 -2.9069
 5069SOL     OW26842   3.731   2.545  11.601  0.4160  0.1716  0.1870
 5069SOL    HW126843   3.662   2.488  11.635 -0.1919 -0.4089 -2.0166
 5069SOL    HW226844   3.696   2.551  11.513  1.5532 -2.5067 -0.4654
 5070SOL     OW26845   1.241   4.345  14.053 -0.5800 -0.2883 -0.0154
 5070SOL    HW126846   1.320   4.296  14.029 -0.4351  0.4572 -1.0475
 5070SOL    HW226847   1.240   4.416  13.989 -1.4883  1.3090  1.7697
 5071SOL     OW26848   3.627   1.994   6.045  0.3322 -0.2180  0.0825
 5071SOL    HW126849   3.633   1.967   6.137 -2.7226  3.4868  1.3725
 5071SOL    HW226850   3.532   1.984   6.032  0.5314 -0.5323 -1.1241
 5072SOL     OW26851   3.513   2.378   9.990 -0.4049 -0.0623  0.5052
 5072SOL    HW126852   3.606   2.372   9.968 -0.3920 -1.3249  0.9080
 5072SOL    HW226853   3.475   2.324   9.921 -0.7651  0.4947  0.2669
 5073SOL     OW26854   1.923   0.260  17.243  0.0482  0.5980  0.4618
 5073SOL    HW126855   1.887   0.328  17.299 -0.3249 -1.0248  2.1912
 5073SOL    HW226856   1.865   0.185  17.258 -0.2222  0.8062  0.4466
 5074SOL     OW26857   0.605   4.040   5.444 -0.3731  0.3393 -0.5811
 5074SOL    HW126858   0.521   4.087   5.448 -1.4310 -1.5757 -0.2657
 5074SOL    HW226859   0.593   3.993   5.361  0.3353  0.0682 -0.5275
 5075SOL     OW26860   4.411   3.503   5.616  0.6780 -0.0966 -0.1060
 5075SOL    HW126861   4.453   3.588   5.611 -0.4107  0.3728 -1.4463
 5075SOL    HW226862   4.485   3.444   5.630  0.9339  0.6096  1.4466
 5076SOL     OW26863   2.529   2.011   1.553  0.4185 -0.1037  0.4016
 5076SOL    HW126864   2.501   1.920   1.542 -2.2561  0.8573 -0.8537
 5076SOL    HW226865   2.552   2.030   1.644  0.5921 -0.6346  0.4712
 5077SOL     OW26866   1.285   1.475   8.347  0.6680  0.2321  0.3404
 5077SOL    HW126867   1.235   1.427   8.281  2.0614 -0.5660 -0.1199
 5077SOL    HW226868   1.374   1.458   8.318  0.4569 -1.7685  0.8766
 5078SOL     OW26869   2.081   0.602   8.199 -0.3536  0.3908  0.2832
 5078SOL    HW126870   2.128   0.658   8.137  1.2748 -1.5066 -0.2217
 5078SOL    HW226871   2.046   0.654   8.270 -1.3412  0.6352 -0.3838
 5079SOL     OW26872   3.369   2.513   2.026 -0.0550 -0.0769 -0.0044
 5079SOL    HW126873   3.340   2.469   2.106  0.0471  0.1177  0.1392
 5079SOL    HW226874   3.415   2.587   2.064 -0.9988  0.3288  0.3374
 5080SOL     OW26875   3.227   0.980   8.447  0.3769 -0.4140  0.0231
 5080SOL    HW126876   3.303   1.023   8.487 -0.5545  0.2712  1.0678
 5080SOL    HW226877   3.157   1.038   8.478 -0.5719 -0.6412 -1.7181
 5081SOL     OW26878   3.488   0.943  13.276 -0.1711  0.3433  0.0899
 5081SOL    HW126879   3.566   0.902  13.239 -0.9122 -0.5097 -0.5579
 5081SOL    HW226880   3.438   0.866  13.304 -2.0004  1.8936  1.1086
 5082SOL     OW26881   0.767   2.375   8.406  0.3061 -1.0217  0.2069
 5082SOL    HW126882   0.684   2.411   8.437  0.3070 -0.3339 -0.5842
 5082SOL    HW226883   0.746   2.282   8.396 -0.5419 -0.8472  0.3979
 5083SOL     OW26884   3.555   1.517   8.135 -0.5248 -0.1106  0.0146
 5083SOL    HW126885   3.545   1.580   8.207 -1.4756  0.7993 -0.9213
 5083SOL    HW226886   3.639   1.476   8.156 -0.6798 -1.0653 -1.2607
 5084SOL     OW26887   2.593   2.934   1.907 -0.6968 -0.6780  0.2775
 5084SOL    HW126888   2.637   2.901   1.986  3.8453  0.3338 -1.8667
 5084SOL    HW226889   2.616   2.874   1.836  1.5521 -0.5941  0.9226
 5085SOL     OW26890   4.207   1.170  16.634 -0.1937 -0.4497  0.1088
 5085SOL    HW126891   4.186   1.260  16.608 -0.7998 -0.1785  1.5431
 5085SOL    HW226892   4.275   1.165  16.567 -0.3382 -1.8970  0.0852
 5086SOL     OW26893   4.095   3.934   3.034  0.6111  0.1715 -0.3756
 5086SOL    HW126894   4.086   4.002   3.100  0.2834  0.0995 -0.3426
 5086SOL    HW226895   4.011   3.941   2.987 -0.3653 -0.9034  1.2094
 5087SOL     OW26896   3.463   3.646  16.788 -0.0083  0.2489 -0.1029
 5087SOL    HW126897   3.480   3.726  16.839  1.5612  0.5831 -1.1481
 5087SOL    HW226898   3.403   3.683  16.724 -1.9067  0.2088  1.6444
 5088SOL     OW26899   4.087   3.007   3.744  0.1876 -0.3252  0.1469
 5088SOL    HW126900   4.149   3.042   3.681  0.1257 -0.4314  0.0275
 5088SOL    HW226901   4.107   2.915   3.731  0.1428 -0.5180  1.4101
 5089SOL     OW26902   0.400   1.239   7.031 -0.3853  1.0380 -0.3651
 5089SOL    HW126903   0.451   1.316   7.058 -0.0079  0.2095  1.2890
 5089SOL    HW226904   0.463   1.168   7.037 -0.7428  0.7402 -0.1307
 5090SOL     OW26905   3.362   0.401  10.063  0.1923 -0.1726 -0.2763
 5090SOL    HW126906   3.391   0.315  10.095  3.1480  1.1116  0.4686
 5090SOL    HW226907   3.380   0.396   9.969  0.7432  0.1713 -0.1847
 5091SOL     OW26908   1.752   0.861   8.402 -0.7070  0.2705  0.9360
 5091SOL    HW126909   1.760   0.956   8.401 -0.1240  0.2500  2.4980
 5091SOL    HW226910   1.672   0.849   8.453 -0.9964 -1.5864  0.0364
 5092SOL     OW26911   2.326   1.404   6.628 -0.3252  0.2352 -0.3452
 5092SOL    HW126912   2.351   1.388   6.719 -0.1869 -0.3496 -0.4876
 5092SOL    HW226913   2.321   1.315   6.594  2.5182  0.4497 -1.3698
 5093SOL     OW26914   3.202   1.126   4.358 -0.2200 -0.1318  0.7281
 5093SOL    HW126915   3.232   1.215   4.378 -2.3732  0.6608  0.3975
 5093SOL    HW226916   3.201   1.124   4.263 -1.2819  1.6072  0.6954
 5094SOL     OW26917   1.057   0.478  16.116  0.4011 -0.2786 -0.2152
 5094SOL    HW126918   1.052   0.574  16.118 -1.2917 -0.3801  0.0724
 5094SOL    HW226919   0.999   0.461  16.191  2.5935 -2.0688  1.0594
 5095SOL     OW26920   1.414   1.761  11.296 -0.2619  0.2838 -0.1094
 5095SOL    HW126921   1.390   1.775  11.387  1.3926 -2.5907  0.7550
 5095SOL    HW226922   1.324   1.750  11.265 -0.0980 -2.9849  0.5691
 5096SOL     OW26923   3.236   2.104  16.241  0.2066  0.0368  0.1471
 5096SOL    HW126924   3.280   2.053  16.310 -1.0953 -1.6325 -0.2597
 5096SOL    HW226925   3.158   2.130  16.290  1.7502  0.9569  2.1422
 5097SOL     OW26926   1.507   2.948   4.429  0.3829 -0.1766 -0.0730
 5097SOL    HW126927   1.490   2.864   4.387 -1.1871  0.6571 -1.1188
 5097SOL    HW226928   1.602   2.951   4.419  0.2912  3.2121 -0.1670
 5098SOL     OW26929   4.169   0.777   6.491  0.4228 -0.1941  0.1275
 5098SOL    HW126930   4.096   0.839   6.489  1.1041  0.5898 -0.8625
 5098SOL    HW226931   4.144   0.708   6.552 -2.5384  0.3032 -0.5260
 5099SOL     OW26932   0.386   3.859   2.048  0.6250  0.4204  0.8464
 5099SOL    HW126933   0.300   3.884   2.015  1.4371  2.3022  0.1774
 5099SOL    HW226934   0.410   3.937   2.099 -1.5887  1.7884 -0.2393
 5100SOL     OW26935   2.514   4.180   6.888 -0.6821  0.4136  0.7243
 5100SOL    HW126936   2.477   4.242   6.824  0.4468 -1.3921 -1.6728
 5100SOL    HW226937   2.565   4.244   6.938 -0.0344 -0.5789  1.3248
 5101SOL     OW26938   0.960   3.298   3.884  0.3213  0.3539  0.2726
 5101SOL    HW126939   0.903   3.373   3.870  1.3725  1.0144 -0.4631
 5101SOL    HW226940   1.031   3.339   3.933  0.7147  0.1500 -0.1287
 5102SOL     OW26941   2.582   1.988   6.552  0.4029  0.0054  0.2517
 5102SOL    HW126942   2.527   1.910   6.545  0.1215  0.3502 -1.3371
 5102SOL    HW226943   2.540   2.049   6.492 -0.0584 -1.1959 -0.6348
 5103SOL     OW26944   4.231   0.581   9.593  0.2593 -0.0415 -0.6047
 5103SOL    HW126945   4.284   0.653   9.627  0.2168 -0.0526 -0.5142
 5103SOL    HW226946   4.172   0.570   9.668 -0.0950  1.8319 -0.6071
 5104SOL     OW26947   3.169   2.125  13.027 -0.8821  0.0297  0.2060
 5104SOL    HW126948   3.249   2.136  13.078 -2.5339  1.0923  2.5863
 5104SOL    HW226949   3.182   2.180  12.951  0.5033  2.0826  1.9338
 5105SOL     OW26950   3.572   4.064  12.057 -0.3714  0.7225  0.3597
 5105SOL    HW126951   3.605   4.149  12.085 -1.4302  1.7216 -1.3839
 5105SOL    HW226952   3.631   4.051  11.983 -1.1143 -1.4099  0.1518
 5106SOL     OW26953   0.726   2.976   8.647 -0.7035  0.1043  0.7019
 5106SOL    HW126954   0.637   3.007   8.626 -0.9744 -1.9046 -0.9861
 5106SOL    HW226955   0.743   2.912   8.578 -1.3542  0.1216  0.5236
 5107SOL     OW26956   2.265   3.791   4.237 -0.2948  0.4654  0.0339
 5107SOL    HW126957   2.273   3.884   4.219  1.3511  0.4856  0.8238
 5107SOL    HW226958   2.236   3.802   4.328  0.4844  1.3153  0.1817
 5108SOL     OW26959   2.367   2.018   9.119 -0.0293 -0.1981 -0.0139
 5108SOL    HW126960   2.287   1.970   9.097  0.3937 -0.4044 -1.1290
 5108SOL    HW226961   2.355   2.069   9.199 -1.2278  0.4444 -0.6025
 5109SOL     OW26962   1.233   2.027   0.077  0.0748  0.4403  0.0279
 5109SOL    HW126963   1.234   2.118   0.048 -1.1362  0.3991 -0.1412
 5109SOL    HW226964   1.154   2.034   0.131  0.0060  1.1419 -0.1734
 5110SOL     OW26965   3.068   2.265   1.020 -0.1637  0.4858  0.4576
 5110SOL    HW126966   3.107   2.296   1.103  1.3695 -0.9535  0.2781
 5110SOL    HW226967   3.070   2.339   0.959  1.2170  1.2610  1.4309
 5111SOL     OW26968   4.316   3.190   7.423  0.3987 -0.2689  0.6582
 5111SOL    HW126969   4.376   3.158   7.355  0.8532 -1.9412  1.8456
 5111SOL    HW226970   4.266   3.254   7.372 -1.3217 -0.5913  1.9442
 5112SOL     OW26971   2.789   0.574  13.929  0.4025  0.2548 -0.4353
 5112SOL    HW126972   2.775   0.480  13.919  2.1421 -0.1101  0.4528
 5112SOL    HW226973   2.883   0.587  13.945  0.3859 -1.7718  1.2054
 5113SOL     OW26974   1.019   3.502   4.913 -0.7883 -0.2235  0.0125
 5113SOL    HW126975   1.088   3.532   4.854 -0.7850 -0.6530 -0.1961
 5113SOL    HW226976   1.060   3.514   4.998  1.2406 -0.0252 -1.0073
 5114SOL     OW26977   3.546   2.669   3.500 -0.0890 -0.2691  0.2157
 5114SOL    HW126978   3.594   2.735   3.450 -0.4146 -0.9788 -1.0192
 5114SOL    HW226979   3.554   2.717   3.583 -0.7523 -2.5781  1.6158
 5115SOL     OW26980   2.865   3.760   0.333 -0.3590  0.2834  0.4211
 5115SOL    HW126981   2.911   3.746   0.251 -1.2326 -1.0073  0.1688
 5115SOL    HW226982   2.842   3.853   0.327  1.8340  0.8281  0.3575
 5116SOL     OW26983   0.646   4.324  16.505 -0.5063 -0.2152  0.2115
 5116SOL    HW126984   0.719   4.386  16.507 -1.0057  0.3819  0.1129
 5116SOL    HW226985   0.619   4.323  16.597  1.1090 -2.3482  0.6693
 5117SOL     OW26986   1.723   0.107   4.458  0.3540  0.1983 -0.4639
 5117SOL    HW126987   1.818   0.089   4.459  0.8242  2.5554 -3.0550
 5117SOL    HW226988   1.703   0.113   4.551 -0.0714 -0.0573 -0.5420
 5118SOL     OW26989   2.760   0.204  16.362  0.5211  0.1034  0.7097
 5118SOL    HW126990   2.768   0.122  16.411 -0.3926  0.5101  1.5232
 5118SOL    HW226991   2.715   0.162  16.288  1.7800  0.4239 -0.2359
 5119SOL     OW26992   1.270   2.249   6.802  0.0734  0.3205 -0.2712
 5119SOL    HW126993   1.289   2.331   6.757 -0.3612 -0.2720 -1.5335
 5119SOL    HW226994   1.245   2.275   6.891  0.1042 -0.9594  0.1114
 5120SOL     OW26995   1.073   0.893   8.053  0.4690  0.4080  0.5595
 5120SOL    HW126996   1.100   0.985   8.048 -0.3185  0.5420 -1.1084
 5120SOL    HW226997   1.032   0.869   7.970  0.4743  1.1480  0.3409
 5121SOL     OW26998   2.003   4.091  13.640  0.3576 -0.3558  0.2293
 5121SOL    HW126999   1.960   4.156  13.696  2.2875  0.5757  0.6344
 5121SOL    HW227000   2.046   4.031  13.700  3.0410  1.1445 -0.1824
 5122SOL     OW27001   2.713   3.664   6.148  0.2041  0.4001  0.1791
 5122SOL    HW127002   2.767   3.606   6.202  0.2546  0.9888  0.7653
 5122SOL    HW227003   2.729   3.633   6.059  1.2381 -0.9702  0.8311
 5123SOL     OW27004   0.163   0.941   4.591  0.2611  0.0344  0.0549
 5123SOL    HW127005   0.085   0.982   4.626  0.9125  0.9320  0.4575
 5123SOL    HW227006   0.177   0.863   4.645 -0.5503  0.2078  0.5215
 5124SOL     OW27007   0.418   2.231  17.131 -0.3814 -0.3612  0.0021
 5124SOL    HW127008   0.341   2.193  17.091 -1.6947  2.0824  0.2103
 5124SOL    HW227009   0.396   2.219  17.223  1.1382 -2.5451  0.0965
 5125SOL     OW27010   3.272   1.490   3.020 -0.3071 -1.0961  0.0432
 5125SOL    HW127011   3.285   1.443   2.937  1.2166 -1.5057  0.4995
 5125SOL    HW227012   3.191   1.458   3.058 -1.0519 -1.0728 -1.5470
 5126SOL     OW27013   0.873   4.453   8.804 -0.1689 -0.6071 -0.5270
 5126SOL    HW127014   0.794   4.399   8.817 -0.0699 -0.5699  0.2214
 5126SOL    HW227015   0.885   4.461   8.710  1.8985  2.1450 -0.0129
 5127SOL     OW27016   4.152   1.388  13.079  0.1247  0.1680 -0.2401
 5127SOL    HW127017   4.165   1.294  13.071 -0.5025  0.1232 -0.7859
 5127SOL    HW227018   4.194   1.421  12.999 -0.6847 -1.6692 -1.4167
 5128SOL     OW27019   2.623   3.193   6.237 -0.0220  0.2192 -0.4050
 5128SOL    HW127020   2.654   3.244   6.162 -0.2826  3.3075  1.5354
 5128SOL    HW227021   2.710   3.167   6.267 -0.5561 -1.0080  0.0657
 5129SOL     OW27022   4.189   0.391   8.375  0.0384  0.1368 -0.0923
 5129SOL    HW127023   4.177   0.406   8.469 -0.7208 -0.8089 -0.0383
 5129SOL    HW227024   4.132   0.318   8.353  0.4919 -0.2979  0.1603
 5130SOL     OW27025   1.199   4.028   7.544 -0.1342 -0.4166 -0.0242
 5130SOL    HW127026   1.228   3.937   7.530 -3.9336 -1.8848  1.5684
 5130SOL    HW227027   1.120   4.003   7.592 -0.9972 -1.2512 -1.8932
 5131SOL     OW27028   4.535   4.159  14.414  0.2103 -0.4797  0.1084
 5131SOL    HW127029   4.492   4.149  14.499  0.6367  0.2707  0.4131
 5131SOL    HW227030   4.563   4.069  14.403 -1.0932 -1.0292  1.2529
 5132SOL     OW27031   1.757   4.220   6.847  0.0949  0.2738  0.6255
 5132SOL    HW127032   1.813   4.265   6.910  0.2227 -0.3511  0.9542
 5132SOL    HW227033   1.817   4.207   6.773  0.1321 -2.0495  1.0695
 5133SOL     OW27034   3.926   2.566  13.293  0.2693  0.1391 -0.4453
 5133SOL    HW127035   4.017   2.581  13.321  0.2195 -1.2969  0.5078
 5133SOL    HW227036   3.920   2.471  13.298 -1.5887  0.1971 -1.7435
 5134SOL     OW27037   2.543   0.338   6.555  0.1628 -0.0662 -0.2345
 5134SOL    HW127038   2.501   0.264   6.598 -0.9023  0.8892  0.3573
 5134SOL    HW227039   2.633   0.306   6.551  0.1455 -0.2372  0.7709
 5135SOL     OW27040   1.538   1.922   2.731 -0.1806  0.5184  0.7177
 5135SOL    HW127041   1.527   2.012   2.761 -0.0352  0.6651  0.3274
 5135SOL    HW227042   1.617   1.908   2.783 -0.1268  1.1341  0.8054
 5136SOL     OW27043   4.521   2.950   6.325  0.3978 -0.4372  0.0163
 5136SOL    HW127044   4.570   3.012   6.379 -4.3832  2.2135  1.3072
 5136SOL    HW227045   4.515   2.873   6.382  2.9295  0.7550  1.9085
 5137SOL     OW27046   0.095   4.222   0.509 -0.0117 -0.5167 -0.4374
 5137SOL    HW127047   0.010   4.257   0.482 -0.0729  1.7524  2.6621
 5137SOL    HW227048   0.082   4.134   0.475 -0.3081 -0.0372 -1.5788
 5138SOL     OW27049   1.056   0.905   7.182 -0.4524 -0.1169  0.1140
 5138SOL    HW127050   1.094   0.855   7.253  0.7989  1.0196  0.2491
 5138SOL    HW227051   0.973   0.859   7.168  0.3074 -1.5697  0.4835
 5139SOL     OW27052   2.161   3.892   6.891  0.2694  0.2105  0.2112
 5139SOL    HW127053   2.224   3.897   6.819 -0.6635 -0.9798 -0.6734
 5139SOL    HW227054   2.131   3.982   6.904 -3.0118 -0.8783  0.0617
 5140SOL     OW27055   0.329   1.393   0.567  0.0210  0.1800 -0.0753
 5140SOL    HW127056   0.373   1.454   0.508  2.4446 -1.3800  0.1326
 5140SOL    HW227057   0.367   1.314   0.529 -0.3288 -0.6737  1.3151
 5141SOL     OW27058   4.149   2.837   4.159  0.2882  0.5943  0.0868
 5141SOL    HW127059   4.234   2.813   4.122  0.0896 -1.3354  0.8483
 5141SOL    HW227060   4.086   2.812   4.092  1.1523 -1.2271 -0.0646
 5142SOL     OW27061   0.920   4.065   8.428  0.4596 -0.0189  0.6637
 5142SOL    HW127062   0.981   3.992   8.441 -1.0940 -1.2854  0.7866
 5142SOL    HW227063   0.980   4.139   8.420 -1.4268  1.5288  0.7582
 5143SOL     OW27064   1.227   2.862   5.831 -0.0605 -0.7330  0.0975
 5143SOL    HW127065   1.307   2.867   5.885 -0.5482 -1.8531  0.9198
 5143SOL    HW227066   1.259   2.900   5.750 -4.5968  0.7721 -0.9693
 5144SOL     OW27067   1.805   2.496  16.245 -0.2715  0.0075  0.1365
 5144SOL    HW127068   1.865   2.570  16.243 -0.5839  0.2662  0.2685
 5144SOL    HW227069   1.837   2.452  16.166  1.2985  1.4425 -0.0108
 5145SOL     OW27070   1.698   2.496   6.833 -0.2066 -0.2587  0.3003
 5145SOL    HW127071   1.719   2.440   6.758 -1.7083 -1.1603  0.5449
 5145SOL    HW227072   1.643   2.434   6.882 -1.3696 -0.9671 -1.8815
 5146SOL     OW27073   2.231   1.419   8.347  0.0871  0.1011  0.2940
 5146SOL    HW127074   2.289   1.405   8.422  2.3869  0.9676 -1.3158
 5146SOL    HW227075   2.154   1.367   8.371 -0.0445 -0.9672 -2.4019
 5147SOL     OW27076   3.318   2.952  16.182 -0.4129  0.1601 -0.1242
 5147SOL    HW127077   3.319   2.981  16.273 -2.9968 -0.3442  0.0747
 5147SOL    HW227078   3.360   3.021  16.130 -1.9635  0.6721 -0.7196
 5148SOL     OW27079   2.730   1.507   4.504  0.3576  0.0557 -0.3147
 5148SOL    HW127080   2.682   1.590   4.501  0.7097  0.2921  0.5214
 5148SOL    HW227081   2.724   1.491   4.599  1.4772  1.8079  0.0520
 5149SOL     OW27082   1.396   2.082   1.772 -0.3318  0.1271 -0.1032
 5149SOL    HW127083   1.466   2.073   1.836  0.4516  2.8995 -0.5787
 5149SOL    HW227084   1.364   1.992   1.757 -2.7533  0.8798  0.5586
 5150SOL     OW27085   3.616   3.324  15.542  0.2294  0.1087  0.0738
 5150SOL    HW127086   3.702   3.283  15.539  0.2467 -0.0170  1.9715
 5150SOL    HW227087   3.614   3.340  15.448 -0.4705  2.6582  0.5129
 5151SOL     OW27088   1.525   2.976   4.692  0.2066  0.0203  0.2548
 5151SOL    HW127089   1.508   3.068   4.710 -0.6405 -0.1448  0.2956
 5151SOL    HW227090   1.480   2.954   4.610  0.3681  0.9743 -0.0815
 5152SOL     OW27091   0.335   1.089   4.446 -0.1319 -0.6718 -0.0195
 5152SOL    HW127092   0.254   1.054   4.483  0.8044  0.3932  3.0697
 5152SOL    HW227093   0.326   1.183   4.465  3.1597  0.1381 -2.4068
 5153SOL     OW27094   4.105   0.971   3.643 -0.4504 -0.6186 -0.2693
 5153SOL    HW127095   4.044   1.006   3.708 -0.0966 -0.1108 -0.2169
 5153SOL    HW227096   4.147   0.899   3.690 -0.2894 -0.6291 -0.4294
 5154SOL     OW27097   1.351   0.439   8.313  0.0819  0.0676 -0.4071
 5154SOL    HW127098   1.323   0.483   8.393  0.6107  0.2483 -0.3190
 5154SOL    HW227099   1.430   0.489   8.290 -0.5752  0.4819 -1.7451
 5155SOL     OW27100   2.540   3.918   3.053  0.0521  0.0020 -0.8090
 5155SOL    HW127101   2.524   4.012   3.046  0.7999  0.2091  0.2744
 5155SOL    HW227102   2.461   3.897   3.003 -0.1361 -0.5645 -0.2751
 5156SOL     OW27103   1.876   1.598   3.350 -0.1346  0.3416 -0.2592
 5156SOL    HW127104   1.960   1.554   3.337 -0.9349 -0.8789 -1.2945
 5156SOL    HW227105   1.912   1.668   3.403 -0.6048  1.4796 -1.4360
 5157SOL     OW27106   2.876   3.528   7.765 -0.2920 -0.4133  0.3618
 5157SOL    HW127107   2.803   3.467   7.770 -1.4896  0.9148 -0.7466
 5157SOL    HW227108   2.893   3.546   7.857 -2.4123 -0.8313  0.8167
 5158SOL     OW27109   2.722   2.991   4.283  0.0460  0.0310 -0.6983
 5158SOL    HW127110   2.724   2.900   4.312  0.0759 -0.2734 -1.6559
 5158SOL    HW227111   2.739   3.027   4.370 -1.9505 -1.1629  0.1657
 5159SOL     OW27112   0.176   4.547   4.571 -0.0358 -0.5407  0.0030
 5159SOL    HW127113   0.091   4.579   4.539 -0.3871  0.6723  2.1688
 5159SOL    HW227114   0.235   4.591   4.510 -0.4772 -0.3327 -0.2724
 5160SOL     OW27115   2.171   3.712   7.931 -0.2040  0.5748  0.5436
 5160SOL    HW127116   2.112   3.645   7.898 -0.4655  1.4174 -0.7069
 5160SOL    HW227117   2.165   3.691   8.024  2.3459  1.1669  0.8459
 5161SOL     OW27118   3.267   0.259   0.089  0.0957 -0.2239  0.0487
 5161SOL    HW127119   3.193   0.209   0.057 -1.0797  2.2123 -1.0692
 5161SOL    HW227120   3.329   0.187   0.078 -0.9365 -1.3361  1.5127
 5162SOL     OW27121   0.173   3.041   6.396 -0.0502  0.1032 -1.0955
 5162SOL    HW127122   0.260   3.011   6.370  0.0274 -0.3330 -0.3035
 5162SOL    HW227123   0.178   3.133   6.371  1.7561  0.6342  1.3213
 5163SOL     OW27124   0.069   0.129   9.413 -0.3556  0.0104 -0.0457
 5163SOL    HW127125   4.730   0.167   9.459  0.0719 -1.0493  1.5170
 5163SOL    HW227126   0.028   0.060   9.362 -0.9766  0.5496 -0.2664
 5164SOL     OW27127   4.376   2.976  11.857  0.5210 -0.0660 -0.0398
 5164SOL    HW127128   4.354   3.005  11.945  1.8692 -1.6691  0.8282
 5164SOL    HW227129   4.426   2.895  11.869  1.8715  0.8599  0.5394
 5165SOL     OW27130   4.488   0.053   7.361  0.1605  0.0527 -0.2897
 5165SOL    HW127131   4.532   0.082   7.441  0.7630  0.7794 -0.8877
 5165SOL    HW227132   4.498   4.694   7.374  0.5498  0.0026 -0.9084
 5166SOL     OW27133   2.528   0.396   4.580 -0.7661  0.5695  0.4547
 5166SOL    HW127134   2.577   0.477   4.592  1.6460 -0.4874 -2.2682
 5166SOL    HW227135   2.574   0.356   4.506 -0.7418  1.9290 -0.2655
 5167SOL     OW27136   2.562   2.294   6.360  0.3242  0.3694  0.3583
 5167SOL    HW127137   2.482   2.259   6.321  0.6562 -1.2349  1.1041
 5167SOL    HW227138   2.520   2.337   6.435  2.9944  0.1623  1.9556
 5168SOL     OW27139   3.022   4.474   7.792 -0.1088 -0.6472  0.1985
 5168SOL    HW127140   3.016   4.420   7.713  1.8596 -0.4823 -0.0695
 5168SOL    HW227141   3.011   4.560   7.752  2.5423  0.3869  1.6368
 5169SOL     OW27142   0.813   2.767   3.451 -0.3748  0.2282  0.1541
 5169SOL    HW127143   0.788   2.675   3.459  0.2151  0.0194 -0.4167
 5169SOL    HW227144   0.833   2.798   3.539  1.1679  2.6809 -1.0657
 5170SOL     OW27145   2.044   3.457   5.175  0.4175 -0.7602 -0.0988
 5170SOL    HW127146   2.075   3.441   5.086  0.1913  0.2939 -0.3713
 5170SOL    HW227147   2.013   3.369   5.198 -0.4108  0.0853  1.9982
 5171SOL     OW27148   2.590   0.939   3.558 -0.1959  0.1710 -0.1927
 5171SOL    HW127149   2.535   0.882   3.612  1.2253 -0.8197  0.2113
 5171SOL    HW227150   2.594   0.887   3.478 -1.4910  1.9046 -1.3961
 5172SOL     OW27151   3.051   0.307   5.471 -0.1236  0.0511  0.1113
 5172SOL    HW127152   3.107   0.312   5.394 -0.2268  0.1234  0.0404
 5172SOL    HW227153   2.968   0.300   5.423  0.6296  1.5356 -1.3975
 5173SOL     OW27154   2.740   3.114   8.413 -0.0379 -0.4363 -0.2377
 5173SOL    HW127155   2.773   3.204   8.413 -0.0078 -0.4461 -2.3010
 5173SOL    HW227156   2.675   3.122   8.343 -0.1154 -1.0075 -0.2383
 5174SOL     OW27157   3.552   1.430   1.677  0.0630 -0.3843  0.1792
 5174SOL    HW127158   3.565   1.509   1.730  0.1109  1.4506 -2.5636
 5174SOL    HW227159   3.598   1.373   1.738  0.7911 -1.3461 -1.2747
 5175SOL     OW27160   2.428   3.616  10.351 -0.4495 -0.0497  0.7180
 5175SOL    HW127161   2.433   3.545  10.288 -1.2256  0.7838 -0.2717
 5175SOL    HW227162   2.504   3.669  10.327  0.0891 -1.3212 -0.3808
 5176SOL     OW27163   3.703   0.683   2.702  0.8630 -0.4414 -0.3298
 5176SOL    HW127164   3.694   0.761   2.758  0.1295  0.1214 -1.2372
 5176SOL    HW227165   3.653   0.702   2.623  0.6494 -1.9560 -0.5636
 5177SOL     OW27166   3.848   4.619   0.122  0.0975 -0.5523 -0.0314
 5177SOL    HW127167   3.800   4.631   0.040 -0.5495  0.9639  0.5727
 5177SOL    HW227168   3.934   4.597   0.084  0.5325 -1.5249  1.5057
 5178SOL     OW27169   1.015   3.851  12.842  0.3734  0.3173 -0.2798
 5178SOL    HW127170   1.100   3.893  12.831 -0.4962  1.3956 -3.0458
 5178SOL    HW227171   0.967   3.933  12.828 -0.9645 -0.7356 -1.8598
 5179SOL     OW27172   4.551   0.164   5.667 -0.1144  0.4100 -0.2313
 5179SOL    HW127173   4.579   0.075   5.689 -0.1015  0.1892 -1.1150
 5179SOL    HW227174   4.478   0.175   5.728 -0.9967  0.6894 -1.3353
 5180SOL     OW27175   1.151   2.743   1.257  0.3523  0.2629  0.2141
 5180SOL    HW127176   1.200   2.820   1.284 -0.9577  1.4056 -0.6914
 5180SOL    HW227177   1.224   2.691   1.224  0.2452 -1.1646  2.1880
 5181SOL     OW27178   4.244   1.656   9.403  0.1706 -0.5313  0.1345
 5181SOL    HW127179   4.162   1.686   9.364  1.6274  2.0136 -0.9702
 5181SOL    HW227180   4.226   1.660   9.497 -0.4194 -2.1941  0.0981
 5182SOL     OW27181   4.668   4.495  17.468  0.2578  0.2181  0.1475
 5182SOL    HW127182   0.008   4.485  17.409 -0.6928 -1.2227 -0.8478
 5182SOL    HW227183   4.655   4.589  17.461 -0.6929  0.0308 -0.4633
 5183SOL     OW27184   1.483   3.691  16.475  0.1334  0.1448 -0.2325
 5183SOL    HW127185   1.400   3.726  16.506 -0.2445 -0.5242 -0.4882
 5183SOL    HW227186   1.513   3.759  16.414  0.4878 -0.9019 -1.2243
 5184SOL     OW27187   2.389   2.316  11.494  0.4066 -0.1578 -0.1585
 5184SOL    HW127188   2.450   2.288  11.426  0.4741  1.1555 -0.6294
 5184SOL    HW227189   2.386   2.411  11.485 -0.6511 -0.1002  0.7952
 5185SOL     OW27190   0.662   1.273   4.579 -0.4146  0.0921  0.1085
 5185SOL    HW127191   0.662   1.368   4.588 -2.8703  0.1123 -0.0749
 5185SOL    HW227192   0.579   1.263   4.627  0.1316 -2.2068  0.5893
 5186SOL     OW27193   3.804   0.250   7.830 -0.4324 -0.4462 -0.0060
 5186SOL    HW127194   3.774   0.212   7.912  0.4353 -0.3178  0.3707
 5186SOL    HW227195   3.794   0.343   7.848  2.0186  0.0707 -1.2460
 5187SOL     OW27196   0.851   2.469   2.587 -0.0042 -0.1813 -0.0997
 5187SOL    HW127197   0.804   2.388   2.605 -1.7677  0.8365 -0.0673
 5187SOL    HW227198   0.896   2.446   2.506  1.5056 -1.1014  0.9959
 5188SOL     OW27199   4.424   0.148  17.414 -0.2885 -0.0495 -0.4336
 5188SOL    HW127200   4.358   0.109  17.356 -0.4568 -2.3822  1.3269
 5188SOL    HW227201   4.363   0.179  17.481  3.2763  1.6096  1.9933
 5189SOL     OW27202   2.354   1.150  11.028  0.2903 -0.2838  0.1524
 5189SOL    HW127203   2.405   1.197  10.962 -0.7405 -0.6512 -0.9079
 5189SOL    HW227204   2.281   1.110  10.980 -0.5036  0.2849  0.8921
 5190SOL     OW27205   2.888   1.127   9.321  0.3713 -0.7283  0.9132
 5190SOL    HW127206   2.930   1.125   9.407 -1.0319  2.7443  1.7055
 5190SOL    HW227207   2.865   1.036   9.306 -1.3264 -0.4589  1.8589
 5191SOL     OW27208   2.121   4.607   0.751 -1.0373 -0.6668 -0.0566
 5191SOL    HW127209   2.160   4.670   0.811  0.3902 -1.3297 -0.2903
 5191SOL    HW227210   2.091   4.665   0.681  1.2256  0.8818  0.2490
 5192SOL     OW27211   4.040   2.083  15.377 -0.3927 -0.1253  0.0578
 5192SOL    HW127212   4.075   2.098  15.289 -1.8217 -0.2279 -0.5392
 5192SOL    HW227213   4.105   2.017  15.401  0.4795  0.9641  0.6852
 5193SOL     OW27214   1.415   3.215   4.728 -0.9821  0.3946  0.3314
 5193SOL    HW127215   1.320   3.201   4.718 -0.8162  0.0073 -0.7404
 5193SOL    HW227216   1.428   3.310   4.725  0.9805  0.1128 -0.2730
 5194SOL     OW27217   4.537   3.044   2.375 -0.1934  0.1193 -0.2126
 5194SOL    HW127218   4.513   3.119   2.321  0.4376  1.7516  1.7741
 5194SOL    HW227219   4.453   3.001   2.391  0.2688 -1.4027 -1.8507
 5195SOL     OW27220   3.548   3.295   2.544  0.4810  0.1539 -0.0073
 5195SOL    HW127221   3.612   3.293   2.473  0.2987  0.4607 -0.1773
 5195SOL    HW227222   3.534   3.200   2.545 -0.7476  0.3506  1.6774
 5196SOL     OW27223   2.795   4.455   2.467 -0.3570  0.2084 -0.7150
 5196SOL    HW127224   2.762   4.404   2.541  0.6339  1.1778  0.3949
 5196SOL    HW227225   2.723   4.518   2.461  1.4373  2.2896 -0.4357
 5197SOL     OW27226   4.379   4.100  15.483  0.2986  0.3695 -0.0671
 5197SOL    HW127227   4.316   4.089  15.553  2.8982  0.7361  2.3177
 5197SOL    HW227228   4.363   4.188  15.450  0.2231  0.3557 -0.0681
 5198SOL     OW27229   3.355   1.590   1.961  0.5449 -0.6625  0.1112
 5198SOL    HW127230   3.271   1.637   1.963  1.5203  1.0351  0.9709
 5198SOL    HW227231   3.329   1.500   1.941 -2.7392 -0.1389  1.9523
 5199SOL     OW27232   0.993   3.549   8.234  0.6814 -0.7054  0.1499
 5199SOL    HW127233   1.029   3.636   8.218 -3.1840  0.7672 -0.5231
 5199SOL    HW227234   1.071   3.499   8.259 -0.2200 -1.5695  1.2024
 5200SOL     OW27235   1.524   0.050  12.159  0.3369  0.0358 -0.2627
 5200SOL    HW127236   1.559   4.718  12.217 -3.0894  0.2140  2.0478
 5200SOL    HW227237   1.503   0.001  12.080 -0.4446 -0.7114  0.4034
 5201SOL     OW27238   4.472   4.079   7.115 -0.7050 -0.2450  0.2020
 5201SOL    HW127239   4.525   4.006   7.084  0.9520  1.1366 -0.2090
 5201SOL    HW227240   4.435   4.112   7.034 -1.7940 -0.9332  0.4248
 5202SOL     OW27241   1.986   4.411  15.892  0.0578 -0.5686 -0.4370
 5202SOL    HW127242   1.973   4.476  15.822  1.2156  0.4026  0.2358
 5202SOL    HW227243   1.897   4.398  15.923  0.2207 -0.7567 -0.0439
 5203SOL     OW27244   2.797   0.280   7.319 -0.4388  0.1688  0.0278
 5203SOL    HW127245   2.704   0.297   7.302 -0.1718  1.0696 -0.5276
 5203SOL    HW227246   2.825   0.344   7.385  2.7307  0.4100 -1.5721
 5204SOL     OW27247   1.362   1.749   1.089 -0.0781  0.2688  0.3855
 5204SOL    HW127248   1.405   1.666   1.071 -1.2179 -0.2494  0.0717
 5204SOL    HW227249   1.381   1.771   1.181  1.7901  0.7205 -0.1133
 5205SOL     OW27250   3.672   1.345  12.285 -1.0989  0.2885  0.0557
 5205SOL    HW127251   3.676   1.440  12.291 -1.8411  0.3957 -1.3046
 5205SOL    HW227252   3.625   1.341  12.202 -0.5275 -2.2938 -0.1423
 5206SOL     OW27253   1.443   2.311   4.791 -0.8033  0.0717 -0.0532
 5206SOL    HW127254   1.532   2.315   4.755 -1.0887 -1.2385 -0.9397
 5206SOL    HW227255   1.418   2.222   4.766 -0.3985 -0.8975  2.9919
 5207SOL     OW27256   0.379   2.044   1.627 -0.3491 -0.4717  0.0840
 5207SOL    HW127257   0.300   2.002   1.660 -1.4820  0.5976 -1.2828
 5207SOL    HW227258   0.420   1.965   1.591 -1.3230 -0.9965  0.1100
 5208SOL     OW27259   1.622   1.329   7.722  0.1706  0.0226  0.2293
 5208SOL    HW127260   1.717   1.318   7.717  0.1671 -0.2408  0.7729
 5208SOL    HW227261   1.605   1.328   7.816  5.2363 -2.9230  1.0954
 5209SOL     OW27262   3.735   4.064   6.650  0.0806  0.4146  0.1289
 5209SOL    HW127263   3.744   3.978   6.691  2.7801 -0.0096 -1.4051
 5209SOL    HW227264   3.752   4.124   6.723  0.2102  2.1318 -1.3321
 5210SOL     OW27265   4.022   3.306   2.004 -0.4983 -0.4594  0.0125
 5210SOL    HW127266   4.114   3.282   2.013  0.2440  1.1619 -3.7205
 5210SOL    HW227267   4.003   3.393   2.039  2.7696  0.2089  0.0794
 5211SOL     OW27268   1.291   1.260   7.770  0.4624  0.1469  0.0196
 5211SOL    HW127269   1.359   1.282   7.834  1.2476  3.1477 -1.8403
 5211SOL    HW227270   1.279   1.168   7.790 -3.5935  0.4596 -1.1214
 5212SOL     OW27271   0.457   0.632  15.639 -0.4802  0.3855 -0.4470
 5212SOL    HW127272   0.459   0.691  15.563  0.5203 -1.1326 -1.6131
 5212SOL    HW227273   0.379   0.581  15.612  0.8561 -1.2628 -1.2112
 5213SOL     OW27274   2.914   4.456   0.840  0.2862 -0.5210  0.3201
 5213SOL    HW127275   2.973   4.384   0.864  1.8422  1.1120  1.4248
 5213SOL    HW227276   2.852   4.465   0.912 -0.0035  1.8029 -0.2187
 5214SOL     OW27277   2.555   2.698  16.630 -0.2903  0.1667 -0.6559
 5214SOL    HW127278   2.479   2.694  16.689  0.9921 -0.9342  0.9104
 5214SOL    HW227279   2.558   2.613  16.585 -0.5521 -0.5593  0.6896
 5215SOL     OW27280   0.854   0.696   7.118  0.5884 -0.4734  0.7120
 5215SOL    HW127281   0.826   0.669   7.205 -0.4862 -0.8729  0.2513
 5215SOL    HW227282   0.767   0.717   7.085  0.3530 -1.2151  0.8584
 5216SOL     OW27283   2.049   1.746  14.262  0.0191 -0.2389  0.0366
 5216SOL    HW127284   2.114   1.727  14.329 -0.6854  1.0366  1.0693
 5216SOL    HW227285   1.999   1.807  14.316  0.1974  0.2375 -0.3364
 5217SOL     OW27286   0.043   3.315   4.355 -0.1553 -0.0911 -0.6497
 5217SOL    HW127287   0.052   3.220   4.351  2.1016  0.1338 -1.1003
 5217SOL    HW227288   0.121   3.354   4.314  1.2646 -1.4963  0.7068
 5218SOL     OW27289   3.585   4.105  14.173  0.0780  0.0405  0.0593
 5218SOL    HW127290   3.599   4.012  14.192 -0.0601 -0.0977 -0.5397
 5218SOL    HW227291   3.564   4.108  14.080 -0.5045 -2.2293  0.1142
 5219SOL     OW27292   0.890   3.135   2.901 -0.5407 -0.2182 -0.6553
 5219SOL    HW127293   0.897   3.088   2.818  1.1617 -1.3284  0.1088
 5219SOL    HW227294   0.979   3.126   2.936 -0.2801  2.7963 -0.4953
 5220SOL     OW27295   3.424   0.214   9.804  0.2434  0.5836 -0.0357
 5220SOL    HW127296   3.369   0.158   9.750  0.3337  1.7328 -1.3125
 5220SOL    HW227297   3.459   0.141   9.856 -0.7899  1.7195  2.2870
 5221SOL     OW27298   1.876   0.288   6.958  0.3385 -0.4661  0.2901
 5221SOL    HW127299   1.926   0.308   6.879  0.7783 -0.3601  0.5965
 5221SOL    HW227300   1.853   0.375   6.992  0.6441 -2.0753  4.6622
 5222SOL     OW27301   4.474   2.001   0.877 -0.7065 -0.1731 -0.5784
 5222SOL    HW127302   4.465   1.945   0.954 -0.4269 -0.2016 -0.5680
 5222SOL    HW227303   4.383   2.004   0.846 -0.8489 -0.6357 -0.2082
 5223SOL     OW27304   2.599   4.271   4.738 -0.0508  0.3923  0.5761
 5223SOL    HW127305   2.599   4.194   4.794  2.4633 -0.9376 -1.2272
 5223SOL    HW227306   2.631   4.339   4.797  0.4334 -1.0588  1.9725
 5224SOL     OW27307   3.211   2.624   9.987 -1.0059  0.1486 -0.4090
 5224SOL    HW127308   3.140   2.651  10.045  1.9127 -1.1618  3.6986
 5224SOL    HW227309   3.289   2.640  10.040 -1.8429  2.1172  0.2147
 5225SOL     OW27310   0.956   2.719  11.866  0.4824  0.1221  0.2743
 5225SOL    HW127311   1.035   2.668  11.885 -0.1283  0.4931  3.9030
 5225SOL    HW227312   0.972   2.747  11.776 -0.8940  1.2007  0.3543
 5226SOL     OW27313   2.791   4.098   9.981  0.1860 -0.1487  0.5170
 5226SOL    HW127314   2.755   4.177  10.022 -0.3185  0.5790 -1.2836
 5226SOL    HW227315   2.792   4.040  10.056  3.1278 -0.5054  0.2165
 5227SOL     OW27316   1.028   3.903   7.283 -0.2721 -0.1802 -0.4848
 5227SOL    HW127317   1.100   3.840   7.272 -0.6993 -0.6631 -0.5315
 5227SOL    HW227318   0.973   3.903   7.204 -0.4785  1.9475 -0.3274
 5228SOL     OW27319   2.912   4.720   9.011  0.5682 -0.4023  0.4114
 5228SOL    HW127320   2.846   0.053   9.003  1.5490  0.2673 -2.0516
 5228SOL    HW227321   2.941   4.721   8.919  0.8166  1.0658  0.5067
 5229SOL     OW27322   3.860   0.549   2.246 -0.2992  0.3643 -0.2643
 5229SOL    HW127323   3.849   0.455   2.235  3.3039 -0.0769  0.1356
 5229SOL    HW227324   3.910   0.556   2.327 -2.2146 -2.7588  1.2156
 5230SOL     OW27325   3.814   1.937  13.346 -0.2599 -0.7586 -0.1967
 5230SOL    HW127326   3.835   1.968  13.258 -1.7695 -0.5449 -0.4764
 5230SOL    HW227327   3.895   1.957  13.393 -0.8426 -1.6153  1.1732
 5231SOL     OW27328   2.063   2.054   5.826  0.0670 -0.4520 -0.1874
 5231SOL    HW127329   2.103   2.076   5.742  0.7501 -0.3048  0.1863
 5231SOL    HW227330   2.000   2.125   5.833  1.3321  0.6840 -0.3780
 5232SOL     OW27331   4.355   2.050   3.383  0.2085 -0.2306  0.0094
 5232SOL    HW127332   4.306   2.049   3.300  0.5833 -0.8186 -0.2020
 5232SOL    HW227333   4.305   1.991   3.439 -0.6153  0.1984 -0.2710
 5233SOL     OW27334   1.997   1.108  11.256 -1.0627  0.1906  0.2381
 5233SOL    HW127335   2.033   1.165  11.325  2.0790 -2.5648  0.8826
 5233SOL    HW227336   1.988   1.030  11.311 -0.5149 -2.1261 -2.9735
 5234SOL     OW27337   0.053   4.037   9.891  0.1170  0.1823  0.4391
 5234SOL    HW127338   0.034   4.041   9.798  0.5115  1.0040  0.4001
 5234SOL    HW227339   0.056   4.129   9.916  1.5259  0.2807 -0.0973
 5235SOL     OW27340   4.369   0.387  11.251 -0.7756 -0.0384 -0.0925
 5235SOL    HW127341   4.457   0.355  11.270  1.1718  3.3071 -3.5419
 5235SOL    HW227342   4.376   0.481  11.267  1.1179 -0.1234 -0.4186
 5236SOL     OW27343   3.674   4.182   5.905 -0.4958 -0.3785 -0.0474
 5236SOL    HW127344   3.708   4.165   5.993  0.5851 -0.4231 -0.4629
 5236SOL    HW227345   3.666   4.277   5.906  0.1657 -0.3269  0.3235
 5237SOL     OW27346   4.442   0.147   2.500 -0.0070 -0.2107  0.2269
 5237SOL    HW127347   4.429   0.201   2.578 -0.4322  1.4721 -1.0112
 5237SOL    HW227348   4.523   0.105   2.529  0.1259  0.4274  0.7754
 5238SOL     OW27349   1.299   2.013   7.945 -0.0484 -0.5408  0.0689
 5238SOL    HW127350   1.290   1.970   8.031 -1.9487 -0.1071  0.0777
 5238SOL    HW227351   1.210   2.043   7.925  0.7257  0.0088 -2.5035
 5239SOL     OW27352   2.604   0.066  10.818  0.2638  0.7016  0.2343
 5239SOL    HW127353   2.604   0.146  10.870 -3.0743  0.6946  0.2311
 5239SOL    HW227354   2.695   0.036  10.825 -0.3084 -1.0466  0.1621
 5240SOL     OW27355   1.726   4.280   2.638  0.0512  0.3107  0.1000
 5240SOL    HW127356   1.701   4.367   2.668  2.5870  0.6794  1.1320
 5240SOL    HW227357   1.671   4.275   2.559  0.5119 -0.9751 -0.1383
 5241SOL     OW27358   2.658   3.859   7.988  0.1419  0.6154 -0.6522
 5241SOL    HW127359   2.639   3.808   7.910  4.1485 -1.4274 -0.2644
 5241SOL    HW227360   2.583   3.840   8.044 -0.5382  1.3213 -1.3259
 5242SOL     OW27361   4.485   4.683   3.605 -1.1950 -0.2191 -0.8928
 5242SOL    HW127362   4.408   4.716   3.650  0.5553  2.2020  0.3250
 5242SOL    HW227363   4.444   4.624   3.542 -2.4317  0.7495 -0.9990
 5243SOL     OW27364   3.258   1.421   4.414  0.2002  0.0267 -0.0652
 5243SOL    HW127365   3.287   1.468   4.493 -2.5829  2.2604 -0.3723
 5243SOL    HW227366   3.163   1.422   4.411  0.2393  1.3102 -0.9454
 5244SOL     OW27367   4.614   1.120   3.772  0.5069 -0.0220 -0.2118
 5244SOL    HW127368   4.522   1.120   3.801  0.7562 -1.4829  0.5582
 5244SOL    HW227369   4.641   1.197   3.822  1.7774 -0.8825  0.4093
 5245SOL     OW27370   2.736   0.243   5.829 -0.2019 -0.6302  0.4613
 5245SOL    HW127371   2.669   0.187   5.868 -2.5375  1.9732  0.1852
 5245SOL    HW227372   2.761   0.293   5.907 -1.9931  0.1824  0.5109
 5246SOL     OW27373   4.531   2.398   2.789  0.1080 -0.6931  0.2769
 5246SOL    HW127374   4.564   2.365   2.872 -0.0067 -0.8213  0.2717
 5246SOL    HW227375   4.575   2.340   2.727  1.0467  1.7964 -1.4045
 5247SOL     OW27376   4.627   2.244  13.315 -0.4583  0.2787 -0.0966
 5247SOL    HW127377   4.719   2.243  13.342  0.2399 -1.6859 -2.4749
 5247SOL    HW227378   4.580   2.165  13.342  0.0407 -0.1575 -0.4883
 5248SOL     OW27379   0.863   1.364   2.662 -0.4910 -0.2397  0.3240
 5248SOL    HW127380   0.918   1.413   2.722 -1.6451  2.4544 -0.8042
 5248SOL    HW227381   0.781   1.380   2.709 -0.5286 -1.3413  0.6248
 5249SOL     OW27382   2.340   2.204   6.154  0.0214 -0.8455 -0.1105
 5249SOL    HW127383   2.282   2.136   6.118 -0.2798 -0.8482  0.3794
 5249SOL    HW227384   2.332   2.181   6.246 -0.3130 -0.1015  0.0457
 5250SOL     OW27385   1.073   2.110   5.724  0.0507  0.4592 -0.3656
 5250SOL    HW127386   1.121   2.072   5.650  0.6119 -1.3522  0.9314
 5250SOL    HW227387   1.121   2.075   5.799  0.4498 -2.8273 -2.1497
 5251SOL     OW27388   1.564   2.659   2.834 -0.0086 -0.1701 -0.0955
 5251SOL    HW127389   1.490   2.682   2.890  0.3074  1.3581 -0.3146
 5251SOL    HW227390   1.606   2.576   2.856  0.2679 -0.0129 -0.0354
 5252SOL     OW27391   3.221   1.646   4.911  0.3436  0.5393  0.7196
 5252SOL    HW127392   3.310   1.680   4.897  1.0313 -1.6634 -0.1667
 5252SOL    HW227393   3.189   1.718   4.966 -2.3008  0.4324 -0.6770
 5253SOL     OW27394   4.155   4.085   4.339 -0.6928 -0.2015 -0.5345
 5253SOL    HW127395   4.094   4.121   4.402  1.2200 -0.5481  1.5407
 5253SOL    HW227396   4.230   4.097   4.397 -0.1528 -0.0347 -1.2533
 5254SOL     OW27397   2.853   2.087   8.591 -0.0737 -0.2161  0.3045
 5254SOL    HW127398   2.845   1.999   8.629 -0.9310 -0.4174 -0.3307
 5254SOL    HW227399   2.770   2.094   8.544  0.8533  0.4012 -1.2408
 5255SOL     OW27400   2.909   2.000   1.868  0.5141  0.2179  0.0379
 5255SOL    HW127401   2.946   2.018   1.782 -1.6448  1.6620 -0.5819
 5255SOL    HW227402   2.859   1.919   1.856 -0.6515  1.0348 -0.6262
 5256SOL     OW27403   4.393   0.058   6.132 -0.1332  0.4711 -0.0134
 5256SOL    HW127404   4.420   4.708   6.099 -0.2851  1.1582 -1.9493
 5256SOL    HW227405   4.361   0.033   6.218  2.4787 -1.3379  0.4561
 5257SOL     OW27406   4.163   0.248   7.238  0.2872  0.5510 -0.2550
 5257SOL    HW127407   4.132   0.171   7.287  0.1513  0.9346  0.2540
 5257SOL    HW227408   4.101   0.255   7.165 -0.2110 -0.3247  0.0762
 5258SOL     OW27409   4.595   4.342   0.412 -0.1256 -0.1837  0.5287
 5258SOL    HW127410   4.536   4.266   0.410 -1.0726  0.5708  0.2109
 5258SOL    HW227411   4.549   4.402   0.353  0.4601  0.8362  1.1192
 5259SOL     OW27412   2.127   2.783  11.991  0.2006 -0.0505  0.2111
 5259SOL    HW127413   2.064   2.842  12.032 -0.4971  1.0044 -2.3978
 5259SOL    HW227414   2.205   2.814  12.036 -1.2459 -0.0103  2.7193
 5260SOL     OW27415   3.927   2.290  15.117 -0.6134 -0.2898  0.2517
 5260SOL    HW127416   3.859   2.280  15.050  0.0353 -0.4210 -0.3908
 5260SOL    HW227417   3.910   2.379  15.148 -2.4271  0.1526 -2.0475
 5261SOL     OW27418   2.915   4.347  12.040 -0.5894 -0.0864 -0.5052
 5261SOL    HW127419   2.887   4.378  11.953  2.2018  2.8453 -0.3326
 5261SOL    HW227420   2.989   4.288  12.025 -0.4103  0.2871 -1.1114
 5262SOL     OW27421   2.104   0.704   1.897  0.1855 -0.3021 -0.2233
 5262SOL    HW127422   2.081   0.625   1.946 -0.7954  1.4438  2.0944
 5262SOL    HW227423   2.051   0.774   1.935  0.6087  0.4513 -1.0297
 5263SOL     OW27424   3.613   3.303  10.463 -0.1327 -0.2926 -0.3505
 5263SOL    HW127425   3.558   3.261  10.396 -0.3992  1.6908 -1.3994
 5263SOL    HW227426   3.553   3.331  10.532  0.0731 -1.5558  0.3434
 5264SOL     OW27427   2.609   0.752  10.662  0.1594 -0.1991  0.7354
 5264SOL    HW127428   2.603   0.844  10.636 -2.0952 -1.3720 -3.0205
 5264SOL    HW227429   2.521   0.715  10.649 -1.1994  3.4641 -0.3543
 5265SOL     OW27430   3.429   3.863   3.321  0.5775  0.5225 -0.2685
 5265SOL    HW127431   3.398   3.832   3.406  1.9236  0.0861  0.0505
 5265SOL    HW227432   3.524   3.868   3.329  0.7267 -0.4147 -1.4442
 5266SOL     OW27433   3.497   1.352   1.128 -0.7022 -0.5344 -0.3459
 5266SOL    HW127434   3.524   1.436   1.167  0.1076  0.2078 -2.4827
 5266SOL    HW227435   3.412   1.332   1.166  0.2252 -4.3789 -0.2952
 5267SOL     OW27436   4.324   4.554   5.250  0.1773 -0.0456  0.5498
 5267SOL    HW127437   4.392   4.488   5.251 -0.0161 -0.2622 -0.5980
 5267SOL    HW227438   4.361   4.634   5.289  1.2698 -0.4899  0.4137
 5268SOL     OW27439   4.325   2.483   8.816  0.3761 -0.4821 -0.0925
 5268SOL    HW127440   4.343   2.394   8.846  2.6710  0.3240  0.9555
 5268SOL    HW227441   4.229   2.485   8.821  0.4809  0.4056  1.5164
 5269SOL     OW27442   3.291   3.309   5.294 -0.2820 -0.5038 -0.7813
 5269SOL    HW127443   3.362   3.354   5.249 -0.4510  0.1529 -0.3761
 5269SOL    HW227444   3.216   3.326   5.236 -1.5005  0.8301  1.1645
 5270SOL     OW27445   2.524   0.098   5.935  0.1099 -0.2150 -0.1282
 5270SOL    HW127446   2.435   0.071   5.912  0.0299 -0.5397  0.5645
 5270SOL    HW227447   2.546   0.031   5.999  2.7354  0.9575  0.1911
 5271SOL     OW27448   3.995   4.587   5.410  0.1385  0.0485  0.3762
 5271SOL    HW127449   3.998   4.492   5.405 -0.3767  0.0777 -0.5257
 5271SOL    HW227450   4.071   4.612   5.462 -1.7763 -0.4060  3.4410
 5272SOL     OW27451   2.429   0.127  14.662  0.4204  0.4349  0.5878
 5272SOL    HW127452   2.438   0.182  14.585 -0.3665 -1.3155 -0.7475
 5272SOL    HW227453   2.457   0.042  14.628  0.7136  0.7356  0.0896
 5273SOL     OW27454   3.659   2.081   4.523  0.2989 -0.2768  0.4683
 5273SOL    HW127455   3.567   2.077   4.549  0.6916 -0.4108  1.8834
 5273SOL    HW227456   3.654   2.018   4.451 -1.3462 -0.1662  0.4786
 5274SOL     OW27457   3.856   1.715   1.965 -0.1564 -0.6435 -0.0835
 5274SOL    HW127458   3.780   1.681   1.918 -0.5454  2.5034 -1.7371
 5274SOL    HW227459   3.812   1.770   2.030 -1.6486  0.3513 -1.9203
 5275SOL     OW27460   4.611   2.148  15.287 -0.6060 -0.0972  0.1394
 5275SOL    HW127461   4.551   2.086  15.246 -2.1030  0.6881  1.1024
 5275SOL    HW227462   4.575   2.224  15.241 -1.4332  1.4298  3.2523
 5276SOL     OW27463   3.162   0.408  11.720 -0.5866 -0.2959  0.0422
 5276SOL    HW127464   3.146   0.378  11.631  2.2637  0.1598 -0.6076
 5276SOL    HW227465   3.248   0.375  11.744 -1.2998 -1.6338  0.7735
 5277SOL     OW27466   2.387   4.179   3.656  0.0762 -0.0398  0.3535
 5277SOL    HW127467   2.453   4.248   3.662 -1.0428  0.9353  1.3424
 5277SOL    HW227468   2.428   4.112   3.602  0.8917  0.2198  0.6585
 5278SOL     OW27469   2.632   0.727   0.355 -0.1219 -0.2764 -0.2850
 5278SOL    HW127470   2.614   0.765   0.441 -2.6477 -2.0045 -0.0398
 5278SOL    HW227471   2.688   0.652   0.373  0.3348  0.3647  0.9542
 5279SOL     OW27472   1.925   2.288  17.145 -0.1075  0.4859 -0.2932
 5279SOL    HW127473   1.920   2.310  17.238 -2.1305  2.3206 -0.8289
 5279SOL    HW227474   1.849   2.333  17.108  0.6010  2.7962  1.0646
 5280SOL     OW27475   3.556   3.800   9.884 -0.2441 -0.2458  0.0646
 5280SOL    HW127476   3.532   3.875   9.938 -1.0024 -0.0376 -0.5433
 5280SOL    HW227477   3.648   3.822   9.870 -0.8737  0.8891 -2.3689
 5281SOL     OW27478   3.857   3.809  15.150  0.0516 -0.5888  0.1164
 5281SOL    HW127479   3.925   3.848  15.205 -0.2574  0.8281 -0.5142
 5281SOL    HW227480   3.909   3.774  15.077  0.9395  2.1443 -0.5743
 5282SOL     OW27481   2.229   4.411   2.216  0.0538 -0.2842 -0.1723
 5282SOL    HW127482   2.267   4.430   2.131  2.2340  0.3309  0.9403
 5282SOL    HW227483   2.174   4.487   2.234 -1.4304 -1.1733 -0.8937
 5283SOL     OW27484   3.405   2.173   5.351 -0.0041  0.1569 -0.3335
 5283SOL    HW127485   3.497   2.191   5.333  0.3880 -1.2446  0.3138
 5283SOL    HW227486   3.365   2.178   5.264 -1.3557  1.4980  0.3782
 5284SOL     OW27487   0.056   2.036   5.741 -0.0426 -0.6238 -0.2408
 5284SOL    HW127488   4.733   1.992   5.801 -0.3917  0.6948  0.3892
 5284SOL    HW227489   0.074   1.966   5.678  0.5902  1.1360 -2.0190
 5285SOL     OW27490   1.508   4.415   1.946 -0.4764 -0.3244  0.3065
 5285SOL    HW127491   1.474   4.337   1.902  0.0204  0.9382 -2.3320
 5285SOL    HW227492   1.447   4.416   2.020 -1.7392 -0.4845 -0.7318
 5286SOL     OW27493   3.096   3.368  16.710  0.5979  0.4117  0.1747
 5286SOL    HW127494   3.105   3.288  16.659  1.4602  0.9380 -0.5000
 5286SOL    HW227495   3.047   3.339  16.787  0.0237 -0.3094 -0.4688
 5287SOL     OW27496   2.504   3.835   9.942 -0.5899  0.4706 -0.0512
 5287SOL    HW127497   2.428   3.798   9.987 -0.0462 -2.3939 -1.5370
 5287SOL    HW227498   2.568   3.806  10.007 -0.2778 -1.1819 -1.1031
 5288SOL     OW27499   3.503   2.884   2.940  0.5716  0.2030  0.3474
 5288SOL    HW127500   3.578   2.871   2.999  1.9398  3.8299 -0.6053
 5288SOL    HW227501   3.552   2.900   2.860 -1.3734 -1.2187 -1.1234
 5289SOL     OW27502   1.697   2.557   2.329  0.0173 -0.0653  0.1051
 5289SOL    HW127503   1.726   2.634   2.281 -1.2550  0.6465  0.4589
 5289SOL    HW227504   1.769   2.495   2.321  1.0361  1.0808  0.4068
 5290SOL     OW27505   2.274   0.399   1.392  0.4649 -0.2212  0.4270
 5290SOL    HW127506   2.369   0.405   1.391  0.5309 -1.2612  0.1972
 5290SOL    HW227507   2.258   0.431   1.303  0.7701 -0.9086  0.1213
 5291SOL     OW27508   4.131   0.759  17.626  0.4990 -0.1175 -0.0981
 5291SOL    HW127509   4.213   0.720  17.594  0.0390 -0.6530 -0.6327
 5291SOL    HW227510   4.112   0.820  17.555 -1.0927  1.3130  1.6111
 5292SOL     OW27511   0.223   3.043   4.736  0.1560 -0.3685  1.1739
 5292SOL    HW127512   0.227   2.958   4.781  2.8366 -0.5684  0.5885
 5292SOL    HW227513   0.171   3.010   4.662 -1.4661 -0.0808  2.2017
 5293SOL     OW27514   3.671   1.269   8.197 -0.1525 -0.0939 -0.4682
 5293SOL    HW127515   3.631   1.264   8.284 -0.4945  0.7218 -0.5740
 5293SOL    HW227516   3.755   1.229   8.219 -0.4825 -0.1573  0.7060
 5294SOL     OW27517   2.894   4.527  15.957 -0.6462  0.0049  0.0143
 5294SOL    HW127518   2.874   4.561  16.044  1.1534  3.1751 -0.8317
 5294SOL    HW227519   2.929   4.607  15.918  2.6287 -1.2277  0.4863
 5295SOL     OW27520   1.238   0.202   9.620 -0.4099  0.4336  0.0078
 5295SOL    HW127521   1.283   0.273   9.666 -2.0465  1.3316  0.1918
 5295SOL    HW227522   1.178   0.160   9.681  0.1997  0.3653  0.5550
 5296SOL     OW27523   2.503   4.013   7.119  0.5426 -0.0893  0.5819
 5296SOL    HW127524   2.415   4.027   7.154 -0.8903 -0.5978 -2.8658
 5296SOL    HW227525   2.498   4.077   7.049 -0.7994  1.5752  2.2049
 5297SOL     OW27526   1.966   0.945   8.598  0.2578 -0.4942  0.4924
 5297SOL    HW127527   1.922   0.895   8.529 -0.3705 -1.2237  1.4199
 5297SOL    HW227528   1.958   1.031   8.558 -0.6397 -1.6785 -1.9169
 5298SOL     OW27529   2.975   3.278   8.403 -0.1847 -0.0472  0.3308
 5298SOL    HW127530   3.045   3.322   8.354  0.6578 -0.6777  0.9782
 5298SOL    HW227531   3.002   3.299   8.492  1.1289 -0.0712 -0.0686
 5299SOL     OW27532   0.634   2.800   5.872  0.2052  0.1506  0.1831
 5299SOL    HW127533   0.699   2.795   5.802 -1.1898 -1.4838 -0.9923
 5299SOL    HW227534   0.556   2.833   5.826  0.5898  0.1783 -0.4537
 5300SOL     OW27535   3.713   0.810  17.214 -0.3365 -0.7528  0.1714
 5300SOL    HW127536   3.750   0.723  17.227 -0.2916 -0.9795 -1.4237
 5300SOL    HW227537   3.759   0.853  17.286 -1.6029 -0.4545  0.8056
 5301SOL     OW27538   0.094   4.296   4.615  0.3834  0.1604  0.2169
 5301SOL    HW127539   0.120   4.382   4.581  0.4605  0.5210  1.1934
 5301SOL    HW227540   0.100   4.313   4.709 -0.8747 -0.2002  0.3627
 5302SOL     OW27541   1.042   1.534   2.199 -0.6550  0.3373 -0.4085
 5302SOL    HW127542   0.996   1.484   2.267  1.0287  0.2194  0.6318
 5302SOL    HW227543   1.032   1.623   2.232  0.7448 -0.1286  1.2307
 5303SOL     OW27544   2.155   1.089   0.475 -0.6862  0.0506 -0.4544
 5303SOL    HW127545   2.066   1.114   0.450 -1.1372 -2.4535 -1.3116
 5303SOL    HW227546   2.134   1.001   0.507  1.1753 -1.3220 -3.0108
 5304SOL     OW27547   0.358   0.704   5.713  0.1872  0.3172 -0.1874
 5304SOL    HW127548   0.340   0.639   5.780 -1.3915 -0.2209 -1.1254
 5304SOL    HW227549   0.345   0.658   5.630  1.5187  0.7616 -0.6403
 5305SOL     OW27550   3.253   4.143   3.539 -0.3656  0.1048 -0.1636
 5305SOL    HW127551   3.282   4.085   3.610 -0.9310 -1.5733 -1.3175
 5305SOL    HW227552   3.206   4.094   3.473 -0.3290  0.5307 -0.5032
 5306SOL     OW27553   2.551   2.346  14.157 -0.0091  0.6597  0.0547
 5306SOL    HW127554   2.480   2.329  14.096  1.9565 -1.5935 -1.6085
 5306SOL    HW227555   2.512   2.300  14.231 -1.7140  0.7345 -0.7878
 5307SOL     OW27556   3.215   3.406   6.758 -0.0572 -1.0637  0.0371
 5307SOL    HW127557   3.195   3.351   6.682 -0.8937 -1.3478  0.4684
 5307SOL    HW227558   3.300   3.443   6.735  0.3609 -1.3870  1.0768
 5308SOL     OW27559   3.008   1.189   5.152 -0.0380 -0.2034 -0.1305
 5308SOL    HW127560   3.072   1.259   5.137  0.3414 -0.7529 -1.1039
 5308SOL    HW227561   2.977   1.172   5.063 -2.9943 -2.0897  1.2757
 5309SOL     OW27562   2.846   4.354   1.994  0.5526 -0.3464 -0.3771
 5309SOL    HW127563   2.766   4.351   2.047  0.9340 -3.0075  0.0650
 5309SOL    HW227564   2.835   4.274   1.942  1.4447 -1.3553  0.9827
 5310SOL     OW27565   1.230   2.169   8.213 -0.2743 -0.0301 -0.4121
 5310SOL    HW127566   1.319   2.161   8.178  0.5216 -0.7448  1.7717
 5310SOL    HW227567   1.214   2.075   8.222  0.1274  0.0194  0.8930
 5311SOL     OW27568   2.783   4.633   3.616  0.8116 -0.4201 -0.2548
 5311SOL    HW127569   2.786   4.724   3.587  1.8776 -0.2724  0.3292
 5311SOL    HW227570   2.771   4.586   3.533 -1.2301 -0.8006  0.2545
 5312SOL     OW27571   1.825   3.880   0.822  0.4005 -0.3300 -0.3028
 5312SOL    HW127572   1.865   3.861   0.737 -1.7043 -1.7347 -0.9586
 5312SOL    HW227573   1.765   3.805   0.826 -0.2739  0.2485  0.2380
 5313SOL     OW27574   0.658   2.343   2.203  0.6013  0.5108 -0.2381
 5313SOL    HW127575   0.586   2.326   2.143  0.1119 -0.3657  0.6087
 5313SOL    HW227576   0.612   2.355   2.286  2.2636  0.2617  0.7188
 5314SOL     OW27577   2.703   1.904   2.410  0.2769  0.6470  0.0141
 5314SOL    HW127578   2.665   1.971   2.353 -0.1776 -2.0511 -2.8850
 5314SOL    HW227579   2.660   1.829   2.368 -0.3856  1.9806 -1.7079
 5315SOL     OW27580   1.199   1.172   8.062  0.0203 -0.1076  0.3498
 5315SOL    HW127581   1.125   1.197   8.118 -1.2516 -2.2323 -0.3964
 5315SOL    HW227582   1.159   1.164   7.976 -3.7810  0.2272  2.0733
 5316SOL     OW27583   1.614   2.908  12.967  0.1765  0.0308  0.2647
 5316SOL    HW127584   1.560   2.929  12.891  1.5901  1.4211 -0.3572
 5316SOL    HW227585   1.623   2.814  12.955 -1.2593 -0.2505  1.3860
 5317SOL     OW27586   0.102   2.957   2.694 -0.0605  0.0681 -0.7297
 5317SOL    HW127587   0.041   2.929   2.626 -0.7747  2.6735 -1.1418
 5317SOL    HW227588   0.091   3.052   2.700 -0.8744 -0.2391  2.7615
 5318SOL     OW27589   0.273   1.269   5.374 -0.4041 -0.0766 -0.0899
 5318SOL    HW127590   0.313   1.211   5.439  3.3178  1.6864 -0.8186
 5318SOL    HW227591   0.315   1.354   5.387  0.7608 -0.4046 -1.7030
 5319SOL     OW27592   0.956   1.481   4.437  0.3089 -0.1170 -0.7809
 5319SOL    HW127593   1.001   1.428   4.371  0.6093  0.6206 -1.1661
 5319SOL    HW227594   0.870   1.470   4.397  0.2128  0.9174 -0.8581
 5320SOL     OW27595   3.741   2.077  15.719 -0.2953 -0.6404 -0.1046
 5320SOL    HW127596   3.667   2.061  15.660  0.7469  0.9316 -1.8181
 5320SOL    HW227597   3.796   2.130  15.662  1.5444 -0.0775  2.1934
 5321SOL     OW27598   0.616   3.191  14.360  0.4096  0.2921  0.4599
 5321SOL    HW127599   0.587   3.153  14.277  2.9211  1.0491 -0.7656
 5321SOL    HW227600   0.705   3.162  14.380  0.3609 -1.1417 -1.3599
 5322SOL     OW27601   1.641   2.958   7.480 -0.2272  0.1139 -0.3582
 5322SOL    HW127602   1.564   3.016   7.485 -0.5185 -0.6584  4.2248
 5322SOL    HW227603   1.684   2.969   7.564  2.9158  1.4002 -2.1329
 5323SOL     OW27604   2.119   4.528   3.243  0.4210  0.3175 -0.0646
 5323SOL    HW127605   2.186   4.468   3.277  0.5963  0.2994 -0.4430
 5323SOL    HW227606   2.105   4.502   3.152 -1.6091 -2.1871  0.9710
 5324SOL     OW27607   4.174   2.551  15.903  0.0006  0.2511  0.0674
 5324SOL    HW127608   4.107   2.527  15.839  2.3077  1.5910 -2.8550
 5324SOL    HW227609   4.258   2.522  15.868  0.5548  2.1520 -0.2046
 5325SOL     OW27610   2.995   2.863  16.463  0.2097  0.2859 -0.5856
 5325SOL    HW127611   3.017   2.865  16.556  1.1412 -3.1402 -0.7177
 5325SOL    HW227612   2.910   2.905  16.475 -0.9638 -1.2438 -3.5193
 5326SOL     OW27613   4.050   3.413   9.299 -0.0954 -0.2107  0.1771
 5326SOL    HW127614   3.977   3.467   9.269  1.6202  0.9545 -1.8681
 5326SOL    HW227615   4.064   3.464   9.379 -1.6753  1.7555 -0.7988
 5327SOL     OW27616   2.236   2.474  14.689 -0.2018 -0.2211  0.2705
 5327SOL    HW127617   2.142   2.453  14.685  0.1477 -1.2958 -2.2214
 5327SOL    HW227618   2.250   2.479  14.784 -2.0525 -2.6470  0.6763
 5328SOL     OW27619   1.640   0.508   6.502 -0.4049  0.0212 -0.2697
 5328SOL    HW127620   1.621   0.494   6.595  1.5740  0.4082  0.2054
 5328SOL    HW227621   1.736   0.515   6.510 -0.2055 -1.5148 -1.4330
 5329SOL     OW27622   3.347   2.908   8.884  0.0820 -0.2076  0.1186
 5329SOL    HW127623   3.345   2.915   8.980 -0.7390 -1.1056  0.1687
 5329SOL    HW227624   3.355   2.814   8.866 -3.3847 -0.3324 -0.7443
 5330SOL     OW27625   0.781   2.324  14.804 -0.2609  0.0571 -0.0766
 5330SOL    HW127626   0.687   2.321  14.817  0.0072 -2.0765  1.3858
 5330SOL    HW227627   0.818   2.273  14.877  1.8354  1.7587  0.0337
 5331SOL     OW27628   4.182   3.610   4.146  0.3747  0.3259  0.0059
 5331SOL    HW127629   4.248   3.554   4.103 -2.0462 -1.4029 -1.4454
 5331SOL    HW227630   4.103   3.592   4.095 -1.1297  4.0284  1.0786
 5332SOL     OW27631   2.114   4.168   1.004  0.1687  0.2672  0.3197
 5332SOL    HW127632   2.084   4.258   1.010 -1.8390 -0.4258  0.6701
 5332SOL    HW227633   2.209   4.174   1.009  0.3915 -1.4883 -1.7666
 5333SOL     OW27634   0.083   0.960   9.143 -0.1565  0.2058  0.0144
 5333SOL    HW127635   0.078   1.001   9.057  0.7144 -1.2548 -0.7455
 5333SOL    HW227636   0.155   0.897   9.142 -1.8492 -1.7076 -1.6122
 5334SOL     OW27637   2.041   3.909   2.997 -0.2716  0.2584  0.0974
 5334SOL    HW127638   1.961   3.876   2.956  1.6952 -2.5801 -1.4410
 5334SOL    HW227639   2.042   3.998   2.964 -1.6317 -0.1557 -1.0463
 5335SOL     OW27640   0.908   2.784  16.263  0.0355  0.1725  0.0460
 5335SOL    HW127641   0.869   2.860  16.220  0.0769  0.2687  0.1792
 5335SOL    HW227642   0.987   2.761  16.213  0.6776 -0.3611  1.3101
 5336SOL     OW27643   3.506   1.097  17.518  0.1524 -0.5072  0.5393
 5336SOL    HW127644   3.449   1.170  17.497  0.6110 -0.4068 -0.3750
 5336SOL    HW227645   3.588   1.140  17.544 -0.3511  1.0037 -0.4492
 5337SOL     OW27646   1.890   0.518   9.159 -0.0952  0.6372  0.5005
 5337SOL    HW127647   1.830   0.449   9.186  0.0910  0.5210  0.6193
 5337SOL    HW227648   1.967   0.466   9.136 -0.9232 -0.3027 -0.1177
 5338SOL     OW27649   4.395   2.918   5.835 -0.6031  0.5013 -0.0845
 5338SOL    HW127650   4.326   2.882   5.892 -2.2352  0.8770 -1.8336
 5338SOL    HW227651   4.379   2.870   5.754 -0.1508 -0.4475  0.3838
 5339SOL     OW27652   3.704   1.185   7.010  0.7479  0.1298  0.1928
 5339SOL    HW127653   3.634   1.169   7.074  0.9195 -1.4377 -0.0012
 5339SOL    HW227654   3.662   1.252   6.957  1.2891  0.6401  0.4144
 5340SOL     OW27655   4.405   3.440  12.510 -0.1711  0.1802 -0.0150
 5340SOL    HW127656   4.338   3.507  12.513  1.1412  1.3934  2.7973
 5340SOL    HW227657   4.453   3.446  12.427  0.1646  0.2703  0.1849
 5341SOL     OW27658   0.645   3.235  17.596  0.0315 -0.8961 -0.1015
 5341SOL    HW127659   0.615   3.324  17.580  0.4414 -1.0702 -1.8472
 5341SOL    HW227660   0.571   3.216  17.653  0.0786 -0.7981 -0.0079
 5342SOL     OW27661   1.558   4.354  16.386 -0.5477  0.2716  0.3080
 5342SOL    HW127662   1.545   4.385  16.296  1.7243  2.4861  0.7305
 5342SOL    HW227663   1.506   4.406  16.447 -1.5316 -0.5923  0.1986
 5343SOL     OW27664   4.562   2.578   8.739 -0.4318  0.0869  0.0404
 5343SOL    HW127665   4.614   2.564   8.818 -0.6471  3.4998  0.7762
 5343SOL    HW227666   4.472   2.552   8.760  0.5013 -0.7587  3.0129
 5344SOL     OW27667   1.096   4.221   7.040  0.5558  0.5842 -0.3902
 5344SOL    HW127668   1.070   4.189   7.126  2.0671  0.5555  0.0550
 5344SOL    HW227669   1.190   4.201   7.039  0.1722 -1.1718 -1.9561
 5345SOL     OW27670   1.249   3.576   7.316 -0.2719 -0.1543 -0.0317
 5345SOL    HW127671   1.234   3.507   7.381 -1.4535  1.1657  1.0832
 5345SOL    HW227672   1.212   3.532   7.239 -0.4480 -0.4950  0.2475
 5346SOL     OW27673   0.907   0.504  13.185 -0.3479  0.1155  0.5749
 5346SOL    HW127674   0.858   0.501  13.267  2.0833 -0.7665  2.0153
 5346SOL    HW227675   0.949   0.589  13.204 -2.2415  0.9620  0.9939
 5347SOL     OW27676   3.730   1.097   2.116  0.2777 -0.2448 -0.3546
 5347SOL    HW127677   3.733   1.192   2.117  1.0271 -0.2775  0.2554
 5347SOL    HW227678   3.785   1.076   2.041  0.3954  0.6523 -0.5163
 5348SOL     OW27679   2.742   0.818   8.871  0.3666 -0.3297 -0.8396
 5348SOL    HW127680   2.768   0.726   8.881 -0.6080 -0.8084 -2.7355
 5348SOL    HW227681   2.732   0.825   8.966  0.8544 -3.3003 -0.5524
 5349SOL     OW27682   3.042   3.899  16.520  0.6710 -0.4298  0.1770
 5349SOL    HW127683   3.010   3.812  16.542  0.1730 -0.4633 -0.6879
 5349SOL    HW227684   3.015   3.899  16.428  0.2539 -1.3305  0.3069
 5350SOL     OW27685   0.091   0.789   3.563 -0.1602  0.0374  0.6911
 5350SOL    HW127686   0.168   0.836   3.594 -0.1168 -1.4703  2.8350
 5350SOL    HW227687   0.022   0.808   3.626 -0.1237 -2.0857  1.3700
 5351SOL     OW27688   3.948   3.076   6.238  0.4177 -0.0004 -0.3423
 5351SOL    HW127689   3.871   3.128   6.213  1.5604  1.8654  0.0353
 5351SOL    HW227690   3.974   3.047   6.150  0.0074  2.7365 -1.3627
 5352SOL     OW27691   2.180   4.698   2.220  0.3874  0.7411  0.1568
 5352SOL    HW127692   2.105   4.694   2.278  0.1974 -2.2693 -0.3195
 5352SOL    HW227693   2.141   4.703   2.132 -0.0884  0.9885  0.3817
 5353SOL     OW27694   2.959   2.351   7.880  0.6387  0.3338  0.0323
 5353SOL    HW127695   2.989   2.393   7.961  1.7467 -0.9473  0.2821
 5353SOL    HW227696   2.958   2.258   7.902  0.3155  0.2649 -0.2742
 5354SOL     OW27697   1.172   3.743  11.417  0.4707 -0.5026  0.1178
 5354SOL    HW127698   1.126   3.802  11.358  0.0063 -1.7793 -0.7860
 5354SOL    HW227699   1.143   3.781  11.500 -1.7626 -2.1170  0.0845
 5355SOL     OW27700   2.260   1.719   3.738 -0.3149 -0.3909 -0.0662
 5355SOL    HW127701   2.343   1.741   3.781 -0.8915  0.7879  0.4306
 5355SOL    HW227702   2.194   1.720   3.807  0.3781  2.0004  0.5587
 5356SOL     OW27703   1.369   4.218  14.812  0.0511 -0.1257 -0.2879
 5356SOL    HW127704   1.403   4.306  14.828  3.4646 -2.3373  4.4746
 5356SOL    HW227705   1.427   4.181  14.746 -0.3986  0.0244 -0.7641
 5357SOL     OW27706   4.065   1.271   7.324 -0.4541  0.0930 -0.2097
 5357SOL    HW127707   4.136   1.283   7.260  0.5783 -1.7170  0.5862
 5357SOL    HW227708   4.112   1.231   7.398  2.9209  1.2388 -1.7512
 5358SOL     OW27709   2.579   3.156   5.437  0.7368  0.3219 -0.1292
 5358SOL    HW127710   2.488   3.131   5.452  0.5888  0.8866 -0.1152
 5358SOL    HW227711   2.569   3.242   5.398 -1.5262 -0.5057 -1.4081
 5359SOL     OW27712   3.753   0.759  13.575  0.2800  0.1624  0.3979
 5359SOL    HW127713   3.754   0.663  13.576  1.9618  0.1884  1.0997
 5359SOL    HW227714   3.678   0.774  13.633 -1.8901 -2.8232 -1.6466
 5360SOL     OW27715   3.103   1.293  11.178  0.1344  0.0184  0.8300
 5360SOL    HW127716   3.156   1.318  11.103 -0.6246  0.3717  0.4110
 5360SOL    HW227717   3.159   1.221  11.206  3.5553  2.0327 -0.9918
 5361SOL     OW27718   0.973   4.409   5.279 -0.1678  0.3532 -0.0986
 5361SOL    HW127719   0.981   4.461   5.199 -1.7016  1.8046  0.6961
 5361SOL    HW227720   1.025   4.336   5.245 -0.6361 -0.3106  0.6199
 5362SOL     OW27721   1.959   3.990   3.742  0.2817 -0.1367 -0.5030
 5362SOL    HW127722   1.902   3.913   3.740  0.4335 -0.1910 -3.2227
 5362SOL    HW227723   2.040   3.945   3.767  0.1283 -0.9621 -1.4742
 5363SOL     OW27724   1.405   3.382  12.353 -0.1188 -0.0333 -0.3685
 5363SOL    HW127725   1.478   3.426  12.310  0.4087 -0.2936  0.2611
 5363SOL    HW227726   1.386   3.321  12.281 -0.5854 -2.5641  1.9276
 5364SOL     OW27727   0.274   1.600   2.918 -0.4942  0.0969 -0.1879
 5364SOL    HW127728   0.240   1.671   2.864  0.5758 -0.0736 -1.0769
 5364SOL    HW227729   0.354   1.576   2.872 -1.1810  0.0024 -1.3556
 5365SOL     OW27730   0.654   2.136  12.120  0.8531  0.4083  0.9493
 5365SOL    HW127731   0.599   2.192  12.065  1.2053 -0.1707  0.0064
 5365SOL    HW227732   0.680   2.190  12.195  0.1674  1.3657  0.4898
 5366SOL     OW27733   1.982   2.492   9.381  0.5973  0.0109 -0.0905
 5366SOL    HW127734   2.075   2.510   9.397  0.5285  0.4265 -0.1677
 5366SOL    HW227735   1.999   2.448   9.297  0.7142  0.8367 -0.4981
 5367SOL     OW27736   1.199   1.425   5.440  0.0493  0.3658 -0.2317
 5367SOL    HW127737   1.140   1.357   5.405  0.8881 -0.0707 -0.7917
 5367SOL    HW227738   1.145   1.498   5.410  2.6659  1.9644 -1.0172
 5368SOL     OW27739   4.552   2.683   0.162  0.2529 -0.0627  0.4019
 5368SOL    HW127740   4.483   2.619   0.180  1.2515 -0.4478  2.8246
 5368SOL    HW227741   4.622   2.661   0.224 -0.4864  1.8077  1.8785
 5369SOL     OW27742   0.088   1.061   2.095  0.4727  0.1445  0.3200
 5369SOL    HW127743   0.074   1.066   2.000 -0.0781  0.0749  0.3958
 5369SOL    HW227744   0.014   1.112   2.128 -0.3321 -0.0781 -1.1503
 5370SOL     OW27745   0.637   3.182  12.211 -0.0078 -0.5339 -0.4975
 5370SOL    HW127746   0.613   3.089  12.205 -0.9506 -0.3143 -0.1854
 5370SOL    HW227747   0.708   3.184  12.147 -0.7777  1.5745 -1.2900
 5371SOL     OW27748   3.737   1.220   1.108  0.1563  0.0914  0.0636
 5371SOL    HW127749   3.653   1.264   1.126 -0.5694 -0.7927 -1.1107
 5371SOL    HW227750   3.790   1.243   1.183 -0.6451  1.8401  0.1064
 5372SOL     OW27751   3.030   3.383   4.794  0.5516  0.4792  0.3137
 5372SOL    HW127752   2.953   3.375   4.851 -0.3595 -0.1666 -1.0114
 5372SOL    HW227753   2.994   3.350   4.712 -1.3819 -0.4677  1.5363
 5373SOL     OW27754   2.109   0.273  13.222  0.5462 -0.3222  0.0796
 5373SOL    HW127755   2.083   0.182  13.205  0.6284 -0.8664  2.8378
 5373SOL    HW227756   2.162   0.293  13.145 -0.2105  1.9511  0.1535
 5374SOL     OW27757   3.706   0.792   8.477  0.0340  0.1109 -0.2447
 5374SOL    HW127758   3.642   0.722   8.486 -1.2143  1.2992  0.2211
 5374SOL    HW227759   3.715   0.811   8.570  4.7223 -0.9171 -0.4837
 5375SOL     OW27760   4.444   1.278   5.669 -0.4269 -0.5064 -0.1534
 5375SOL    HW127761   4.492   1.267   5.587 -1.5559  1.2677 -1.0689
 5375SOL    HW227762   4.454   1.190   5.705  0.7080 -0.9059 -1.4134
 5376SOL     OW27763   0.518   2.048  16.804  0.2475 -0.0095  0.3460
 5376SOL    HW127764   0.423   2.042  16.794  0.4009 -1.8860  0.1409
 5376SOL    HW227765   0.547   2.067  16.715 -1.1811 -0.4397 -0.1955
 5377SOL     OW27766   1.165   4.032   7.927  0.0523 -0.1959  0.1392
 5377SOL    HW127767   1.074   4.008   7.908 -0.4333  2.2269 -0.6113
 5377SOL    HW227768   1.153   4.053   8.020  2.0392 -0.6032  0.4724
 5378SOL     OW27769   4.551   1.373   4.803  0.2310 -0.4344 -0.4022
 5378SOL    HW127770   4.566   1.282   4.828  1.5413 -0.1630 -0.2100
 5378SOL    HW227771   4.576   1.367   4.710 -0.6423 -2.9571 -0.4776
 5379SOL     OW27772   1.115   0.764  13.209 -0.6526  0.5765  0.4174
 5379SOL    HW127773   1.209   0.747  13.207 -0.8909 -0.7370  0.2564
 5379SOL    HW227774   1.077   0.738  13.292  0.2427 -0.2593  0.5691
 5380SOL     OW27775   1.407   1.830   0.173 -0.3079 -0.0014 -0.1517
 5380SOL    HW127776   1.482   1.888   0.182 -0.2454 -0.6369  3.1362
 5380SOL    HW227777   1.348   1.896   0.135  0.2654  0.7387  0.2456
 5381SOL     OW27778   3.061   0.193   1.493  0.1648 -0.6892  0.8049
 5381SOL    HW127779   3.100   0.260   1.549 -1.1059 -1.0405  2.0855
 5381SOL    HW227780   3.086   0.230   1.408  0.3388 -0.3543  1.0010
 5382SOL     OW27781   3.642   1.300   0.858  0.5436  0.2507  0.3539
 5382SOL    HW127782   3.671   1.258   0.940 -0.9305 -2.3072 -0.4193
 5382SOL    HW227783   3.554   1.322   0.889  0.5031  0.6912 -0.0876
 5383SOL     OW27784   2.363   3.724   7.067  0.5755  0.1765  0.1591
 5383SOL    HW127785   2.295   3.659   7.053  0.2697  0.1727  1.7032
 5383SOL    HW227786   2.346   3.797   7.008  1.1679 -0.8281 -1.2496
 5384SOL     OW27787   3.971   0.309   3.603 -0.5740 -0.3823 -0.1240
 5384SOL    HW127788   4.019   0.363   3.540  0.1371 -1.7123 -0.7021
 5384SOL    HW227789   3.879   0.334   3.595 -0.2260  0.4903 -1.4301
 5385SOL     OW27790   0.847   0.498  14.133 -0.2072 -0.1399  0.2880
 5385SOL    HW127791   0.902   0.556  14.081 -1.8226  0.0139 -1.2435
 5385SOL    HW227792   0.887   0.412  14.115 -3.0336 -1.2536 -0.7268
 5386SOL     OW27793   1.771   3.551   7.931  0.4177  0.2128  0.1709
 5386SOL    HW127794   1.781   3.642   7.902 -4.0337  0.9117  0.7968
 5386SOL    HW227795   1.851   3.513   7.894  0.4465 -1.7270  2.2392
 5387SOL     OW27796   2.373   2.013   4.742 -0.2333 -0.3178  0.5151
 5387SOL    HW127797   2.426   2.080   4.699  2.8329 -0.8848  3.4465
 5387SOL    HW227798   2.397   2.009   4.834  1.9281 -0.4811 -0.0533
 5388SOL     OW27799   1.304   0.391   9.795 -0.2403 -0.1655 -0.1516
 5388SOL    HW127800   1.284   0.367   9.886 -0.2112  1.6528  0.3236
 5388SOL    HW227801   1.256   0.474   9.796 -1.8128 -1.0687 -0.6061
 5389SOL     OW27802   4.481   1.877   3.918  0.2654  0.2958 -0.2799
 5389SOL    HW127803   4.417   1.887   3.847  0.9004 -1.2203 -1.0568
 5389SOL    HW227804   4.510   1.791   3.890 -0.6135  0.7160 -2.5175
 5390SOL     OW27805   1.853   1.461   6.215  0.2218 -0.8592 -0.1861
 5390SOL    HW127806   1.808   1.377   6.219 -0.8355 -0.3657 -1.7391
 5390SOL    HW227807   1.939   1.440   6.251  0.1958 -0.7396 -0.0571
 5391SOL     OW27808   3.815   3.593   3.398 -0.3018  0.2359 -0.1631
 5391SOL    HW127809   3.782   3.513   3.439  0.6430 -0.4904 -0.8343
 5391SOL    HW227810   3.850   3.554   3.318  0.5448 -0.1863  0.4178
 5392SOL     OW27811   2.370   3.185   9.794 -0.3336  0.8473  0.5293
 5392SOL    HW127812   2.400   3.134   9.718  0.9419  0.2322  1.4489
 5392SOL    HW227813   2.281   3.195   9.759 -0.7628  1.8709  1.9171
 5393SOL     OW27814   1.646   1.611  15.007 -0.1343  0.3686  0.4112
 5393SOL    HW127815   1.651   1.614  15.103 -3.3033  1.4986  0.5372
 5393SOL    HW227816   1.594   1.687  14.981  0.3824  1.1763  1.7333
 5394SOL     OW27817   0.714   0.271   3.371 -0.2656  0.6290 -0.3779
 5394SOL    HW127818   0.661   0.194   3.352  1.2348 -0.3662 -0.4909
 5394SOL    HW227819   0.704   0.315   3.286 -1.8628  2.0725  0.5609
 5395SOL     OW27820   4.129   2.696   4.998  0.2328 -0.4818  0.2048
 5395SOL    HW127821   4.163   2.783   4.977 -0.1271 -0.0130  1.5415
 5395SOL    HW227822   4.144   2.648   4.916  1.1084 -2.2041  1.4026
 5396SOL     OW27823   0.451   4.105   8.529  0.1800  0.0252 -0.3147
 5396SOL    HW127824   0.503   4.074   8.603  1.4942 -0.3686 -1.4121
 5396SOL    HW227825   0.497   4.184   8.502  0.4646 -0.6369 -1.7900
 5397SOL     OW27826   2.112   1.907  16.907  0.3298  0.7557  0.0516
 5397SOL    HW127827   2.137   1.952  16.826  3.0630  1.1444  1.1100
 5397SOL    HW227828   2.124   1.984  16.963 -0.9225  1.0582 -0.1073
 5398SOL     OW27829   0.801   3.560   6.245 -0.5727  0.6558 -0.4764
 5398SOL    HW127830   0.799   3.471   6.281  0.1848  0.7113 -0.2921
 5398SOL    HW227831   0.743   3.550   6.170  0.9775  1.4049 -1.7655
 5399SOL     OW27832   3.572   1.489   3.406 -0.6490  0.3833 -0.3163
 5399SOL    HW127833   3.608   1.495   3.317  1.8264 -0.0120  0.6338
 5399SOL    HW227834   3.483   1.456   3.396 -0.3384 -0.1622 -1.3146
 5400SOL     OW27835   1.382   0.752  13.191  0.4709  0.0887 -0.1669
 5400SOL    HW127836   1.464   0.793  13.164 -0.8332  1.9828 -1.2685
 5400SOL    HW227837   1.397   0.740  13.285  0.6067  0.0290 -0.1970
 5401SOL     OW27838   3.919   2.710   5.155  0.1121  0.5178 -0.3132
 5401SOL    HW127839   3.934   2.795   5.197 -0.5781  0.7441 -0.5230
 5401SOL    HW227840   3.990   2.714   5.090  0.7287  1.8091  0.4246
 5402SOL     OW27841   1.744   3.589   0.837  0.0776 -0.6050 -0.0315
 5402SOL    HW127842   1.719   3.579   0.745 -0.1809  1.5298 -0.1861
 5402SOL    HW227843   1.819   3.530   0.840  0.7361  0.1702 -1.2020
 5403SOL     OW27844   2.668   4.134  13.219 -0.0658  0.1134  0.0223
 5403SOL    HW127845   2.714   4.060  13.177  0.1614  1.4233 -2.0332
 5403SOL    HW227846   2.612   4.079  13.274  0.3299  1.6542  1.9342
 5404SOL     OW27847   0.995   2.808   8.577  0.2774  0.2231 -0.4430
 5404SOL    HW127848   1.067   2.860   8.542  0.9652 -0.0950  0.4927
 5404SOL    HW227849   0.987   2.741   8.509 -0.6738 -1.2568  1.1254
 5405SOL     OW27850   2.934   2.804   9.874 -0.7234 -0.4749 -0.3985
 5405SOL    HW127851   2.873   2.729   9.880  1.5244 -2.1734  1.1869
 5405SOL    HW227852   2.897   2.859   9.805 -0.9686 -1.7288 -1.2872
 5406SOL     OW27853   3.937   2.846  11.283  0.1537  0.4240  0.2737
 5406SOL    HW127854   3.862   2.833  11.226  1.3297  0.0661 -1.1835
 5406SOL    HW227855   3.932   2.758  11.320  1.1049  0.0980 -0.3835
 5407SOL     OW27856   2.207   3.481   3.652  0.5642  0.3609  0.3523
 5407SOL    HW127857   2.256   3.532   3.717  0.2995 -0.0205  0.8460
 5407SOL    HW227858   2.216   3.543   3.580 -1.9674  0.6624  0.2878
 5408SOL     OW27859   3.709   3.465   6.686  0.4798  0.3566 -0.3844
 5408SOL    HW127860   3.762   3.537   6.652 -0.9122  2.0935  1.1901
 5408SOL    HW227861   3.774   3.395   6.695  1.3412  1.0745 -0.9857
 5409SOL     OW27862   3.046   3.486   2.658 -0.1792 -0.0849  0.1502
 5409SOL    HW127863   2.990   3.427   2.708  0.1001 -0.0896  0.4555
 5409SOL    HW227864   3.121   3.431   2.636  1.4966  1.3340  2.2827
 5410SOL     OW27865   0.050   3.383   9.758 -0.6500  0.5115  0.3229
 5410SOL    HW127866   4.735   3.463   9.764 -1.3661 -0.0195  1.3128
 5410SOL    HW227867   4.716   3.318   9.750 -1.1667  0.8501  2.1178
 5411SOL     OW27868   3.197   0.605  10.435  0.2388  0.1841 -0.2415
 5411SOL    HW127869   3.210   0.642  10.348  2.0403 -0.4951 -0.2728
 5411SOL    HW227870   3.257   0.654  10.492 -0.6630 -0.0036  0.8544
 5412SOL     OW27871   0.918   3.934  12.201  0.0549 -0.9283  0.5562
 5412SOL    HW127872   0.895   3.889  12.282  0.9782  0.6926  1.7164
 5412SOL    HW227873   0.834   3.977  12.181  1.3386 -1.2896 -5.5264
 5413SOL     OW27874   0.076   0.895   8.116  0.1156  0.1319  0.6435
 5413SOL    HW127875   0.143   0.851   8.167  1.5018  0.3361 -0.9940
 5413SOL    HW227876   0.038   0.962   8.174 -0.9660  0.4823 -0.4638
 5414SOL     OW27877   2.516   0.783   5.381  0.3199 -0.0501  0.2631
 5414SOL    HW127878   2.472   0.704   5.349 -0.0025  0.8827 -1.5858
 5414SOL    HW227879   2.462   0.811   5.455 -0.8595 -1.6648  0.0028
 5415SOL     OW27880   0.557   1.610   5.220  0.5996  0.2699  0.0435
 5415SOL    HW127881   0.568   1.600   5.315  4.4552  0.7586 -0.3300
 5415SOL    HW227882   0.503   1.532   5.206  1.7094 -0.5273  0.0805
 5416SOL     OW27883   1.042   0.678  15.217  0.6661  0.6988  0.5879
 5416SOL    HW127884   1.046   0.592  15.258  0.4554  1.4068  2.0844
 5416SOL    HW227885   1.136   0.698  15.219  0.6544  0.7548  0.5947
 5417SOL     OW27886   3.272   3.186  15.313  0.2193  0.5387 -0.2141
 5417SOL    HW127887   3.285   3.281  15.316  1.5126  0.3755 -0.5636
 5417SOL    HW227888   3.355   3.153  15.348  0.4295  1.2234 -0.0720
 5418SOL     OW27889   3.097   4.359   3.969 -0.4846  0.4339 -0.4836
 5418SOL    HW127890   3.116   4.265   3.974  0.8567  0.6999 -0.5884
 5418SOL    HW227891   3.135   4.382   3.884 -1.9822 -0.1342 -1.3108
 5419SOL     OW27892   0.432   3.677   8.884  0.1675  0.3944 -0.4381
 5419SOL    HW127893   0.370   3.745   8.909 -1.1718 -1.0617  0.1384
 5419SOL    HW227894   0.393   3.636   8.807  0.1080 -0.1162 -0.1392
 5420SOL     OW27895   0.428   3.491   2.553  0.1223  0.0642 -0.0175
 5420SOL    HW127896   0.336   3.512   2.539  0.8940  3.0856 -0.5150
 5420SOL    HW227897   0.463   3.580   2.547 -1.8457  0.7707 -0.6752
 5421SOL     OW27898   0.780   4.113   5.021 -0.0053  0.8633  0.2948
 5421SOL    HW127899   0.801   4.112   5.115  2.5533  3.2318 -0.2447
 5421SOL    HW227900   0.797   4.028   4.981 -0.2415 -1.5647  5.2440
 5422SOL     OW27901   2.205   0.942   6.588 -0.7331 -0.3039  0.0916
 5422SOL    HW127902   2.152   0.865   6.566 -1.3367  0.0232  0.4155
 5422SOL    HW227903   2.265   0.909   6.654 -2.7894  0.6975  2.4565
 5423SOL     OW27904   2.279   4.343   8.106  0.1124 -0.3596 -0.2274
 5423SOL    HW127905   2.347   4.327   8.170 -0.5324  0.2322  0.6031
 5423SOL    HW227906   2.311   4.283   8.038  1.8529  2.1083 -1.5713
 5424SOL     OW27907   3.127   3.117   8.834  0.0106 -0.4465 -0.0440
 5424SOL    HW127908   3.217   3.090   8.852 -0.7194 -2.0824  1.1590
 5424SOL    HW227909   3.122   3.194   8.890 -0.1357 -1.1811  0.9625
 5425SOL     OW27910   0.414   3.852   2.944  0.4140 -0.2996  0.3082
 5425SOL    HW127911   0.446   3.824   3.029  1.3474  0.0223  0.0606
 5425SOL    HW227912   0.321   3.832   2.936  0.3777 -0.0856  0.1728
 5426SOL     OW27913   4.542   0.754   5.798  0.6058  0.0442  0.3570
 5426SOL    HW127914   4.526   0.676   5.745  0.2558  1.6245 -1.8899
 5426SOL    HW227915   4.453   0.790   5.798  0.4743 -0.2896  1.2846
 5427SOL     OW27916   3.288   0.487   9.211  0.3056 -0.8954  0.1229
 5427SOL    HW127917   3.222   0.533   9.160 -0.2245 -1.8362 -0.0372
 5427SOL    HW227918   3.278   0.533   9.294 -0.1040  0.2669 -0.5673
 5428SOL     OW27919   1.552   1.556   1.360  0.2083 -0.2751  0.3174
 5428SOL    HW127920   1.477   1.532   1.413 -0.2322  1.5191  0.5079
 5428SOL    HW227921   1.569   1.637   1.407 -0.7795  0.5578 -0.7486
 5429SOL     OW27922   1.307   3.723   3.327  0.7246  0.5231 -0.3072
 5429SOL    HW127923   1.400   3.714   3.309  0.8573  0.3384  0.4836
 5429SOL    HW227924   1.291   3.632   3.349 -1.0496  0.8179 -0.3513
 5430SOL     OW27925   3.854   0.375  14.781 -0.4028  0.3060 -0.1959
 5430SOL    HW127926   3.885   0.381  14.691  0.9191 -2.1566  0.0907
 5430SOL    HW227927   3.860   0.468  14.803 -0.8373  0.1195  0.7216
 5431SOL     OW27928   2.537   0.994   5.943 -0.0434 -0.0121  0.6688
 5431SOL    HW127929   2.542   0.903   5.971  1.7175 -1.1202 -3.3043
 5431SOL    HW227930   2.615   1.020   5.895  0.4782 -2.0488  0.4167
 5432SOL     OW27931   4.474   0.721   1.236 -0.0109 -0.0204 -0.1668
 5432SOL    HW127932   4.421   0.749   1.161  1.0518 -0.3698 -1.0588
 5432SOL    HW227933   4.521   0.642   1.209 -1.7072 -1.5207  1.2657
 5433SOL     OW27934   0.954   4.119   3.400 -0.6241 -0.0477  0.0540
 5433SOL    HW127935   1.009   4.041   3.388  1.6965  1.6708 -0.4945
 5433SOL    HW227936   1.002   4.184   3.350 -0.1668  0.1711  0.7878
 5434SOL     OW27937   1.176   4.425   6.412 -0.0060  0.0157  0.1673
 5434SOL    HW127938   1.190   4.354   6.349  1.6665  1.5462 -1.1589
 5434SOL    HW227939   1.086   4.453   6.396 -0.3047  0.0331  1.8088
 5435SOL     OW27940   2.853   1.839   8.693 -0.2500 -0.2416  0.3878
 5435SOL    HW127941   2.809   1.778   8.634  0.6057 -0.4654 -0.0340
 5435SOL    HW227942   2.828   1.816   8.782 -0.1843 -0.7449  0.2754
 5436SOL     OW27943   3.466   0.812   6.401  0.3023  0.5994  0.1492
 5436SOL    HW127944   3.409   0.786   6.474  1.5613 -0.2599  0.8235
 5436SOL    HW227945   3.542   0.756   6.415 -1.2725 -1.5068  0.2370
 5437SOL     OW27946   0.517   2.029   3.661 -0.2505  0.2346  0.7520
 5437SOL    HW127947   0.528   2.090   3.734  1.4119 -0.5051  1.1287
 5437SOL    HW227948   0.536   2.087   3.587 -1.0935 -1.7173 -0.9959
 5438SOL     OW27949   0.893   0.811   0.694  0.3562  0.3588 -0.2103
 5438SOL    HW127950   0.959   0.741   0.700  2.1728  1.9302 -1.8653
 5438SOL    HW227951   0.924   0.860   0.769 -1.1409  0.8077  0.1138
 5439SOL     OW27952   4.309   3.881  11.813  0.1825 -0.6341 -0.5326
 5439SOL    HW127953   4.323   3.930  11.894  0.0297  1.0257 -1.5066
 5439SOL    HW227954   4.400   3.857  11.794 -0.1680 -2.0886 -0.3503
 5440SOL     OW27955   3.432   1.357   0.524 -0.6754  0.2193 -0.3709
 5440SOL    HW127956   3.419   1.410   0.603  0.0750 -2.0099  1.2535
 5440SOL    HW227957   3.360   1.374   0.464 -0.3181  2.8585 -0.0247
 5441SOL     OW27958   3.595   4.004   0.530  0.3526  0.2629 -0.2239
 5441SOL    HW127959   3.524   3.941   0.537  0.1526  0.6362  1.2838
 5441SOL    HW227960   3.563   4.077   0.478 -0.0003  0.5671  0.4180
 5442SOL     OW27961   0.353   1.666   7.250 -0.2589 -0.6330 -0.2497
 5442SOL    HW127962   0.321   1.643   7.337 -0.4555  1.8509  0.3345
 5442SOL    HW227963   0.447   1.670   7.268 -0.1850 -0.7023 -0.6099
 5443SOL     OW27964   1.467   1.742  15.375 -0.0378  0.3326  0.3748
 5443SOL    HW127965   1.472   1.744  15.471  1.8908  0.3760  0.2587
 5443SOL    HW227966   1.547   1.779  15.339  1.1831 -0.4403  2.3140
 5444SOL     OW27967   3.392   2.714   7.305  0.2673 -0.1464  0.3958
 5444SOL    HW127968   3.403   2.792   7.359 -0.0772 -0.3686  0.7842
 5444SOL    HW227969   3.453   2.652   7.346  0.5426  0.2925  0.6540
 5445SOL     OW27970   1.800   1.689   5.847  0.2065 -0.0065 -0.3851
 5445SOL    HW127971   1.886   1.705   5.809  1.1636  0.3306  1.8809
 5445SOL    HW227972   1.828   1.705   5.938 -0.3713  2.3481 -0.6281
 5446SOL     OW27973   1.896   3.135   6.209  0.1864 -0.3358  0.3004
 5446SOL    HW127974   1.967   3.123   6.146 -1.6549 -0.9676 -1.6228
 5446SOL    HW227975   1.943   3.145   6.292  0.7624  2.0827 -0.3021
 5447SOL     OW27976   1.657   3.509   3.588  0.6258 -0.1135 -0.3383
 5447SOL    HW127977   1.652   3.468   3.674  0.6382 -1.5353 -1.0224
 5447SOL    HW227978   1.695   3.594   3.613 -0.9090  0.6052 -0.4195
 5448SOL     OW27979   0.073   1.929   0.855 -0.0535 -0.3651  0.8215
 5448SOL    HW127980   0.114   1.929   0.941 -1.5219 -0.4927  1.5341
 5448SOL    HW227981   0.024   2.011   0.855  0.4440 -0.0905 -3.5047
 5449SOL     OW27982   0.149   4.009   3.823 -0.7037  0.3114  0.5698
 5449SOL    HW127983   0.174   4.000   3.731 -1.3172  0.3763  0.3988
 5449SOL    HW227984   0.217   4.068   3.855  0.7914 -0.9485 -0.2761
 5450SOL     OW27985   3.389   3.708  15.157  0.2779  0.0065 -0.1037
 5450SOL    HW127986   3.485   3.712  15.152  0.2796  1.3973  0.8321
 5450SOL    HW227987   3.366   3.796  15.127 -0.5571  0.0071  0.5479
 5451SOL     OW27988   0.730   2.361   6.543  0.4866 -0.2710 -0.3117
 5451SOL    HW127989   0.667   2.292   6.565 -0.2782  0.1496 -1.1704
 5451SOL    HW227990   0.693   2.406   6.467 -1.0108  1.5389  1.4860
 5452SOL     OW27991   0.976   4.059   6.027 -0.7968 -0.4358  0.5319
 5452SOL    HW127992   1.004   3.986   6.081 -1.3160 -0.6527  0.5057
 5452SOL    HW227993   1.005   4.030   5.941 -2.3966  1.1851 -0.5842
 5453SOL     OW27994   0.461   1.320  10.549  0.0206 -0.5733 -0.1040
 5453SOL    HW127995   0.430   1.389  10.491 -0.0524 -1.2060 -0.8085
 5453SOL    HW227996   0.528   1.270  10.502 -0.3851 -0.4717 -0.7900
 5454SOL     OW27997   2.749   3.684   9.197 -0.1726 -0.8046  0.5288
 5454SOL    HW127998   2.770   3.775   9.217  2.6679 -1.2051 -0.5859
 5454SOL    HW227999   2.831   3.637   9.215  0.4178 -0.0171 -0.0946
 5455SOL     OW28000   2.797   1.215  10.952 -0.4891  0.5586 -0.2009
 5455SOL    HW128001   2.799   1.135  11.005  2.7349  1.2430  0.6812
 5455SOL    HW228002   2.849   1.276  11.004 -0.2604  0.9364 -0.8751
 5456SOL     OW28003   3.038   1.110   4.574 -0.1756  0.6566 -0.4151
 5456SOL    HW128004   3.082   1.115   4.490  0.4525  0.6171 -0.0917
 5456SOL    HW228005   3.057   1.021   4.604 -0.4449  0.9191  0.5417
 5457SOL     OW28006   0.595   2.308   2.946  0.3852  0.0501  0.3354
 5457SOL    HW128007   0.510   2.341   2.975  0.6494  0.5477  0.5377
 5457SOL    HW228008   0.650   2.381   2.975 -0.0581 -0.3902  2.2526
 5458SOL     OW28009   2.244   3.067   1.208  0.6283  0.2529 -0.3806
 5458SOL    HW128010   2.217   2.984   1.246  0.9958  1.1959  1.9113
 5458SOL    HW228011   2.195   3.063   1.126 -0.0390 -1.5649  0.1140
 5459SOL     OW28012   3.580   4.476  10.399 -0.0791  0.4056 -0.0698
 5459SOL    HW128013   3.596   4.526  10.479 -0.3767 -1.6734  1.2846
 5459SOL    HW228014   3.548   4.553  10.350  0.4901 -0.2239 -1.4392
 5460SOL     OW28015   1.458   4.220   9.035  0.0424  0.2287 -0.4799
 5460SOL    HW128016   1.408   4.165   8.975  1.4898  0.5506 -1.9530
 5460SOL    HW228017   1.439   4.171   9.115 -0.1792 -1.1501 -1.3795
 5461SOL     OW28018   0.073   3.933   2.670  0.0411 -0.0124  0.2034
 5461SOL    HW128019   0.006   3.875   2.705 -0.2778 -0.4030 -1.0516
 5461SOL    HW228020   0.084   4.007   2.730 -1.2983  2.2272 -2.3052
 5462SOL     OW28021   0.386   3.319   4.034 -0.6817  0.1467 -0.0318
 5462SOL    HW128022   0.475   3.352   4.046 -0.2144 -1.5185  1.0833
 5462SOL    HW228023   0.359   3.358   3.950  2.0526  1.9066 -0.0679
 5463SOL     OW28024   3.033   2.227   2.674  0.7760  0.2846  0.0224
 5463SOL    HW128025   2.971   2.247   2.744  1.0553 -1.5413  0.8099
 5463SOL    HW228026   2.984   2.162   2.623 -1.0043  1.2381  0.5207
 5464SOL     OW28027   2.540   1.084  17.108  0.1989  0.1605 -0.6326
 5464SOL    HW128028   2.531   1.002  17.157  2.8935 -0.3031 -0.8740
 5464SOL    HW228029   2.560   1.142  17.181  1.9426 -0.6819 -0.4267
 5465SOL     OW28030   3.410   1.849   7.250  0.0632 -0.1398  0.1959
 5465SOL    HW128031   3.492   1.836   7.202  0.5541  1.5617  0.5714
 5465SOL    HW228032   3.370   1.769   7.217  1.5364 -0.7421 -0.1180
 5466SOL     OW28033   0.432   4.046  16.384 -0.2900 -0.4975  0.1161
 5466SOL    HW128034   0.400   4.070  16.297 -0.5547  0.1906  0.4066
 5466SOL    HW228035   0.470   3.962  16.357  0.4090  0.4125 -1.6867
 5467SOL     OW28036   0.395   0.079   6.614  0.2205 -0.2894 -0.0719
 5467SOL    HW128037   0.307   0.117   6.623  0.2376 -0.0895 -0.7364
 5467SOL    HW228038   0.457   0.150   6.601  1.6206 -1.7246 -1.2345
 5468SOL     OW28039   2.480   2.096  14.051 -0.0834 -0.2217 -0.8861
 5468SOL    HW128040   2.430   2.015  14.063 -1.6745  0.8055 -0.5242
 5468SOL    HW228041   2.562   2.073  14.094 -1.2924 -0.6277  1.1755
 5469SOL     OW28042   3.871   0.169   2.941 -0.2344  0.5010 -0.2905
 5469SOL    HW128043   3.954   0.126   2.921 -1.9188 -1.6147 -2.8262
 5469SOL    HW228044   3.802   0.111   2.911  0.4565  0.8964 -2.6479
 5470SOL     OW28045   1.142   3.144  14.214 -0.5263 -0.8554 -0.2248
 5470SOL    HW128046   1.209   3.085  14.248 -1.0828 -0.3334  1.8270
 5470SOL    HW228047   1.169   3.152  14.123 -0.1941  0.6525 -0.0025
 5471SOL     OW28048   3.396   4.004  11.427 -0.2660  0.6053  0.5349
 5471SOL    HW128049   3.372   3.923  11.472  1.7205  0.1641  0.7885
 5471SOL    HW228050   3.367   3.978  11.340  0.6871  1.5749 -0.0778
 5472SOL     OW28051   2.614   0.038   0.797 -0.2818 -0.2073 -0.2309
 5472SOL    HW128052   2.519   0.025   0.801 -0.1213 -1.1643  0.5114
 5472SOL    HW228053   2.639   0.018   0.887 -3.3859 -3.1218  0.0171
 5473SOL     OW28054   1.790   1.659   4.389 -0.1987  0.6837  0.0479
 5473SOL    HW128055   1.816   1.624   4.474  1.2721  3.7927  0.8619
 5473SOL    HW228056   1.747   1.733   4.432  2.7216  3.5114 -1.8853
 5474SOL     OW28057   4.299   2.844   9.186  0.0280  0.4998 -0.1041
 5474SOL    HW128058   4.269   2.771   9.241 -0.3601  2.6525  2.5117
 5474SOL    HW228059   4.235   2.909   9.217  1.1031  0.9894  1.0783
 5475SOL     OW28060   3.684   1.788   3.137 -0.4935 -0.0478 -0.5941
 5475SOL    HW128061   3.703   1.714   3.194 -1.1324 -0.5245 -1.0003
 5475SOL    HW228062   3.771   1.823   3.119 -0.4115 -0.3997 -0.8836
 5476SOL     OW28063   1.418   0.986  13.422  0.0033  0.4177 -0.7946
 5476SOL    HW128064   1.388   0.985  13.332 -0.1772  0.2024 -0.7298
 5476SOL    HW228065   1.446   1.078  13.427 -0.2433  0.3812  1.4813
 5477SOL     OW28066   2.097   2.458   1.480  0.1511  0.0132  0.2998
 5477SOL    HW128067   2.121   2.386   1.422 -0.6424 -0.7404  0.9164
 5477SOL    HW228068   2.052   2.415   1.552 -0.4197  1.0023  0.5437
 5478SOL     OW28069   4.137   0.181  15.010 -0.2162 -0.3514 -0.3060
 5478SOL    HW128070   4.174   0.244  15.072 -3.5905  1.8138 -0.4758
 5478SOL    HW228071   4.202   0.185  14.940  1.5675  0.5160  1.4142
 5479SOL     OW28072   1.567   4.588   7.181 -0.2359  0.4296  0.4769
 5479SOL    HW128073   1.600   4.531   7.251 -0.4516 -0.7260 -0.3444
 5479SOL    HW228074   1.535   4.524   7.116  2.4115 -0.5735  0.1577
 5480SOL     OW28075   2.528   2.660   4.167  0.8210 -0.4700 -0.1481
 5480SOL    HW128076   2.605   2.711   4.194 -0.1723  0.7782  0.3119
 5480SOL    HW228077   2.554   2.637   4.078 -0.6095 -0.2966 -0.5989
 5481SOL     OW28078   0.200   4.388   5.572 -0.1029 -0.3308 -0.3446
 5481SOL    HW128079   0.230   4.479   5.562 -1.2034 -0.2887 -3.2297
 5481SOL    HW228080   0.204   4.370   5.666  1.2876  0.5280 -0.2386
 5482SOL     OW28081   3.071   4.025   0.103 -0.2073  0.6256  0.3200
 5482SOL    HW128082   3.107   4.055   0.019 -0.7886 -0.1582 -0.2114
 5482SOL    HW228083   2.987   3.990   0.073 -0.9633  3.1121 -0.4665
 5483SOL     OW28084   3.606   1.412   7.293 -0.3781  0.3961 -0.2221
 5483SOL    HW128085   3.691   1.371   7.277 -0.4349 -0.3662  1.3758
 5483SOL    HW228086   3.616   1.424   7.388  0.2214  0.8325 -0.3343
 5484SOL     OW28087   3.372   1.504   9.085  0.4379 -0.0360  0.0596
 5484SOL    HW128088   3.410   1.534   9.167 -0.0427 -1.2001  0.7119
 5484SOL    HW228089   3.294   1.461   9.120  0.2030  1.1688  1.0133
 5485SOL     OW28090   0.304   2.788   5.776  0.2691  0.3047 -0.2493
 5485SOL    HW128091   0.258   2.705   5.770 -0.3425  0.5394  1.0882
 5485SOL    HW228092   0.312   2.794   5.872 -0.4456 -0.9683 -0.1164
 5486SOL     OW28093   4.523   4.525  10.937  0.5669  0.1670 -0.1879
 5486SOL    HW128094   4.603   4.526  10.884  0.6055  1.0564 -0.1103
 5486SOL    HW228095   4.552   4.540  11.027 -0.1159  1.1407 -0.1369
 5487SOL     OW28096   3.161   3.052   3.423  0.2788 -0.1427  0.1562
 5487SOL    HW128097   3.180   3.101   3.503  0.3318  0.2786 -0.1157
 5487SOL    HW228098   3.090   2.994   3.448 -1.5718  2.0628  0.0630
 5488SOL     OW28099   1.709   1.719   6.764  0.0782 -0.4770 -0.0344
 5488SOL    HW128100   1.683   1.811   6.765 -0.0389 -0.4925 -1.1230
 5488SOL    HW228101   1.692   1.678   6.849 -1.4866 -1.3125 -0.7545
 5489SOL     OW28102   2.052   2.558  13.879  0.0799  0.5273  0.4306
 5489SOL    HW128103   2.048   2.518  13.792  0.0228 -0.7556  1.0247
 5489SOL    HW228104   2.029   2.490  13.942  0.9573 -0.3424 -0.1861
 5490SOL     OW28105   1.662   3.238  14.918  0.1677 -0.2353  0.0669
 5490SOL    HW128106   1.643   3.331  14.913 -0.0506 -0.3420 -1.0297
 5490SOL    HW228107   1.584   3.209  14.964 -0.9665 -0.5978 -2.0638
 5491SOL     OW28108   3.644   3.483   8.031  0.1232  0.2018  0.7438
 5491SOL    HW128109   3.560   3.494   8.075  0.6637 -1.8442  2.2736
 5491SOL    HW228110   3.610   3.428   7.960 -0.3820  2.1769 -0.5184
 5492SOL     OW28111   1.431   3.329   0.216  0.6916  0.8124 -0.0623
 5492SOL    HW128112   1.431   3.384   0.138  0.2586 -0.9128 -1.2812
 5492SOL    HW228113   1.339   3.346   0.241  0.4450 -1.2305  0.4313
 5493SOL     OW28114   2.528   4.216   4.093 -0.0374 -0.0639  0.6660
 5493SOL    HW128115   2.532   4.221   4.189  0.3945  0.5935  0.6148
 5493SOL    HW228116   2.621   4.226   4.077 -0.4100  0.1905 -1.3215
 5494SOL     OW28117   2.795   1.357   3.726  0.0007 -0.2137 -0.4500
 5494SOL    HW128118   2.763   1.268   3.716  0.7101 -0.3853 -1.1935
 5494SOL    HW228119   2.756   1.384   3.809  1.2186  0.1221  0.0228
 5495SOL     OW28120   0.319   3.903   1.737 -0.1799 -0.0287  0.3194
 5495SOL    HW128121   0.411   3.923   1.755  0.6588 -2.3529 -1.4413
 5495SOL    HW228122   0.295   3.977   1.681 -1.0830 -0.5194  0.0494
 5496SOL     OW28123   4.149   3.312  17.354  0.2140  0.6992  0.2613
 5496SOL    HW128124   4.112   3.366  17.424 -2.2648 -0.8599  0.1783
 5496SOL    HW228125   4.087   3.332  17.283  1.7926 -0.1712 -1.3652
 5497SOL     OW28126   2.708   3.051   5.914 -0.1080 -0.1622  0.4498
 5497SOL    HW128127   2.741   3.139   5.932 -2.4908  0.8021  0.1582
 5497SOL    HW228128   2.616   3.069   5.892 -0.6809 -2.2949  1.1547
 5498SOL     OW28129   1.583   3.931   5.677  0.1087  0.5442 -0.7204
 5498SOL    HW128130   1.525   3.875   5.728 -2.0531  2.2095 -1.3405
 5498SOL    HW228131   1.661   3.914   5.729  0.5815 -0.5518 -1.7923
 5499SOL     OW28132   0.527   2.362   0.380 -0.1795  0.5142 -0.1634
 5499SOL    HW128133   0.618   2.336   0.396 -0.2012  1.3351  1.3370
 5499SOL    HW228134   0.515   2.440   0.435 -0.1728  0.1320  0.3855
 5500SOL     OW28135   4.499   3.019   5.001 -0.6441  0.5067  0.6919
 5500SOL    HW128136   4.579   2.969   5.019 -0.7262  0.0220 -0.2653
 5500SOL    HW228137   4.525   3.068   4.923  0.9553 -1.3653  0.0155
 5501SOL     OW28138   4.211   1.423   4.128  0.4358  0.3539 -0.4774
 5501SOL    HW128139   4.213   1.433   4.223  0.1358  0.1289 -0.4489
 5501SOL    HW228140   4.264   1.344   4.118 -0.9116 -0.8582  1.9834
 5502SOL     OW28141   0.838   3.346  12.848 -0.4639 -0.4626 -0.2632
 5502SOL    HW128142   0.782   3.398  12.907 -1.4901  0.0443 -1.6973
 5502SOL    HW228143   0.858   3.262  12.890  1.7296  0.6872  1.0094
 5503SOL     OW28144   0.228   3.166   8.800  0.0163  0.0518  0.1525
 5503SOL    HW128145   0.162   3.180   8.868  0.0460  1.2502 -0.0661
 5503SOL    HW228146   0.305   3.190   8.850  0.2165  1.2393 -0.7318
 5504SOL     OW28147   1.759   3.976   8.915 -0.9823  0.4375 -0.5626
 5504SOL    HW128148   1.696   3.945   8.850  0.4257  0.5558 -1.9870
 5504SOL    HW228149   1.720   4.061   8.932 -0.2718  0.4516  0.9939
 5505SOL     OW28150   0.953   2.302  11.778 -0.3716 -0.6411 -0.4659
 5505SOL    HW128151   0.984   2.302  11.688 -1.8156  0.8528 -0.9532
 5505SOL    HW228152   1.027   2.305  11.838 -1.6781  1.9487  1.0246
 5506SOL     OW28153   0.023   2.334  16.604  0.1544 -0.6705 -0.0179
 5506SOL    HW128154   4.716   2.411  16.643  0.1570 -1.3670  1.3576
 5506SOL    HW228155   0.068   2.299  16.681  1.9269 -1.7273 -1.5592
 5507SOL     OW28156   2.641   2.790   5.647 -0.2050 -0.0718 -0.1254
 5507SOL    HW128157   2.688   2.750   5.719  0.2729  0.8500  0.0793
 5507SOL    HW228158   2.668   2.733   5.575  2.8031  1.1627  0.0534
 5508SOL     OW28159   1.981   1.219   3.953  0.6102 -0.5492  0.8659
 5508SOL    HW128160   1.912   1.197   4.015 -0.0934  1.8574  0.9436
 5508SOL    HW228161   2.034   1.139   3.956  0.0495 -0.9664 -0.3021
 5509SOL     OW28162   0.634   1.927   9.269 -0.2491  0.0094  0.2342
 5509SOL    HW128163   0.661   1.991   9.334 -1.6817  0.0546  0.7770
 5509SOL    HW228164   0.580   1.982   9.212  0.8189 -0.4732 -1.2501
 5510SOL     OW28165   1.286   1.439   1.792 -0.0444 -0.0990  0.3244
 5510SOL    HW128166   1.230   1.506   1.832 -2.1320 -0.2767 -2.2682
 5510SOL    HW228167   1.241   1.356   1.781  0.2230  0.1117 -2.5346
 5511SOL     OW28168   3.465   2.980   9.903 -0.0888  0.0319  0.0587
 5511SOL    HW128169   3.459   2.925   9.825 -0.3218 -1.5173  1.1666
 5511SOL    HW228170   3.418   3.061   9.881  0.7441 -0.0921 -2.1540
 5512SOL     OW28171   1.203   0.115  14.057  0.3512  0.2599  0.4846
 5512SOL    HW128172   1.118   0.153  14.078 -0.4795 -0.9517 -0.6328
 5512SOL    HW228173   1.262   0.180  14.095  0.8922  1.2338 -2.0181
 5513SOL     OW28174   0.694   1.569   6.959  0.5117  0.2517  0.2925
 5513SOL    HW128175   0.600   1.563   6.978 -0.0427 -1.1976 -3.0240
 5513SOL    HW228176   0.690   1.532   6.871 -0.3417 -0.8797  0.8086
 5514SOL     OW28177   2.684   4.046   6.736 -0.2364 -0.3510  0.1255
 5514SOL    HW128178   2.683   4.118   6.672 -0.9161 -1.9031 -1.6047
 5514SOL    HW228179   2.606   4.077   6.783  0.3611  0.1145  0.7994
 5515SOL     OW28180   1.860   0.700  15.899 -0.1800  0.1878  0.4117
 5515SOL    HW128181   1.915   0.645  15.843  0.6010  2.5004 -1.1064
 5515SOL    HW228182   1.847   0.780  15.848 -0.2455  0.5475  0.9937
 5516SOL     OW28183   1.220   2.866   3.829  0.2179  0.4109 -0.1907
 5516SOL    HW128184   1.263   2.781   3.819  1.5188  1.2157 -1.4150
 5516SOL    HW228185   1.220   2.894   3.737  0.9615  0.0453 -0.3030
 5517SOL     OW28186   4.489   4.088  14.693 -0.0820 -0.3780  0.2626
 5517SOL    HW128187   4.549   4.162  14.705  0.3404 -0.6150 -0.4446
 5517SOL    HW228188   4.427   4.092  14.767 -0.8494 -1.0860 -0.3413
 5518SOL     OW28189   2.682   1.943   2.700 -0.2517 -0.1565  0.4105
 5518SOL    HW128190   2.675   1.907   2.611  0.4922 -0.8189  0.6161
 5518SOL    HW228191   2.652   1.869   2.752 -0.7906 -0.3805 -0.2147
 5519SOL     OW28192   2.994   2.736   6.042 -0.0662 -0.3074  0.1632
 5519SOL    HW128193   2.947   2.713   6.123  0.4672 -0.0265  0.5494
 5519SOL    HW228194   2.961   2.673   5.978  0.6680 -0.5413  0.0220
 5520SOL     OW28195   2.297   3.727   6.331 -0.5836 -0.2854  0.1679
 5520SOL    HW128196   2.225   3.757   6.275  0.6540  0.1998 -1.1527
 5520SOL    HW228197   2.250   3.720   6.414  1.9357  2.4427  1.8284
 5521SOL     OW28198   3.734   4.087  10.249 -0.0241 -0.3745 -0.7475
 5521SOL    HW128199   3.671   4.035  10.199  1.2670 -1.5382 -1.1584
 5521SOL    HW228200   3.671   4.142  10.295 -0.6837 -2.1991  0.5571
 5522SOL     OW28201   2.102   0.109  12.878 -0.0804 -0.4995  0.2527
 5522SOL    HW128202   2.157   0.072  12.809  0.2517 -0.4164  0.4739
 5522SOL    HW228203   2.098   0.035  12.938  0.6270 -0.0619  0.8381
 5523SOL     OW28204   2.722   1.501   7.761 -0.0317  0.0242  0.4158
 5523SOL    HW128205   2.815   1.498   7.737 -0.5478 -1.4081 -1.4142
 5523SOL    HW228206   2.688   1.414   7.738 -1.3082  0.2660  1.3864
 5524SOL     OW28207   3.907   3.324   0.090  0.2566 -0.1398 -0.3273
 5524SOL    HW128208   3.882   3.258   0.025 -1.3614 -1.9195  2.0904
 5524SOL    HW228209   3.868   3.403   0.053  0.9427  0.9306  1.2564
 5525SOL     OW28210   1.835   4.562   2.017 -0.0811 -0.1495  0.0340
 5525SOL    HW128211   1.780   4.568   1.939 -0.1689 -2.0241 -0.0534
 5525SOL    HW228212   1.828   4.647   2.059  1.9677 -1.0057  2.1043
 5526SOL     OW28213   3.510   4.037   2.084 -0.3667  0.4100  0.4743
 5526SOL    HW128214   3.601   4.016   2.107 -0.8592 -1.1687  1.0091
 5526SOL    HW228215   3.501   4.116   2.137  0.2364  1.2722 -0.7248
 5527SOL     OW28216   3.019   0.797   5.661  0.0955  0.3729  0.3621
 5527SOL    HW128217   2.934   0.814   5.620  0.2398 -1.4105 -0.6915
 5527SOL    HW228218   2.992   0.809   5.752 -0.8938  1.4439 -0.0666
 5528SOL     OW28219   4.377   1.692   7.938  0.4698  0.2185 -0.1557
 5528SOL    HW128220   4.403   1.671   7.848 -1.1805 -2.5021 -0.0019
 5528SOL    HW228221   4.420   1.618   7.982 -1.9043 -1.9031 -1.3874
 5529SOL     OW28222   0.628   2.794   5.021 -0.1319  0.1447  0.0700
 5529SOL    HW128223   0.575   2.858   4.973  0.8714  0.6790 -0.3247
 5529SOL    HW228224   0.570   2.719   5.010 -0.9076  0.9996 -1.7087
 5530SOL     OW28225   3.407   0.206   6.421  0.0813 -0.2789  0.2740
 5530SOL    HW128226   3.372   0.120   6.398  0.9109 -0.6689  0.4476
 5530SOL    HW228227   3.500   0.201   6.400 -0.0229 -0.9536 -0.0134
 5531SOL     OW28228   2.503   1.495   5.243  0.1705  0.1941  0.1576
 5531SOL    HW128229   2.409   1.490   5.261  0.2409 -3.3278 -0.4283
 5531SOL    HW228230   2.517   1.418   5.187  3.4355 -0.5057  1.9600
 5532SOL     OW28231   4.534   2.100   7.521 -0.2771  0.6664 -0.2775
 5532SOL    HW128232   4.614   2.126   7.567  1.5761 -3.1677 -1.2941
 5532SOL    HW228233   4.537   2.013   7.561  1.2281 -0.1146 -2.0916
 5533SOL     OW28234   0.032   3.459   8.304  0.0575 -0.1190 -0.3125
 5533SOL    HW128235   0.022   3.448   8.398  0.3682 -1.1059 -0.3849
 5533SOL    HW228236   4.685   3.439   8.260  0.2861 -2.3846  0.2730
 5534SOL     OW28237   2.723   1.877   7.522 -0.0489  0.3778 -0.4199
 5534SOL    HW128238   2.703   1.788   7.550 -0.8842  0.3163 -1.2002
 5534SOL    HW228239   2.712   1.868   7.427  1.1654  2.2969 -0.7350
 5535SOL     OW28240   1.061   4.439   8.113 -0.9820 -0.1797 -0.2450
 5535SOL    HW128241   1.146   4.461   8.075 -1.3954  2.2667  0.2170
 5535SOL    HW228242   1.048   4.348   8.085 -0.0073  0.3862 -2.5372
 5536SOL     OW28243   2.878   0.949   2.821 -0.7563  0.0836 -0.2256
 5536SOL    HW128244   2.871   0.863   2.861  3.1476  0.5738  1.6013
 5536SOL    HW228245   2.905   0.995   2.900 -0.2182 -2.2605  0.9551
 5537SOL     OW28246   2.747   3.433  17.715  0.2895  0.3622  0.2310
 5537SOL    HW128247   2.740   3.527  17.733  0.1446  0.3061  0.4625
 5537SOL    HW228248   2.705   3.395   0.050  2.2309 -0.5512  0.8169
 5538SOL     OW28249   3.134   0.060   8.376  0.0491 -0.3049  0.1236
 5538SOL    HW128250   3.114   0.120   8.304 -1.8521 -3.1114 -1.7083
 5538SOL    HW228251   3.220   0.089   8.407  0.3384  0.9083 -1.8157
 5539SOL     OW28252   2.799   2.914   9.203 -0.6899  0.1336  0.2087
 5539SOL    HW128253   2.868   2.962   9.157 -0.5638  0.5059  0.7771
 5539SOL    HW228254   2.846   2.859   9.266  0.3449 -0.9738 -1.5129
 5540SOL     OW28255   3.061   2.975   4.464 -0.0403 -0.6073  0.5496
 5540SOL    HW128256   3.066   3.056   4.413 -0.1066 -1.3968 -0.6911
 5540SOL    HW228257   3.072   3.014   4.551  0.6962 -1.7364  0.9632
 5541SOL     OW28258   2.592   3.729   6.571 -0.2734  0.2201 -0.0684
 5541SOL    HW128259   2.602   3.679   6.652  1.0199 -0.0140 -0.3817
 5541SOL    HW228260   2.678   3.763   6.546 -1.3514  0.0680 -4.0556
 5542SOL     OW28261   0.918   0.455   9.787 -0.5609  0.4896 -0.0427
 5542SOL    HW128262   0.999   0.475   9.833 -0.8690  2.0176 -0.1627
 5542SOL    HW228263   0.856   0.495   9.848 -0.3297  2.1420 -0.8768
 5543SOL     OW28264   4.116   3.542   0.238  0.1997  0.1328 -0.5233
 5543SOL    HW128265   4.166   3.514   0.314 -0.5119  0.4220  0.0532
 5543SOL    HW228266   4.028   3.558   0.274  0.4660  1.3921 -0.4413
 5544SOL     OW28267   4.341   3.221   0.934 -0.2884 -0.5485 -0.2445
 5544SOL    HW128268   4.389   3.145   0.965 -1.1427 -0.0906  2.2187
 5544SOL    HW228269   4.268   3.170   0.899 -2.0092  0.2748  2.1296
 5545SOL     OW28270   2.699   1.661  10.402  0.7124 -0.3606  0.4334
 5545SOL    HW128271   2.679   1.607  10.325  1.1176  0.7968 -0.4898
 5545SOL    HW228272   2.642   1.736  10.385  1.1346 -0.2462 -0.4963
 5546SOL     OW28273   3.291   4.044  17.163  0.4033 -0.3678  0.5973
 5546SOL    HW128274   3.326   4.126  17.129  1.0974 -0.5975  0.7541
 5546SOL    HW228275   3.273   4.001  17.080  3.3151  0.3463 -0.3846
 5547SOL     OW28276   3.228   2.138   1.738  0.4810  0.2475  0.1287
 5547SOL    HW128277   3.251   2.227   1.714 -2.1308  1.6576  2.7212
 5547SOL    HW228278   3.144   2.114   1.698  1.3877 -0.1109 -1.5594
 5548SOL     OW28279   4.717   1.134   3.475 -0.5582 -0.4427 -0.9277
 5548SOL    HW128280   0.044   1.201   3.503 -2.9578  1.5855 -0.4230
 5548SOL    HW228281   4.683   1.121   3.563  1.3800 -0.0521 -0.1112
 5549SOL     OW28282   2.723   4.319   5.503  0.3758  0.3579  0.0510
 5549SOL    HW128283   2.796   4.363   5.460  0.1271  0.7532  0.0283
 5549SOL    HW228284   2.713   4.370   5.583  0.6836 -0.3054  0.5122
 5550SOL     OW28285   4.272   0.601   6.754  0.4721  0.2934  0.9245
 5550SOL    HW128286   4.300   0.551   6.832 -1.6157 -1.6955  0.4054
 5550SOL    HW228287   4.333   0.675   6.759 -0.6716  1.2168  1.0208
 5551SOL     OW28288   4.097   0.223   7.957  0.2590 -0.2562 -0.0781
 5551SOL    HW128289   4.172   0.167   7.938 -0.5044 -0.6008 -2.0068
 5551SOL    HW228290   4.124   0.291   7.896 -0.7769  1.5701  1.4928
 5552SOL     OW28291   1.856   0.405   7.773 -0.3328  0.2042 -0.1243
 5552SOL    HW128292   1.829   0.455   7.850  0.8768 -0.7935  0.9505
 5552SOL    HW228293   1.845   0.317   7.809 -0.3602  0.3985  0.3396
 5553SOL     OW28294   1.071   3.246   4.281  0.4529  0.0866 -0.3333
 5553SOL    HW128295   1.160   3.216   4.262 -0.3525 -2.0698 -0.7096
 5553SOL    HW228296   1.028   3.212   4.202 -1.1850  1.0194  0.1589
 5554SOL     OW28297   0.188   1.700   0.656  0.2276  0.5576 -0.1781
 5554SOL    HW128298   0.224   1.620   0.618 -1.6459  0.0127 -0.8108
 5554SOL    HW228299   0.253   1.769   0.642  0.5632  0.5066  1.1261
 5555SOL     OW28300   4.152   1.259  12.621  0.3277 -0.3217 -0.5830
 5555SOL    HW128301   4.068   1.295  12.650  0.1926 -0.9356 -0.2090
 5555SOL    HW228302   4.121   1.184  12.569 -0.4519  1.0740 -2.1464
 5556SOL     OW28303   3.162   2.504  10.878  0.1173 -0.0019  0.2581
 5556SOL    HW128304   3.147   2.592  10.843  0.1253  0.4281  1.3448
 5556SOL    HW228305   3.074   2.465  10.876  0.4451 -0.8397  2.0595
 5557SOL     OW28306   0.843   4.138   9.321  0.4619 -0.3883  0.0491
 5557SOL    HW128307   0.793   4.220   9.324  1.6375  0.2284  2.2777
 5557SOL    HW228308   0.848   4.125   9.226 -2.7212 -0.3955 -0.1397
 5558SOL     OW28309   4.027   2.872   5.584 -0.2244 -0.0420  0.1531
 5558SOL    HW128310   4.050   2.954   5.542  0.5675  0.9286  2.5190
 5558SOL    HW228311   3.948   2.894   5.633 -1.6504 -2.8478 -0.8414
 5559SOL     OW28312   0.905   1.268   5.845  0.0327 -0.4729  0.2086
 5559SOL    HW128313   0.880   1.338   5.784  2.4106 -0.0075 -0.2210
 5559SOL    HW228314   0.845   1.196   5.827 -1.2787  0.9664 -1.2457
 5560SOL     OW28315   1.798   2.307   5.472  0.1345 -0.2014  0.0120
 5560SOL    HW128316   1.789   2.249   5.547  1.7294 -1.4566 -0.7487
 5560SOL    HW228317   1.852   2.370   5.518  0.7551  0.1746 -1.2235
 5561SOL     OW28318   4.684   4.726   5.445 -0.4910 -0.4192  0.3859
 5561SOL    HW128319   0.001   0.024   5.374 -2.8068  1.8952 -0.2307
 5561SOL    HW228320   4.705   4.633   5.440 -3.4433 -1.1255  0.8863
 5562SOL     OW28321   0.188   2.191   2.877  0.0189  0.0271  0.4140
 5562SOL    HW128322   0.129   2.261   2.903 -1.6287 -1.0099 -0.5806
 5562SOL    HW228323   0.224   2.235   2.800  2.2982 -2.4697  0.0449
 5563SOL     OW28324   2.782   4.373   7.958  0.1524  0.6463  0.0245
 5563SOL    HW128325   2.745   4.287   7.934  1.5663  0.3136 -0.9261
 5563SOL    HW228326   2.864   4.380   7.910  1.0061  2.5083  1.7579
 5564SOL     OW28327   3.171   2.124   4.254 -0.1371  0.2076 -0.1039
 5564SOL    HW128328   3.248   2.126   4.197  1.7241 -1.0391  2.3748
 5564SOL    HW228329   3.170   2.031   4.276  0.0730  0.4292  0.8055
 5565SOL     OW28330   0.474   0.928   4.617 -0.2228  0.5373  0.5800
 5565SOL    HW128331   0.421   0.962   4.688 -1.4180  1.4202 -0.7354
 5565SOL    HW228332   0.433   0.978   4.547 -1.8150 -0.3778  0.8666
 5566SOL     OW28333   0.521   2.736   4.596  0.0545  0.0422  0.1911
 5566SOL    HW128334   0.606   2.693   4.583 -0.3618 -1.1929  1.5872
 5566SOL    HW228335   0.474   2.724   4.514  0.6037 -1.2216  0.0721
 5567SOL     OW28336   1.209   3.551   5.082 -0.3816  0.6388 -0.2613
 5567SOL    HW128337   1.252   3.633   5.060  1.3002  0.7140  3.2828
 5567SOL    HW228338   1.268   3.522   5.152  1.6397  0.0891 -2.1994
 5568SOL     OW28339   3.004   3.955   5.058 -0.1287 -0.0488 -0.0345
 5568SOL    HW128340   2.941   3.938   4.987 -0.1577  0.6073 -0.1740
 5568SOL    HW228341   2.977   4.040   5.094  0.5544  0.4996 -0.8090
 5569SOL     OW28342   3.684   0.426   5.737 -0.6043 -0.1720  0.0432
 5569SOL    HW128343   3.599   0.431   5.694 -1.0838 -0.8700  0.9019
 5569SOL    HW228344   3.719   0.500   5.688 -0.8356 -1.3122 -1.8477
 5570SOL     OW28345   1.141   2.737  16.156  0.2705 -0.1262 -0.4569
 5570SOL    HW128346   1.178   2.706  16.238  1.7827  2.0341 -0.3297
 5570SOL    HW228347   1.201   2.697  16.093 -0.9728 -0.6439 -1.3175
 5571SOL     OW28348   4.218   1.935  14.059 -0.0132 -0.6187  0.3245
 5571SOL    HW128349   4.281   1.912  13.991  0.4506  0.4754  0.3702
 5571SOL    HW228350   4.179   1.854  14.091 -2.6905 -0.9431 -3.7188
 5572SOL     OW28351   2.520   1.550   3.226  0.0158  0.2367 -0.1759
 5572SOL    HW128352   2.462   1.547   3.302 -0.4558  2.4285 -0.4338
 5572SOL    HW228353   2.573   1.472   3.239 -0.2482 -0.1108 -1.2402
 5573SOL     OW28354   4.046   2.668   6.763  0.3703 -0.3181  0.4187
 5573SOL    HW128355   4.045   2.719   6.682  1.9231  1.5783  1.6306
 5573SOL    HW228356   3.957   2.633   6.761 -0.7926  2.5830  1.1230
 5574SOL     OW28357   1.010   4.291   5.526  0.6170 -0.2815 -0.3580
 5574SOL    HW128358   1.090   4.342   5.530  0.4576 -0.0529 -0.0722
 5574SOL    HW228359   1.038   4.215   5.474 -0.2534 -0.0927 -1.1030
 5575SOL     OW28360   4.413   4.439   4.458  0.2428 -0.0854 -0.0992
 5575SOL    HW128361   4.320   4.419   4.469  0.3148 -0.2010  0.3136
 5575SOL    HW228362   4.441   4.401   4.374 -0.5270  0.3357 -0.5444
 5576SOL     OW28363   1.906   0.189   3.260 -0.2078  0.6306 -0.0325
 5576SOL    HW128364   1.859   0.240   3.326  1.8159  0.3774  1.6176
 5576SOL    HW228365   1.991   0.232   3.250  0.5986 -0.7873  0.5561
 5577SOL     OW28366   3.074   0.380   4.575  0.6265  0.8365 -0.4575
 5577SOL    HW128367   3.044   0.470   4.584 -3.0095 -0.5051  0.7564
 5577SOL    HW228368   3.005   0.322   4.607 -0.3769  2.3600  0.1031
 5578SOL     OW28369   1.129   1.585   3.669 -0.1628  0.6170 -0.0855
 5578SOL    HW128370   1.147   1.552   3.581  0.4715 -0.9735  0.6231
 5578SOL    HW228371   1.193   1.655   3.679  0.9402 -0.5497  1.1740
 5579SOL     OW28372   0.939   4.565   3.063  0.1689 -0.6360  0.2144
 5579SOL    HW128373   0.898   4.626   3.125  0.3176 -0.5870  0.2643
 5579SOL    HW228374   0.868   4.556   2.999 -0.4013 -0.4983  0.8243
 5580SOL     OW28375   0.432   3.344   5.430 -0.4800  0.5122 -0.6584
 5580SOL    HW128376   0.375   3.333   5.506  1.6344 -1.6805  0.6164
 5580SOL    HW228377   0.434   3.254   5.396 -2.5006 -0.2275  1.1221
 5581SOL     OW28378   4.252   4.028   3.712 -0.0600 -0.2155  0.2371
 5581SOL    HW128379   4.255   3.953   3.771 -0.3370 -0.3779  0.0440
 5581SOL    HW228380   4.174   4.073   3.743  0.1204 -0.2394  0.7220
 5582SOL     OW28381   3.395   4.115   2.955 -0.1686 -0.1913 -0.2215
 5582SOL    HW128382   3.423   4.029   2.988  0.9402  0.1305 -0.3268
 5582SOL    HW228383   3.476   4.165   2.948 -0.2761  0.0947  0.7242
 5583SOL     OW28384   2.971   0.624   4.581 -0.3251 -0.1592 -0.5261
 5583SOL    HW128385   3.021   0.706   4.584  0.5923 -0.6703 -1.6250
 5583SOL    HW228386   2.899   0.639   4.643  0.6140  1.5326  0.1758
 5584SOL     OW28387   1.901   1.678  14.636  0.0572 -0.2099  0.0409
 5584SOL    HW128388   1.981   1.694  14.586 -1.4441  1.7322 -1.6998
 5584SOL    HW228389   1.881   1.768  14.662 -2.5470 -0.5726 -0.7124
 5585SOL     OW28390   2.173   1.679  14.478  0.5015  0.4011  0.2907
 5585SOL    HW128391   2.172   1.763  14.526 -0.6698  1.0302 -0.8471
 5585SOL    HW228392   2.266   1.654  14.484  0.3444 -0.0427  0.9233
 5586SOL     OW28393   2.508   0.589  11.599  0.1121  0.3042 -0.5252
 5586SOL    HW128394   2.571   0.626  11.661 -1.5780  0.7731  0.9091
 5586SOL    HW228395   2.436   0.568  11.659  2.3219 -1.3427  1.5672
 5587SOL     OW28396   4.254   3.070   7.665 -0.0351 -0.1983 -0.5521
 5587SOL    HW128397   4.305   2.997   7.630 -0.3212 -0.6257 -0.0713
 5587SOL    HW228398   4.268   3.127   7.589  0.5673  0.3854 -0.0136
 5588SOL     OW28399   0.503   1.124  11.071 -0.4451 -0.0453 -0.2539
 5588SOL    HW128400   0.418   1.168  11.074 -0.3549  0.2118 -1.5222
 5588SOL    HW228401   0.554   1.199  11.042 -0.7643 -1.0389 -3.3271
 5589SOL     OW28402   2.410   4.160  11.013 -0.0117 -0.2579 -0.5020
 5589SOL    HW128403   2.449   4.248  11.021  1.1916 -0.9455  1.3072
 5589SOL    HW228404   2.347   4.152  11.085  0.5541 -2.9233 -0.3084
 5590SOL     OW28405   3.898   2.031   5.110  0.1117 -0.3637 -0.1886
 5590SOL    HW128406   3.864   1.981   5.184 -2.5791  1.1916 -0.3810
 5590SOL    HW228407   3.945   2.099   5.159 -0.4299 -0.2994  0.2332
 5591SOL     OW28408   2.673   3.081   0.999  0.0947 -0.0467 -0.2619
 5591SOL    HW128409   2.637   3.169   0.987  0.5354 -0.1368 -2.1218
 5591SOL    HW228410   2.622   3.058   1.077  0.0191 -0.5738 -0.4682
 5592SOL     OW28411   1.051   4.571  17.247 -0.3360 -0.1737  0.1814
 5592SOL    HW128412   0.987   4.547  17.180  1.1678 -0.7237 -1.0476
 5592SOL    HW228413   1.118   4.619  17.199 -0.3912 -0.2850 -0.0094
 5593SOL     OW28414   3.099   3.498   2.334  0.2015 -0.0449  0.3205
 5593SOL    HW128415   3.107   3.572   2.395  0.3489  0.3491 -0.1797
 5593SOL    HW228416   3.161   3.527   2.267 -1.1204 -0.4313 -1.0498
 5594SOL     OW28417   0.990   0.816   2.322 -0.9169  0.0586 -0.2669
 5594SOL    HW128418   1.042   0.896   2.327 -2.0882  0.5708  3.1165
 5594SOL    HW228419   0.901   0.843   2.345 -1.6108 -2.6733  0.2293
 5595SOL     OW28420   4.594   2.866  15.678  0.2384  0.1813  0.0033
 5595SOL    HW128421   4.593   2.930  15.607 -0.1774  1.8282  1.5206
 5595SOL    HW228422   4.527   2.805  15.648  1.8706 -1.2283 -0.8608
 5596SOL     OW28423   2.226   3.602  15.074  0.4140  0.2797  0.1819
 5596SOL    HW128424   2.305   3.563  15.111  0.1074  1.0764  1.6902
 5596SOL    HW228425   2.257   3.639  14.992 -0.2536  2.1074  0.7562
 5597SOL     OW28426   2.427   0.329  11.474 -0.1624  0.2809 -0.5969
 5597SOL    HW128427   2.462   0.409  11.511 -0.7296  0.6168 -0.7946
 5597SOL    HW228428   2.439   0.344  11.380 -0.5839  1.2223 -0.4926
 5598SOL     OW28429   2.094   3.831  12.645  0.4289 -0.1016  0.0050
 5598SOL    HW128430   2.137   3.786  12.718  2.8690 -1.1314 -2.0608
 5598SOL    HW228431   2.063   3.915  12.677 -0.8729 -0.8428  0.7035
 5599SOL     OW28432   4.247   0.016   3.781 -0.7880 -0.3336 -0.3280
 5599SOL    HW128433   4.247   4.657   3.771 -1.2781 -0.2581 -1.1075
 5599SOL    HW228434   4.232   0.013   3.875 -1.9948  0.2575 -0.4914
 5600SOL     OW28435   3.114   4.183   9.579 -0.3587  0.0750  0.4766
 5600SOL    HW128436   3.049   4.151   9.516 -0.8122  0.5186  0.7115
 5600SOL    HW228437   3.057   4.180   9.656 -1.1701 -0.6431 -0.1538
 5601SOL     OW28438   1.358   3.718   5.706 -0.2046 -0.1931 -0.3291
 5601SOL    HW128439   1.264   3.720   5.691  0.0919 -3.6428 -2.5751
 5601SOL    HW228440   1.363   3.686   5.797  0.5122  0.6850 -0.0604
 5602SOL     OW28441   3.326   0.598   4.016  0.2024  0.7808 -1.1560
 5602SOL    HW128442   3.305   0.574   3.926 -0.0033 -0.8766 -0.6607
 5602SOL    HW228443   3.263   0.542   4.062  1.2895  1.0752  0.7124
 5603SOL     OW28444   2.585   2.295   8.649 -0.2265 -0.2494 -0.7885
 5603SOL    HW128445   2.650   2.335   8.707 -0.7038  0.4946 -0.7613
 5603SOL    HW228446   2.519   2.362   8.667  1.0652  0.5171  1.1825
 5604SOL     OW28447   0.876   4.570   2.640 -0.1614  0.6075  0.7231
 5604SOL    HW128448   0.798   4.618   2.613  0.0880 -0.6303 -2.1992
 5604SOL    HW228449   0.940   4.641   2.634  1.5079 -0.7407  2.6379
 5605SOL     OW28450   2.961   1.533   7.138  0.0758 -0.1041 -0.5736
 5605SOL    HW128451   2.880   1.550   7.091 -2.1703  1.5568  3.8531
 5605SOL    HW228452   2.928   1.516   7.227  3.0547 -0.9321  0.3837
 5606SOL     OW28453   4.301   1.137   8.689  0.4731  0.3152 -0.1835
 5606SOL    HW128454   4.358   1.128   8.765  1.2103  0.3105 -0.7413
 5606SOL    HW228455   4.231   1.076   8.710  0.7354 -0.0014 -0.2364
 5607SOL     OW28456   3.986   2.443  15.708  0.1312 -0.1059  0.2416
 5607SOL    HW128457   3.905   2.492  15.719 -0.3649 -1.2606  1.6581
 5607SOL    HW228458   3.952   2.367  15.662 -0.2885 -0.3801  1.0056
 5608SOL     OW28459   0.568   3.506  17.737 -0.5205 -0.6672 -0.0364
 5608SOL    HW128460   0.501   3.570  17.717  2.4114  2.3654 -0.1678
 5608SOL    HW228461   0.563   3.503   0.090 -0.3000 -0.3288 -0.0154
 5609SOL     OW28462   4.696   4.002   7.620  0.2865  0.0170  0.6936
 5609SOL    HW128463   4.664   3.996   7.530 -1.2490  0.5225  1.2086
 5609SOL    HW228464   4.674   3.912   7.644  0.9050 -1.0171 -2.7466
 5610SOL     OW28465   2.700   2.267   4.848 -0.3653 -0.1364  0.2169
 5610SOL    HW128466   2.649   2.291   4.771  0.6518  1.1893 -0.0544
 5610SOL    HW228467   2.640   2.262   4.922 -0.2936  2.3836  0.4353
 5611SOL     OW28468   3.391   3.558  12.079  0.1017  0.0718  0.1763
 5611SOL    HW128469   3.304   3.570  12.118 -0.7536 -1.2581 -1.3266
 5611SOL    HW228470   3.419   3.649  12.067 -1.5953  0.3341 -1.8750
 5612SOL     OW28471   3.074   0.214  10.221  0.4965 -0.7958 -0.5374
 5612SOL    HW128472   3.065   0.276  10.294  0.1535 -2.1339  0.5401
 5612SOL    HW228473   2.985   0.180  10.209 -0.2564  0.3677  1.5754
 5613SOL     OW28474   0.955   3.477   2.942  0.3593  0.0818 -0.0014
 5613SOL    HW128475   1.002   3.453   3.022  1.0053 -3.0877 -1.3090
 5613SOL    HW228476   0.894   3.538   2.982 -1.1868 -1.8661  0.6235
 5614SOL     OW28477   1.849   0.075   2.131  0.4565 -0.4466  0.7736
 5614SOL    HW128478   1.924   0.129   2.158 -0.6624  1.2134  0.5663
 5614SOL    HW228479   1.800   0.092   2.212 -0.3713 -1.5083  0.4938
 5615SOL     OW28480   4.727   0.042   7.792 -0.6747 -0.4012  0.0403
 5615SOL    HW128481   0.041   4.715   7.740 -0.5658  0.6245 -1.0873
 5615SOL    HW228482   4.685   0.101   7.730 -0.0120  0.8787  0.8128
 5616SOL     OW28483   0.950   0.409   3.165  0.5663  0.0799  0.0883
 5616SOL    HW128484   0.953   0.505   3.161  0.8699  0.0048 -1.5122
 5616SOL    HW228485   0.981   0.387   3.253  1.1539 -2.7078 -0.8171
 5617SOL     OW28486   1.150   1.221   5.715  0.1266 -0.3569  0.4592
 5617SOL    HW128487   1.070   1.241   5.764  0.5983 -0.6340  1.3313
 5617SOL    HW228488   1.171   1.303   5.669  0.2057 -1.2739 -1.1589
 5618SOL     OW28489   2.504   0.223   1.582 -0.4730 -0.8809 -0.5870
 5618SOL    HW128490   2.511   0.303   1.530  1.8970  0.0986  1.2480
 5618SOL    HW228491   2.507   0.263   1.669 -1.6046 -3.3032  0.5471
 5619SOL     OW28492   4.316   1.750  11.335 -0.0335  0.3621  0.3018
 5619SOL    HW128493   4.319   1.678  11.273 -0.4265  0.0141  0.6881
 5619SOL    HW228494   4.356   1.823  11.288  1.7339 -1.7821 -1.5023
 5620SOL     OW28495   0.096   3.273  11.560 -0.2974 -0.1226 -0.1570
 5620SOL    HW128496   0.104   3.201  11.623  3.3295  0.7582  0.3957
 5620SOL    HW228497   0.176   3.254  11.511  0.0385 -0.3054  0.4524
 5621SOL     OW28498   0.442   4.363   7.829 -0.1413 -0.8307  0.2022
 5621SOL    HW128499   0.456   4.388   7.920  2.3637  1.8867 -0.9203
 5621SOL    HW228500   0.355   4.396   7.809 -0.8596 -3.1141 -0.4558
 5622SOL     OW28501   1.449   3.551   0.051  0.0951 -0.0969  0.0144
 5622SOL    HW128502   1.436   3.582   0.141  3.2681  1.1057  0.0658
 5622SOL    HW228503   1.375   3.592   0.005 -0.3591 -0.7501  0.1604
 5623SOL     OW28504   3.684   0.323   6.437 -0.4224  0.6678  0.0827
 5623SOL    HW128505   3.670   0.394   6.500 -0.1057 -0.8987  1.9287
 5623SOL    HW228506   3.652   0.366   6.358 -0.3427  0.4671 -0.0614
 5624SOL     OW28507   0.404   1.391   5.136  0.7312 -0.4873 -0.5204
 5624SOL    HW128508   0.326   1.338   5.115 -1.2359  2.4791 -0.6530
 5624SOL    HW228509   0.436   1.334   5.207 -2.8191 -1.3227  0.4137
 5625SOL     OW28510   4.585   1.269   6.869  0.0242  0.2405  0.4817
 5625SOL    HW128511   4.519   1.233   6.809  1.4652 -0.5556 -0.6312
 5625SOL    HW228512   4.552   1.355   6.893  0.6903  0.5990  0.1082
 5626SOL     OW28513   1.603   0.843   3.497 -0.3497  0.6538 -0.0321
 5626SOL    HW128514   1.617   0.874   3.587  0.5392 -1.3842  0.5355
 5626SOL    HW228515   1.663   0.769   3.485  0.4653  1.5555 -1.4028
 5627SOL     OW28516   0.897   4.465   6.487 -0.3739 -0.7472 -0.1574
 5627SOL    HW128517   0.914   4.558   6.503 -1.3428 -0.5594 -0.1845
 5627SOL    HW228518   0.869   4.444   6.577 -0.6482 -1.8575 -0.5016
 5628SOL     OW28519   3.430   3.119   7.087  0.1512 -0.1192 -0.1437
 5628SOL    HW128520   3.369   3.050   7.114 -1.4261  1.2208 -0.2585
 5628SOL    HW228521   3.368   3.192   7.080 -1.1917 -1.1841  0.5704
 5629SOL     OW28522   0.804   1.147   3.720 -1.0582  0.1572  0.1640
 5629SOL    HW128523   0.723   1.194   3.739 -1.1065  0.1372  0.0104
 5629SOL    HW228524   0.848   1.193   3.648  0.3551 -0.2317  0.7809
 5630SOL     OW28525   2.341   0.879   7.682 -0.4270 -0.6328 -0.2350
 5630SOL    HW128526   2.361   0.839   7.766  4.3577  1.3560 -0.4167
 5630SOL    HW228527   2.423   0.861   7.634  0.1794 -4.0347  2.0508
 5631SOL     OW28528   4.256   4.321   8.712 -0.0390  0.5741 -0.3528
 5631SOL    HW128529   4.221   4.359   8.631 -2.0619 -2.4506 -0.9134
 5631SOL    HW228530   4.187   4.262   8.742  1.2059  0.0549  1.4848
 5632SOL     OW28531   3.106   4.587   9.736  0.0247 -0.0973 -0.2971
 5632SOL    HW128532   3.081   4.548   9.820 -0.7623 -0.1485 -0.5532
 5632SOL    HW228533   3.031   4.560   9.684  0.1664  1.3341 -1.2385
 5633SOL     OW28534   1.092   2.563   7.308 -0.0985  0.4142  0.6109
 5633SOL    HW128535   1.039   2.494   7.269  0.0942  1.3401 -1.2570
 5633SOL    HW228536   1.099   2.624   7.235 -1.6451 -1.8937 -1.4697
 5634SOL     OW28537   4.729   0.530   5.157 -0.6373  0.0141  0.5488
 5634SOL    HW128538   0.029   0.442   5.147 -0.5165  0.1747 -0.4441
 5634SOL    HW228539   0.066   0.568   5.206  1.3948  0.2371 -2.6728
 5635SOL     OW28540   2.007   4.196   2.400 -0.1408 -0.2413  0.0879
 5635SOL    HW128541   2.032   4.216   2.490  0.9160  0.4747 -0.3560
 5635SOL    HW228542   2.018   4.285   2.366  2.0790  0.2610  2.1054
 5636SOL     OW28543   3.539   0.122   3.921  0.7177 -0.1280 -0.0588
 5636SOL    HW128544   3.592   0.104   3.843 -0.9182 -3.1371 -0.4642
 5636SOL    HW228545   3.597   0.103   3.995  1.1207 -1.9493 -0.8349
 5637SOL     OW28546   0.211   0.131  10.466  0.1036 -0.0350 -0.1457
 5637SOL    HW128547   0.235   0.184  10.543  2.0640  0.2336 -0.9312
 5637SOL    HW228548   0.297   0.096  10.443  1.2705  2.9114 -0.2080
 5638SOL     OW28549   3.217   0.000   4.617 -0.4156 -0.3262  0.2418
 5638SOL    HW128550   3.242   0.088   4.645 -0.0814 -0.9722  2.0076
 5638SOL    HW228551   3.268   0.005   4.537 -2.5224 -1.3212 -1.1716
 5639SOL     OW28552   3.569   3.718  14.901 -0.4527  0.2593  0.0502
 5639SOL    HW128553   3.611   3.639  14.934  0.4492 -0.0748 -1.8656
 5639SOL    HW228554   3.490   3.675  14.868 -0.4413  1.3785 -1.4566
 5640SOL     OW28555   4.058   2.235   6.806 -0.1239  0.3644  0.2943
 5640SOL    HW128556   3.994   2.262   6.741  0.8962  0.6646 -0.5877
 5640SOL    HW228557   4.041   2.141   6.815 -0.3772  0.4205  0.4094
 5641SOL     OW28558   0.652   2.244   5.471  0.0070  0.5053  0.2039
 5641SOL    HW128559   0.602   2.179   5.520  1.7849 -1.3634 -0.5087
 5641SOL    HW228560   0.738   2.247   5.513 -0.1902  0.8681  0.5836
 5642SOL     OW28561   0.136   2.543   7.267  0.5531  0.0741 -0.0631
 5642SOL    HW128562   0.130   2.568   7.359 -0.8405  0.4253 -0.2512
 5642SOL    HW228563   0.098   2.618   7.221  0.1554  1.0185  1.7943
 5643SOL     OW28564   3.274   4.380   3.404  0.1203  0.3387  0.1858
 5643SOL    HW128565   3.273   4.292   3.442  1.4777  1.2251  2.2192
 5643SOL    HW228566   3.362   4.416   3.415  0.2833 -0.1536  0.5015
 5644SOL     OW28567   2.172   1.863   1.552 -0.0236  0.2455 -0.2380
 5644SOL    HW128568   2.173   1.921   1.629  0.8576  0.5600 -0.4913
 5644SOL    HW228569   2.265   1.839   1.555 -0.2544 -0.5176  0.8558
 5645SOL     OW28570   3.289   3.182   8.556 -0.2251  0.2492  0.6112
 5645SOL    HW128571   3.275   3.089   8.537  1.1668  0.2438 -0.4027
 5645SOL    HW228572   3.323   3.186   8.646 -1.0333  1.9383  0.8339
 5646SOL     OW28573   3.685   0.421   0.076 -0.2693  0.6271 -0.7599
 5646SOL    HW128574   3.692   0.458  17.731  0.0773  1.3481 -0.4254
 5646SOL    HW228575   3.757   0.358   0.068 -0.1089  0.5982  0.8888
 5647SOL     OW28576   4.185   3.262   5.103  0.2725 -0.2101 -0.1922
 5647SOL    HW128577   4.093   3.238   5.087  1.0593 -1.1479 -3.2922
 5647SOL    HW228578   4.227   3.280   5.019 -0.6497  0.4156 -0.5166
 5648SOL     OW28579   1.702   4.701  17.680 -0.5886  0.3274 -0.3633
 5648SOL    HW128580   1.757   4.701   0.016  3.3362  0.1585 -3.1387
 5648SOL    HW228581   1.726   0.044  17.632 -1.0151  0.8790  0.3127
 5649SOL     OW28582   3.001   4.437   9.946  0.2091  0.0665 -0.0042
 5649SOL    HW128583   2.926   4.491   9.972 -0.0806  0.4868 -1.6557
 5649SOL    HW228584   3.059   4.413  10.018  0.5285  0.7327 -0.0360
 5650SOL     OW28585   3.614   4.518   6.903  0.1100  0.0678 -0.3153
 5650SOL    HW128586   3.681   4.553   6.843  0.5977  1.7857  1.2467
 5650SOL    HW228587   3.653   4.537   6.988 -1.7622  1.1442  0.3014
 5651SOL     OW28588   1.658   3.193   5.308 -0.7283  0.0400  0.2074
 5651SOL    HW128589   1.646   3.177   5.401 -0.5410 -0.2790  0.1788
 5651SOL    HW228590   1.598   3.132   5.266 -0.2523 -1.7526  2.1466
 5652SOL     OW28591   2.745   1.128   8.101  0.0411  0.7299  0.0487
 5652SOL    HW128592   2.684   1.068   8.057 -0.9753  2.7881 -1.3746
 5652SOL    HW228593   2.779   1.064   8.164  1.4414  0.7884 -0.6533
 5653SOL     OW28594   4.314   0.512   4.456  0.3223  0.1425 -0.0840
 5653SOL    HW128595   4.321   0.481   4.366  1.3785 -3.1790  1.1386
 5653SOL    HW228596   4.300   0.606   4.446  1.5830  0.5665  2.0573
 5654SOL     OW28597   2.179   2.628   9.035 -0.4036 -0.6913  0.3455
 5654SOL    HW128598   2.172   2.715   9.074 -1.5178 -0.6484  0.0711
 5654SOL    HW228599   2.193   2.642   8.942 -2.0080 -1.9416 -0.0970
 5655SOL     OW28600   4.190   1.836   7.183  0.4261 -0.0360  0.9038
 5655SOL    HW128601   4.280   1.867   7.174  0.2300  0.1358 -0.4330
 5655SOL    HW228602   4.145   1.898   7.126  1.1574 -0.6930 -0.4037
 5656SOL     OW28603   1.688   0.583   9.539 -0.1352 -0.1983  0.1222
 5656SOL    HW128604   1.720   0.590   9.629  0.7797  3.6939 -0.4983
 5656SOL    HW228605   1.625   0.654   9.547 -1.5365 -1.4085 -0.3088
 5657SOL     OW28606   4.696   2.311   4.155 -0.0295  0.0314  0.6617
 5657SOL    HW128607   0.022   2.310   4.082  0.2878 -0.7997  0.9477
 5657SOL    HW228608   0.016   2.264   4.216  0.4305  1.6204  1.4636
 5658SOL     OW28609   0.178   0.043   6.977 -0.8414 -0.3155 -0.5661
 5658SOL    HW128610   0.106   0.028   6.916 -0.7183 -0.6469 -0.6307
 5658SOL    HW228611   0.140   0.052   7.065  0.3827 -1.2680  0.0610
 5659SOL     OW28612   3.387   3.409  15.260  0.8029  0.2888 -0.5327
 5659SOL    HW128613   3.398   3.497  15.223  0.3355  0.7670  0.4720
 5659SOL    HW228614   3.474   3.371  15.253 -0.2560 -2.0929 -0.4891
 5660SOL     OW28615   4.335   3.288   1.419 -0.2858  0.1945  0.1720
 5660SOL    HW128616   4.347   3.221   1.352 -1.2897  0.6957 -0.5084
 5660SOL    HW228617   4.383   3.359   1.376  1.8835 -2.0318 -1.0876
 5661SOL     OW28618   2.657   0.129  11.423  0.3377 -0.3283  0.1035
 5661SOL    HW128619   2.749   0.150  11.409  0.3756 -0.6310 -0.1059
 5661SOL    HW228620   2.611   0.212  11.438  0.0759 -0.3677 -0.4630
 5662SOL     OW28621   0.023   3.975   5.637 -0.2525  0.9126  0.3199
 5662SOL    HW128622   0.094   3.917   5.664  0.3694  1.5465  0.0357
 5662SOL    HW228623   0.025   3.960   5.542 -1.3864 -0.4341  0.5088
 5663SOL     OW28624   3.170   3.689   7.487  0.0370 -0.1663 -0.7298
 5663SOL    HW128625   3.161   3.603   7.446  0.6053 -2.0670  3.0910
 5663SOL    HW228626   3.221   3.741   7.425  0.8028  0.2705  0.2747
 5664SOL     OW28627   2.263   1.030   2.929 -0.2731 -0.5114 -0.2085
 5664SOL    HW128628   2.343   0.981   2.943 -0.5592 -0.9636 -0.1396
 5664SOL    HW228629   2.241   1.057   3.018 -1.6400 -3.4510  0.3394
 5665SOL     OW28630   2.679   4.255   8.560 -0.1860 -0.0893 -0.0133
 5665SOL    HW128631   2.700   4.197   8.487 -1.2414  0.0470 -0.4280
 5665SOL    HW228632   2.589   4.227   8.580 -0.0827 -0.0139  0.5518
 5666SOL     OW28633   2.169   0.814  11.177 -0.0178  0.0248 -0.0941
 5666SOL    HW128634   2.264   0.826  11.182 -0.0807  0.2741  0.5851
 5666SOL    HW228635   2.144   0.850  11.263 -1.0192 -1.9256  0.4297
 5667SOL     OW28636   0.931   0.804  10.828  0.0652 -0.6012  0.3022
 5667SOL    HW128637   0.907   0.888  10.868 -2.9320 -1.7877  0.9945
 5667SOL    HW228638   0.944   0.831  10.738 -0.5160 -1.2938  0.0102
 5668SOL     OW28639   0.307   3.843   4.480 -0.2022  0.6609  0.4726
 5668SOL    HW128640   0.266   3.862   4.564 -0.9829 -2.0206  0.6691
 5668SOL    HW228641   0.288   3.753   4.456 -2.9593  1.1261  0.9232
 5669SOL     OW28642   1.401   3.884   6.185 -0.8238 -0.3965  0.3247
 5669SOL    HW128643   1.382   3.958   6.127  1.0102 -0.3307 -0.1863
 5669SOL    HW228644   1.321   3.880   6.237 -1.7526 -0.7664 -1.1250
 5670SOL     OW28645   3.989   0.410   4.199 -0.4733 -0.3316 -0.7236
 5670SOL    HW128646   3.910   0.384   4.152 -2.0749 -0.7326  2.1935
 5670SOL    HW228647   4.044   0.446   4.130  1.0278 -1.5093 -0.1448
 5671SOL     OW28648   4.336   3.784   7.427 -0.1434 -0.0642 -0.3365
 5671SOL    HW128649   4.274   3.856   7.413 -0.6135 -0.7090 -1.5591
 5671SOL    HW228650   4.375   3.768   7.341 -1.7855 -0.0426 -1.0863
 5672SOL     OW28651   4.558   3.213   4.820  0.1484 -0.5215  0.5923
 5672SOL    HW128652   4.645   3.246   4.796  0.0361 -0.8701 -0.2825
 5672SOL    HW228653   4.523   3.181   4.738  0.2879 -2.2833  1.2318
 5673SOL     OW28654   2.826   2.752   2.349 -1.2047 -0.6452 -0.1560
 5673SOL    HW128655   2.800   2.830   2.299  0.0222  1.2280  2.1422
 5673SOL    HW228656   2.855   2.797   2.428  0.5964 -0.9281 -0.6440
 5674SOL     OW28657   4.301   0.755   9.962 -0.1165  0.0017  0.4928
 5674SOL    HW128658   4.341   0.755   9.876 -0.2823  2.2672  0.4092
 5674SOL    HW228659   4.222   0.704   9.941 -1.4178  2.6866 -1.1078
 5675SOL     OW28660   3.465   0.646   3.336  0.4444  0.0337 -0.6719
 5675SOL    HW128661   3.410   0.702   3.282  1.5598  1.8362  0.0432
 5675SOL    HW228662   3.502   0.587   3.271 -1.3428  0.0527 -1.6994
 5676SOL     OW28663   1.107   3.628   5.635  0.0480 -0.6168  0.1762
 5676SOL    HW128664   1.108   3.541   5.674 -0.2408 -1.5650 -1.9079
 5676SOL    HW228665   1.023   3.624   5.590  0.3497  2.2600 -0.6310
 5677SOL     OW28666   3.241   4.363   1.864  0.0596  0.0491 -0.1070
 5677SOL    HW128667   3.177   4.302   1.901  1.6038 -2.0507 -0.9462
 5677SOL    HW228668   3.324   4.318   1.875 -1.2285 -2.2628  0.2693
 5678SOL     OW28669   1.782   1.389   9.203 -0.1235  0.0363  0.6492
 5678SOL    HW128670   1.820   1.428   9.282 -0.1395  1.1536  0.1079
 5678SOL    HW228671   1.791   1.296   9.226  0.3498 -0.8307 -2.9794
 5679SOL     OW28672   2.191   1.665   9.266  0.6025  0.3232  0.1839
 5679SOL    HW128673   2.186   1.609   9.343  0.1373 -0.3774 -0.3601
 5679SOL    HW228674   2.150   1.748   9.290 -1.6177 -0.9529  0.7395
 5680SOL     OW28675   3.833   2.887   6.480  0.4684  0.0233 -0.1718
 5680SOL    HW128676   3.838   2.808   6.427  0.6866  0.3615 -0.6531
 5680SOL    HW228677   3.885   2.948   6.427 -1.4246  0.5517 -1.4178
 5681SOL     OW28678   3.850   3.267   3.310  0.5644 -0.1250 -0.9292
 5681SOL    HW128679   3.761   3.262   3.346  1.7633 -1.3897  1.8127
 5681SOL    HW228680   3.902   3.209   3.366 -0.6577  0.9981  1.3877
 5682SOL     OW28681   0.365   4.210   6.166  0.1931  0.2508  0.3558
 5682SOL    HW128682   0.396   4.125   6.134  1.4064  0.5385  0.7670
 5682SOL    HW228683   0.288   4.181   6.216  0.4225 -0.5871  0.2228
 5683SOL     OW28684   2.297   3.298  14.626  0.0650  0.0771 -0.3553
 5683SOL    HW128685   2.374   3.241  14.626 -1.3804 -1.8524  1.4386
 5683SOL    HW228686   2.287   3.329  14.716  4.5615  1.1647 -0.1930
 5684SOL     OW28687   0.712   2.428   7.003 -0.2642 -0.2310 -0.3149
 5684SOL    HW128688   0.709   2.493   6.932  3.6556 -1.4136 -1.5629
 5684SOL    HW228689   0.700   2.342   6.964  0.8146 -0.7590  0.5279
 5685SOL     OW28690   1.716   4.004   7.769  0.2370  0.1450 -0.2837
 5685SOL    HW128691   1.635   4.047   7.797  0.2712  0.2272 -0.3106
 5685SOL    HW228692   1.711   4.022   7.675 -3.2474  2.2163  0.2916
 5686SOL     OW28693   4.521   3.801   4.437 -0.5106  0.0699 -0.0260
 5686SOL    HW128694   4.562   3.791   4.523 -0.1007 -1.8014 -0.4483
 5686SOL    HW228695   4.522   3.896   4.426  1.3560  0.0738  0.2476
 5687SOL     OW28696   4.339   2.091   7.782  0.1584 -0.1038 -0.4661
 5687SOL    HW128697   4.312   2.015   7.834 -2.4175  1.1622  0.0296
 5687SOL    HW228698   4.420   2.050   7.751  0.9246  0.5504  0.6674
 5688SOL     OW28699   3.859   4.211  13.533 -0.4199  0.2758 -0.5518
 5688SOL    HW128700   3.929   4.226  13.596  0.4750  0.3613 -1.5707
 5688SOL    HW228701   3.787   4.226  13.594 -1.3066  0.6686 -1.6783
 5689SOL     OW28702   4.407   2.668  12.675  0.5301  0.2876 -0.0622
 5689SOL    HW128703   4.455   2.618  12.742  0.8269  0.6155 -0.0338
 5689SOL    HW228704   4.393   2.753  12.717  0.2420 -0.0786  0.5922
 5690SOL     OW28705   2.313   3.569  12.401 -0.1533  0.0283 -0.4082
 5690SOL    HW128706   2.224   3.601  12.415 -0.8324 -1.4494 -1.4140
 5690SOL    HW228707   2.348   3.641  12.348 -1.5827  1.2384  0.2909
 5691SOL     OW28708   0.743   1.893   3.726 -0.1024 -0.6405 -0.2458
 5691SOL    HW128709   0.787   1.891   3.641 -2.5922  1.0729 -1.5839
 5691SOL    HW228710   0.657   1.921   3.695 -0.3023  1.1389  1.9058
 5692SOL     OW28711   0.958   1.956  14.695 -0.4497 -0.4071  0.1640
 5692SOL    HW128712   0.969   1.947  14.789  0.0004  1.1818  0.2714
 5692SOL    HW228713   0.921   1.870  14.675 -0.4926  0.1602 -2.2423
 5693SOL     OW28714   0.431   4.542   5.932  0.1998 -0.2008  0.9475
 5693SOL    HW128715   0.490   4.551   5.857  0.4122 -0.2269  1.1115
 5693SOL    HW228716   0.487   4.504   6.000  0.2324 -2.7222 -0.4818
 5694SOL     OW28717   1.606   1.904   2.458  0.3045 -0.2528 -0.5826
 5694SOL    HW128718   1.589   1.898   2.552  1.5877 -4.4535 -0.6227
 5694SOL    HW228719   1.658   1.984   2.445 -0.0824  0.1058  0.0508
 5695SOL     OW28720   0.820   1.996   8.324 -0.0297  0.3703 -0.1460
 5695SOL    HW128721   0.783   1.908   8.334  2.6219 -0.6287  0.7329
 5695SOL    HW228722   0.738   2.044   8.312  0.8391  1.2639 -2.4872
 5696SOL     OW28723   0.431   4.281   2.926  0.1710 -0.1064 -0.7327
 5696SOL    HW128724   0.457   4.346   2.991 -2.4872 -0.5165  0.7416
 5696SOL    HW228725   0.514   4.260   2.884  0.7369  1.2437 -0.3042
 5697SOL     OW28726   2.407   0.073   0.240  0.0122  0.9224 -0.0158
 5697SOL    HW128727   2.428   0.038   0.154 -1.6532  1.3637 -0.6079
 5697SOL    HW228728   2.463   0.151   0.243  0.6933  0.4354 -0.3358
 5698SOL     OW28729   1.023   1.260   6.467 -0.1904  0.2443  0.2217
 5698SOL    HW128730   1.030   1.355   6.455  0.8214  0.0586 -0.5554
 5698SOL    HW228731   1.104   1.233   6.510 -0.1902 -0.7595 -0.4224
 5699SOL     OW28732   0.665   1.103   8.865 -0.2740  0.0602  0.7215
 5699SOL    HW128733   0.581   1.061   8.846 -1.5093  1.8746  2.2494
 5699SOL    HW228734   0.705   1.091   8.779  1.6552  0.5754  1.5442
 5700SOL     OW28735   3.574   3.873   5.967  0.6865  0.5514 -0.3891
 5700SOL    HW128736   3.593   3.865   6.061  1.1357 -0.2803 -0.5470
 5700SOL    HW228737   3.642   3.821   5.924 -0.6073  1.0471 -3.0371
 5701SOL     OW28738   2.802   0.273   6.476 -0.4764 -0.1660 -0.3329
 5701SOL    HW128739   2.863   0.286   6.549 -0.4682 -1.5921 -0.0938
 5701SOL    HW228740   2.831   0.188   6.443 -0.6084 -0.1011 -0.6136
 5702SOL     OW28741   3.614   2.647   4.172 -0.0877 -0.7313  0.3509
 5702SOL    HW128742   3.590   2.579   4.235  0.5899 -1.6367 -0.3706
 5702SOL    HW228743   3.630   2.593   4.094  0.4263 -0.7217  0.4495
 5703SOL     OW28744   3.194   2.317  12.408 -0.3397  0.3739  0.4938
 5703SOL    HW128745   3.161   2.259  12.477 -0.1743 -1.1143 -0.6673
 5703SOL    HW228746   3.279   2.346  12.442  0.9543 -2.0958 -0.5742
 5704SOL     OW28747   0.644   1.153  10.422  0.5011  0.1755  0.2485
 5704SOL    HW128748   0.680   1.169  10.335 -1.1702  0.7101 -0.3582
 5704SOL    HW228749   0.604   1.067  10.408 -3.0542  2.0384 -0.9095
 5705SOL     OW28750   0.839   0.504   4.813 -0.4042 -0.3571  0.1589
 5705SOL    HW128751   0.809   0.594   4.809  2.8100  0.7204  0.1050
 5705SOL    HW228752   0.926   0.515   4.852 -1.1771  1.2837  1.3742
 5706SOL     OW28753   3.442   0.983   7.404  0.2069  0.2428 -0.1054
 5706SOL    HW128754   3.374   0.921   7.430  0.4460  0.2384  0.5093
 5706SOL    HW228755   3.412   1.057   7.456 -2.1734  0.7306 -2.1884
 5707SOL     OW28756   4.289   4.415  15.663  0.1942  0.1309  0.0609
 5707SOL    HW128757   4.274   4.431  15.569 -1.0674  1.8538  0.5564
 5707SOL    HW228758   4.240   4.334  15.675  1.0749 -0.5457 -0.8488
 5708SOL     OW28759   2.805   1.828   6.004 -0.0602  0.1945 -0.0570
 5708SOL    HW128760   2.851   1.891   6.060 -0.5177  0.7583 -0.3240
 5708SOL    HW228761   2.860   1.750   6.010  1.2109  1.0451 -0.4846
 5709SOL     OW28762   4.357   2.937   1.588 -0.3384  0.1386  0.0134
 5709SOL    HW128763   4.383   3.028   1.602  1.1606  0.1440 -2.6633
 5709SOL    HW228764   4.365   2.936   1.493  0.6662  0.7627  0.0922
 5710SOL     OW28765   0.284   0.366   6.148 -0.5273  0.0465  0.2164
 5710SOL    HW128766   0.358   0.314   6.180 -1.0315 -1.5206 -1.1640
 5710SOL    HW228767   0.262   0.319   6.068  0.8024 -0.4211  0.1192
 5711SOL     OW28768   2.192   1.518   2.275 -0.2878  0.3653  0.3997
 5711SOL    HW128769   2.106   1.476   2.279 -1.1455  1.9769 -1.2982
 5711SOL    HW228770   2.186   1.581   2.346  2.1060  1.1629 -0.0926
 5712SOL     OW28771   3.338   0.341   8.852  0.0379  0.6520 -0.2196
 5712SOL    HW128772   3.299   0.261   8.888 -2.8363  1.9039 -0.5066
 5712SOL    HW228773   3.413   0.303   8.808  0.1560  1.2040 -0.4918
 5713SOL     OW28774   1.583   1.838  13.926  0.6132 -0.7294  0.2150
 5713SOL    HW128775   1.637   1.826  14.004  0.8623  0.2332  0.1909
 5713SOL    HW228776   1.531   1.757  13.924  0.9258 -0.9454  0.7506
 5714SOL     OW28777   1.200   3.854   2.363 -0.2213 -0.2390  0.3608
 5714SOL    HW128778   1.284   3.868   2.408  0.3967 -0.7410 -0.6461
 5714SOL    HW228779   1.225   3.801   2.288  0.8286 -0.3775  0.7934
 5715SOL     OW28780   3.808   0.663   5.274  0.1627 -0.4881  0.1517
 5715SOL    HW128781   3.872   0.627   5.212  1.4442  0.7722  0.7241
 5715SOL    HW228782   3.825   0.757   5.263 -0.7093 -0.5945 -1.9929
 5716SOL     OW28783   2.434   2.708   7.457  0.0854 -0.5516 -0.4944
 5716SOL    HW128784   2.442   2.682   7.549  1.6953 -0.4932 -0.6196
 5716SOL    HW228785   2.431   2.619   7.423  2.1734 -1.6420  2.0945
 5717SOL     OW28786   3.860   2.287   1.801 -0.0199  1.0357  0.3125
 5717SOL    HW128787   3.907   2.370   1.810  0.8340  0.6588 -0.6892
 5717SOL    HW228788   3.769   2.310   1.823 -0.2086  0.7848 -0.1953
 5718SOL     OW28789   4.258   3.412   5.402 -0.1210 -0.9105  0.2704
 5718SOL    HW128790   4.188   3.463   5.362 -1.2874 -2.1394  0.7386
 5718SOL    HW228791   4.276   3.465   5.480 -1.0198  3.0818 -2.2593
 5719SOL     OW28792   2.310   2.493   2.493 -0.1094 -0.0599 -0.2419
 5719SOL    HW128793   2.243   2.561   2.491 -1.0431 -1.0250 -1.4894
 5719SOL    HW228794   2.392   2.537   2.517 -0.1636  0.5684 -1.1965
 5720SOL     OW28795   4.464   3.162   4.581 -0.1344 -0.1847  0.5879
 5720SOL    HW128796   4.500   3.245   4.550 -0.1883 -0.0205  0.9709
 5720SOL    HW228797   4.461   3.111   4.500 -0.7488  0.5043  0.1767
 5721SOL     OW28798   2.550   0.238   8.858  0.0149  0.0025 -0.0330
 5721SOL    HW128799   2.575   0.146   8.853  0.6512  0.1620  0.2139
 5721SOL    HW228800   2.482   0.233   8.791 -2.4013  0.3660  2.3990
 5722SOL     OW28801   0.305   0.613   3.189 -0.5544  0.0478  0.5229
 5722SOL    HW128802   0.373   0.563   3.234  0.4582  0.4776 -0.5573
 5722SOL    HW228803   0.331   0.699   3.221 -3.4232  0.8021  0.8583
 5723SOL     OW28804   2.348   4.424   4.458 -0.1354 -0.1812 -0.4335
 5723SOL    HW128805   2.415   4.396   4.395  1.0966 -0.1592  0.8535
 5723SOL    HW228806   2.323   4.338   4.492 -2.1029  0.6486  0.2004
 5724SOL     OW28807   1.642   3.277  12.706 -0.1468  0.3762  0.0266
 5724SOL    HW128808   1.634   3.302  12.798 -0.4512  1.0973 -0.1934
 5724SOL    HW228809   1.730   3.242  12.721 -0.4320 -1.1453 -1.9566
 5725SOL     OW28810   3.842   1.087   8.506  0.0517 -0.3527  0.1518
 5725SOL    HW128811   3.855   0.997   8.477  0.2634 -0.4268  0.4756
 5725SOL    HW228812   3.926   1.132   8.515 -0.1444  0.0370  0.0295
 5726SOL     OW28813   1.986   0.546  15.738  0.0687  0.4956 -0.1930
 5726SOL    HW128814   2.076   0.520  15.752  0.7462  2.5786 -0.6547
 5726SOL    HW228815   1.955   0.491  15.666 -0.7494  1.8997 -0.9263
 5727SOL     OW28816   1.265   0.007   9.429  1.0934 -0.1688  0.1428
 5727SOL    HW128817   1.176   4.713   9.450  1.0252 -1.2319 -1.6004
 5727SOL    HW228818   1.256   0.092   9.471 -0.7887 -0.4321  0.2898
 5728SOL     OW28819   2.067   2.503   6.531  0.1249  0.1760  0.2113
 5728SOL    HW128820   1.973   2.500   6.516  0.4712  0.6106 -2.0368
 5728SOL    HW228821   2.108   2.498   6.444  0.2515  0.7804  0.2356
 5729SOL     OW28822   0.563   1.060   6.618  0.0241 -0.2686  0.6526
 5729SOL    HW128823   0.633   1.096   6.672  1.2323 -1.8220  0.1234
 5729SOL    HW228824   0.527   1.143   6.587 -0.6261 -0.4387  0.9459
 5730SOL     OW28825   0.052   1.574   4.497  0.4440 -0.0724  0.0487
 5730SOL    HW128826   0.003   1.626   4.561 -1.3809 -0.5226 -0.9609
 5730SOL    HW228827   0.129   1.628   4.485 -0.9147  2.2318  1.7298
 5731SOL     OW28828   1.491   2.901   4.975 -0.3583  0.3071  0.2542
 5731SOL    HW128829   1.449   2.820   4.946 -0.4609  0.8383 -1.0370
 5731SOL    HW228830   1.501   2.951   4.895 -0.1366  1.2356  0.8593
 5732SOL     OW28831   0.320   4.110   3.086 -0.1111  0.1174  0.1870
 5732SOL    HW128832   0.306   4.167   3.010  1.1808  0.9083  0.5412
 5732SOL    HW228833   0.414   4.104   3.075  0.3760  3.2854  2.4081
 5733SOL     OW28834   0.987   2.458   8.095  0.5317 -0.1815 -0.3897
 5733SOL    HW128835   0.961   2.366   8.087 -0.7822  0.1289  0.3583
 5733SOL    HW228836   0.986   2.484   8.003 -0.6072  1.3495  0.0638
 5734SOL     OW28837   2.907   2.585  13.485 -0.0049  0.2244  0.0392
 5734SOL    HW128838   2.878   2.556  13.399 -0.1760 -1.8001  0.7616
 5734SOL    HW228839   2.997   2.554  13.484  0.5468  1.7639  2.5898
 5735SOL     OW28840   3.534   3.784   7.625  0.2091 -0.9789  0.9196
 5735SOL    HW128841   3.485   3.741   7.696 -1.5626  1.6694  1.3072
 5735SOL    HW228842   3.553   3.706   7.573 -0.6994  1.2228 -2.7427
 5736SOL     OW28843   3.597   4.644  10.594 -0.2438 -0.2449  0.5470
 5736SOL    HW128844   3.516   4.694  10.608  0.2172  1.1812 -1.9186
 5736SOL    HW228845   3.618   4.609  10.681 -0.5464  0.0605  0.7492
 5737SOL     OW28846   3.893   4.400   4.189  0.7553 -0.9552  0.6310
 5737SOL    HW128847   3.874   4.450   4.269  0.1138  1.6234 -1.1135
 5737SOL    HW228848   3.948   4.469   4.152 -0.2734  0.3249  1.4850
 5738SOL     OW28849   4.018   3.755   3.473  0.1432 -0.5139  0.2612
 5738SOL    HW128850   4.064   3.717   3.399 -0.3566  0.2781 -0.4588
 5738SOL    HW228851   3.929   3.723   3.455 -0.9113  1.4127  1.9682
 5739SOL     OW28852   4.147   0.542  15.249  0.4411 -0.2920 -0.3881
 5739SOL    HW128853   4.182   0.616  15.298 -1.0501 -0.3818  0.8254
 5739SOL    HW228854   4.119   0.482  15.319  0.4365  1.0836  0.7746
 5740SOL     OW28855   4.219   4.373   1.911  0.1053  0.0566  0.7071
 5740SOL    HW128856   4.145   4.376   1.972 -0.0903 -0.6842  0.5001
 5740SOL    HW228857   4.232   4.464   1.886 -1.5425  0.2950  0.6872
 5741SOL     OW28858   1.008   3.952   0.796  0.1437 -0.7347 -0.6311
 5741SOL    HW128859   0.985   3.882   0.734  0.9066  1.2345 -3.1654
 5741SOL    HW228860   1.038   4.019   0.734 -2.0164  0.1294 -0.7571
 5742SOL     OW28861   0.519   1.025   2.858 -0.3045  0.1448 -0.1768
 5742SOL    HW128862   0.595   0.992   2.906 -0.6136 -2.6939 -1.6328
 5742SOL    HW228863   0.448   0.971   2.892 -0.2334 -0.3368 -0.7825
 5743SOL     OW28864   2.861   3.449  14.580  0.8559  0.8454 -0.2145
 5743SOL    HW128865   2.807   3.459  14.659  1.1345  0.8103 -0.0201
 5743SOL    HW228866   2.857   3.353  14.575  1.5655  0.6357  3.2603
 5744SOL     OW28867   0.492   0.559   4.906  0.1821 -0.3594 -0.3097
 5744SOL    HW128868   0.551   0.554   4.981 -0.7515  1.0590  0.5196
 5744SOL    HW228869   0.549   0.559   4.829 -0.7206 -1.1367 -0.9778
 5745SOL     OW28870   0.851   3.148   8.813 -0.0469 -0.8320  0.1305
 5745SOL    HW128871   0.796   3.103   8.748 -0.4329 -1.4025  0.8598
 5745SOL    HW228872   0.899   3.077   8.856  1.5007  0.6664  0.8527
 5746SOL     OW28873   0.959   1.519   7.378 -0.1715  0.7005  0.2805
 5746SOL    HW128874   0.936   1.601   7.422  0.2243  1.1626 -0.3785
 5746SOL    HW228875   0.882   1.463   7.377 -0.0811  0.5779  0.1970
 5747SOL     OW28876   0.730   4.029   7.283  0.7686 -0.6563 -0.2091
 5747SOL    HW128877   0.735   3.955   7.343 -0.4340 -1.5098 -1.1839
 5747SOL    HW228878   0.635   4.037   7.276  0.9641  1.8580 -0.2267
 5748SOL     OW28879   2.343   2.855   4.163  0.1327 -0.0058  0.0629
 5748SOL    HW128880   2.405   2.782   4.171  0.0235 -0.2651 -1.4391
 5748SOL    HW228881   2.282   2.840   4.235  0.0436 -1.4021 -0.2898
 5749SOL     OW28882   3.327   4.312  12.641  0.2302 -0.3184  0.6081
 5749SOL    HW128883   3.276   4.382  12.600  1.5802  0.1124 -0.3108
 5749SOL    HW228884   3.283   4.317  12.726 -0.2962 -0.5961  0.3573
 5750SOL     OW28885   3.676   1.910  13.760  0.1928 -0.0127  0.3340
 5750SOL    HW128886   3.680   1.992  13.710 -0.9456  0.4696  1.0399
 5750SOL    HW228887   3.630   1.854  13.697  1.5910 -0.5762 -0.1744
 5751SOL     OW28888   4.396   2.891   0.196 -0.5531  0.1679 -0.0596
 5751SOL    HW128889   4.384   2.937   0.114 -2.3981  1.6366  1.0429
 5751SOL    HW228890   4.449   2.815   0.173 -0.3817  0.0707  0.6359
 5752SOL     OW28891   0.052   1.759  13.187 -0.3082  0.0773  0.2524
 5752SOL    HW128892   0.008   1.702  13.250 -0.7609  0.7922  0.5809
 5752SOL    HW228893   0.140   1.751  13.224 -1.3276 -1.8207  2.2722
 5753SOL     OW28894   2.022   0.733   3.455  0.3803 -0.2437  0.2462
 5753SOL    HW128895   2.093   0.719   3.393 -0.3678 -0.3465 -0.5812
 5753SOL    HW228896   1.946   0.684   3.422  0.7123  0.0101 -0.8563
 5754SOL     OW28897   1.261   0.610   4.136  0.5212  0.4555 -0.5344
 5754SOL    HW128898   1.226   0.523   4.157 -0.6395  0.9779 -0.3459
 5754SOL    HW228899   1.200   0.659   4.190 -1.0604 -2.4680  0.3404
 5755SOL     OW28900   1.943   3.899   1.609  0.3893 -0.1001 -0.0325
 5755SOL    HW128901   2.023   3.846   1.611  0.6398  0.2025 -1.8191
 5755SOL    HW228902   1.936   3.913   1.515  0.8208  0.0653 -0.0410
 5756SOL     OW28903   1.717   3.665   9.534  0.0841 -0.1128 -0.2598
 5756SOL    HW128904   1.745   3.726   9.466  0.5611  1.6043  1.4851
 5756SOL    HW228905   1.669   3.603   9.479  2.5353  0.7500 -3.2947
 5757SOL     OW28906   1.854   3.625   7.266 -0.0757 -0.2392 -0.2595
 5757SOL    HW128907   1.856   3.554   7.202  0.8505  0.2631 -0.7794
 5757SOL    HW228908   1.946   3.650   7.264 -0.7964  2.7196  2.9213
 5758SOL     OW28909   4.493   2.296   6.445 -0.1143 -0.0645  0.1641
 5758SOL    HW128910   4.429   2.342   6.499  0.4253 -1.6497  2.1934
 5758SOL    HW228911   4.574   2.333   6.479  0.8847 -1.5522 -0.5891
 5759SOL     OW28912   1.550   0.446  17.529 -0.0639  0.2442  0.5527
 5759SOL    HW128913   1.558   0.535  17.496  0.8619 -0.6095 -1.5408
 5759SOL    HW228914   1.459   0.452  17.559 -0.5554 -0.0132 -0.8646
 5760SOL     OW28915   1.179   2.093   7.263 -0.3067  0.1257 -0.5046
 5760SOL    HW128916   1.226   2.010   7.253 -1.4713 -0.3740 -1.8799
 5760SOL    HW228917   1.235   2.144   7.321 -0.4563  0.9736 -1.1089
 5761SOL     OW28918   1.001   1.847   5.396 -0.6374 -0.1627 -0.4201
 5761SOL    HW128919   1.046   1.912   5.341  1.7541  0.6643  2.5036
 5761SOL    HW228920   1.074   1.818   5.450 -1.4016  0.8767  1.1515
 5762SOL     OW28921   2.614   4.073  15.085  0.2141  0.2942 -0.7680
 5762SOL    HW128922   2.664   4.056  15.005  2.1096 -3.1929  1.1606
 5762SOL    HW228923   2.675   4.030  15.145 -2.9819 -1.8936  0.9352
 5763SOL     OW28924   3.842   1.727  17.133 -0.3638 -0.9337  0.4213
 5763SOL    HW128925   3.817   1.771  17.053  0.6861  2.0870  1.7736
 5763SOL    HW228926   3.937   1.728  17.124 -0.6268  0.3855 -1.8697
 5764SOL     OW28927   3.444   1.731  10.406 -0.0890  0.5616  0.0273
 5764SOL    HW128928   3.465   1.787  10.331 -1.2712 -0.0206 -0.7360
 5764SOL    HW228929   3.395   1.786  10.468  0.8834  1.1020  0.3195
 5765SOL     OW28930   0.794   2.912   3.038 -0.3899  0.1168  0.4729
 5765SOL    HW128931   0.852   2.867   2.977  0.0067  1.3478 -0.0482
 5765SOL    HW228932   0.794   3.000   3.000  0.7427  0.7141  1.8807
 5766SOL     OW28933   1.168   2.856   5.168  0.0031 -0.2442  0.5551
 5766SOL    HW128934   1.210   2.908   5.099  1.2341 -0.1604  1.3647
 5766SOL    HW228935   1.101   2.806   5.123 -2.5555  3.7934 -0.1939
 5767SOL     OW28936   1.091   2.827   9.213 -0.6571 -0.5788  0.4141
 5767SOL    HW128937   1.003   2.837   9.249 -1.2832  0.5817 -1.4249
 5767SOL    HW228938   1.087   2.738   9.178 -1.0470 -0.8961  1.2870
 5768SOL     OW28939   0.394   2.355   3.130  0.0408  0.0110 -0.6664
 5768SOL    HW128940   0.385   2.419   3.201  2.6012 -2.1853  1.6313
 5768SOL    HW228941   0.408   2.276   3.182 -0.3340  0.1679 -0.3273
 5769SOL     OW28942   0.768   2.696   9.206  0.2031  0.1889  0.3193
 5769SOL    HW128943   0.740   2.630   9.143 -0.5512  0.7285  0.0893
 5769SOL    HW228944   0.810   2.637   9.268 -2.1543 -0.2726  1.4656
 5770SOL     OW28945   1.024   1.288   0.739 -0.3936 -0.1874 -0.4164
 5770SOL    HW128946   0.955   1.301   0.805  0.0066  0.6551 -0.1722
 5770SOL    HW228947   1.074   1.222   0.786  1.3569  1.3230 -0.1542
 5771SOL     OW28948   1.466   4.321   5.849 -0.1916  0.3879  0.0616
 5771SOL    HW128949   1.477   4.413   5.875  1.2299  0.3669 -0.4571
 5771SOL    HW228950   1.551   4.315   5.805  0.5842  1.6583  1.3625
 5772SOL     OW28951   2.136   2.439   2.714  0.0057  0.6383  0.0121
 5772SOL    HW128952   2.074   2.385   2.665 -0.9598  2.5671 -0.8751
 5772SOL    HW228953   2.201   2.452   2.645 -0.4922  0.3111 -0.5176
 5773SOL     OW28954   1.365   3.606  11.294 -0.3109  0.1055 -0.1460
 5773SOL    HW128955   1.297   3.573  11.235 -0.4444 -3.0881  1.8076
 5773SOL    HW228956   1.310   3.655  11.354  1.1135  0.8031  0.5985
 5774SOL     OW28957   4.309   1.331   3.636  0.1793 -0.0010 -0.4512
 5774SOL    HW128958   4.331   1.248   3.679 -1.1929 -0.6753 -1.0567
 5774SOL    HW228959   4.332   1.399   3.699  1.4406 -1.7014  0.9342
 5775SOL     OW28960   1.618   2.992   6.385  0.5500  0.3119 -0.7524
 5775SOL    HW128961   1.551   3.036   6.333 -0.5189  0.8044  1.0447
 5775SOL    HW228962   1.586   2.995   6.475 -0.5438  0.8995 -1.1500
 5776SOL     OW28963   0.400   0.504   7.496  0.1659 -0.0358 -0.9714
 5776SOL    HW128964   0.457   0.429   7.515  1.9424  1.0893 -1.7752
 5776SOL    HW228965   0.438   0.531   7.412  0.2305  0.3514 -0.8215
 5777SOL     OW28966   3.907   3.261   6.595 -0.0559 -0.3390  0.5142
 5777SOL    HW128967   3.982   3.234   6.648  0.5581  0.1493 -0.1026
 5777SOL    HW228968   3.876   3.180   6.554 -2.3803  1.0749 -0.5432
 5778SOL     OW28969   1.208   0.485   2.458  0.6541  0.1504  0.2197
 5778SOL    HW128970   1.257   0.403   2.458  0.1718 -0.1329 -0.2974
 5778SOL    HW228971   1.272   0.555   2.473  0.6597 -0.1736  1.7438
 5779SOL     OW28972   4.443   3.115   2.694  0.0892  0.0283  0.0879
 5779SOL    HW128973   4.499   3.095   2.619  2.3042  0.5765  1.6119
 5779SOL    HW228974   4.418   3.207   2.679 -1.3858 -0.3378  0.2532
 5780SOL     OW28975   1.999   1.629   8.013  0.1845  0.2864  0.4078
 5780SOL    HW128976   2.083   1.674   8.000 -0.3294  1.3621  0.8326
 5780SOL    HW228977   1.987   1.590   7.926  1.4867  1.9943 -0.5449
 5781SOL     OW28978   1.514   4.470   2.735  0.0448 -0.1389 -0.1499
 5781SOL    HW128979   1.576   4.473   2.808  0.5787  0.7869 -0.6458
 5781SOL    HW228980   1.439   4.429   2.779  0.6547 -1.3409 -0.2291
 5782SOL     OW28981   1.942   1.218  10.744 -0.9164  0.1391  0.3438
 5782SOL    HW128982   2.035   1.239  10.752 -0.3635 -2.0727 -0.3671
 5782SOL    HW228983   1.935   1.163  10.822  1.2475  0.6824  0.9286
 5783SOL     OW28984   0.026   1.595  11.746  0.2010 -0.1263  0.0609
 5783SOL    HW128985   0.110   1.628  11.778  0.3823  0.2692 -0.8259
 5783SOL    HW228986   4.697   1.665  11.738 -1.6802 -1.6155  2.2386
 5784SOL     OW28987   1.163   0.148   5.165  1.0590 -0.1468 -0.3997
 5784SOL    HW128988   1.223   0.153   5.091 -0.7929  1.2657 -1.7923
 5784SOL    HW228989   1.223   0.149   5.239  0.2879 -1.6588  0.2573
 5785SOL     OW28990   2.277   4.250  13.053  0.1798 -0.5641 -0.8064
 5785SOL    HW128991   2.209   4.185  13.033 -0.0213 -0.8397  0.7584
 5785SOL    HW228992   2.349   4.220  12.997  2.1965  0.6480  1.1275
 5786SOL     OW28993   1.447   1.128  10.676 -0.9514 -0.2959  0.1828
 5786SOL    HW128994   1.520   1.173  10.719  1.3094 -4.1078  0.3020
 5786SOL    HW228995   1.412   1.070  10.743 -1.0152 -1.1520 -0.5837
 5787SOL     OW28996   2.471   4.721   5.281  0.1555  0.4960  0.0698
 5787SOL    HW128997   2.458   0.028   5.196 -2.2850 -1.7033 -0.6538
 5787SOL    HW228998   2.533   0.047   5.319 -0.7580  2.2883 -1.3654
 5788SOL     OW28999   3.086   3.872   5.820 -0.8269 -0.4989  0.6578
 5788SOL    HW129000   3.094   3.878   5.725  0.2983  0.9812  0.8525
 5788SOL    HW229001   3.167   3.826   5.842  0.4920  0.4242 -2.3317
 5789SOL     OW29002   3.235   2.423   7.014  0.3014 -0.0893 -0.2468
 5789SOL    HW129003   3.257   2.348   7.069 -2.5599  0.9550  2.3093
 5789SOL    HW229004   3.222   2.371   6.935  0.9251 -1.9929  0.9208
 5790SOL     OW29005   2.473   3.990   7.757  0.2843 -0.4581 -0.3148
 5790SOL    HW129006   2.448   3.999   7.665 -1.4519 -0.0743  0.1930
 5790SOL    HW229007   2.450   3.898   7.766  2.6607 -0.9372  1.0427
 5791SOL     OW29008   3.954   3.726  16.487 -0.9983 -0.2945 -0.0065
 5791SOL    HW129009   3.913   3.693  16.567  0.6289  0.7482  1.2467
 5791SOL    HW229010   4.017   3.770  16.544  0.4769 -1.2943 -0.8692
 5792SOL     OW29011   2.737   0.813   1.777  0.3508 -0.2508  0.2140
 5792SOL    HW129012   2.797   0.851   1.841 -1.3044  0.8545  1.0870
 5792SOL    HW229013   2.655   0.849   1.808  0.0365 -1.4589  0.7960
 5793SOL     OW29014   3.378   3.856   5.298  0.2686 -0.7572  0.3565
 5793SOL    HW129015   3.362   3.857   5.392 -0.0820 -0.5061  0.2925
 5793SOL    HW229016   3.343   3.768   5.288  0.0380 -0.2978 -2.9806
 5794SOL     OW29017   4.453   0.656   9.103  0.6187  0.1513 -0.7884
 5794SOL    HW129018   4.442   0.698   9.018  2.7685 -1.9081 -2.0799
 5794SOL    HW229019   4.546   0.670   9.121  0.7222  0.2472 -1.4108
 5795SOL     OW29020   0.235   1.669   0.257 -0.5613 -0.9352  0.2816
 5795SOL    HW129021   0.159   1.613   0.275 -1.0078 -1.4685 -3.3186
 5795SOL    HW229022   0.195   1.754   0.238  2.5119  0.6860  1.1133
 5796SOL     OW29023   1.840   3.035   5.066  0.1469  0.3080  0.5074
 5796SOL    HW129024   1.796   2.991   5.138  0.5609 -1.3058 -0.2104
 5796SOL    HW229025   1.835   2.970   4.996 -0.9068  0.2972  0.5992
 5797SOL     OW29026   4.684   1.354   3.908 -0.6615  0.1413 -0.1031
 5797SOL    HW129027   4.668   1.341   4.001  3.1789 -0.8958  0.4152
 5797SOL    HW229028   0.040   1.381   3.907 -0.8637  0.8703  1.7472
 5798SOL     OW29029   0.148   0.324   6.864 -0.0996  0.0446 -0.0648
 5798SOL    HW129030   0.187   0.245   6.903 -0.4691 -0.2934 -0.3868
 5798SOL    HW229031   0.133   0.287   6.777  0.4136  1.6694 -0.8245
 5799SOL     OW29032   4.705   3.667   4.273  0.2621  0.7314 -0.5578
 5799SOL    HW129033   4.706   3.728   4.200 -3.0104  2.8866  1.2298
 5799SOL    HW229034   4.640   3.714   4.325  1.2140 -1.2599  2.4703
 5800SOL     OW29035   2.502   3.599  14.884 -0.3189 -0.2954  0.1068
 5800SOL    HW129036   2.523   3.666  14.949 -1.0445 -2.7072  2.8087
 5800SOL    HW229037   2.418   3.635  14.856  1.2970  2.5628 -1.0203
 5801SOL     OW29038   1.878   2.287   7.454 -0.4332 -0.3849 -0.8046
 5801SOL    HW129039   1.868   2.356   7.388 -1.1129  1.6709  1.4344
 5801SOL    HW229040   1.973   2.278   7.459 -0.5102 -0.5661  0.3404
 5802SOL     OW29041   4.337   1.985  13.176 -0.2659 -0.1565  0.3647
 5802SOL    HW129042   4.378   1.918  13.232 -0.8343 -0.2297  0.6946
 5802SOL    HW229043   4.279   1.930  13.123 -0.2016 -0.6403  0.7868
 5803SOL     OW29044   3.605   0.430   4.880  0.4225 -0.0594  0.2835
 5803SOL    HW129045   3.515   0.458   4.869 -0.0794 -0.5024  3.2502
 5803SOL    HW229046   3.612   0.431   4.975  1.0843  1.8160  0.2157
 5804SOL     OW29047   0.608   1.885   6.588  0.1454  0.2995 -0.4402
 5804SOL    HW129048   0.648   1.918   6.668  2.0997 -1.2672 -0.7722
 5804SOL    HW229049   0.653   1.802   6.578  0.3159  0.5127 -1.4664
 5805SOL     OW29050   4.024   2.266   7.123  0.2329  0.3848 -0.3706
 5805SOL    HW129051   3.939   2.235   7.090 -0.7639  1.1281  1.5110
 5805SOL    HW229052   4.039   2.339   7.062 -1.4050  1.2573  0.2710
 5806SOL     OW29053   4.076   3.138   4.766  0.0689 -0.1794  0.5375
 5806SOL    HW129054   4.092   3.057   4.716  0.5458  0.2009  0.0689
 5806SOL    HW229055   3.981   3.146   4.762  0.1535 -0.5630 -2.1873
 5807SOL     OW29056   4.521   3.241  17.544 -0.1116  0.0769 -0.0786
 5807SOL    HW129057   4.489   3.322  17.584  1.1207  1.2835 -1.5019
 5807SOL    HW229058   4.612   3.269  17.538  0.3799 -1.4331  0.3448
 5808SOL     OW29059   2.936   2.986   0.962 -0.3788  0.1280  0.5733
 5808SOL    HW129060   2.993   3.004   1.037  0.8841 -1.4746  0.0043
 5808SOL    HW229061   2.849   3.012   0.995 -1.0011 -2.4813  1.0186
 5809SOL     OW29062   4.326   1.772  12.181  0.2595 -0.1522 -0.4601
 5809SOL    HW129063   4.402   1.722  12.212 -0.2129  0.5267  1.7461
 5809SOL    HW229064   4.253   1.726  12.222 -0.1196  0.7480 -0.1460
 5810SOL     OW29065   4.378   4.208  11.801  0.0077 -0.1391 -0.2869
 5810SOL    HW129066   4.328   4.264  11.861  0.4328  2.0399 -1.9665
 5810SOL    HW229067   4.311   4.168  11.746 -1.2688  0.5605  0.7677
 5811SOL     OW29068   3.600   3.125   9.537  0.2037 -0.7514 -1.0614
 5811SOL    HW129069   3.531   3.065   9.563 -1.2167  1.0509 -0.6349
 5811SOL    HW229070   3.569   3.204   9.583  1.2194  0.2622 -2.1135
 5812SOL     OW29071   1.491   3.212   8.460 -0.6271 -0.4474 -0.6294
 5812SOL    HW129072   1.511   3.291   8.510 -0.0032 -1.4289  0.6981
 5812SOL    HW229073   1.403   3.203   8.497 -1.0612  0.1209 -1.5585
 5813SOL     OW29074   3.183   1.895   6.776 -0.1318  1.2269  0.5276
 5813SOL    HW129075   3.192   1.804   6.804  0.0083  0.2518 -2.6365
 5813SOL    HW229076   3.171   1.938   6.860 -2.3961  2.7033 -0.5463
 5814SOL     OW29077   0.213   1.336   4.517  0.6911 -0.0429 -0.2077
 5814SOL    HW129078   0.120   1.361   4.520 -0.0300 -2.7388 -0.4597
 5814SOL    HW229079   0.249   1.407   4.570 -2.1136 -0.5339  2.3676
 5815SOL     OW29080   3.192   0.396   2.764  0.4073  0.8006 -0.4640
 5815SOL    HW129081   3.127   0.334   2.730 -0.6500  2.6495 -1.8115
 5815SOL    HW229082   3.270   0.351   2.731  1.4193  0.7426  2.0444
 5816SOL     OW29083   1.137   1.208   2.621 -0.5423  0.8866 -0.0318
 5816SOL    HW129084   1.106   1.233   2.534  1.3508 -0.3793 -1.0689
 5816SOL    HW229085   1.109   1.275   2.683  0.0736  0.8509  0.2842
 5817SOL     OW29086   4.204   4.723  12.478  0.0753  0.1693  0.0632
 5817SOL    HW129087   4.255   4.708  12.557 -1.1483 -0.4967  0.7368
 5817SOL    HW229088   4.268   0.001  12.409 -0.5621 -0.3420 -0.6260
 5818SOL     OW29089   2.502   1.388   7.216  0.3327  0.9631 -0.0423
 5818SOL    HW129090   2.444   1.346   7.152  2.5837  0.2252 -1.6237
 5818SOL    HW229091   2.488   1.481   7.200  0.0199  0.9296  0.0375
 5819SOL     OW29092   1.552   2.095   3.206  0.4504  0.2278  0.5208
 5819SOL    HW129093   1.542   2.012   3.160  0.7937  0.7550 -0.5105
 5819SOL    HW229094   1.629   2.131   3.161  1.0458 -0.4708  0.9756
 5820SOL     OW29095   0.101   2.067   8.038  0.3369  0.5396 -0.0938
 5820SOL    HW129096   0.021   2.017   8.055  0.9969 -1.9264 -4.4670
 5820SOL    HW229097   0.064   2.155   8.046  1.4418  1.1228 -1.5204
 5821SOL     OW29098   4.174   3.114   5.455  0.0102  0.4806 -0.6324
 5821SOL    HW129099   4.222   3.139   5.534 -2.4880  0.3155  0.9263
 5821SOL    HW229100   4.127   3.193   5.428  2.6706  1.7887 -1.4736
 5822SOL     OW29101   3.210   1.741  11.630  0.3981  0.1330 -0.3000
 5822SOL    HW129102   3.215   1.645  11.636 -3.2116 -0.1901 -2.4840
 5822SOL    HW229103   3.126   1.769  11.667 -1.4223 -2.3823 -2.5038
 5823SOL     OW29104   3.699   1.920   6.843  0.2445  0.8162  0.7746
 5823SOL    HW129105   3.746   1.983   6.789  0.9435 -0.1921  0.2042
 5823SOL    HW229106   3.638   1.885   6.777  0.0662 -0.8411  1.8063
 5824SOL     OW29107   1.176   3.943   3.462  0.4535 -0.3432  0.0407
 5824SOL    HW129108   1.247   3.983   3.512  0.6011  0.6925 -0.9724
 5824SOL    HW229109   1.220   3.901   3.388  2.2565  1.4407  0.1025
 5825SOL     OW29110   3.963   1.110   3.866 -0.3661 -0.3294  0.4697
 5825SOL    HW129111   3.989   1.202   3.866 -0.1378 -0.3962 -0.8047
 5825SOL    HW229112   3.904   1.115   3.941 -0.5101 -0.1487  0.3451
 5826SOL     OW29113   2.913   3.516   1.672  0.4733  0.2846 -0.1281
 5826SOL    HW129114   2.971   3.589   1.650 -0.2534  1.2090  1.0911
 5826SOL    HW229115   2.975   3.465   1.725 -0.8563 -1.9836 -0.7438
 5827SOL     OW29116   1.636   3.056  10.841 -0.1626 -0.1237  0.6391
 5827SOL    HW129117   1.648   3.148  10.818  0.2374 -0.4686 -0.5340
 5827SOL    HW229118   1.551   3.050  10.798  0.5381 -3.8087 -0.2894
 5828SOL     OW29119   0.205   2.478   6.931 -0.3014  0.1406  0.0105
 5828SOL    HW129120   0.128   2.441   6.889  0.5068 -0.5544 -0.8675
 5828SOL    HW229121   0.235   2.542   6.867 -0.4532 -0.1892 -0.3933
 5829SOL     OW29122   2.774   1.605  11.068 -0.0535  0.3390  0.1267
 5829SOL    HW129123   2.715   1.550  11.016  0.7301 -0.9548  0.5966
 5829SOL    HW229124   2.791   1.544  11.140 -0.4361  1.6254  1.3106
 5830SOL     OW29125   2.854   1.910   5.321  0.2372 -0.2837 -0.0474
 5830SOL    HW129126   2.832   1.871   5.406 -1.9695  2.5043  0.6545
 5830SOL    HW229127   2.776   1.902   5.267  0.8881 -0.5283 -0.9538
 5831SOL     OW29128   1.879   4.582   7.060 -0.1751 -0.5987 -0.2408
 5831SOL    HW129129   1.938   4.658   7.056  1.5676 -1.8287  2.1061
 5831SOL    HW229130   1.804   4.613   7.110 -0.0292  1.0710 -1.0528
 5832SOL     OW29131   3.927   1.468   2.045  0.3035 -0.0248  0.1556
 5832SOL    HW129132   3.853   1.442   2.100  0.4378 -0.1241  0.2863
 5832SOL    HW229133   3.900   1.560   2.039  0.1111 -0.1973 -1.6163
 5833SOL     OW29134   3.666   2.992  12.537  0.2753 -0.2392 -0.1850
 5833SOL    HW129135   3.700   2.960  12.620  3.4358  1.0531 -1.0140
 5833SOL    HW229136   3.617   2.919  12.499  0.7716  0.2161 -1.7273
 5834SOL     OW29137   0.957   1.711   8.471 -0.7597  0.0902  0.2511
 5834SOL    HW129138   0.954   1.649   8.543  1.6396 -2.3011 -1.7063
 5834SOL    HW229139   1.049   1.704   8.448 -1.1426 -2.9636 -0.4335
 5835SOL     OW29140   1.764   0.064   5.809 -0.4129  0.1216 -0.5330
 5835SOL    HW129141   1.676   0.066   5.845  0.5348  4.2010  1.5683
 5835SOL    HW229142   1.810   0.127   5.865 -0.2390  1.1217 -1.8141
 5836SOL     OW29143   0.888   2.189   3.819 -0.2289  0.0348 -0.1008
 5836SOL    HW129144   0.839   2.116   3.857 -0.5793 -0.0418 -0.6850
 5836SOL    HW229145   0.841   2.264   3.855  2.0156  1.9117 -1.1614
 5837SOL     OW29146   2.381   3.042   5.110 -0.4764  0.1469  0.1951
 5837SOL    HW129147   2.468   3.039   5.070 -0.4747  1.0957  0.1196
 5837SOL    HW229148   2.389   3.008   5.199  1.7685  1.1216  0.3540
 5838SOL     OW29149   4.181   0.444  14.260 -0.0989 -0.4051  0.9201
 5838SOL    HW129150   4.136   0.443  14.345 -0.8569  0.5560  0.5323
 5838SOL    HW229151   4.186   0.351  14.241 -1.5410 -0.3147  0.0519
 5839SOL     OW29152   4.619   0.713   4.990 -0.4535 -0.6088  0.1271
 5839SOL    HW129153   4.650   0.651   5.056  1.1519 -0.6451 -0.6639
 5839SOL    HW229154   4.600   0.782   5.055  0.2913 -0.6342  0.3676
 5840SOL     OW29155   2.243   1.708   4.846  0.2773  0.8333  0.5715
 5840SOL    HW129156   2.299   1.755   4.908  0.2011 -0.1793  1.4164
 5840SOL    HW229157   2.161   1.702   4.896  0.1795  2.2528  0.5806
 5841SOL     OW29158   2.985   0.837   2.247 -0.3623 -0.1807  0.2087
 5841SOL    HW129159   3.024   0.910   2.293  0.9190 -1.2547  0.8299
 5841SOL    HW229160   3.053   0.770   2.252  0.4836  0.6369 -0.4391
 5842SOL     OW29161   2.619   2.991   4.950 -0.1932  0.3070 -0.5053
 5842SOL    HW129162   2.566   2.913   4.932  2.6835 -1.5425 -0.9406
 5842SOL    HW229163   2.700   2.941   4.950 -0.1762  0.3325  0.1205
 5843SOL     OW29164   3.132   1.520   3.668  0.1337  0.6984  0.0079
 5843SOL    HW129165   3.149   1.426   3.660  1.2894  0.9572 -0.6800
 5843SOL    HW229166   3.118   1.553   3.579 -0.1712 -0.7708 -0.4911
 5844SOL     OW29167   2.158   4.290   3.715  0.4631 -0.5339 -0.1336
 5844SOL    HW129168   2.235   4.237   3.695  1.3933  0.0145  2.0346
 5844SOL    HW229169   2.129   4.252   3.798 -0.0886 -2.4834 -1.2235
 5845SOL     OW29170   2.466   2.267   4.082 -0.1056 -0.0395  0.0332
 5845SOL    HW129171   2.482   2.321   4.160 -2.2803 -0.7391  0.9658
 5845SOL    HW229172   2.510   2.185   4.104 -0.3157 -0.5559 -1.5089
 5846SOL     OW29173   2.410   0.947   4.398  0.1199 -0.4912  0.0651
 5846SOL    HW129174   2.483   0.887   4.383 -0.7211 -1.0425 -1.8079
 5846SOL    HW229175   2.443   1.037   4.396 -0.5433 -0.3256 -2.5521
 5847SOL     OW29176   1.839   4.542   9.842 -0.6637 -0.3521 -0.0316
 5847SOL    HW129177   1.919   4.490   9.834 -1.1119 -1.4067  2.4282
 5847SOL    HW229178   1.812   4.569   9.754 -0.1888  2.2634  0.6130
 5848SOL     OW29179   4.555   4.484   4.684  0.1787  0.2379 -0.0342
 5848SOL    HW129180   4.490   4.454   4.621  0.5184 -1.2321  0.3110
 5848SOL    HW229181   4.542   4.416   4.750  1.0919 -0.1434 -0.2483
 5849SOL     OW29182   0.940   0.822   1.801 -0.4304  0.2946 -0.3986
 5849SOL    HW129183   0.994   0.747   1.826  0.4569  1.1445  0.2299
 5849SOL    HW229184   0.963   0.832   1.708 -3.7581 -1.9806 -1.4287
 5850SOL     OW29185   3.079   1.094   8.013 -0.0180 -0.6419 -0.1710
 5850SOL    HW129186   3.018   1.150   8.059  0.9494  0.7320 -0.5485
 5850SOL    HW229187   3.102   1.019   8.068 -3.2458 -1.5899 -0.1203
 5851SOL     OW29188   4.448   3.505   2.394  0.3454  0.2927  0.2505
 5851SOL    HW129189   4.362   3.516   2.354  0.8703  0.2843 -0.8995
 5851SOL    HW229190   4.495   3.539   2.318 -0.1348 -2.3987 -1.2292
 5852SOL     OW29191   2.717   2.488   8.801  0.2607  0.0498  0.1505
 5852SOL    HW129192   2.748   2.552   8.736 -1.4220  0.1473 -0.5474
 5852SOL    HW229193   2.768   2.521   8.876  0.6016 -0.0382 -0.0436
 5853SOL     OW29194   4.185   0.686   2.874 -0.3517 -0.3832 -0.1911
 5853SOL    HW129195   4.275   0.661   2.854  0.2728  1.2593  0.6455
 5853SOL    HW229196   4.177   0.649   2.962  0.4790  1.9280  0.8544
 5854SOL     OW29197   2.617   1.096   9.571 -0.4149  0.6358  0.1782
 5854SOL    HW129198   2.644   1.134   9.655  1.3464  0.0804 -0.1305
 5854SOL    HW229199   2.566   1.168   9.535 -0.8211  0.6133  0.7147
 5855SOL     OW29200   4.070   0.337   3.201  1.0938 -1.0590  0.1095
 5855SOL    HW129201   4.114   0.288   3.131  3.3739  0.7001  0.3361
 5855SOL    HW229202   4.065   0.427   3.169 -2.9138 -1.1052  0.6184
 5856SOL     OW29203   3.222   1.848   2.966  0.0502 -0.3375  0.0004
 5856SOL    HW129204   3.286   1.809   3.025  0.3924  0.6253  0.2718
 5856SOL    HW229205   3.173   1.889   3.037 -0.9779  0.5718 -1.2208
 5857SOL     OW29206   3.718   3.272   1.301  0.2007  0.0799  0.4493
 5857SOL    HW129207   3.643   3.254   1.358  0.5810  0.1504  0.9784
 5857SOL    HW229208   3.785   3.253   1.367  1.4203  0.2040 -0.7521
 5858SOL     OW29209   3.833   3.883   6.278 -0.5226 -0.4861 -0.5294
 5858SOL    HW129210   3.841   3.896   6.184 -0.5388  1.9383 -0.1985
 5858SOL    HW229211   3.850   3.789   6.281  1.1198 -0.1778  0.0609
 5859SOL     OW29212   3.610   3.920   0.062  0.1523  0.0982  0.5999
 5859SOL    HW129213   3.599   4.015   0.057 -0.2920  0.0259  0.2985
 5859SOL    HW229214   3.592   3.889  17.716 -0.7287  2.7880 -0.1515
 5860SOL     OW29215   4.199   1.037  11.798 -0.2681 -0.0491 -0.7127
 5860SOL    HW129216   4.206   1.127  11.829 -0.8729  1.2663 -4.4177
 5860SOL    HW229217   4.110   1.022  11.830 -1.1888  2.3142 -2.2228
 5861SOL     OW29218   0.934   4.702  17.446 -0.1653 -0.0777  0.2171
 5861SOL    HW129219   0.987   4.679  17.370  0.5732  0.9167  0.4327
 5861SOL    HW229220   0.899   4.618  17.476 -0.9089 -0.2162 -1.0267
 5862SOL     OW29221   0.398   2.033  15.421  0.1194 -0.3943  0.2138
 5862SOL    HW129222   0.396   2.061  15.330 -1.6516 -0.1039  0.3387
 5862SOL    HW229223   0.412   1.938  15.420 -0.1750 -0.4364  0.2191
 5863SOL     OW29224   2.674   3.664   1.667 -0.4154  0.1775  0.0467
 5863SOL    HW129225   2.723   3.745   1.683  2.2871 -0.9640 -2.5426
 5863SOL    HW229226   2.748   3.607   1.647 -0.6435 -0.1646  0.1731
 5864SOL     OW29227   4.666   0.426   1.544  0.6090  0.5168 -0.3002
 5864SOL    HW129228   4.646   0.336   1.570 -0.1425  0.9748  0.6731
 5864SOL    HW229229   4.580   0.444   1.506  0.3235 -0.9381 -0.3444
 5865SOL     OW29230   2.385   0.849   5.684 -0.5015 -0.3736 -0.0390
 5865SOL    HW129231   2.345   0.922   5.637  0.5759 -0.4994 -1.1650
 5865SOL    HW229232   2.425   0.882   5.764  3.4926  0.4699 -2.3591
 5866SOL     OW29233   0.548   2.166   6.643 -0.3346  0.9640  0.1762
 5866SOL    HW129234   0.511   2.098   6.586  2.0736  0.7562 -1.1021
 5866SOL    HW229235   0.471   2.187   6.696  1.3602  0.2353  2.9014
 5867SOL     OW29236   1.777   1.612  15.305  0.0679 -0.2402  0.4131
 5867SOL    HW129237   1.790   1.705  15.284  0.8438 -0.3030  0.6233
 5867SOL    HW229238   1.727   1.617  15.386  0.0321  2.9320  0.2052
 5868SOL     OW29239   0.593   3.230   3.286  0.4481 -0.5853  0.8483
 5868SOL    HW129240   0.658   3.161   3.301 -0.1621 -0.7958  2.5790
 5868SOL    HW229241   0.542   3.173   3.229 -0.1188  2.7963 -1.9924
 5869SOL     OW29242   4.607   1.630   8.451 -0.4593 -0.4443 -0.2204
 5869SOL    HW129243   4.516   1.653   8.471 -1.2784 -1.1105 -3.2739
 5869SOL    HW229244   4.597   1.535   8.440 -1.1005 -0.2744 -1.0795
 5870SOL     OW29245   3.875   4.153  11.507  0.0146  0.6587  0.4590
 5870SOL    HW129246   3.783   4.150  11.532  0.0640 -0.6480  0.4574
 5870SOL    HW229247   3.878   4.092  11.434 -1.8526 -0.1145  1.0529
 5871SOL     OW29248   4.501   4.531   6.670 -0.1618  0.6116 -0.5924
 5871SOL    HW129249   4.457   4.466   6.614 -1.5852  1.3331 -0.2955
 5871SOL    HW229250   4.440   4.541   6.742  1.3714 -1.0144  0.9612
 5872SOL     OW29251   0.199   2.328   6.174 -0.3096  0.1945  0.4729
 5872SOL    HW129252   0.168   2.265   6.109 -1.1151  1.1491 -0.0580
 5872SOL    HW229253   0.205   2.407   6.120  1.8226  0.3146  0.8619
 5873SOL     OW29254   2.767   3.296   5.963  0.3598  0.0042  0.2045
 5873SOL    HW129255   2.862   3.301   5.966  0.2692  0.2919  2.2559
 5873SOL    HW229256   2.739   3.369   5.908  0.6233 -0.0844 -0.0491
 5874SOL     OW29257   3.403   2.704   3.917  0.0838  0.3922  0.1913
 5874SOL    HW129258   3.458   2.769   3.961  1.3653 -0.8808  0.4376
 5874SOL    HW229259   3.410   2.736   3.827  4.1363 -0.0401  0.3856
 5875SOL     OW29260   4.100   0.564   2.403  0.1794  0.2330  0.2373
 5875SOL    HW129261   4.182   0.601   2.438  1.1834 -0.3516 -1.4813
 5875SOL    HW229262   4.038   0.600   2.467 -0.5030  0.6246 -0.6429
 5876SOL     OW29263   4.688   2.214   4.979  0.4993 -0.7219  0.6533
 5876SOL    HW129264   0.043   2.237   4.958  0.8814 -1.0611  1.8975
 5876SOL    HW229265   4.698   2.121   5.001  0.0165 -0.8150  0.4637
 5877SOL     OW29266   0.192   2.226   4.005  0.5853  0.2025  0.3274
 5877SOL    HW129267   0.148   2.149   3.969 -0.4788  0.5382  0.9462
 5877SOL    HW229268   0.253   2.190   4.070 -0.5264 -1.2865  0.5260
 5878SOL     OW29269   2.698   2.298   2.300  0.4153 -0.3733  0.2078
 5878SOL    HW129270   2.609   2.330   2.316  0.1797 -0.2286 -1.3884
 5878SOL    HW229271   2.746   2.329   2.377 -1.5739 -0.8132  1.6150
 5879SOL     OW29272   2.545   2.264   5.884 -0.0349  0.2435 -0.3343
 5879SOL    HW129273   2.463   2.310   5.869  0.4372 -0.4958 -4.9809
 5879SOL    HW229274   2.512   2.192   5.938  1.3576 -0.1171  0.0387
 5880SOL     OW29275   0.762   2.299   4.516  0.3923 -0.4661 -0.3481
 5880SOL    HW129276   0.848   2.338   4.504 -0.4080  0.5864 -2.6150
 5880SOL    HW229277   0.769   2.232   4.584  0.2069 -1.0079 -0.8584
 5881SOL     OW29278   2.055   0.878   7.844 -0.0868  0.9487  0.2327
 5881SOL    HW129279   2.072   0.862   7.937  0.9818 -0.5853 -0.2342
 5881SOL    HW229280   2.092   0.800   7.804  0.0770  0.2515  1.7338
 5882SOL     OW29281   4.098   3.826  14.690 -0.1484  0.0515 -0.1719
 5882SOL    HW129282   4.050   3.777  14.623 -2.7396  0.1310  1.6402
 5882SOL    HW229283   4.175   3.862  14.647 -0.7322  2.0509  0.4785
 5883SOL     OW29284   3.592   3.523   9.942  0.5988 -0.0188  0.1490
 5883SOL    HW129285   3.569   3.614   9.959  2.3503  0.3928  0.3428
 5883SOL    HW229286   3.675   3.534   9.896 -0.8446 -1.4770 -2.7846
 5884SOL     OW29287   0.150   4.573  10.249 -0.2804 -0.0139  0.9069
 5884SOL    HW129288   0.210   4.564  10.323 -0.3131 -0.8726  0.8227
 5884SOL    HW229289   0.193   4.626  10.181  0.1575  0.5283  1.6030
 5885SOL     OW29290   3.076   1.696   1.924 -0.1931 -0.0916  0.3290
 5885SOL    HW129291   3.000   1.709   1.980 -0.9986  0.1410 -0.8216
 5885SOL    HW229292   3.058   1.614   1.878 -1.0989 -0.0713  0.6575
 5886SOL     OW29293   4.045   1.387   3.899  0.2581 -0.0952  0.1737
 5886SOL    HW129294   4.103   1.413   3.970  0.4681  0.5402 -0.2235
 5886SOL    HW229295   3.998   1.471   3.891  1.3890  0.2425 -2.8519
 5887SOL     OW29296   2.966   4.639  16.612  0.6032  0.3587  0.1809
 5887SOL    HW129297   2.891   4.683  16.651  0.8265  1.0436 -0.1518
 5887SOL    HW229298   2.968   4.672  16.522 -0.4506  0.5284  0.2183
 5888SOL     OW29299   4.367   2.997   1.294  0.0960 -0.2163  0.1810
 5888SOL    HW129300   4.279   2.995   1.256  0.5613  1.9674 -0.9882
 5888SOL    HW229301   4.422   3.013   1.217  1.7528 -1.7027  1.0604
 5889SOL     OW29302   4.119   0.213   6.618  0.2072  0.0186 -0.2334
 5889SOL    HW129303   4.083   0.169   6.696 -0.0007  0.7177  0.0680
 5889SOL    HW229304   4.088   0.162   6.543  1.1010 -1.3618  0.3442
 5890SOL     OW29305   1.748   0.090   9.262 -0.7407  0.1680  0.4568
 5890SOL    HW129306   1.699   0.137   9.195  0.3194  0.4037 -0.1475
 5890SOL    HW229307   1.678   0.061   9.322 -0.5918  2.9677  2.0007
 5891SOL     OW29308   3.162   2.229   3.238  0.1090 -0.0266 -0.3390
 5891SOL    HW129309   3.135   2.166   3.171  1.0272 -1.4274  0.6176
 5891SOL    HW229310   3.168   2.309   3.186  1.9437 -0.0760 -0.1884
 5892SOL     OW29311   1.044   1.978   2.660  0.2346 -0.7126 -0.4654
 5892SOL    HW129312   0.953   1.961   2.685  1.2286 -1.5351  2.5999
 5892SOL    HW229313   1.082   1.932   2.735 -0.2034  1.4450  1.0783
 5893SOL     OW29314   3.458   2.108   1.942 -0.1339  0.0982  0.3377
 5893SOL    HW129315   3.426   2.155   2.019  0.1498 -1.2741  1.2765
 5893SOL    HW229316   3.389   2.135   1.880  1.7534 -0.0918 -1.8699
 5894SOL     OW29317   1.987   3.228  14.868  0.0156 -0.1444 -0.1094
 5894SOL    HW129318   1.897   3.232  14.900 -0.4553  3.7982 -1.9610
 5894SOL    HW229319   2.039   3.188  14.937  0.1192  1.0949  0.5265
 5895SOL     OW29320   3.295   0.650  10.171 -0.3233 -0.1068  0.0036
 5895SOL    HW129321   3.209   0.659  10.130 -0.7665 -0.6356  0.8115
 5895SOL    HW229322   3.325   0.565  10.139 -0.4191  0.3049 -1.1668
 5896SOL     OW29323   3.300   3.524   1.855  0.1939  0.0496 -0.3969
 5896SOL    HW129324   3.325   3.602   1.805  0.1267 -0.4903 -1.2673
 5896SOL    HW229325   3.375   3.492   1.907 -0.9216  0.2016  1.2952
 5897SOL     OW29326   1.264   0.127   3.127  0.1666 -0.0584  0.0864
 5897SOL    HW129327   1.293   0.038   3.108 -0.0264  0.1123 -1.0513
 5897SOL    HW229328   1.200   0.111   3.195  0.3583 -3.1445 -0.4750
 5898SOL     OW29329   1.746   2.335  13.815 -0.6215 -0.7351  0.3704
 5898SOL    HW129330   1.764   2.276  13.889 -0.0028  0.6104  1.2844
 5898SOL    HW229331   1.828   2.381  13.796 -1.0078 -0.1963  0.0357
 5899SOL     OW29332   3.264   1.422   8.722 -0.1743  0.3651 -0.6669
 5899SOL    HW129333   3.284   1.445   8.631  1.4038 -1.1732 -0.7155
 5899SOL    HW229334   3.350   1.410   8.763 -0.4608  0.7712  0.0516
 5900SOL     OW29335   1.258   1.566   2.597 -0.3984  0.1117  0.4450
 5900SOL    HW129336   1.330   1.599   2.651 -1.4491  1.2195  1.1640
 5900SOL    HW229337   1.194   1.553   2.666 -0.7947 -1.0084 -0.1431
 5901SOL     OW29338   4.446   0.820   8.880  0.2867  0.3422  0.0071
 5901SOL    HW129339   4.536   0.836   8.853  0.3552 -2.3989 -1.4584
 5901SOL    HW229340   4.426   0.761   8.807  0.8799 -0.2930  0.3540
 5902SOL     OW29341   3.533   2.723   2.163 -0.4543 -0.0867  0.9367
 5902SOL    HW129342   3.577   2.724   2.078  0.7294 -1.4180  1.5523
 5902SOL    HW229343   3.512   2.816   2.173  2.4072  0.6726 -0.2435
 5903SOL     OW29344   2.679   4.037  13.520 -0.1419  0.0510 -0.0327
 5903SOL    HW129345   2.595   3.996  13.539 -0.6352  1.0111 -0.1507
 5903SOL    HW229346   2.724   3.968  13.470  1.2940 -0.0234  1.3651
 5904SOL     OW29347   1.063   4.159   5.168  0.3380  0.0003  0.5751
 5904SOL    HW129348   1.006   4.088   5.197 -1.1056  1.1697  0.6408
 5904SOL    HW229349   1.103   4.122   5.090 -1.4476  0.9647 -0.8135
 5905SOL     OW29350   4.723   2.720   1.164  0.1105 -0.6071  0.7886
 5905SOL    HW129351   4.716   2.683   1.076  1.7168 -2.5905  1.4929
 5905SOL    HW229352   4.633   2.745   1.183  0.0162  0.9816 -1.8462
 5906SOL     OW29353   4.270   0.303   9.844  0.0413  0.0247 -0.0685
 5906SOL    HW129354   4.356   0.345   9.850 -0.0625  0.4742 -1.7740
 5906SOL    HW229355   4.213   0.369   9.883  0.9279  1.6058 -1.4616
 5907SOL     OW29356   1.079   0.727   3.623 -0.5798 -0.3769 -0.3895
 5907SOL    HW129357   1.116   0.677   3.696 -3.1207 -3.0595 -0.9467
 5907SOL    HW229358   1.011   0.671   3.587 -1.3669  0.7822 -0.6801
 5908SOL     OW29359   2.569   4.601   2.401 -0.1232  0.3269  0.2662
 5908SOL    HW129360   2.492   4.564   2.443 -0.7264  2.4709  1.0442
 5908SOL    HW229361   2.534   4.671   2.345  0.9419  0.6612  0.0206
 5909SOL     OW29362   3.181   3.242   8.150 -0.4527 -0.1518  0.1520
 5909SOL    HW129363   3.173   3.153   8.185 -2.7923 -0.1251 -0.3358
 5909SOL    HW229364   3.197   3.304   8.221 -1.1017  0.3020 -0.1005
 5910SOL     OW29365   2.884   3.629   5.530 -0.3981  0.1703  0.0144
 5910SOL    HW129366   2.891   3.708   5.477 -1.9236  0.6942  0.6135
 5910SOL    HW229367   2.967   3.586   5.507 -0.4470  1.0394 -1.7842
 5911SOL     OW29368   3.506   1.161   1.344 -0.7396  0.0519 -0.2872
 5911SOL    HW129369   3.551   1.240   1.317  1.1488 -1.2957 -1.1101
 5911SOL    HW229370   3.492   1.122   1.257  0.5935  1.7031 -1.2299
 5912SOL     OW29371   0.480   2.265   3.821  0.1590  0.6047  0.9899
 5912SOL    HW129372   0.535   2.306   3.888  0.5135  0.0411  1.0434
 5912SOL    HW229373   0.431   2.203   3.876  0.2086 -0.3919 -0.0974
 5913SOL     OW29374   4.565   3.531   3.195 -0.1817  0.0287  0.5423
 5913SOL    HW129375   4.618   3.610   3.207 -0.7513  0.6309 -0.8778
 5913SOL    HW229376   4.575   3.496   3.283 -1.4869  0.1466  0.7458
 5914SOL     OW29377   1.734   1.392   8.706  0.1371  0.0944 -0.2683
 5914SOL    HW129378   1.746   1.487   8.701 -0.9797  0.1810 -1.2302
 5914SOL    HW229379   1.798   1.373   8.775 -1.2007 -0.9808  0.6859
 5915SOL     OW29380   2.614   3.570   7.000 -0.0111 -0.1731  0.3462
 5915SOL    HW129381   2.599   3.660   7.029 -0.5229  0.0780 -0.6958
 5915SOL    HW229382   2.550   3.574   6.929  0.3752  3.1513  0.1839
 5916SOL     OW29383   2.938   0.920   7.840 -0.3827 -0.1455 -0.2113
 5916SOL    HW129384   2.977   0.833   7.833  1.1265  0.4413  1.0721
 5916SOL    HW229385   3.005   0.976   7.878 -0.7303  0.7728 -0.9433
 5917SOL     OW29386   2.670   3.610   8.874 -0.0577  0.5707  0.0771
 5917SOL    HW129387   2.632   3.588   8.959 -3.1010 -0.4723 -1.5728
 5917SOL    HW229388   2.610   3.573   8.809 -1.7455  1.1307  1.3239
 5918SOL     OW29389   2.345   2.811   5.409 -0.1874  0.0670  0.1457
 5918SOL    HW129390   2.326   2.904   5.421  1.9494  0.4149  0.8617
 5918SOL    HW229391   2.435   2.806   5.377 -0.2692 -0.3992 -0.0111
 5919SOL     OW29392   3.364   4.606   5.573 -0.2584  0.1380 -0.4996
 5919SOL    HW129393   3.327   4.596   5.485  0.0201 -2.5188 -0.3110
 5919SOL    HW229394   3.289   4.588   5.630  0.7980 -3.1068 -0.1020
 5920SOL     OW29395   3.321   2.372   8.579 -0.4755 -0.1376  0.1260
 5920SOL    HW129396   3.375   2.353   8.502  1.6837  0.5958  1.4435
 5920SOL    HW229397   3.382   2.353   8.651  1.4201  1.7641 -0.9683
 5921SOL     OW29398   2.789   4.025   0.363 -0.0397  0.0084 -0.2543
 5921SOL    HW129399   2.744   4.109   0.350 -1.3981 -0.6470  0.1791
 5921SOL    HW229400   2.828   4.039   0.449  2.9632  0.6714 -1.7443
 5922SOL     OW29401   3.364   1.514   6.098 -0.7144 -0.2746 -0.3852
 5922SOL    HW129402   3.382   1.431   6.142 -0.5810  0.5980  1.1984
 5922SOL    HW229403   3.300   1.491   6.031 -0.7806  1.9060 -1.0380
 5923SOL     OW29404   0.484   1.320  16.864 -0.3926  0.2473  0.6091
 5923SOL    HW129405   0.572   1.352  16.884  0.8317 -2.6467 -0.0353
 5923SOL    HW229406   0.437   1.390  16.910 -0.0460  1.1412 -0.4068
 5924SOL     OW29407   3.908   4.287   3.548 -0.5505  0.2686 -0.1047
 5924SOL    HW129408   3.996   4.249   3.546  0.8152  3.5491 -2.6011
 5924SOL    HW229409   3.923   4.377   3.520  1.8995 -0.2475 -0.5050
 5925SOL     OW29410   3.826   4.015   8.945 -0.0346 -0.2995 -0.2035
 5925SOL    HW129411   3.749   4.058   8.908 -0.1205 -0.6751 -0.4606
 5925SOL    HW229412   3.818   4.043   9.036 -0.3117 -0.5636 -0.1462
 5926SOL     OW29413   4.362   1.244  16.411 -0.3893 -0.0716 -0.2635
 5926SOL    HW129414   4.374   1.276  16.321 -1.3877 -2.0469 -1.0977
 5926SOL    HW229415   4.446   1.274  16.447  1.1064 -3.9275 -0.5220
 5927SOL     OW29416   1.731   0.039   0.758  0.1602  0.4030  0.1289
 5927SOL    HW129417   1.779   0.008   0.681 -0.1536 -1.6612  0.7751
 5927SOL    HW229418   1.804   0.086   0.799  0.9113  0.6809 -1.5191
 5928SOL     OW29419   3.939   1.898   8.757 -0.2670 -0.3526  0.1400
 5928SOL    HW129420   3.948   1.973   8.816  1.7498 -1.8979  1.7960
 5928SOL    HW229421   3.898   1.947   8.686 -1.7900 -0.1467  1.1594
 5929SOL     OW29422   3.930   3.600   5.018 -0.4220  0.0042 -0.6965
 5929SOL    HW129423   3.888   3.668   4.966  0.4228  1.8010  0.9740
 5929SOL    HW229424   3.994   3.572   4.952  0.4566 -2.9966  1.4280
 5930SOL     OW29425   4.177   4.369  12.679  0.1493 -0.8164  0.0754
 5930SOL    HW129426   4.203   4.421  12.755 -0.0981  0.0239 -0.4190
 5930SOL    HW229427   4.106   4.315  12.713 -1.9947  1.1744 -1.2713
 5931SOL     OW29428   4.043   4.152  15.259  0.1055  0.5121  0.0517
 5931SOL    HW129429   4.110   4.200  15.211 -1.6367 -0.6787 -3.5610
 5931SOL    HW229430   3.964   4.174  15.209  0.1050  0.6831  0.1289
 5932SOL     OW29431   0.990   1.229   8.903  0.3767 -0.1486 -0.3298
 5932SOL    HW129432   1.046   1.227   8.980  0.1906 -1.1390 -0.2170
 5932SOL    HW229433   0.915   1.173   8.923  0.8584 -0.4951  0.4829
 5933SOL     OW29434   0.121   4.367  16.871 -0.4212  0.7341  0.2267
 5933SOL    HW129435   0.130   4.292  16.812 -3.0152 -0.4548  1.3741
 5933SOL    HW229436   0.075   4.429  16.813  0.5471  0.7336 -0.5573
 5934SOL     OW29437   3.606   4.190   0.010  0.3020 -0.4818 -0.4254
 5934SOL    HW129438   3.630   4.203  17.660 -2.5267  0.2780 -1.0501
 5934SOL    HW229439   3.665   4.256   0.048  1.3867  0.1578 -3.2272
 5935SOL     OW29440   0.721   3.327   7.121  0.4025 -0.4931  0.1150
 5935SOL    HW129441   0.739   3.421   7.129 -1.3619 -0.0012 -1.7060
 5935SOL    HW229442   0.805   3.290   7.149  0.7353  1.0964  1.1914
 5936SOL     OW29443   2.898   1.524   8.721  0.1274 -0.6057  0.2535
 5936SOL    HW129444   2.897   1.550   8.813  0.0830 -0.9914  0.3630
 5936SOL    HW229445   2.803   1.538   8.717  0.4640  1.4903 -0.4091
 5937SOL     OW29446   3.643   4.227   2.940  0.3757 -0.5334 -0.1722
 5937SOL    HW129447   3.590   4.306   2.944 -2.2318 -2.3104  0.4442
 5937SOL    HW229448   3.732   4.257   2.923  0.1243  0.1183 -0.3058
 5938SOL     OW29449   3.968   0.599   0.037  0.1312  0.2972  0.3734
 5938SOL    HW129450   3.991   0.611   0.129 -2.2643 -3.5192  1.5127
 5938SOL    HW229451   3.999   0.681  17.740 -0.3319  1.9139  3.3727
 5939SOL     OW29452   3.445   0.442   0.565 -0.1512 -0.4559 -0.5527
 5939SOL    HW129453   3.506   0.433   0.491  1.4873 -2.4247  1.0335
 5939SOL    HW229454   3.414   0.353   0.580 -1.5937  0.4660  1.8167
 5940SOL     OW29455   2.655   1.488   1.994  0.0858  0.3992 -0.2070
 5940SOL    HW129456   2.685   1.399   2.014  2.7820  1.3317 -0.1360
 5940SOL    HW229457   2.574   1.488   2.045  0.9163  1.0718  1.1077
 5941SOL     OW29458   3.816   0.773   3.017 -0.4285  0.4710 -0.0118
 5941SOL    HW129459   3.778   0.692   3.051 -0.4448  0.8200  0.8166
 5941SOL    HW229460   3.763   0.801   2.943 -2.4150  0.0198  1.2373
 5942SOL     OW29461   0.969   2.772   2.859  0.0016  0.2341  0.2088
 5942SOL    HW129462   0.906   2.752   2.789 -0.8799  2.5069  0.3547
 5942SOL    HW229463   1.044   2.805   2.809 -1.4361  2.4225 -0.5042
 5943SOL     OW29464   0.117   4.494   7.341  0.3218  0.4406 -0.2594
 5943SOL    HW129465   0.132   4.574   7.291  0.8177  0.8186  0.4933
 5943SOL    HW229466   0.164   4.424   7.296  1.1683 -0.6778  2.3587
 5944SOL     OW29467   3.595   3.423   3.118  0.0366  0.3770 -0.5113
 5944SOL    HW129468   3.550   3.348   3.154  1.8272 -0.8294 -0.7830
 5944SOL    HW229469   3.635   3.389   3.037  2.3157 -0.3316  0.9071
 5945SOL     OW29470   3.915   2.873  17.693  0.0108 -0.0146 -0.1252
 5945SOL    HW129471   3.952   2.841   0.033 -2.2915  0.9545  1.2884
 5945SOL    HW229472   3.824   2.847  17.708 -0.9955  2.3700 -2.1406
 5946SOL     OW29473   3.082   1.887   9.593 -0.0772  0.7785  0.2112
 5946SOL    HW129474   3.098   1.972   9.632 -2.3700  0.7752  1.1361
 5946SOL    HW229475   3.128   1.823   9.649 -0.9766  1.8356  2.1688
 5947SOL     OW29476   3.840   2.183   3.798  0.4707  0.5961 -0.0562
 5947SOL    HW129477   3.812   2.181   3.890  0.9356  0.0684  0.0736
 5947SOL    HW229478   3.766   2.204   3.741 -0.3861  0.2185  0.9282
 5948SOL     OW29479   2.183   2.293   1.297 -0.1003  0.3086 -0.0489
 5948SOL    HW129480   2.236   2.231   1.347  1.1354  1.2779 -0.1600
 5948SOL    HW229481   2.123   2.235   1.250  1.6993 -2.7971  1.5317
 5949SOL     OW29482   3.177   4.569  10.391 -0.0256 -0.5993  0.3988
 5949SOL    HW129483   3.159   4.490  10.441 -1.2191  0.3986  1.5599
 5949SOL    HW229484   3.101   4.627  10.403 -0.1795 -0.3696 -1.7161
 5950SOL     OW29485   2.829   3.900   1.605 -0.0792  0.1846 -0.0955
 5950SOL    HW129486   2.914   3.860   1.588 -0.5783 -0.7429 -0.4383
 5950SOL    HW229487   2.827   3.976   1.546  1.8401 -1.3201 -2.1058
 5951SOL     OW29488   4.320   1.498   8.295 -0.0558  0.5253  0.2142
 5951SOL    HW129489   4.290   1.443   8.368  0.0316 -1.8116 -1.5190
 5951SOL    HW229490   4.259   1.572   8.291 -0.3727  0.3383  1.3888
 5952SOL     OW29491   4.495   0.211   8.496 -0.3209 -0.5861  0.4789
 5952SOL    HW129492   4.590   0.205   8.495 -0.4326 -2.4789  0.6426
 5952SOL    HW229493   4.467   0.121   8.477 -1.3666 -0.3255  0.7912
 5953SOL     OW29494   0.672   3.741  15.217 -0.2256  0.0130 -0.1435
 5953SOL    HW129495   0.651   3.742  15.311 -1.4090 -0.9375 -0.3969
 5953SOL    HW229496   0.761   3.776  15.214 -0.1982 -0.0740 -0.2949
 5954SOL     OW29497   2.942   2.201   4.163  0.1755 -0.0225  0.5696
 5954SOL    HW129498   2.974   2.181   4.075 -0.3755  0.5480  0.2424
 5954SOL    HW229499   3.024   2.179   4.208  0.6805  1.9337  0.5853
 5955SOL     OW29500   3.148   3.447   4.084  0.2378 -0.1496 -0.7221
 5955SOL    HW129501   3.216   3.495   4.038  1.8039  0.8505  2.6504
 5955SOL    HW229502   3.102   3.517   4.130  0.9175 -0.2916  0.1549
 5956SOL     OW29503   0.604   3.095  15.085 -0.2083  0.3528  0.3133
 5956SOL    HW129504   0.522   3.093  15.134 -0.3229  4.4000  0.2675
 5956SOL    HW229505   0.668   3.071  15.152 -1.5042 -1.1071  1.0204
 5957SOL     OW29506   3.996   3.962   2.270 -0.0255  0.2639  0.4361
 5957SOL    HW129507   4.032   3.905   2.339  0.3962 -0.1239 -0.1035
 5957SOL    HW229508   4.074   4.015   2.254 -0.1459  0.4730  0.5556
 5958SOL     OW29509   4.579   3.801   6.620 -0.2620 -0.4342  0.4129
 5958SOL    HW129510   4.608   3.727   6.673  2.3314 -0.1904 -0.7063
 5958SOL    HW229511   4.610   3.875   6.671 -1.0896  0.8230 -0.9141
 5959SOL     OW29512   0.326   3.586   2.137  0.5745  0.0124  0.2749
 5959SOL    HW129513   0.293   3.613   2.051  1.7836  0.7521  0.0265
 5959SOL    HW229514   0.382   3.663   2.147  0.7556 -0.4557  2.8227
 5960SOL     OW29515   2.172   2.798   1.015 -0.0799  0.1376 -0.0578
 5960SOL    HW129516   2.224   2.797   0.935  2.4669  1.3606  1.5934
 5960SOL    HW229517   2.189   2.708   1.045  2.5545  0.5576 -0.3134
 5961SOL     OW29518   0.702   1.556   6.684 -0.2084 -0.4111 -0.7872
 5961SOL    HW129519   0.655   1.479   6.654 -1.1873 -0.4194  0.7490
 5961SOL    HW229520   0.785   1.546   6.636 -0.1730  1.2689 -1.0805
 5962SOL     OW29521   0.767   3.784   2.603 -0.1659  0.6047 -0.0415
 5962SOL    HW129522   0.862   3.791   2.611  0.1402 -2.6492 -0.7518
 5962SOL    HW229523   0.749   3.692   2.620 -1.2907  0.4908 -1.7947
 5963SOL     OW29524   2.486   0.607   1.108  0.3498 -0.2295 -0.0813
 5963SOL    HW129525   2.578   0.583   1.102 -0.0452 -1.7501 -0.1380
 5963SOL    HW229526   2.492   0.654   1.191  0.6981  0.2340 -0.3705
 5964SOL     OW29527   4.503   2.863  10.233 -0.7100  0.0537 -0.1954
 5964SOL    HW129528   4.471   2.801  10.299 -1.6490 -0.4872 -1.1500
 5964SOL    HW229529   4.594   2.873  10.260 -0.9790 -1.2079  1.1846
 5965SOL     OW29530   2.232   0.286  16.794  0.2079  0.3535  0.3350
 5965SOL    HW129531   2.244   0.380  16.806 -0.5488  0.6359 -1.1297
 5965SOL    HW229532   2.302   0.269  16.730 -0.1269  1.2647 -0.2827
 5966SOL     OW29533   4.713   0.564   4.619  0.3083 -0.3535 -0.0697
 5966SOL    HW129534   4.717   0.653   4.585 -0.4497  0.2463  1.4183
 5966SOL    HW229535   4.631   0.535   4.579 -0.2791  2.8127 -1.1982
 5967SOL     OW29536   2.370   0.511  10.344 -0.5016  0.2646 -0.0788
 5967SOL    HW129537   2.350   0.595  10.386  1.1138  0.9130 -0.5851
 5967SOL    HW229538   2.436   0.532  10.277  0.4562 -1.2473  0.3900
 5968SOL     OW29539   0.921   3.448   9.131  0.1610 -0.4317 -0.0237
 5968SOL    HW129540   0.992   3.461   9.069  1.2444 -2.6596  0.7487
 5968SOL    HW229541   0.866   3.525   9.117 -0.5548 -0.6589  1.5860
 5969SOL     OW29542   0.536   3.926   4.252  0.2784  0.4141  0.4831
 5969SOL    HW129543   0.608   3.863   4.241 -0.0479  0.1828 -0.3298
 5969SOL    HW229544   0.581   3.994   4.303  2.1237  0.3481 -1.0827
 5970SOL     OW29545   1.799   3.760  11.543  0.0287 -0.0916 -0.3766
 5970SOL    HW129546   1.881   3.758  11.494  0.9085 -0.6080  1.0959
 5970SOL    HW229547   1.749   3.832  11.504 -1.5562 -0.2633  1.3042
 5971SOL     OW29548   3.436   1.226   9.519 -0.7651 -0.4844 -0.0751
 5971SOL    HW129549   3.530   1.237   9.530 -0.7453 -2.1917  1.5120
 5971SOL    HW229550   3.434   1.131   9.509  0.6689 -0.2011 -2.8742
 5972SOL     OW29551   1.763   3.841   2.959 -0.5178  0.2637  0.5724
 5972SOL    HW129552   1.723   3.763   2.919  0.0732  0.6349 -0.7349
 5972SOL    HW229553   1.750   3.912   2.897  3.2979 -0.3201 -0.9004
 5973SOL     OW29554   3.573   0.875   0.385  0.1294 -0.1110  0.7849
 5973SOL    HW129555   3.522   0.804   0.345  0.5556 -0.5202  0.9641
 5973SOL    HW229556   3.519   0.951   0.364  2.1314  0.5130 -2.0524
 5974SOL     OW29557   3.772   1.141   7.557 -0.3597  0.0802 -0.1185
 5974SOL    HW129558   3.800   1.203   7.490  1.5289  0.0956  0.6941
 5974SOL    HW229559   3.701   1.192   7.596 -0.7707  0.3388 -1.2215
 5975SOL     OW29560   2.053   3.004   5.926  0.0977  0.0309  0.1321
 5975SOL    HW129561   2.102   3.013   6.007 -2.3473  1.8901  1.4055
 5975SOL    HW229562   2.066   2.912   5.904 -0.9355  0.0422 -0.5440
 5976SOL     OW29563   1.953   1.657  16.863 -0.0846  0.4154 -0.0155
 5976SOL    HW129564   2.006   1.736  16.849  2.3629 -1.1364  0.6172
 5976SOL    HW229565   2.016   1.587  16.875  0.6809  1.0305 -0.4081
 5977SOL     OW29566   1.757   3.602   9.944 -0.1865  0.1169 -0.0288
 5977SOL    HW129567   1.770   3.543  10.018 -0.1336 -0.9595 -0.8925
 5977SOL    HW229568   1.753   3.688   9.985  1.9673 -0.4377  1.3595
 5978SOL     OW29569   3.213   4.328   3.725  0.4489  0.4327  0.7396
 5978SOL    HW129570   3.265   4.270   3.779 -0.6433 -1.8435 -0.6782
 5978SOL    HW229571   3.216   4.279   3.643  1.4144  1.5676  0.0889
 5979SOL     OW29572   0.569   2.752   5.355  0.0856 -0.7616  0.1621
 5979SOL    HW129573   0.552   2.662   5.382  0.5404 -0.7285  0.5559
 5979SOL    HW229574   0.496   2.774   5.297  1.1612 -1.7910 -1.5974
 5980SOL     OW29575   1.719   1.496   2.614  0.4040  0.2092 -0.1727
 5980SOL    HW129576   1.777   1.570   2.600 -0.5100  1.1983  1.3782
 5980SOL    HW229577   1.643   1.521   2.561 -0.0853  0.0327  0.4428
 5981SOL     OW29578   1.405   1.350   2.548 -0.1641  0.3082 -0.3473
 5981SOL    HW129579   1.327   1.405   2.554 -0.8704 -0.3069 -3.8408
 5981SOL    HW229580   1.434   1.357   2.457 -0.9177 -2.8915 -0.8584
 5982SOL     OW29581   4.656   1.524   3.061 -0.9569 -0.2239  0.5993
 5982SOL    HW129582   4.703   1.460   3.007 -2.0924 -1.0928  0.6587
 5982SOL    HW229583   4.628   1.586   2.994  0.5589 -1.7620 -1.4769
 5983SOL     OW29584   3.174   0.227   8.084  0.7787  0.6560  0.1663
 5983SOL    HW129585   3.160   0.193   7.995  1.5115 -0.6504  0.5468
 5983SOL    HW229586   3.226   0.307   8.082  0.2734  0.9420 -1.7138
 5984SOL     OW29587   4.037   1.972   6.064 -0.3781 -0.6112  0.1162
 5984SOL    HW129588   4.021   2.036   5.994  0.7891 -0.7459 -0.2763
 5984SOL    HW229589   4.038   2.033   6.138 -1.0064  1.5199 -1.6178
 5985SOL     OW29590   0.064   0.830   4.823 -0.1956  0.7657 -0.6077
 5985SOL    HW129591   4.723   0.798   4.870 -0.2148  0.0837 -1.1018
 5985SOL    HW229592   0.140   0.839   4.881  0.9113 -1.1081 -1.7212
 5986SOL     OW29593   4.351   1.353  12.473  0.0806 -0.1325  0.5388
 5986SOL    HW129594   4.277   1.319  12.523 -1.3604  1.1710 -0.6972
 5986SOL    HW229595   4.378   1.419  12.538 -0.1031  1.1107 -0.6369
 5987SOL     OW29596   2.587   3.822   5.350  0.0552  0.6153  0.4291
 5987SOL    HW129597   2.500   3.859   5.363  0.2665  1.9821 -2.0350
 5987SOL    HW229598   2.628   3.902   5.316  2.5710 -0.1271  1.6935
 5988SOL     OW29599   1.521   4.652  16.352  0.0739  0.1704 -0.3925
 5988SOL    HW129600   1.432   4.684  16.337  0.0423  0.8549  1.2575
 5988SOL    HW229601   1.544   4.690  16.437 -1.1162 -0.6378  0.2885
 5989SOL     OW29602   2.907   4.652   7.332  0.0208  0.0380  0.0208
 5989SOL    HW129603   2.927   4.588   7.263  0.7626 -0.4505  0.6909
 5989SOL    HW229604   2.816   4.628   7.352  0.5060 -0.6467  1.3875
 5990SOL     OW29605   1.487   2.702   9.621 -0.4113  0.5918  0.2007
 5990SOL    HW129606   1.582   2.706   9.616 -0.6380  2.9427 -2.4108
 5990SOL    HW229607   1.472   2.627   9.563 -1.6058  1.0602 -0.1164
 5991SOL     OW29608   1.488   1.668  11.025  0.1680  0.1032  0.5328
 5991SOL    HW129609   1.496   1.703  11.114  0.1370  3.0678 -0.6447
 5991SOL    HW229610   1.393   1.654  11.026 -0.1040  2.0360  1.9651
 5992SOL     OW29611   2.327   0.350   5.384  0.5688  0.4564  0.0550
 5992SOL    HW129612   2.392   0.327   5.450 -0.1085 -0.1417  0.5154
 5992SOL    HW229613   2.332   0.276   5.324  2.3272 -0.1923  1.0026
 5993SOL     OW29614   3.641   3.970  15.077  0.3110  0.1195 -0.0201
 5993SOL    HW129615   3.712   3.907  15.088 -2.1792 -2.0874  3.6231
 5993SOL    HW229616   3.624   3.999  15.167 -1.5242  1.5452 -0.8318
 5994SOL     OW29617   4.105   0.756  16.514  0.3109 -0.0312 -0.4050
 5994SOL    HW129618   4.100   0.789  16.424 -0.4348 -0.2296 -0.4312
 5994SOL    HW229619   4.092   0.839  16.559 -1.6926 -0.5592 -0.0152
 5995SOL     OW29620   1.612   4.051   4.480 -0.2504  0.4683 -0.0356
 5995SOL    HW129621   1.545   3.996   4.440  0.3036 -1.3227  1.5407
 5995SOL    HW229622   1.650   3.984   4.535  0.5669  1.6097  0.7976
 5996SOL     OW29623   4.148   2.483   8.072 -0.1635  0.2289 -0.4362
 5996SOL    HW129624   4.084   2.432   8.123  1.1140  0.2003  1.1366
 5996SOL    HW229625   4.097   2.515   7.998 -1.2875  1.1757  0.7307
 5997SOL     OW29626   1.764   2.287  14.581  0.7429 -0.2067 -0.1753
 5997SOL    HW129627   1.708   2.219  14.617  0.4578  0.6636  1.0247
 5997SOL    HW229628   1.704   2.354  14.549  1.5394  0.4599 -0.2924
 5998SOL     OW29629   2.331   2.119   4.448 -0.0862  0.7622  0.1280
 5998SOL    HW129630   2.419   2.141   4.480  0.4926 -0.9185 -0.3093
 5998SOL    HW229631   2.331   2.024   4.439 -1.8254  0.7787 -0.0622
 5999SOL     OW29632   4.011   2.366   6.473 -0.8884 -0.1425 -0.2683
 5999SOL    HW129633   3.943   2.432   6.486  0.1472  0.9021 -0.1307
 5999SOL    HW229634   3.964   2.294   6.433 -0.7269 -1.2130  1.4328
 6000SOL     OW29635   1.716   2.244  12.511 -0.1391  0.3818 -0.5732
 6000SOL    HW129636   1.685   2.334  12.504 -0.2802  0.2810 -1.2790
 6000SOL    HW229637   1.702   2.225  12.604 -0.1111  0.3228 -0.5813
 6001SOL     OW29638   0.950   2.181   8.857  0.7034 -0.1340 -0.4252
 6001SOL    HW129639   1.022   2.131   8.819  2.1556 -0.6616  3.0009
 6001SOL    HW229640   0.950   2.135   8.941 -0.0728  0.5224 -0.0741
 6002SOL     OW29641   1.546   0.098   3.964 -0.6894  0.1046 -0.0115
 6002SOL    HW129642   1.592   0.039   3.904 -0.9312 -0.7076  0.5978
 6002SOL    HW229643   1.546   0.042   4.042 -2.4210  0.4725  0.2455
 6003SOL     OW29644   1.031   3.020   5.668 -0.9995 -0.2093  0.0071
 6003SOL    HW129645   1.044   2.937   5.714  1.6958  2.0539  3.3314
 6003SOL    HW229646   1.052   2.992   5.579 -1.5565 -0.3948 -0.0685
 6004SOL     OW29647   1.773   4.521   8.115  0.1137 -0.0179  0.3130
 6004SOL    HW129648   1.852   4.473   8.140  2.0171  0.5782 -4.6795
 6004SOL    HW229649   1.742   4.461   8.048  0.5767  0.4815 -0.3477
 6005SOL     OW29650   3.674   3.055  16.915 -0.3107 -0.4454  0.0277
 6005SOL    HW129651   3.648   2.967  16.944 -1.0778 -0.3519 -0.3798
 6005SOL    HW229652   3.745   3.035  16.854 -2.3682 -0.6045 -2.3213
 6006SOL     OW29653   3.696   3.137   4.484 -0.7456 -0.2950  0.2299
 6006SOL    HW129654   3.770   3.165   4.538  1.3404 -3.1094 -1.1705
 6006SOL    HW229655   3.738   3.137   4.398  1.5022  0.4063  1.3291
 6007SOL     OW29656   3.569   4.713   2.898 -0.2871  0.3784 -0.1102
 6007SOL    HW129657   3.525   4.717   2.813 -2.4356  0.0360  1.0015
 6007SOL    HW229658   3.518   0.048   2.938 -2.2686  0.1973 -2.3165
 6008SOL     OW29659   0.727   3.716   0.931 -0.3380  0.3318  0.2374
 6008SOL    HW129660   0.738   3.638   0.986  0.4862 -0.0970 -0.5194
 6008SOL    HW229661   0.730   3.780   1.002 -2.7301 -1.9369  2.3639
 6009SOL     OW29662   0.955   2.187   8.133 -0.0892  0.9602 -0.5262
 6009SOL    HW129663   0.912   2.118   8.185  0.5172 -0.5326 -1.9871
 6009SOL    HW229664   1.021   2.220   8.193 -0.2044  3.3444 -1.7362
 6010SOL     OW29665   0.207   1.156   6.389 -0.3519  0.2835  0.0518
 6010SOL    HW129666   0.137   1.214   6.418  0.1119  1.3000 -0.8944
 6010SOL    HW229667   0.264   1.148   6.465  0.5501  0.5735 -0.6038
 6011SOL     OW29668   2.422   2.629   6.798  0.3123  0.0936 -0.8650
 6011SOL    HW129669   2.455   2.706   6.844 -1.4553  0.2148  0.1836
 6011SOL    HW229670   2.442   2.554   6.855  0.3242  0.5543 -0.2576
 6012SOL     OW29671   3.073   1.906   8.954 -0.3631  0.1012  0.1044
 6012SOL    HW129672   3.113   1.857   8.882 -0.0201 -0.2219  0.5147
 6012SOL    HW229673   2.991   1.857   8.952 -0.9637  1.2006 -3.4066
 6013SOL     OW29674   1.787   4.186   5.057  0.5033  0.1679  0.2275
 6013SOL    HW129675   1.872   4.224   5.080  0.1920  0.5173  0.8106
 6013SOL    HW229676   1.819   4.097   5.043  0.6431  0.0916  1.0581
 6014SOL     OW29677   4.596   2.018   5.360  0.5628 -0.2710 -0.0187
 6014SOL    HW129678   4.570   1.941   5.411 -0.1073  1.5920  2.4616
 6014SOL    HW229679   4.525   2.077   5.385  0.8891  0.1035  0.0256
 6015SOL     OW29680   0.762   2.591   8.787 -0.4468 -0.1764 -0.0619
 6015SOL    HW129681   0.711   2.594   8.706 -0.8490  2.0405  0.2499
 6015SOL    HW229682   0.730   2.510   8.825  0.1922  0.0325  0.9307
 6016SOL     OW29683   2.881   4.489   5.375  0.5913 -0.0547  0.1759
 6016SOL    HW129684   2.936   4.540   5.435 -0.0394  1.0374 -0.1836
 6016SOL    HW229685   2.938   4.430   5.325 -1.7580 -1.2552 -1.1095
 6017SOL     OW29686   2.789   1.156  15.694  0.1962 -0.1970 -0.3178
 6017SOL    HW129687   2.881   1.132  15.703 -0.2433 -1.2737  1.2899
 6017SOL    HW229688   2.769   1.122  15.607  0.2181  0.1479 -0.4573
 6018SOL     OW29689   2.726   1.115   5.708 -0.5618  0.0136 -0.6055
 6018SOL    HW129690   2.677   1.185   5.665  0.1662 -0.2978 -1.9491
 6018SOL    HW229691   2.727   1.043   5.646  1.1139 -0.1239 -0.4266
 6019SOL     OW29692   0.469   3.379   2.239 -0.1214  0.4748 -0.5085
 6019SOL    HW129693   0.402   3.443   2.215 -0.4633  0.1513 -0.4223
 6019SOL    HW229694   0.449   3.385   2.333  1.2488 -0.3652 -0.1672
 6020SOL     OW29695   2.392   1.873   5.023  0.0953  0.0550  0.0926
 6020SOL    HW129696   2.348   1.892   5.105 -0.1123  0.8397 -0.2039
 6020SOL    HW229697   2.468   1.825   5.057  0.4973  1.8829  1.7409
 6021SOL     OW29698   2.031   1.291   8.106  0.1093  0.4761 -0.4026
 6021SOL    HW129699   2.030   1.208   8.153  1.9126  1.1811  0.8946
 6021SOL    HW229700   2.121   1.301   8.077  1.5875 -2.2192  3.4347
 6022SOL     OW29701   4.229   2.038   2.133 -0.6149  0.3871 -0.2548
 6022SOL    HW129702   4.228   2.068   2.224 -3.3403 -1.4572  0.3308
 6022SOL    HW229703   4.163   2.096   2.096 -0.2591  0.4332 -0.8180
 6023SOL     OW29704   1.118   4.581   5.440  0.0260 -0.2335  0.0988
 6023SOL    HW129705   1.204   4.540   5.443 -0.2697 -0.9069 -0.9283
 6023SOL    HW229706   1.062   4.517   5.398  0.3782 -0.6818  0.3200
 6024SOL     OW29707   2.905   0.394   2.985  0.1553  0.0229 -0.1441
 6024SOL    HW129708   2.907   0.301   2.964 -0.7512 -0.2324  0.9175
 6024SOL    HW229709   2.825   0.424   2.943  0.7049  0.1338 -1.1175
 6025SOL     OW29710   0.469   3.782   5.684  0.3343  0.6637  0.5563
 6025SOL    HW129711   0.430   3.858   5.728 -0.5426 -0.2727  1.4134
 6025SOL    HW229712   0.424   3.772   5.600  1.2612  0.1672  0.1122
 6026SOL     OW29713   3.989   0.492  17.047 -0.3989 -0.5156 -0.4821
 6026SOL    HW129714   3.918   0.551  17.072  1.8369  2.0073 -0.0826
 6026SOL    HW229715   3.976   0.478  16.953 -0.6978  1.3434 -0.7184
 6027SOL     OW29716   1.142   4.540  11.174  0.0917  0.0081  0.1187
 6027SOL    HW129717   1.126   4.573  11.085 -1.2220  0.4586  0.5237
 6027SOL    HW229718   1.220   4.488  11.159  0.5777  0.9770 -0.7399
 6028SOL     OW29719   3.716   0.152   8.078  0.1563 -0.1760  0.0533
 6028SOL    HW129720   3.746   0.112   8.160  2.4301  0.7644 -0.3009
 6028SOL    HW229721   3.655   0.089   8.041 -0.6018  0.5671  0.0281
 6029SOL     OW29722   1.044   2.384   2.874  0.0005 -0.0794 -0.1629
 6029SOL    HW129723   1.001   2.466   2.851  0.9930  0.8971  1.5218
 6029SOL    HW229724   1.058   2.336   2.792 -3.1015 -2.4604  0.6715
 6030SOL     OW29725   3.513   4.017  14.712 -0.3208 -0.2224  0.2550
 6030SOL    HW129726   3.581   4.085  14.710  0.5733 -1.0501  1.7563
 6030SOL    HW229727   3.441   4.061  14.668  0.1010  1.4942  1.2998
 6031SOL     OW29728   1.676   1.054   2.928  0.5592 -0.5165 -0.5824
 6031SOL    HW129729   1.744   1.047   2.995 -0.0734  2.5968  0.4141
 6031SOL    HW229730   1.626   1.132   2.954  1.7860  0.7000 -1.8057
 6032SOL     OW29731   2.854   3.581   1.983  0.0350 -0.1414 -0.1044
 6032SOL    HW129732   2.830   3.546   1.898  0.1361 -1.4286  0.4004
 6032SOL    HW229733   2.938   3.626   1.968 -0.6613  0.8154 -1.1360
 6033SOL     OW29734   0.898   2.323   0.217  0.1652 -0.2718 -0.6608
 6033SOL    HW129735   0.984   2.283   0.229  0.0911 -0.4380 -0.6818
 6033SOL    HW229736   0.860   2.289   0.298  0.7374  1.0639  0.1505
 6034SOL     OW29737   2.509   3.160   4.748  0.0359 -0.2089 -0.3355
 6034SOL    HW129738   2.421   3.137   4.718  0.4938 -1.9832 -0.3246
 6034SOL    HW229739   2.509   3.098   4.821  0.3799 -0.1850 -0.3109
 6035SOL     OW29740   1.662   0.346   0.920  0.5927  0.2574 -0.7250
 6035SOL    HW129741   1.601   0.276   0.899  0.8094  0.1037 -0.8321
 6035SOL    HW229742   1.691   0.293   0.995  1.5484  0.1517 -1.1665
 6036SOL     OW29743   2.920   0.331   0.826  0.5446 -0.2919 -0.0017
 6036SOL    HW129744   2.941   0.381   0.747 -0.0651  2.1651  1.3623
 6036SOL    HW229745   2.905   0.240   0.803 -0.7119  0.1536 -0.8894
 6037SOL     OW29746   0.369   3.314  11.140 -0.0563  0.1067  0.2056
 6037SOL    HW129747   0.393   3.236  11.191  1.1168 -0.4329 -1.1687
 6037SOL    HW229748   0.352   3.375  11.212 -1.7676 -0.7432  0.5124
 6038SOL     OW29749   2.942   0.064  14.813 -0.5032  0.0158  0.0031
 6038SOL    HW129750   2.984   0.022  14.737  0.1983 -0.1246  0.4681
 6038SOL    HW229751   2.889   0.133  14.774 -1.4851  0.1431  1.5874
 6039SOL     OW29752   0.077   2.795   0.730  0.4817  0.4322 -0.4931
 6039SOL    HW129753   0.165   2.756   0.723  0.1996 -0.4728  1.0310
 6039SOL    HW229754   0.064   2.824   0.820  1.2699  2.2055 -0.9439
 6040SOL     OW29755   1.762   2.871  14.024  0.2732  0.4936 -0.4821
 6040SOL    HW129756   1.755   2.920  13.943  0.9062 -0.4079 -1.0804
 6040SOL    HW229757   1.757   2.945  14.085  2.1431  0.4072 -0.2075
 6041SOL     OW29758   4.040   2.715   7.484 -0.3592 -0.3598  0.0031
 6041SOL    HW129759   4.079   2.665   7.412 -0.9335 -0.2870 -0.3609
 6041SOL    HW229760   4.095   2.679   7.553  2.5131  1.5597 -1.2995
 6042SOL     OW29761   3.871   0.554  13.324 -1.0268  0.1713  0.1830
 6042SOL    HW129762   3.844   0.500  13.398 -0.0767  0.5189  0.7917
 6042SOL    HW229763   3.913   0.627  13.369 -0.9274  1.0897 -1.3978
 6043SOL     OW29764   3.486   3.868   3.013 -0.0463  0.1770 -0.0290
 6043SOL    HW129765   3.437   3.786   3.008  0.1556 -0.1288  2.9290
 6043SOL    HW229766   3.556   3.849   3.075 -0.1603  1.6078  0.5506
 6044SOL     OW29767   2.879   2.508   8.568  0.6223  0.5115 -0.2224
 6044SOL    HW129768   2.951   2.570   8.581  2.5836 -1.8900  0.3341
 6044SOL    HW229769   2.932   2.429   8.575  1.5370  1.1518  0.1151
 6045SOL     OW29770   4.438   2.488   3.741 -0.3096  0.4890 -0.5556
 6045SOL    HW129771   4.385   2.452   3.669  0.1619  0.4155 -0.8637
 6045SOL    HW229772   4.440   2.414   3.802 -0.9994  0.5766 -0.4239
 6046SOL     OW29773   0.151   3.938   4.700  0.2761  0.1284  0.4946
 6046SOL    HW129774   0.176   3.924   4.791  0.0826 -0.9381  0.3841
 6046SOL    HW229775   0.137   4.033   4.707 -1.2133 -0.0148 -0.5373
 6047SOL     OW29776   2.978   4.190   5.783 -0.7896  0.7161 -0.0746
 6047SOL    HW129777   3.062   4.236   5.786 -0.4321  0.1058 -0.7316
 6047SOL    HW229778   3.000   4.135   5.708  0.3021 -2.0658  2.3005
 6048SOL     OW29779   3.102   4.365   8.027 -0.6712  0.1544 -0.4279
 6048SOL    HW129780   3.112   4.437   8.089 -1.9519 -1.2128  1.3779
 6048SOL    HW229781   3.070   4.405   7.946 -2.5292 -0.8227 -0.1848
 6049SOL     OW29782   1.837   0.130   1.207  0.5085  0.2512  0.1626
 6049SOL    HW129783   1.926   0.161   1.188 -0.1011  2.6469  1.1139
 6049SOL    HW229784   1.851   0.100   1.297  0.4055  0.0858  0.1218
 6050SOL     OW29785   1.711   0.348   8.551  0.1219 -0.5780 -0.1013
 6050SOL    HW129786   1.681   0.351   8.642 -0.9345 -0.5867 -0.4496
 6050SOL    HW229787   1.638   0.299   8.513 -0.6837 -0.5986  1.4846
 6051SOL     OW29788   2.267   2.235   9.596  0.2396 -0.3424  0.1550
 6051SOL    HW129789   2.246   2.328   9.589  0.6297 -0.3077 -0.5972
 6051SOL    HW229790   2.317   2.236   9.677  2.2381 -1.7472 -1.0514
 6052SOL     OW29791   0.828   1.531  10.771 -0.2533  0.2071 -0.0597
 6052SOL    HW129792   0.864   1.508  10.686 -0.5920 -1.5430  0.2674
 6052SOL    HW229793   0.747   1.480  10.778  2.0401 -3.3218  1.0059
 6053SOL     OW29794   1.806   3.481   4.885  0.3774  0.3305 -0.1568
 6053SOL    HW129795   1.746   3.550   4.912  1.2327  0.3190  1.7746
 6053SOL    HW229796   1.778   3.392   4.905 -0.0876  0.7496  1.0730
 6054SOL     OW29797   4.063   2.609   5.633  0.0402  0.3429  0.0722
 6054SOL    HW129798   4.057   2.698   5.598 -0.6314 -0.2427 -1.2719
 6054SOL    HW229799   4.058   2.635   5.725  0.9751 -1.7133  0.6935
 6055SOL     OW29800   3.920   1.966   3.497  0.2273  0.5298 -0.1336
 6055SOL    HW129801   3.979   1.930   3.564  0.2113 -0.4733 -0.6468
 6055SOL    HW229802   3.834   1.971   3.539  0.3819 -2.7269  0.5848
 6056SOL     OW29803   0.971   3.828   1.686  0.4087  0.4288  0.6345
 6056SOL    HW129804   1.053   3.783   1.705  1.8050  2.0702 -1.5322
 6056SOL    HW229805   0.941   3.857   1.772  0.7134  1.3907  0.4163
 6057SOL     OW29806   3.386   3.137   2.062 -0.3584  0.4063 -0.1617
 6057SOL    HW129807   3.318   3.139   1.994  1.1242  2.2621 -1.5781
 6057SOL    HW229808   3.434   3.216   2.040 -0.2735  0.9067  1.8476
 6058SOL     OW29809   2.590   1.543  11.362  0.2566  0.2291 -0.4552
 6058SOL    HW129810   2.656   1.612  11.357  0.8203 -0.1564  1.4595
 6058SOL    HW229811   2.625   1.471  11.415 -0.4014  1.6027  1.8488
 6059SOL     OW29812   3.457   1.307  12.933 -0.0307 -0.3634 -0.5654
 6059SOL    HW129813   3.416   1.307  13.019 -0.1907  2.1578 -0.6531
 6059SOL    HW229814   3.399   1.270  12.867 -2.7988 -0.1323  1.7489
 6060SOL     OW29815   0.592   3.918   8.965  0.6805  0.2380 -0.1173
 6060SOL    HW129816   0.577   3.841   8.910  1.3034 -0.4162  0.6443
 6060SOL    HW229817   0.592   3.878   9.052  1.5128  0.0757 -0.1938
 6061SOL     OW29818   3.741   3.989   3.625 -0.4012  0.2227 -0.3320
 6061SOL    HW129819   3.819   3.975   3.678 -0.3525  0.8385 -0.2376
 6061SOL    HW229820   3.715   4.077   3.654 -1.2381 -0.3094  0.5427
 6062SOL     OW29821   3.428   2.330  12.541  0.7229  0.0858 -0.6110
 6062SOL    HW129822   3.522   2.336  12.523  1.3026 -2.2335  1.5915
 6062SOL    HW229823   3.409   2.406  12.597  1.6616  0.2033 -0.4540
 6063SOL     OW29824   4.689   2.809   9.298  0.1335 -0.3745  0.5212
 6063SOL    HW129825   0.046   2.833   9.289 -0.4064  1.8947  0.8894
 6063SOL    HW229826   4.654   2.877   9.241 -1.0466  0.3964  2.1761
 6064SOL     OW29827   3.089   1.657   5.702  0.2430  0.1358  0.1643
 6064SOL    HW129828   3.130   1.742   5.719 -1.8181  1.0692  0.5063
 6064SOL    HW229829   3.023   1.673   5.635 -0.2302 -1.4735  0.2375
 6065SOL     OW29830   3.110   2.145   6.430 -0.6299  0.3448  0.0061
 6065SOL    HW129831   3.075   2.067   6.473 -2.1332  1.5010  0.9281
 6065SOL    HW229832   3.042   2.180   6.372 -0.4710  1.2341  0.3454
 6066SOL     OW29833   4.099   0.261   2.646  0.3064 -0.5114 -0.4623
 6066SOL    HW129834   4.050   0.342   2.655  1.2951  0.0487 -0.1290
 6066SOL    HW229835   4.192   0.283   2.647  0.4357 -1.0102 -1.3115
 6067SOL     OW29836   3.655   1.088   5.753 -0.6438  0.5676 -0.0746
 6067SOL    HW129837   3.738   1.129   5.727 -1.6474  2.0975 -0.8509
 6067SOL    HW229838   3.621   1.154   5.813  0.1379  0.7001  0.2187
 6068SOL     OW29839   0.720   4.349  16.763 -0.4858  0.1675  0.2140
 6068SOL    HW129840   0.640   4.307  16.794  0.6132 -1.6575  0.5475
 6068SOL    HW229841   0.716   4.441  16.788  2.1759  0.3602 -0.0175
 6069SOL     OW29842   2.079   3.286   4.547  0.4703  0.3768 -0.4088
 6069SOL    HW129843   2.052   3.373   4.577 -0.4850  0.3540 -1.1676
 6069SOL    HW229844   1.996   3.264   4.504  0.6881 -2.7051  0.7822
 6070SOL     OW29845   1.502   1.514  10.112  0.1310 -0.0948  0.1531
 6070SOL    HW129846   1.532   1.604  10.108  1.7638 -0.7281 -2.2461
 6070SOL    HW229847   1.440   1.500  10.040 -0.9277  0.1240  1.0224
 6071SOL     OW29848   4.529   4.238  15.057 -0.1680  0.4572 -0.0427
 6071SOL    HW129849   4.605   4.208  15.106 -1.4435  0.7878  2.1283
 6071SOL    HW229850   4.577   4.264  14.979 -1.1824  1.3413 -0.3726
 6072SOL     OW29851   4.111   0.145   4.981 -0.1899  0.3225 -0.5191
 6072SOL    HW129852   4.128   0.082   5.050 -0.7281  0.8368  0.0857
 6072SOL    HW229853   4.199   0.181   4.968 -0.8926  1.1720 -3.1497
 6073SOL     OW29854   3.487   0.370  16.663 -0.1014 -0.2769 -0.4339
 6073SOL    HW129855   3.401   0.331  16.647  0.2877 -0.9920 -0.7599
 6073SOL    HW229856   3.466   0.417  16.744 -0.8971 -0.5494 -0.4805
 6074SOL     OW29857   0.739   3.294   6.336  0.4794  0.2775  0.2989
 6074SOL    HW129858   0.785   3.215   6.366 -0.9157 -0.2366  1.0349
 6074SOL    HW229859   0.754   3.292   6.241 -1.0455  2.2091  0.0395
 6075SOL     OW29860   1.741   3.870   4.292  0.1638  0.0762  0.5012
 6075SOL    HW129861   1.780   3.946   4.247  0.3125 -0.5746 -0.4766
 6075SOL    HW229862   1.720   3.903   4.379 -4.0225  1.9027 -1.2058
 6076SOL     OW29863   1.242   2.342  10.438 -0.2372  0.4647 -0.2005
 6076SOL    HW129864   1.222   2.257  10.399  0.5134  0.5331 -0.7319
 6076SOL    HW229865   1.337   2.341  10.431 -0.1820  1.1894  0.3465
 6077SOL     OW29866   0.403   2.246   8.648  0.3539  0.0786 -0.0582
 6077SOL    HW129867   0.353   2.171   8.682 -0.0908  0.0726 -0.7199
 6077SOL    HW229868   0.375   2.324   8.695  2.5888  0.4970  0.5436
 6078SOL     OW29869   1.507   1.005   5.339  0.2727 -0.0038  0.0632
 6078SOL    HW129870   1.546   0.920   5.323 -1.4799 -0.8752  0.3983
 6078SOL    HW229871   1.462   1.028   5.258  1.3496 -2.6297 -1.2545
 6079SOL     OW29872   4.171   4.087  14.608 -0.4303  0.3495 -0.1456
 6079SOL    HW129873   4.084   4.057  14.638  0.1560 -0.0782  1.1351
 6079SOL    HW229874   4.202   4.111  14.695 -0.3139  2.2977 -0.7236
 6080SOL     OW29875   3.946   4.578   8.167 -0.3012 -0.8436 -0.5810
 6080SOL    HW129876   3.937   4.485   8.187 -0.7229 -0.7437 -0.3137
 6080SOL    HW229877   3.982   4.594   8.080  0.7935  0.5433  0.1244
 6081SOL     OW29878   1.931   2.681   1.030  0.4628 -0.0902 -0.4400
 6081SOL    HW129879   2.016   2.724   1.023  0.7272 -0.3616  1.0448
 6081SOL    HW229880   1.880   2.762   1.033  1.1312  0.3066  0.0596
 6082SOL     OW29881   4.677   0.514  14.626  0.4515 -0.6388 -0.1481
 6082SOL    HW129882   4.680   0.459  14.548  2.3143  0.8946 -1.1929
 6082SOL    HW229883   0.035   0.532  14.630  0.1660  0.3763  1.7781
 6083SOL     OW29884   1.573   3.580   9.754 -0.1085 -0.2897  0.0971
 6083SOL    HW129885   1.641   3.610   9.693  0.6978 -1.3344  0.4937
 6083SOL    HW229886   1.621   3.588   9.836 -0.4229  1.4071  0.1152
 6084SOL     OW29887   3.573   0.054   5.604 -0.2316 -0.1890  0.6520
 6084SOL    HW129888   3.519   0.121   5.646  2.0438  2.2053 -0.2501
 6084SOL    HW229889   3.504   4.726   5.582 -0.5095 -0.8742  3.5817
 6085SOL     OW29890   3.357   3.915   4.411  0.1750 -0.4728  0.1435
 6085SOL    HW129891   3.333   3.839   4.358 -0.9124 -0.6600  0.8837
 6085SOL    HW229892   3.421   3.956   4.353  0.3423 -0.5815  0.2516
 6086SOL     OW29893   2.935   0.113   8.158  0.0723  0.0173 -0.7132
 6086SOL    HW129894   3.015   0.159   8.132 -0.4876  0.9908 -0.7162
 6086SOL    HW229895   2.921   0.065   8.076  0.4658  2.1985 -2.0475
 6087SOL     OW29896   3.914   2.210   1.263  0.3187  0.3692 -0.1171
 6087SOL    HW129897   3.908   2.217   1.359 -3.4583  0.3454 -0.3271
 6087SOL    HW229898   3.934   2.117   1.248 -2.9096 -0.4654  0.5425
 6088SOL     OW29899   3.221   3.769   5.018  0.3847  0.6018  0.2117
 6088SOL    HW129900   3.154   3.838   5.022 -3.9908 -3.5970 -0.2611
 6088SOL    HW229901   3.206   3.723   4.935 -0.5730 -1.5144  1.5660
 6089SOL     OW29902   0.929   4.565   5.656 -0.8244 -0.0566 -0.0441
 6089SOL    HW129903   1.002   4.602   5.707 -1.8587  0.8962  0.7520
 6089SOL    HW229904   0.962   4.482   5.624  2.0396  1.1502 -0.2914
 6090SOL     OW29905   3.156   1.229   4.784  0.1829 -0.5991 -0.3970
 6090SOL    HW129906   3.123   1.200   4.699 -1.6457 -1.0165  0.4557
 6090SOL    HW229907   3.224   1.164   4.797  0.5687 -0.3967 -1.4303
 6091SOL     OW29908   2.406   2.201   5.579 -0.5136 -0.0646 -0.5337
 6091SOL    HW129909   2.450   2.178   5.497 -0.4460  2.5724 -1.2152
 6091SOL    HW229910   2.323   2.155   5.564 -0.1727 -0.2584 -1.8436
 6092SOL     OW29911   2.820   3.985   2.233  0.1459  0.0287 -0.0105
 6092SOL    HW129912   2.826   3.996   2.328 -0.5409  1.0399 -0.0769
 6092SOL    HW229913   2.759   4.057   2.213  1.8799  1.1737 -1.1886
 6093SOL     OW29914   4.384   1.540   6.483  0.9459  0.0661 -0.3064
 6093SOL    HW129915   4.472   1.510   6.503  0.8324 -1.6755 -2.4635
 6093SOL    HW229916   4.358   1.548   6.575 -1.2037  3.0671 -1.1834
 6094SOL     OW29917   3.348   3.778   5.833 -0.0942 -0.2015  0.3317
 6094SOL    HW129918   3.423   3.818   5.878 -0.9945  1.6045  0.2307
 6094SOL    HW229919   3.396   3.711   5.786  2.9158  0.6376  2.2256
 6095SOL     OW29920   3.937   0.256  14.243 -0.2498  0.6663 -0.1756
 6095SOL    HW129921   3.892   0.175  14.219 -0.0937  0.7545 -0.7476
 6095SOL    HW229922   3.922   0.309  14.166 -0.1811 -1.2438 -1.5079
 6096SOL     OW29923   1.372   0.926   4.622  0.3462  0.6057  0.0950
 6096SOL    HW129924   1.352   0.849   4.569  0.0982  0.2444  0.7250
 6096SOL    HW229925   1.331   0.912   4.707  2.0277 -0.6320  0.7137
 6097SOL     OW29926   0.095   2.744   2.887  0.4110 -0.1589  0.3860
 6097SOL    HW129927   0.100   2.817   2.826 -2.4537 -0.4669 -0.1985
 6097SOL    HW229928   0.058   2.674   2.833 -0.2728 -1.0886  2.0400
 6098SOL     OW29929   2.354   3.984   7.524 -0.0177  0.1530 -0.0345
 6098SOL    HW129930   2.284   4.046   7.504  0.9321  0.5724 -2.0773
 6098SOL    HW229931   2.342   3.919   7.454 -0.5411  0.4507 -0.2211
 6099SOL     OW29932   0.499   4.482  11.872  0.1289  0.3575  0.3946
 6099SOL    HW129933   0.539   4.465  11.957  1.0220 -2.9790 -0.6644
 6099SOL    HW229934   0.569   4.512  11.814 -1.3169  1.5861 -0.7332
 6100SOL     OW29935   1.049   1.873  14.939  0.0273  0.7768  0.1768
 6100SOL    HW129936   1.113   1.884  15.009 -1.0848 -1.0690  1.4830
 6100SOL    HW229937   1.037   1.778  14.938 -1.4208  0.9873 -1.1443
 6101SOL     OW29938   0.248   1.489   6.237  0.0654  0.4836  0.1217
 6101SOL    HW129939   0.206   1.495   6.323 -0.1103 -1.6894  0.1907
 6101SOL    HW229940   0.215   1.405   6.205 -0.4163  0.5329  0.4822
 6102SOL     OW29941   4.264   3.262   0.630  0.4809  0.3086 -0.2036
 6102SOL    HW129942   4.205   3.210   0.686  0.9643  0.9805  0.9302
 6102SOL    HW229943   4.344   3.210   0.621 -2.6875 -5.2795  3.4383
 6103SOL     OW29944   1.490   4.718   4.803  0.2856  0.3210  0.1428
 6103SOL    HW129945   1.461   4.664   4.876 -1.2048 -0.1653 -0.8137
 6103SOL    HW229946   1.478   4.656   4.731 -0.6677  1.6770 -0.8724
 6104SOL     OW29947   3.293   2.401  13.382  0.2121 -0.1004 -0.3594
 6104SOL    HW129948   3.208   2.364  13.406 -0.7256  0.8751 -2.1752
 6104SOL    HW229949   3.283   2.496  13.388  1.1308 -0.2158  3.2500
 6105SOL     OW29950   2.422   3.654   2.429 -0.3231  0.3612 -0.6044
 6105SOL    HW129951   2.453   3.698   2.350  0.7164 -3.4859 -2.3156
 6105SOL    HW229952   2.477   3.685   2.501 -0.7211 -1.7872  0.6160
 6106SOL     OW29953   1.661   0.055   5.305 -0.0647 -0.0558 -0.1202
 6106SOL    HW129954   1.729   4.734   5.268 -0.0978  1.5600 -2.6965
 6106SOL    HW229955   1.653   0.011   5.389 -0.4255  1.5424  0.6732
 6107SOL     OW29956   2.336   4.215   1.668 -0.2105  0.4236  0.0303
 6107SOL    HW129957   2.273   4.199   1.739 -0.9468 -0.3312 -0.7997
 6107SOL    HW229958   2.402   4.270   1.711  1.7306 -2.7575  1.1491
 6108SOL     OW29959   0.319   4.593   7.733 -0.5498  0.2878 -0.4756
 6108SOL    HW129960   0.347   4.652   7.803  0.4746  0.8483 -1.3677
 6108SOL    HW229961   0.359   4.632   7.655 -3.8156  0.1458 -2.2641
 6109SOL     OW29962   2.182   3.783   4.485  0.2753  0.0913  0.2926
 6109SOL    HW129963   2.093   3.805   4.515 -0.0964 -0.2829 -0.5582
 6109SOL    HW229964   2.237   3.808   4.560  1.8016 -1.7348 -0.2329
 6110SOL     OW29965   1.065   0.978  13.871  0.3941  0.7937  0.2366
 6110SOL    HW129966   1.065   1.034  13.948  4.3751  1.7729 -0.4669
 6110SOL    HW229967   1.158   0.966  13.852  0.5041  2.7594 -0.4246
 6111SOL     OW29968   2.978   0.657   7.749  0.3079  0.1695 -0.2124
 6111SOL    HW129969   3.029   0.713   7.691 -0.5010  0.1675 -0.9385
 6111SOL    HW229970   3.055   0.627   7.796 -0.0217  0.5493  0.5561
 6112SOL     OW29971   1.962   1.338   0.927 -0.4119 -0.1359 -0.2275
 6112SOL    HW129972   1.944   1.261   0.981 -0.4212  0.0445  0.0214
 6112SOL    HW229973   2.033   1.308   0.871 -0.3883  1.0183 -0.8160
 6113SOL     OW29974   1.848   0.897   2.344 -0.1275 -0.2689  0.0039
 6113SOL    HW129975   1.889   0.976   2.308 -0.3696  0.0228  0.3692
 6113SOL    HW229976   1.816   0.933   2.427  0.8437  0.2530  0.1533
 6114SOL     OW29977   1.981   4.204   5.631  0.0218 -0.3417 -0.5857
 6114SOL    HW129978   1.998   4.174   5.720 -1.6789 -0.5326 -0.3356
 6114SOL    HW229979   1.972   4.122   5.582 -2.0306  1.5486 -3.3987
 6115SOL     OW29980   0.816   2.952   5.212  0.1806 -0.9271 -0.4265
 6115SOL    HW129981   0.857   2.866   5.207  0.1716 -0.8629 -1.5322
 6115SOL    HW229982   0.758   2.948   5.136  0.6892  0.4154 -0.8778
 6116SOL     OW29983   0.312   3.787   5.401  0.0268 -0.2318  0.0506
 6116SOL    HW129984   0.383   3.735   5.363 -1.7310 -0.3109 -3.0730
 6116SOL    HW229985   0.275   3.830   5.325  2.4629  0.7307 -0.5922
 6117SOL     OW29986   2.871   0.747   7.324 -0.3159 -0.1000 -0.1627
 6117SOL    HW129987   2.920   0.669   7.296  0.0145  0.0404  0.0173
 6117SOL    HW229988   2.784   0.708   7.317 -0.3860  0.3488 -1.8074
 6118SOL     OW29989   1.549   4.190   1.725  0.2880 -0.2401 -0.2455
 6118SOL    HW129990   1.578   4.160   1.639  2.5886  3.2386 -0.7109
 6118SOL    HW229991   1.630   4.176   1.773 -0.2440  0.0436  0.7467
 6119SOL     OW29992   2.696   0.260  10.579  0.3177 -0.0659  0.0784
 6119SOL    HW129993   2.706   0.346  10.538 -0.4617  0.1232  0.2798
 6119SOL    HW229994   2.787   0.240  10.601  1.0719  0.2752 -2.7578
 6120SOL     OW29995   3.142   2.322   4.732 -0.2773 -0.0391  0.4208
 6120SOL    HW129996   3.108   2.385   4.668  0.0980  0.3972  0.6466
 6120SOL    HW229997   3.161   2.367   4.814  0.0001  1.9886 -0.7490
 6121SOL     OW29998   2.609   1.742   7.856 -0.2110 -0.6666 -0.0844
 6121SOL    HW129999   2.638   1.657   7.822  0.4874 -0.9506  1.2592
 6121SOL    HW230000   2.683   1.762   7.913 -0.2512  0.0763 -0.2871
 6122SOL     OW30001   2.988   4.290  17.519  0.0467  0.3906  0.0582
 6122SOL    HW130002   2.931   4.252  17.452  1.0183 -2.2784  0.7561
 6122SOL    HW230003   3.032   4.365  17.479  0.1652  1.3541  1.9994
 6123SOL     OW30004   0.707   1.344   0.612 -0.0039 -0.8337  0.4154
 6123SOL    HW130005   0.757   1.329   0.692 -0.1680  0.0956  0.6907
 6123SOL    HW230006   0.689   1.437   0.626  0.8978 -0.4138 -1.3096
 6124SOL     OW30007   4.605   4.393  14.304  0.8875  0.0502  0.4860
 6124SOL    HW130008   4.618   4.367  14.213 -2.0482  1.7451 -0.4401
 6124SOL    HW230009   4.594   4.304  14.339  1.3585  0.0620  0.6664
 6125SOL     OW30010   1.175   4.388   9.032 -0.1978  0.6107 -0.0544
 6125SOL    HW130011   1.110   4.431   8.977  1.1983  0.2735 -1.9931
 6125SOL    HW230012   1.167   4.293   9.024 -0.5846  0.3693  3.2477
 6126SOL     OW30013   3.233   1.131   7.071  0.0705  0.4774 -0.0277
 6126SOL    HW130014   3.182   1.175   7.140  0.7944 -0.9517  1.4285
 6126SOL    HW230015   3.323   1.154   7.092  0.3911 -0.6633 -0.1669
 6127SOL     OW30016   1.730   4.293   9.735 -0.2701  0.0804  0.1919
 6127SOL    HW130017   1.817   4.321   9.765 -1.4432  2.5295  1.2867
 6127SOL    HW230018   1.719   4.350   9.659 -1.6959 -0.4375  0.0171
 6128SOL     OW30019   3.174   2.383   8.246  0.6681  0.2956 -0.1666
 6128SOL    HW130020   3.118   2.325   8.298  1.5221 -2.1789 -1.9808
 6128SOL    HW230021   3.194   2.327   8.171  1.3954  0.9963 -0.4947
 6129SOL     OW30022   3.446   2.433   9.054 -0.4012  0.0226 -0.0286
 6129SOL    HW130023   3.357   2.398   9.051  0.1410 -1.4412  0.8451
 6129SOL    HW230024   3.492   2.362   9.009 -2.4807 -1.8116  0.7103
 6130SOL     OW30025   1.414   3.891   2.520  0.3529  0.1600  0.2048
 6130SOL    HW130026   1.425   3.985   2.506  0.4312  0.0711 -0.3326
 6130SOL    HW230027   1.504   3.867   2.539  1.0514  2.2896 -0.4197
 6131SOL     OW30028   3.748   0.114   3.734  0.5597 -0.5079 -0.0986
 6131SOL    HW130029   3.839   0.085   3.729  0.4670 -0.9052  0.4774
 6131SOL    HW230030   3.742   0.160   3.651  0.0807 -0.3344  0.0336
 6132SOL     OW30031   4.113   2.805   0.161 -0.1028 -0.1627  0.1397
 6132SOL    HW130032   4.110   2.764   0.247 -0.5202 -0.1521  0.1292
 6132SOL    HW230033   4.204   2.834   0.160  0.2036 -1.1244 -1.3414
 6133SOL     OW30034   3.871   2.984   8.016 -0.1431 -0.3284  0.1379
 6133SOL    HW130035   3.807   3.048   7.985 -0.3758 -0.4723  0.3196
 6133SOL    HW230036   3.897   3.039   8.090  1.6008  0.4789 -1.0688
 6134SOL     OW30037   0.733   2.593  11.672 -0.1800 -0.9162  0.0653
 6134SOL    HW130038   0.775   2.635  11.597 -0.4177  0.0012  0.4403
 6134SOL    HW230039   0.697   2.669  11.717 -1.1023 -1.2077 -0.1747
 6135SOL     OW30040   0.078   2.384   7.539 -0.3666  0.1079 -0.3606
 6135SOL    HW130041   0.139   2.312   7.555 -1.4387 -0.5384  0.8180
 6135SOL    HW230042   0.034   2.396   7.623  0.7959 -0.2639  0.2869
 6136SOL     OW30043   3.268   2.791   6.001 -0.4857 -0.0687  0.3585
 6136SOL    HW130044   3.181   2.793   6.040 -0.4649 -1.1330  0.4490
 6136SOL    HW230045   3.247   2.837   5.919  1.2665 -0.9846 -0.6059
 6137SOL     OW30046   3.151   0.845   4.590 -0.5928  0.1212  0.4883
 6137SOL    HW130047   3.243   0.821   4.574 -0.5508  1.7646 -1.6352
 6137SOL    HW230048   3.157   0.837   4.685 -2.5832 -0.6698  0.5476
 6138SOL     OW30049   4.372   3.544   8.793 -0.8567  0.3148 -0.1399
 6138SOL    HW130050   4.408   3.610   8.734 -1.6561 -0.2219 -1.2231
 6138SOL    HW230051   4.346   3.598   8.867 -2.3832  1.6719 -1.6762
 6139SOL     OW30052   1.749   0.817   7.180  0.4001  0.2962 -0.3703
 6139SOL    HW130053   1.772   0.741   7.233 -1.2111 -1.1608 -1.7873
 6139SOL    HW230054   1.666   0.847   7.217  1.1108  0.4784  1.0909
 6140SOL     OW30055   1.485   2.090   1.504  0.3193 -0.1942 -0.1008
 6140SOL    HW130056   1.539   2.166   1.483 -0.3345  1.0723  2.7888
 6140SOL    HW230057   1.462   2.109   1.595 -5.4004 -0.4386 -1.4750
 6141SOL     OW30058   0.027   0.372   3.569 -0.1509  0.3965  0.2109
 6141SOL    HW130059   0.070   0.288   3.582  1.1192  0.7341 -1.7381
 6141SOL    HW230060   4.683   0.359   3.621  0.9442 -1.9315  1.2905
 6142SOL     OW30061   0.044   3.475   6.437  0.6834  0.0761 -0.2459
 6142SOL    HW130062   0.077   3.559   6.469 -0.2377  0.7661 -1.0974
 6142SOL    HW230063   0.083   3.425   6.509 -1.1546  2.3154  2.2876
 6143SOL     OW30064   4.595   4.302   2.913 -0.2659 -0.4824  0.4471
 6143SOL    HW130065   4.526   4.244   2.945 -1.3205  0.9682  0.7958
 6143SOL    HW230066   4.598   4.287   2.819  1.1230 -4.1860  1.0949
 6144SOL     OW30067   1.955   4.179   7.944 -0.0266  0.3173 -0.1820
 6144SOL    HW130068   1.925   4.209   7.858 -2.8097 -0.0827  0.6682
 6144SOL    HW230069   2.002   4.102   7.913  0.8633  1.2088 -1.0869
 6145SOL     OW30070   0.178   2.544   5.766  0.2036 -0.0522 -0.4238
 6145SOL    HW130071   0.147   2.554   5.856 -1.1231 -0.2641 -0.8544
 6145SOL    HW230072   0.092   2.523   5.729  0.9261 -1.8782 -1.0496
 6146SOL     OW30073   2.426   1.829   7.395  0.1451 -0.0565  0.0666
 6146SOL    HW130074   2.501   1.823   7.336 -1.6232  1.1299 -2.2888
 6146SOL    HW230075   2.461   1.841   7.484 -0.2131  0.0827  0.1905
 6147SOL     OW30076   0.322   0.868   3.318 -0.7636  0.3528  0.3782
 6147SOL    HW130077   0.358   0.945   3.274  1.2010 -0.3052  0.8190
 6147SOL    HW230078   0.316   0.903   3.407  1.9629  1.4253  0.1312
 6148SOL     OW30079   0.357   1.645   7.864  0.8908  0.2121 -0.1677
 6148SOL    HW130080   0.441   1.617   7.902 -0.3748 -0.1760  2.2935
 6148SOL    HW230081   0.314   1.692   7.935  0.3266  0.9855 -1.0292
 6149SOL     OW30082   2.802   0.115  10.258 -0.3259 -0.3184 -0.0138
 6149SOL    HW130083   2.733   0.052  10.238 -0.2642  0.0426 -1.4058
 6149SOL    HW230084   2.749   0.194  10.264 -1.0811 -0.8283 -0.0505
 6150SOL     OW30085   0.934   3.926   6.383 -0.0219  0.2707  0.2625
 6150SOL    HW130086   0.939   3.986   6.458 -2.4598 -0.2446  0.8475
 6150SOL    HW230087   0.881   3.981   6.325 -1.4576 -0.6495  0.6938
 6151SOL     OW30088   1.769   3.262   3.819 -0.2872  0.6354  0.5068
 6151SOL    HW130089   1.783   3.196   3.750  2.0459  3.0927 -1.4085
 6151SOL    HW230090   1.766   3.194   3.886 -0.1421 -0.7900 -0.9400
 6152SOL     OW30091   3.716   3.896   3.359  0.3018  0.1915  0.3432
 6152SOL    HW130092   3.723   3.963   3.291  1.7805  0.1030  0.4085
 6152SOL    HW230093   3.740   3.944   3.439  0.8811 -2.1244  1.5556
 6153SOL     OW30094   2.416   0.922   3.956  0.0468 -0.3099  0.0499
 6153SOL    HW130095   2.481   0.986   3.986  1.7152 -1.9463 -0.0772
 6153SOL    HW230096   2.440   0.911   3.864 -0.5920  0.7301 -0.2407
 6154SOL     OW30097   3.465   2.983  11.346  0.1607 -0.2565  0.0385
 6154SOL    HW130098   3.472   2.986  11.441 -0.2157 -2.2069  0.1234
 6154SOL    HW230099   3.559   2.983  11.329  0.2630 -2.1153  0.7006
 6155SOL     OW30100   1.454   1.319   9.762 -0.3466 -0.1415  0.0236
 6155SOL    HW130101   1.448   1.269   9.843  2.1017  0.3987  0.5314
 6155SOL    HW230102   1.420   1.251   9.704 -0.0521  0.5057 -0.9030
 6156SOL     OW30103   3.096   0.794  10.843 -0.1060 -0.8656  0.1823
 6156SOL    HW130104   3.123   0.838  10.763  0.7681 -0.8571  0.4801
 6156SOL    HW230105   3.146   0.712  10.839  1.6456  0.2886 -1.5940
 6157SOL     OW30106   3.791   2.109   6.658  0.3252  0.1896 -0.7394
 6157SOL    HW130107   3.746   2.038   6.612  0.3072 -0.7572  0.7171
 6157SOL    HW230108   3.724   2.173   6.637 -1.0968 -0.6180  1.3266
 6158SOL     OW30109   1.979   4.013   7.507 -0.5689  0.4036  0.1974
 6158SOL    HW130110   2.027   3.955   7.447  0.6380  1.2529  0.3485
 6158SOL    HW230111   1.980   3.962   7.587  2.1657  0.4609  0.2221
 6159SOL     OW30112   1.216   2.912  11.400 -0.4633 -0.1637 -0.0574
 6159SOL    HW130113   1.305   2.877  11.412 -1.2649 -2.0378  0.5069
 6159SOL    HW230114   1.228   3.006  11.410  0.6857 -0.4359  1.0417
 6160SOL     OW30115   1.320   0.618   8.559 -0.6005  0.2570 -0.3909
 6160SOL    HW130116   1.335   0.567   8.639 -0.2344 -1.1499 -1.3634
 6160SOL    HW230117   1.232   0.656   8.570 -0.2981  0.5243  1.2047
 6161SOL     OW30118   1.530   4.711   9.419 -0.2477 -0.5901 -0.1068
 6161SOL    HW130119   1.435   4.726   9.423  0.0019  1.0306 -0.2609
 6161SOL    HW230120   1.560   0.019   9.498  0.4000  0.0332 -0.6963
 6162SOL     OW30121   1.683   1.797   5.511 -0.6774 -0.4513 -0.1363
 6162SOL    HW130122   1.735   1.719   5.494  0.2512 -0.0310  0.7461
 6162SOL    HW230123   1.639   1.767   5.591 -1.2452  1.7990  0.3967
 6163SOL     OW30124   3.873   0.006   7.672 -0.0762  0.0463  0.0328
 6163SOL    HW130125   3.800   4.682   7.690 -0.1958  0.3468  0.5675
 6163SOL    HW230126   3.838   0.081   7.720 -0.6337  0.0805 -0.4341
 6164SOL     OW30127   0.701   3.367  14.553 -0.4877 -0.1573  0.1857
 6164SOL    HW130128   0.696   3.376  14.648  1.2680 -1.6496  0.4219
 6164SOL    HW230129   0.619   3.326  14.525  0.3581 -0.1165 -2.3303
 6165SOL     OW30130   4.626   1.956   5.104  0.1790  0.3555  0.0256
 6165SOL    HW130131   4.659   1.867   5.109  2.0028  1.0253  0.0486
 6165SOL    HW230132   4.614   1.975   5.197 -0.6084  0.2623 -0.0655
 6166SOL     OW30133   4.630   1.850   3.047  0.1075 -0.1366  0.0544
 6166SOL    HW130134   4.605   1.873   3.137  2.7139  0.8898  0.5013
 6166SOL    HW230135   4.702   1.910   3.029  0.6633 -0.6684  0.4671
 6167SOL     OW30136   4.022   0.179  14.545 -0.6092  0.0305  0.1678
 6167SOL    HW130137   4.033   0.122  14.468  0.6893  0.5620 -0.0488
 6167SOL    HW230138   3.958   0.244  14.516 -1.2780  0.1780  1.9704
 6168SOL     OW30139   4.150   2.145  15.125  0.3287 -0.1057 -0.2563
 6168SOL    HW130140   4.078   2.205  15.145 -0.3356 -0.2603 -2.1530
 6168SOL    HW230141   4.131   2.138  15.031 -0.4852  0.0175 -0.1074
 6169SOL     OW30142   2.539   4.212   9.410 -0.5579  0.0515 -0.1332
 6169SOL    HW130143   2.474   4.258   9.463  1.5643  0.5749  1.9742
 6169SOL    HW230144   2.577   4.149   9.471 -0.1777 -0.3379 -0.7651
 6170SOL     OW30145   0.960   2.536   9.344  0.0842 -0.6449 -0.3871
 6170SOL    HW130146   0.935   2.444   9.351 -1.7530 -0.2920 -2.3124
 6170SOL    HW230147   1.053   2.528   9.325  0.0537 -2.0760  0.0945
 6171SOL     OW30148   0.397   1.482   3.498 -0.5092 -0.0361  0.1818
 6171SOL    HW130149   0.447   1.552   3.456 -3.1435  2.7339  1.5815
 6171SOL    HW230150   0.415   1.505   3.589  1.1617  1.7419 -0.5913
 6172SOL     OW30151   2.021   1.237   3.296  0.5125  0.0584 -0.2232
 6172SOL    HW130152   2.052   1.321   3.329  1.4324 -0.5926  0.5546
 6172SOL    HW230153   1.981   1.187   3.367  0.3991  0.2675 -0.1402
 6173SOL     OW30154   3.273   1.433  10.987 -0.2217  0.1914  0.0228
 6173SOL    HW130155   3.277   1.505  10.924  3.2585  1.9000  2.1913
 6173SOL    HW230156   3.368   1.419  10.997  0.0261 -0.0726 -2.6273
 6174SOL     OW30157   2.688   3.259  17.406 -0.0238  0.1451 -0.2810
 6174SOL    HW130158   2.747   3.316  17.455 -0.3401  0.7406 -0.5916
 6174SOL    HW230159   2.653   3.217  17.485  1.9536  0.4095  0.7422
 6175SOL     OW30160   2.972   0.109   3.877  0.0294 -0.2355  0.5658
 6175SOL    HW130161   2.877   0.115   3.875  0.2639  3.5151 -0.1827
 6175SOL    HW230162   2.977   0.015   3.864 -0.7229 -0.0872 -0.8688
 6176SOL     OW30163   3.525   0.930   3.424 -0.4183 -0.3276 -0.0400
 6176SOL    HW130164   3.509   0.837   3.406 -3.9624 -0.0026  1.4837
 6176SOL    HW230165   3.536   0.926   3.519  1.4733  0.4596 -0.2315
 6177SOL     OW30166   0.335   3.624  15.442  0.0285 -0.2064  0.3840
 6177SOL    HW130167   0.370   3.547  15.397 -0.4360  0.3522 -0.9446
 6177SOL    HW230168   0.251   3.587  15.466  0.7379 -1.2623  1.2554
 6178SOL     OW30169   0.513   4.114   6.844  0.3595 -0.3073 -0.1462
 6178SOL    HW130170   0.517   4.028   6.801  1.4463 -0.1946 -0.2534
 6178SOL    HW230171   0.547   4.089   6.930  0.8885  0.8232 -0.0355
 6179SOL     OW30172   3.129   0.685  16.265  0.5815  0.3313 -0.6004
 6179SOL    HW130173   3.065   0.615  16.253  0.6914  0.5964 -2.7846
 6179SOL    HW230174   3.113   0.709  16.356 -0.2728  2.3432 -1.2733
 6180SOL     OW30175   3.033   1.806   9.342 -0.3338 -0.0034 -0.3683
 6180SOL    HW130176   3.046   1.877   9.279 -0.8106  0.6299  0.2393
 6180SOL    HW230177   3.034   1.849   9.428 -1.1038 -1.1162  0.2068
 6181SOL     OW30178   0.539   0.310  17.358  0.4852 -0.8253  0.9033
 6181SOL    HW130179   0.493   0.386  17.321  1.3758 -1.2134 -0.9700
 6181SOL    HW230180   0.465   0.273  17.406  0.6414 -3.4393 -0.8953
 6182SOL     OW30181   3.687   1.926   3.659 -0.5480 -0.3946 -0.1794
 6182SOL    HW130182   3.632   1.936   3.737 -0.8839  1.7294 -0.6901
 6182SOL    HW230183   3.684   1.830   3.653 -1.5766 -0.3495 -0.4767
 6183SOL     OW30184   3.698   2.741   4.885 -0.1413  0.3131  0.0604
 6183SOL    HW130185   3.664   2.818   4.838  2.4530  1.3561 -0.0890
 6183SOL    HW230186   3.786   2.740   4.847 -0.1154  3.1296  0.0000
 6184SOL     OW30187   3.828   4.252  15.137 -0.5633 -0.3657  0.7267
 6184SOL    HW130188   3.809   4.338  15.100 -0.4606 -1.9802 -3.1317
 6184SOL    HW230189   3.742   4.234  15.175  0.4632 -0.8207  2.8235
 6185SOL     OW30190   1.784   0.400   9.884  0.0327 -0.0888  0.4193
 6185SOL    HW130191   1.847   0.337   9.847 -0.2181  0.7058 -1.3686
 6185SOL    HW230192   1.759   0.366   9.970  0.5813 -0.5463  0.3987
 6186SOL     OW30193   4.678   0.440  11.925  0.0764  0.6486 -0.2617
 6186SOL    HW130194   4.724   0.429  12.008 -0.2421 -0.4502 -0.2312
 6186SOL    HW230195   4.619   0.365  11.933 -1.4114  1.5591 -2.5585
 6187SOL     OW30196   0.662   1.558   4.580  0.0382  0.3235  0.1267
 6187SOL    HW130197   0.746   1.602   4.567  1.4489 -2.3248  0.1884
 6187SOL    HW230198   0.618   1.636   4.613 -0.2880 -0.4450  1.5131
 6188SOL     OW30199   1.206   2.620  16.388 -0.0057  0.3514 -0.1230
 6188SOL    HW130200   1.195   2.525  16.380 -0.8517  0.3328  1.3133
 6188SOL    HW230201   1.208   2.644  16.480 -0.5453 -0.8192  0.1868
 6189SOL     OW30202   2.430   1.618  14.485  0.4152  0.1004  0.2494
 6189SOL    HW130203   2.488   1.616  14.560  0.2266 -0.4042  0.3788
 6189SOL    HW230204   2.452   1.538  14.438 -1.5928 -0.2385 -0.1134
 6190SOL     OW30205   3.382   2.807  15.551  0.6077  0.2897  0.3383
 6190SOL    HW130206   3.287   2.816  15.561  0.9375  2.1518  1.6689
 6190SOL    HW230207   3.408   2.814  15.643  0.8268  0.8133  0.2388
 6191SOL     OW30208   1.682   3.828   8.193 -0.1600 -0.1714  0.0426
 6191SOL    HW130209   1.757   3.769   8.193  0.4490  0.6310  3.4858
 6191SOL    HW230210   1.684   3.858   8.102 -2.7871 -0.6647 -0.1743
 6192SOL     OW30211   3.734   4.199  14.883  0.0286 -0.3245  0.2297
 6192SOL    HW130212   3.729   4.268  14.949  0.3466  1.3292 -1.4683
 6192SOL    HW230213   3.722   4.125  14.941 -1.0245  0.0385  0.4769
 6193SOL     OW30214   2.002   1.306   8.792  0.5030 -0.7302  0.0512
 6193SOL    HW130215   2.026   1.311   8.884 -0.6944  2.0429  0.2216
 6193SOL    HW230216   1.980   1.213   8.797 -0.0394 -0.5589  0.7642
 6194SOL     OW30217   2.599   1.027  10.660  0.1250  0.0657  0.1314
 6194SOL    HW130218   2.510   1.058  10.676  0.7496  2.2325 -0.6423
 6194SOL    HW230219   2.622   1.014  10.752 -1.2227 -1.5902  0.2225
 6195SOL     OW30220   0.147   0.528   7.592  0.6347  0.3419  0.4679
 6195SOL    HW130221   0.240   0.510   7.601  0.3644 -1.1996  0.1927
 6195SOL    HW230222   0.150   0.594   7.523  1.6416  0.4301  0.5907
 6196SOL     OW30223   3.153   3.053   5.212  1.2125  0.2239 -0.0748
 6196SOL    HW130224   3.128   3.086   5.298 -1.5699  1.6134 -1.4151
 6196SOL    HW230225   3.127   3.130   5.161 -0.0390  1.0390  1.8125
 6197SOL     OW30226   1.401   0.787  17.739 -0.2416 -0.1466  0.0530
 6197SOL    HW130227   1.325   0.775   0.055  0.6805  2.5401  1.8075
 6197SOL    HW230228   1.473   0.744   0.042  0.5157 -0.3965 -1.3875
 6198SOL     OW30229   4.583   2.997   4.016 -0.0149 -0.4285  0.3442
 6198SOL    HW130230   4.575   3.011   3.922  0.2911  0.8414  0.5033
 6198SOL    HW230231   4.646   3.067   4.037  0.0312 -0.1954 -0.5704
 6199SOL     OW30232   0.408   1.706   3.128 -0.0316  0.3710 -0.6020
 6199SOL    HW130233   0.496   1.691   3.094 -0.4317  0.2954 -1.6060
 6199SOL    HW230234   0.361   1.675   3.050 -0.0693  1.5141 -1.0384
 6200SOL     OW30235   4.587   4.153   0.750  0.5060 -0.2299  0.1248
 6200SOL    HW130236   4.572   4.130   0.842 -0.5799 -0.7766 -0.1940
 6200SOL    HW230237   4.682   4.145   0.745  0.8025  2.5064  1.4633
 6201SOL     OW30238   1.910   4.703   8.518  0.3144  0.1191 -0.2544
 6201SOL    HW130239   1.939   4.708   8.609 -0.2823 -0.3878 -0.0354
 6201SOL    HW230240   1.990   4.671   8.477 -0.4709 -0.4002 -1.3992
 6202SOL     OW30241   3.678   0.282   3.531 -0.2129  0.1236 -0.4942
 6202SOL    HW130242   3.697   0.310   3.442  3.9156  3.2498  1.3558
 6202SOL    HW230243   3.625   0.354   3.566 -0.0272  0.5002 -0.9909
 6203SOL     OW30244   1.006   2.974   5.408  0.0219  0.3054  0.2875
 6203SOL    HW130245   1.076   2.953   5.346 -2.0951 -2.3417 -1.1735
 6203SOL    HW230246   0.981   3.053   5.360  2.7789  0.5118 -0.8094
 6204SOL     OW30247   1.651   2.230   2.210 -0.2628 -0.0399 -0.1674
 6204SOL    HW130248   1.730   2.205   2.161  0.9214 -0.3458  1.9227
 6204SOL    HW230249   1.625   2.311   2.166 -1.2557 -0.2780 -0.0156
 6205SOL     OW30250   4.355   2.943  15.886  0.1912 -0.2818  0.4990
 6205SOL    HW130251   4.289   2.920  15.951 -0.6409 -1.6259 -0.8109
 6205SOL    HW230252   4.433   2.896  15.917  0.1023 -0.2057  0.8377
 6206SOL     OW30253   1.625   0.420   7.624 -0.0564 -0.0935  0.2916
 6206SOL    HW130254   1.710   0.397   7.660 -0.8464 -2.1681  0.8431
 6206SOL    HW230255   1.624   0.358   7.552  0.0408  0.9036 -0.5621
 6207SOL     OW30256   2.763   0.526  10.062 -0.5083  0.8154  0.3649
 6207SOL    HW130257   2.778   0.571   9.979 -0.8127 -0.9057 -0.6219
 6207SOL    HW230258   2.833   0.572  10.108 -0.7549 -0.8499  2.4051
 6208SOL     OW30259   0.318   1.125   3.912  0.8340 -0.0526 -0.5840
 6208SOL    HW130260   0.334   1.092   4.001  2.3865 -0.7316 -1.1081
 6208SOL    HW230261   0.285   1.044   3.873  1.2848 -0.8461  0.6689
 6209SOL     OW30262   1.159   2.456   3.179 -0.0115 -0.0717  0.0392
 6209SOL    HW130263   1.239   2.509   3.168  2.3874 -3.8802 -0.7955
 6209SOL    HW230264   1.093   2.524   3.170 -0.7996 -0.9837 -1.0167
 6210SOL     OW30265   3.586   2.671   6.455  0.1778  0.3547 -0.9534
 6210SOL    HW130266   3.503   2.633   6.425  0.3826 -0.9274  0.0919
 6210SOL    HW230267   3.568   2.690   6.547 -0.2306 -2.5601 -0.4491
 6211SOL     OW30268   3.995   3.419  11.853 -0.4050  0.1517 -0.4508
 6211SOL    HW130269   4.001   3.364  11.775  0.9538  1.6111 -1.3914
 6211SOL    HW230270   4.033   3.503  11.826 -0.4586 -0.0233 -1.0688
 6212SOL     OW30271   0.684   0.534   7.294  0.2012  0.0769  0.1780
 6212SOL    HW130272   0.752   0.584   7.339 -0.1498 -1.0673  1.9442
 6212SOL    HW230273   0.727   0.449   7.292 -0.4025 -0.1880 -2.9280
 6213SOL     OW30274   3.039   2.471  17.083  0.3457 -0.5044  0.2463
 6213SOL    HW130275   3.112   2.450  17.025  0.4539  0.2848  0.0975
 6213SOL    HW230276   3.024   2.565  17.070  1.1316 -0.7487 -2.4204
 6214SOL     OW30277   3.840   3.242   0.884  0.0233  0.0694 -0.2633
 6214SOL    HW130278   3.773   3.180   0.857 -1.2820  1.1141  0.5913
 6214SOL    HW230279   3.862   3.289   0.803  0.0329  0.8893  0.2103
 6215SOL     OW30280   3.051   4.557   0.654 -0.4492 -0.1999  0.0847
 6215SOL    HW130281   3.112   4.484   0.657  0.6963  0.6091 -3.0917
 6215SOL    HW230282   2.997   4.532   0.729 -0.1393  0.9159  0.6863
 6216SOL     OW30283   4.686   3.497  11.432 -0.7188  0.0092 -0.0031
 6216SOL    HW130284   4.609   3.511  11.487 -0.2985 -0.2478  0.6558
 6216SOL    HW230285   4.735   3.424  11.471  0.1414 -0.0868 -1.2574
 6217SOL     OW30286   1.221   4.424   2.051  0.1439 -0.2741  0.0863
 6217SOL    HW130287   1.218   4.349   1.991  0.2825  0.4354 -0.8136
 6217SOL    HW230288   1.150   4.478   2.014  1.9354 -0.1517 -3.1588
 6218SOL     OW30289   1.150   0.519   5.671 -0.2971  0.5140  0.1575
 6218SOL    HW130290   1.084   0.579   5.704 -2.5073 -0.3098 -2.6890
 6218SOL    HW230291   1.120   0.442   5.720 -3.6101  1.1554 -0.8600
 6219SOL     OW30292   4.266   3.656   9.012  0.0634 -0.6344  0.7744
 6219SOL    HW130293   4.231   3.737   9.047 -2.0355 -1.3690  0.3308
 6219SOL    HW230294   4.300   3.609   9.088  2.0626 -0.4405  0.0302
 6220SOL     OW30295   1.162   1.673   1.933  0.1103  0.0872 -0.0636
 6220SOL    HW130296   1.152   1.755   1.981 -3.0719 -0.2868 -0.0982
 6220SOL    HW230297   1.130   1.612   2.000  0.5146  2.0598  1.9378
 6221SOL     OW30298   0.090   2.236   3.180  0.0301  0.7288  0.0814
 6221SOL    HW130299   0.162   2.252   3.118  0.0900  0.7099  0.1452
 6221SOL    HW230300   0.110   2.308   3.239  2.8928 -1.0438  1.3250
 6222SOL     OW30301   0.726   2.853  10.019  0.1799  0.0092  0.2186
 6222SOL    HW130302   0.791   2.783  10.005 -0.5570 -0.4209 -1.0499
 6222SOL    HW230303   0.747   2.898   9.937  1.9006  0.5955  0.9835
 6223SOL     OW30304   3.766   2.475   3.415  0.7285  0.1172 -0.5256
 6223SOL    HW130305   3.683   2.519   3.398 -0.2200 -2.3972 -2.2593
 6223SOL    HW230306   3.749   2.390   3.375 -1.0202 -0.5307  1.5445
 6224SOL     OW30307   2.418   3.094  12.771 -0.8293  0.0290 -0.0256
 6224SOL    HW130308   2.508   3.083  12.739 -2.1641 -2.2549 -2.9307
 6224SOL    HW230309   2.365   3.038  12.715  0.1327 -0.5455 -0.3611
 6225SOL     OW30310   0.773   4.015  12.742 -0.0023  0.4002  0.3270
 6225SOL    HW130311   0.719   3.951  12.697  0.6755  0.4461 -0.5462
 6225SOL    HW230312   0.717   4.015  12.820  0.2196  0.9937  0.4861
 6226SOL     OW30313   1.050   1.772   9.224 -0.0221 -0.0736 -0.2689
 6226SOL    HW130314   1.117   1.728   9.171  0.3165 -2.8396  2.5089
 6226SOL    HW230315   1.022   1.700   9.281  1.2601 -0.3394  0.0117
 6227SOL     OW30316   0.525   3.777  15.438 -0.0689  0.7590 -0.5580
 6227SOL    HW130317   0.486   3.863  15.455  0.9496  0.6329  2.4227
 6227SOL    HW230318   0.458   3.709  15.433  1.7033 -0.8566 -2.0360
 6228SOL     OW30319   0.313   4.491  14.952  0.1228 -0.1081 -0.2571
 6228SOL    HW130320   0.386   4.429  14.957  0.7107  0.6345  0.4121
 6228SOL    HW230321   0.288   4.496  15.044  0.5081 -0.1855 -0.1484
 6229SOL     OW30322   3.899   2.742   8.353  0.2615  0.1380  0.2825
 6229SOL    HW130323   3.816   2.789   8.348 -0.4280 -0.8589  2.0076
 6229SOL    HW230324   3.908   2.725   8.259  1.5010  2.6190 -0.0266
 6230SOL     OW30325   2.680   4.509   3.149 -0.0233  0.0141 -0.1251
 6230SOL    HW130326   2.589   4.511   3.121 -0.0818 -1.3132 -0.0568
 6230SOL    HW230327   2.723   4.477   3.069  0.4107  0.4661 -0.0665
 6231SOL     OW30328   2.515   0.556   4.886  0.4496 -0.2492 -0.5243
 6231SOL    HW130329   2.500   0.516   4.972  1.2030 -0.2699 -0.3961
 6231SOL    HW230330   2.428   0.546   4.849  0.6433  0.7038 -1.2226
 6232SOL     OW30331   2.680   1.415   6.285  0.1939 -0.5467  0.0987
 6232SOL    HW130332   2.651   1.431   6.195 -0.8839 -0.8395  0.3936
 6232SOL    HW230333   2.771   1.399   6.259  0.6740  2.1940  0.0467
 6233SOL     OW30334   1.350   3.928  13.981 -0.7881 -0.0514  0.2126
 6233SOL    HW130335   1.376   3.905  14.070 -0.0434 -1.0930 -0.2756
 6233SOL    HW230336   1.431   3.912  13.932  0.5143  3.2888  1.2119
 6234SOL     OW30337   0.074   2.214   0.790  0.3594  0.2393 -0.8969
 6234SOL    HW130338   0.048   2.305   0.779 -0.2793  0.2471  0.7002
 6234SOL    HW230339   0.020   2.192   0.866 -1.0883 -0.5120 -2.1228
 6235SOL     OW30340   1.600   3.624   5.011  0.7942 -0.3349  0.0260
 6235SOL    HW130341   1.529   3.682   5.039 -0.0616 -1.0659 -0.6469
 6235SOL    HW230342   1.602   3.555   5.078 -0.1195 -0.8829 -0.4943
 6236SOL     OW30343   2.590   4.159   5.753  0.5192 -0.0581  0.0214
 6236SOL    HW130344   2.657   4.103   5.714 -0.9612 -0.2689 -2.1952
 6236SOL    HW230345   2.634   4.169   5.837 -0.2802  0.2411  0.4014
 6237SOL     OW30346   1.117   3.884   8.574  0.3819 -0.0103 -0.1831
 6237SOL    HW130347   1.129   3.803   8.525  3.9367 -0.6219  1.7359
 6237SOL    HW230348   1.161   3.853   8.653 -0.3657 -0.3276  0.1185
 6238SOL     OW30349   2.342   0.223   5.111 -0.0193  0.2401 -0.9342
 6238SOL    HW130350   2.423   0.274   5.119  0.3251 -0.6314  1.1128
 6238SOL    HW230351   2.295   0.282   5.053 -1.7353  0.1852  0.4229
 6239SOL     OW30352   3.848   4.178   6.131  0.0499 -0.8285 -0.3822
 6239SOL    HW130353   3.932   4.212   6.100 -1.3208  1.5065 -1.5594
 6239SOL    HW230354   3.875   4.114   6.197  0.4729  0.1535  0.3998
 6240SOL     OW30355   3.569   0.571   3.566 -0.1183  1.0232  0.4349
 6240SOL    HW130356   3.512   0.605   3.496  1.8767  0.9320 -1.2351
 6240SOL    HW230357   3.628   0.643   3.584 -1.0119  1.6896  0.6960
 6241SOL     OW30358   0.808   2.616  12.701 -0.4176 -0.0724 -0.2563
 6241SOL    HW130359   0.800   2.588  12.793 -0.5794 -0.9975 -0.5521
 6241SOL    HW230360   0.890   2.570  12.682 -1.7365 -1.9004 -1.5326
 6242SOL     OW30361   1.179   2.674   2.156  0.1443 -0.3245 -0.4446
 6242SOL    HW130362   1.185   2.602   2.219 -2.0747 -0.5809 -0.4971
 6242SOL    HW230363   1.220   2.740   2.211  0.7066  1.1689 -2.6597
 6243SOL     OW30364   3.882   3.696  11.201  0.3138 -0.0622 -0.1090
 6243SOL    HW130365   3.927   3.664  11.123  0.0327 -0.7681  0.0250
 6243SOL    HW230366   3.831   3.621  11.230 -1.8685  1.2411 -0.5500
 6244SOL     OW30367   4.212   1.188   4.541  0.8056 -0.3116 -0.5677
 6244SOL    HW130368   4.148   1.151   4.602 -1.1319  2.0797 -1.1162
 6244SOL    HW230369   4.298   1.154   4.566  0.0025 -1.4066  0.6827
 6245SOL     OW30370   4.333   2.379   5.063  0.1192  0.1716  0.6214
 6245SOL    HW130371   4.392   2.347   4.995 -1.4729 -1.7232  0.1583
 6245SOL    HW230372   4.254   2.392   5.011  1.4236 -1.4187 -1.7283
 6246SOL     OW30373   3.462   2.224  14.998 -0.1343  1.0191  0.4115
 6246SOL    HW130374   3.443   2.255  14.910  0.9519 -0.3560 -0.3031
 6246SOL    HW230375   3.520   2.295  15.028  0.2783  0.4987  0.8502
 6247SOL     OW30376   1.588   0.726  12.708 -0.1854  0.3469 -0.2503
 6247SOL    HW130377   1.673   0.694  12.739 -0.8005 -1.3576 -0.3505
 6247SOL    HW230378   1.527   0.660  12.740  2.0222 -2.2752 -1.4453
 6248SOL     OW30379   1.068   3.185   1.840 -0.5062  0.1486  0.7869
 6248SOL    HW130380   1.063   3.107   1.895 -3.6536  0.3411  0.7699
 6248SOL    HW230381   1.022   3.252   1.890  2.3648  2.9779 -0.3774
 6249SOL     OW30382   4.405   0.422  17.344  0.5890 -0.1384  0.0336
 6249SOL    HW130383   4.402   0.330  17.372  0.5120 -0.2466 -0.3363
 6249SOL    HW230384   4.461   0.418  17.267 -0.0013 -0.7770 -0.3613
 6250SOL     OW30385   1.680   2.972   7.082 -0.1479 -0.7357 -0.2895
 6250SOL    HW130386   1.701   2.995   6.991  1.6905  1.1319  0.6360
 6250SOL    HW230387   1.585   2.983   7.086 -0.2644 -1.4990 -0.7667
 6251SOL     OW30388   0.049   2.772   6.143 -0.0289  0.5415  0.1585
 6251SOL    HW130389   0.015   2.788   6.232  1.0858  0.7434  0.5421
 6251SOL    HW230390   0.079   2.860   6.121  0.3231  0.2997 -0.3020
 6252SOL     OW30391   2.722   2.719   1.064  0.4945 -0.6426 -0.5528
 6252SOL    HW130392   2.781   2.669   1.120 -1.1453 -1.2629  0.6035
 6252SOL    HW230393   2.759   2.803   1.091  0.8424 -0.2970 -2.0595
 6253SOL     OW30394   2.687   0.278   4.389 -0.4313  0.1315  0.2418
 6253SOL    HW130395   2.730   0.197   4.363  0.3151  0.6478 -0.1383
 6253SOL    HW230396   2.711   0.312   4.303  1.8066  1.8072  1.5393
 6254SOL     OW30397   4.160   1.341   2.718 -0.3653 -0.3259  0.0915
 6254SOL    HW130398   4.173   1.301   2.632  0.6664  1.3275 -0.5213
 6254SOL    HW230399   4.248   1.333   2.755 -0.6716 -0.7676  0.7366
 6255SOL     OW30400   1.807   0.245   2.779 -0.0115  0.3607  0.0509
 6255SOL    HW130401   1.794   0.313   2.844 -2.3480  0.0188 -0.0671
 6255SOL    HW230402   1.871   0.286   2.721 -2.4243 -0.1548 -3.0106
 6256SOL     OW30403   2.310   0.644   2.445  0.2584  0.2636 -0.1439
 6256SOL    HW130404   2.391   0.692   2.425  0.4776 -0.9338 -2.1205
 6256SOL    HW230405   2.265   0.689   2.374 -0.8480  1.5252  1.3554
 6257SOL     OW30406   0.813   0.420  14.406  0.0161  0.1326 -0.2056
 6257SOL    HW130407   0.811   0.447  14.314 -0.4359  1.4461  0.1905
 6257SOL    HW230408   0.747   0.351  14.399 -0.2602  0.3987 -0.2402
 6258SOL     OW30409   3.526   3.338   4.398  0.3115 -0.2776  0.2815
 6258SOL    HW130410   3.461   3.280   4.359  0.2738  1.8654 -2.9105
 6258SOL    HW230411   3.596   3.276   4.418  0.3727 -0.1913  0.3337
 6259SOL     OW30412   1.260   1.498   4.445  0.2515 -0.2109 -0.1687
 6259SOL    HW130413   1.316   1.443   4.390 -1.4020 -1.3340 -0.7203
 6259SOL    HW230414   1.241   1.431   4.511 -0.6651  1.3398  1.1380
 6260SOL     OW30415   0.105   0.639   5.382 -0.5768  0.7638 -0.1802
 6260SOL    HW130416   0.181   0.595   5.420 -0.9112  2.5490  2.5412
 6260SOL    HW230417   0.042   0.628   5.454 -0.8823 -0.0427 -0.5791
 6261SOL     OW30418   3.224   3.589   7.141  0.2709 -0.1883  0.2335
 6261SOL    HW130419   3.239   3.652   7.070 -0.5815  0.6123  0.7769
 6261SOL    HW230420   3.129   3.587   7.136  0.3253 -0.5813 -0.6179
 6262SOL     OW30421   1.206   1.692   6.065 -0.2586 -0.3559  0.6148
 6262SOL    HW130422   1.293   1.715   6.098  0.1796 -0.1877 -0.6516
 6262SOL    HW230423   1.188   1.605   6.103 -0.6110 -1.1578 -1.3977
 6263SOL     OW30424   1.064   0.409  10.153 -0.5083 -0.8734  0.6790
 6263SOL    HW130425   1.126   0.477  10.126 -2.7282  0.7950 -0.2900
 6263SOL    HW230426   0.979   0.449  10.133  0.1983  0.7850  1.0591
 6264SOL     OW30427   2.616   0.304  10.964  0.2665 -0.3019  0.0640
 6264SOL    HW130428   2.568   0.336  11.041  0.8702 -0.6327  0.5709
 6264SOL    HW230429   2.705   0.330  10.986 -0.2514  1.0699  0.6029
 6265SOL     OW30430   2.617   3.548   7.284 -0.6251  0.2161  0.1066
 6265SOL    HW130431   2.635   3.565   7.192  1.4435  0.6175  0.5787
 6265SOL    HW230432   2.667   3.466   7.281  1.5783  1.4794  1.7705
 6266SOL     OW30433   0.487   0.618   3.548 -0.6340  0.3992 -0.0168
 6266SOL    HW130434   0.503   0.638   3.640  0.4414 -0.2681 -0.0636
 6266SOL    HW230435   0.395   0.591   3.549 -0.3752 -0.3791  3.5123
 6267SOL     OW30436   4.563   3.828   6.343  0.1172 -0.2975 -0.2686
 6267SOL    HW130437   4.555   3.825   6.438 -0.4885 -2.1480 -0.3743
 6267SOL    HW230438   4.642   3.775   6.337  2.1900  2.7159  0.6203
 6268SOL     OW30439   2.751   1.543   5.344 -0.0836  0.0910 -0.3163
 6268SOL    HW130440   2.657   1.528   5.331  0.1799 -0.9002 -1.0893
 6268SOL    HW230441   2.781   1.516   5.257  2.7734  1.5048  0.2402
 6269SOL     OW30442   3.149   0.621   2.328 -0.0917  0.5558  0.2160
 6269SOL    HW130443   3.221   0.561   2.305 -0.1200  0.3464  0.6823
 6269SOL    HW230444   3.173   0.640   2.419  2.6399  3.9819 -1.2154
 6270SOL     OW30445   2.290   2.295   7.729 -0.5122  0.1452  0.3297
 6270SOL    HW130446   2.342   2.348   7.789  0.6863 -3.3549  2.3741
 6270SOL    HW230447   2.323   2.206   7.737 -0.4640 -0.0995 -2.5292
 6271SOL     OW30448   1.220   2.005   4.518  0.0427 -0.3415  0.7684
 6271SOL    HW130449   1.234   1.996   4.613 -1.8912  1.8076  1.2552
 6271SOL    HW230450   1.230   1.917   4.482  0.7608 -0.3372  0.9733
 6272SOL     OW30451   0.341   4.415  13.815  0.3348  0.2088  0.6397
 6272SOL    HW130452   0.299   4.331  13.836 -1.8488  0.6331 -1.9129
 6272SOL    HW230453   0.277   4.468  13.863 -4.1516 -2.3807 -2.3870
 6273SOL     OW30454   2.015   2.378  12.940 -0.1387 -0.3734  0.8499
 6273SOL    HW130455   1.935   2.339  12.976 -0.2095 -0.0028  1.0866
 6273SOL    HW230456   2.057   2.426  13.011  1.3423  0.8612 -0.8460
 6274SOL     OW30457   2.752   4.043   3.786  0.4498  0.8469  0.0141
 6274SOL    HW130458   2.795   4.096   3.853 -0.1866  2.0161 -0.4941
 6274SOL    HW230459   2.708   4.115   3.739  2.3089  0.1486 -2.8313
 6275SOL     OW30460   3.746   0.907   4.828  0.4223  0.0235  0.6828
 6275SOL    HW130461   3.672   0.863   4.870  0.1084  0.9539  1.0889
 6275SOL    HW230462   3.722   0.915   4.736  1.1399 -2.1707  0.3063
 6276SOL     OW30463   3.161   2.979  13.556  0.2523  0.2142  0.8357
 6276SOL    HW130464   3.085   2.923  13.571 -0.6486  0.7434 -1.7688
 6276SOL    HW230465   3.238   2.926  13.573 -0.4559 -1.0692  0.0317
 6277SOL     OW30466   0.591   3.450   1.008 -0.9760  0.1007 -0.7113
 6277SOL    HW130467   0.619   3.494   1.088 -0.6366 -2.3613  0.5144
 6277SOL    HW230468   0.676   3.416   0.978 -1.5933 -0.7807 -1.4626
 6278SOL     OW30469   3.408   2.362   5.831  0.3214  0.0064  0.9125
 6278SOL    HW130470   3.437   2.410   5.753 -0.2283 -2.8944 -1.1071
 6278SOL    HW230471   3.408   2.436   5.891  0.8848 -0.3050  1.2973
 6279SOL     OW30472   3.821   0.683  15.095 -0.3369  0.0914  0.2192
 6279SOL    HW130473   3.901   0.635  15.118  0.6390  1.6058 -0.0163
 6279SOL    HW230474   3.792   0.714  15.181  1.8141  2.7200  0.0122
 6280SOL     OW30475   4.423   1.885  13.907  0.3295  0.6627  0.0463
 6280SOL    HW130476   4.511   1.890  13.943  0.5090 -3.0426  0.0700
 6280SOL    HW230477   4.433   1.840  13.823  0.1673  0.8662 -0.0845
 6281SOL     OW30478   2.345   2.746   4.477  0.0445 -0.5823 -0.0230
 6281SOL    HW130479   2.408   2.801   4.430  0.4122  1.0769  2.3715
 6281SOL    HW230480   2.324   2.803   4.551  0.2495 -1.1211  0.4527
 6282SOL     OW30481   1.121   0.377   4.664 -0.0191  0.1101  0.2315
 6282SOL    HW130482   1.196   0.426   4.699  0.3203  0.1245 -0.5222
 6282SOL    HW230483   1.060   0.449   4.649 -0.0813  0.4106  1.8504
 6283SOL     OW30484   0.694   3.655   4.225  0.3476 -0.5936  0.1063
 6283SOL    HW130485   0.738   3.654   4.140 -2.0499 -0.4890 -1.1359
 6283SOL    HW230486   0.607   3.680   4.192 -0.8253  1.9909  5.1761
 6284SOL     OW30487   3.727   3.714  10.292  0.2431 -0.1366  0.4656
 6284SOL    HW130488   3.715   3.620  10.275 -0.5630  0.5344 -2.7048
 6284SOL    HW230489   3.636   3.742  10.300 -0.7356 -2.4569 -2.2940
 6285SOL     OW30490   0.419   3.268  14.591 -0.1812 -0.0498  0.4436
 6285SOL    HW130491   0.465   3.206  14.647 -0.2137 -1.0645 -0.6618
 6285SOL    HW230492   0.386   3.212  14.520 -0.5622 -0.3799  0.8809
 6286SOL     OW30493   4.326   0.371  15.107  0.6155 -0.0662 -0.2820
 6286SOL    HW130494   4.261   0.434  15.137  1.4070 -0.1199  1.5262
 6286SOL    HW230495   4.360   0.416  15.030 -0.6540  1.3694  0.0025
 6287SOL     OW30496   0.962   1.790   4.988  0.0647 -0.0453  0.2791
 6287SOL    HW130497   0.901   1.819   5.055  0.9802 -0.2083  1.1758
 6287SOL    HW230498   0.898   1.748   4.930 -3.1934  3.1617  1.5502
 6288SOL     OW30499   1.780   1.293   7.184  0.3806  0.4880 -0.1278
 6288SOL    HW130500   1.701   1.268   7.232  1.7268 -2.8161  0.3708
 6288SOL    HW230501   1.822   1.330   7.261  1.2123 -0.8925  0.0628
 6289SOL     OW30502   3.173   2.050   9.163  0.4655 -0.1393  0.2902
 6289SOL    HW130503   3.138   2.012   9.082 -2.5186  1.3901  0.8953
 6289SOL    HW230504   3.262   2.062   9.129  0.4978  0.2793  0.5317
 6290SOL     OW30505   2.213   1.040   2.500  0.3720  0.0473 -0.2809
 6290SOL    HW130506   2.234   0.966   2.443  1.1231  0.1383 -0.1284
 6290SOL    HW230507   2.289   1.050   2.557 -0.4921 -0.0223  0.8835
 6291SOL     OW30508   2.986   0.658  10.168 -0.1189 -0.3468  0.2969
 6291SOL    HW130509   2.969   0.651  10.262 -0.4408  0.0235  0.2627
 6291SOL    HW230510   3.031   0.742  10.159 -0.7063 -0.2730 -2.0090
 6292SOL     OW30511   1.311   1.783   0.433  0.7082  0.0052 -0.7152
 6292SOL    HW130512   1.330   1.788   0.339  0.6942  2.9183 -0.5351
 6292SOL    HW230513   1.328   1.874   0.454 -0.1056 -0.2673  1.1345
 6293SOL     OW30514   1.640   4.218  14.671  0.8751 -0.4017 -0.2730
 6293SOL    HW130515   1.637   4.130  14.710 -2.0427 -0.5193 -0.7597
 6293SOL    HW230516   1.595   4.198  14.589  1.1769  1.1456 -0.8034
 6294SOL     OW30517   2.876   0.930  16.454 -0.6609 -0.0989  0.2267
 6294SOL    HW130518   2.908   1.005  16.504 -1.0066 -1.1536  2.0613
 6294SOL    HW230519   2.793   0.957  16.415 -1.2312 -1.5087  0.4613
 6295SOL     OW30520   4.393   1.517   2.876 -0.0417 -0.2716 -0.2547
 6295SOL    HW130521   4.355   1.449   2.932 -2.2512  2.8517  2.0905
 6295SOL    HW230522   4.411   1.461   2.801 -0.3482  0.7201 -1.0703
 6296SOL     OW30523   2.770   3.328   7.229 -0.1230  0.4569  0.0768
 6296SOL    HW130524   2.727   3.248   7.260  0.0793  1.5072  3.0540
 6296SOL    HW230525   2.853   3.314   7.274 -0.1137 -1.2371 -0.4596
 6297SOL     OW30526   4.169   3.633  14.252 -0.4051 -0.0983 -0.0843
 6297SOL    HW130527   4.227   3.561  14.274  1.1072  1.3766  0.7982
 6297SOL    HW230528   4.144   3.608  14.163  2.3547 -1.8339 -0.3831
 6298SOL     OW30529   4.255   3.819   6.511  0.5777 -0.3882 -0.6011
 6298SOL    HW130530   4.308   3.745   6.482  0.7860 -0.1596 -0.8090
 6298SOL    HW230531   4.228   3.860   6.428  0.8562 -1.2232 -1.1018
 6299SOL     OW30532   0.779   4.358   7.964 -0.3291  0.3755  0.3113
 6299SOL    HW130533   0.694   4.362   8.007 -0.1977  0.3549  0.5725
 6299SOL    HW230534   0.798   4.268   7.987  0.9314  0.6606  0.3843
 6300SOL     OW30535   2.934   2.586  11.417 -0.4675  0.0898 -0.1447
 6300SOL    HW130536   2.873   2.527  11.461  0.2184 -0.4534  0.0701
 6300SOL    HW230537   2.872   2.651  11.383 -0.4581 -0.7263 -1.7002
 6301SOL     OW30538   2.220   4.188  14.011 -0.7273 -0.4743  0.3279
 6301SOL    HW130539   2.259   4.165  13.927 -0.3335 -1.8590  0.8968
 6301SOL    HW230540   2.145   4.132  13.990 -1.0495 -0.3392  1.1277
 6302SOL     OW30541   2.402   4.385   9.189  0.6823 -0.3489 -0.0633
 6302SOL    HW130542   2.441   4.445   9.253  2.3162 -2.9773  1.3891
 6302SOL    HW230543   2.451   4.304   9.203  1.0293  0.5772  4.1161
 6303SOL     OW30544   0.328   1.901   9.998  0.0447  0.7101  0.4477
 6303SOL    HW130545   0.257   1.964  10.008  0.8614  1.5676  0.8512
 6303SOL    HW230546   0.335   1.852  10.080 -0.1984  1.3781  0.8608
 6304SOL     OW30547   2.966   2.784   0.757 -0.5198  0.3433 -0.2198
 6304SOL    HW130548   2.973   2.865   0.808 -1.5605  0.9080 -0.9516
 6304SOL    HW230549   2.873   2.761   0.766 -0.9661  1.2340 -2.4522
 6305SOL     OW30550   1.968   3.368   6.459  0.3613  0.3450  0.0071
 6305SOL    HW130551   2.002   3.433   6.520  1.0679  0.0071 -0.0212
 6305SOL    HW230552   1.996   3.281   6.490 -0.0815  0.9897  2.1914
 6306SOL     OW30553   3.278   3.306  16.042  0.6120  0.4698  0.0772
 6306SOL    HW130554   3.362   3.265  16.062 -0.2475 -1.4413 -0.1839
 6306SOL    HW230555   3.230   3.243  15.987 -0.0679 -0.5553  1.8372
 6307SOL     OW30556   4.724   3.239  15.391 -0.5136  0.0727 -0.5303
 6307SOL    HW130557   4.637   3.198  15.392 -0.0762 -0.8226  1.4321
 6307SOL    HW230558   4.696   3.316  15.440  0.3744 -1.0840  1.7894
 6308SOL     OW30559   1.765   2.555   8.910  0.1758 -0.1675  0.3077
 6308SOL    HW130560   1.712   2.635   8.914 -0.9059 -0.8664 -0.1817
 6308SOL    HW230561   1.736   2.521   8.826 -1.4638  2.7614 -0.3184
 6309SOL     OW30562   1.171   3.652  16.321 -0.3535 -1.3570 -0.3084
 6309SOL    HW130563   1.086   3.629  16.283  0.6165 -1.2433 -2.5502
 6309SOL    HW230564   1.210   3.565  16.333  0.9322 -0.7532 -0.0887
 6310SOL     OW30565   1.855   4.597   5.589  0.4480 -0.2296  0.2932
 6310SOL    HW130566   1.808   4.631   5.665 -1.3495 -1.6939 -0.1549
 6310SOL    HW230567   1.863   4.681   5.542  2.9540  0.5801  2.2080
 6311SOL     OW30568   3.404   1.480   0.777 -0.0524  0.0998 -0.4649
 6311SOL    HW130569   3.434   1.486   0.868  0.1523  3.3955 -0.7719
 6311SOL    HW230570   3.309   1.469   0.786 -0.2094 -0.1995 -2.3523
 6312SOL     OW30571   3.958   4.681   2.139 -0.2284  0.1678  0.2628
 6312SOL    HW130572   4.045   4.674   2.178 -0.4071 -2.3127  0.2236
 6312SOL    HW230573   3.969   0.027   2.090 -0.1997  0.9560  1.5808
 6313SOL     OW30574   2.899   0.240  13.638 -0.1003 -0.3491  0.3650
 6313SOL    HW130575   2.907   0.333  13.617  1.7384 -0.6633 -0.3120
 6313SOL    HW230576   2.809   0.238  13.670 -0.1728  0.7400  0.2358
 6314SOL     OW30577   3.075   3.305   1.257  0.0670  0.0689  0.0582
 6314SOL    HW130578   3.093   3.322   1.165 -1.3175 -0.2757 -0.2815
 6314SOL    HW230579   2.989   3.264   1.249 -1.1009  2.7863 -1.2513
 6315SOL     OW30580   1.434   4.579   4.492  0.0559 -0.0844 -0.4913
 6315SOL    HW130581   1.444   4.507   4.554  1.4194  0.7258  0.2363
 6315SOL    HW230582   1.367   4.634   4.531  1.8847  1.8689 -0.0950
 6316SOL     OW30583   1.767   0.520   7.027 -0.1860 -0.8353 -0.0557
 6316SOL    HW130584   1.678   0.550   7.043 -0.7699 -0.4160 -4.0388
 6316SOL    HW230585   1.822   0.597   7.013 -0.0085 -1.2149 -1.4338
 6317SOL     OW30586   2.538   0.199  12.694  0.1438  0.3899 -0.2154
 6317SOL    HW130587   2.601   0.130  12.675 -0.8499 -0.2475 -1.1935
 6317SOL    HW230588   2.581   0.248  12.764  0.4299  1.1004 -0.8786
 6318SOL     OW30589   2.322   1.781  13.654 -0.1697 -0.2552 -0.4816
 6318SOL    HW130590   2.387   1.759  13.587  1.0717  0.2488  0.5500
 6318SOL    HW230591   2.249   1.804  13.596 -0.6201  1.1860  0.6471
 6319SOL     OW30592   0.097   0.019   5.884 -0.2799  0.1908 -0.0073
 6319SOL    HW130593   0.162   4.692   5.917 -0.5242  0.9648  1.9682
 6319SOL    HW230594   0.045   4.692   5.834 -0.9491 -0.9552  2.1408
 6320SOL     OW30595   0.770   3.716   2.219 -0.6949  0.2843  0.0805
 6320SOL    HW130596   0.734   3.729   2.131  0.0579 -2.3075 -0.6145
 6320SOL    HW230597   0.746   3.797   2.264 -0.7123  0.2593  0.1169
 6321SOL     OW30598   3.668   3.759  11.474  0.6373  0.0884 -0.6219
 6321SOL    HW130599   3.728   3.834  11.466  0.9654 -0.2413 -1.2631
 6321SOL    HW230600   3.664   3.758  11.570  0.4289  0.3513 -0.6270
 6322SOL     OW30601   1.859   3.929   5.069 -0.7788  0.7921  0.3986
 6322SOL    HW130602   1.942   3.936   5.117  0.2348  2.0360 -1.5598
 6322SOL    HW230603   1.838   3.839   5.096 -0.3933  0.6199  0.1128
 6323SOL     OW30604   1.408   4.149   6.788 -0.1395  0.0249 -0.5024
 6323SOL    HW130605   1.375   4.212   6.724  2.3100  1.0014 -0.8016
 6323SOL    HW230606   1.364   4.184   6.865 -0.4211  1.8047 -1.4743
 6324SOL     OW30607   4.221   4.189   6.773 -0.4044 -0.3474  0.3004
 6324SOL    HW130608   4.254   4.100   6.787  1.3264 -0.1536 -2.4815
 6324SOL    HW230609   4.232   4.193   6.678 -2.1846 -0.7383  0.0853
 6325SOL     OW30610   4.442   4.506  15.973  0.0301  0.1526 -0.5089
 6325SOL    HW130611   4.531   4.469  15.971  0.4518  1.1972 -1.0135
 6325SOL    HW230612   4.456   4.600  15.984 -1.6151  0.4106 -0.6368
 6326SOL     OW30613   3.105   2.830   7.966  0.0461  0.3068  0.6477
 6326SOL    HW130614   3.134   2.910   7.922 -0.5680 -0.6460 -1.4472
 6326SOL    HW230615   3.186   2.793   8.002 -0.5046  1.4994  3.1338
 6327SOL     OW30616   1.879   0.699   6.853  0.4096  0.7124 -0.5250
 6327SOL    HW130617   1.820   0.710   6.779  0.6228  2.0686 -0.5034
 6327SOL    HW230618   1.889   0.789   6.886  0.3757  0.6133 -0.2433
 6328SOL     OW30619   0.691   2.951  17.613 -0.1594 -0.4645 -0.4030
 6328SOL    HW130620   0.721   3.042  17.607  2.2323 -1.2943 -1.0034
 6328SOL    HW230621   0.774   2.908  17.633 -1.8514 -3.5230  0.0024
 6329SOL     OW30622   3.515   0.175   6.032 -0.2327  0.2617  0.1502
 6329SOL    HW130623   3.435   0.123   6.035 -0.5470  0.6819 -0.8988
 6329SOL    HW230624   3.525   0.182   5.937 -0.7466 -0.7874  0.0200
 6330SOL     OW30625   4.178   0.007  16.073  0.1939  0.2327  0.3994
 6330SOL    HW130626   4.254   0.001  16.131  1.8588  1.7386 -1.6238
 6330SOL    HW230627   4.122   4.699  16.136 -0.4150 -0.4472 -0.6175
 6331SOL     OW30628   3.460   4.042   4.193  0.0599  0.1495  0.2467
 6331SOL    HW130629   3.499   4.128   4.177  0.2095 -0.1007 -0.7642
 6331SOL    HW230630   3.378   4.058   4.145 -0.4191 -1.5877  0.4810
 6332SOL     OW30631   4.595   1.927   5.889 -0.0498 -0.2736 -0.0901
 6332SOL    HW130632   4.596   1.857   5.954  3.0340  1.1472  1.3878
 6332SOL    HW230633   4.517   1.976   5.912  0.6402  0.0238  1.6058
 6333SOL     OW30634   0.032   3.567   0.204 -0.0194  0.2762 -0.6134
 6333SOL    HW130635   4.686   3.530   0.239  0.9749 -2.0577 -0.7215
 6333SOL    HW230636   0.088   3.500   0.244 -1.2806  1.0302  2.3944
 6334SOL     OW30637   0.930   1.368   6.110  0.0310 -0.9987 -0.5903
 6334SOL    HW130638   0.953   1.329   6.026  0.6209 -0.3637 -0.7217
 6334SOL    HW230639   0.858   1.313   6.141 -0.3570 -0.7930 -1.1365
 6335SOL     OW30640   1.236   4.173   3.067 -0.1777  0.4744 -0.5120
 6335SOL    HW130641   1.149   4.211   3.083 -0.7885 -1.4085  0.6791
 6335SOL    HW230642   1.218   4.079   3.072  0.4202  0.3321 -1.1590
 6336SOL     OW30643   0.471   2.008   7.875 -0.1506  0.3544 -0.3178
 6336SOL    HW130644   0.411   1.938   7.898 -0.7084  0.7918 -0.4375
 6336SOL    HW230645   0.475   2.057   7.957  1.7420 -2.4810  1.2974
 6337SOL     OW30646   0.332   1.064   8.326  0.1537  0.5435  0.6388
 6337SOL    HW130647   0.391   1.097   8.394  0.7190  0.5662  0.1374
 6337SOL    HW230648   0.364   1.106   8.246 -0.5579  2.2659  1.2481
 6338SOL     OW30649   3.792   1.637   4.318  0.2422  0.4780  0.2026
 6338SOL    HW130650   3.733   1.699   4.276 -0.3342  0.3122  0.7669
 6338SOL    HW230651   3.731   1.623   4.391 -0.1707  1.1693 -0.0186
 6339SOL     OW30652   3.283   0.722   7.282  0.0523  0.1871  0.3410
 6339SOL    HW130653   3.297   0.654   7.348  1.3969  0.5670  0.4555
 6339SOL    HW230654   3.292   0.667   7.204  3.7468  1.1474  0.0783
 6340SOL     OW30655   2.444   0.246   9.844  0.0466  0.2665  0.6403
 6340SOL    HW130656   2.401   0.329   9.824  0.4356  0.4995  0.7731
 6340SOL    HW230657   2.477   0.259   9.933 -0.1745  0.9328  0.6261
 6341SOL     OW30658   1.090   0.443  15.318 -0.1387  0.0125  0.3365
 6341SOL    HW130659   1.108   0.489  15.400  0.3550 -0.9283  0.7457
 6341SOL    HW230660   1.135   0.360  15.329 -2.3997 -0.9826  2.1004
 6342SOL     OW30661   2.749   2.573   7.106 -0.2385  0.5280  0.1120
 6342SOL    HW130662   2.724   2.598   7.195 -2.0073 -1.8881  0.3039
 6342SOL    HW230663   2.809   2.502   7.127  3.1630  2.8971 -1.6508
 6343SOL     OW30664   3.260   0.857   9.785 -0.0115 -0.4770 -0.0251
 6343SOL    HW130665   3.199   0.929   9.800  1.5636  0.8192  0.1661
 6343SOL    HW230666   3.227   0.831   9.699 -2.0050  2.6953 -0.2372
 6344SOL     OW30667   3.624   1.106   9.205  0.8663  0.2422 -0.6113
 6344SOL    HW130668   3.534   1.139   9.196  0.0987 -1.5318  0.4833
 6344SOL    HW230669   3.651   1.139   9.290  1.5550  1.1647 -1.1830
 6345SOL     OW30670   0.013   0.421   3.942 -0.5889  0.5255  0.1650
 6345SOL    HW130671   0.054   0.336   3.926 -0.8004 -0.0147  2.4691
 6345SOL    HW230672   4.664   0.396   3.977 -0.1966 -0.3210  0.5172
 6346SOL     OW30673   0.974   0.195  13.675 -0.0176 -0.2567  0.2660
 6346SOL    HW130674   0.988   0.113  13.630  0.0677 -0.7458  1.1736
 6346SOL    HW230675   0.977   0.159  13.764 -0.2878 -1.0919 -0.0726
 6347SOL     OW30676   2.649   2.132   1.928 -0.6296 -0.1228  0.2373
 6347SOL    HW130677   2.741   2.119   1.906 -0.7532 -0.4531 -0.0782
 6347SOL    HW230678   2.636   2.213   1.878 -2.4546  0.2805  1.3467
 6348SOL     OW30679   4.526   3.107   8.220 -0.1756  0.7426  0.2354
 6348SOL    HW130680   4.526   3.064   8.306  1.5256  0.1823 -0.0571
 6348SOL    HW230681   4.465   3.051   8.172  1.7439  0.0419 -1.3405
 6349SOL     OW30682   1.776   0.762  12.033  0.3189 -0.5191 -0.1699
 6349SOL    HW130683   1.853   0.819  12.040  0.7803 -1.0338 -0.9671
 6349SOL    HW230684   1.753   0.749  12.125 -1.1918 -0.5952 -0.5682
 6350SOL     OW30685   4.607   3.102   8.544  0.4181 -0.7919  0.0285
 6350SOL    HW130686   4.667   3.177   8.542 -0.8654  0.2758  2.1494
 6350SOL    HW230687   4.654   3.040   8.599  1.3251  0.4352  0.6294
 6351SOL     OW30688   4.116   0.394   4.838  0.0592  0.7426 -0.1101
 6351SOL    HW130689   4.091   0.319   4.892 -1.0024 -1.3702 -3.5931
 6351SOL    HW230690   4.142   0.347   4.760 -0.7197 -0.7923  0.5616
 6352SOL     OW30691   3.529   4.231  12.916  0.2211 -0.2180 -0.1065
 6352SOL    HW130692   3.538   4.178  12.837 -2.5180 -2.9721  1.4823
 6352SOL    HW230693   3.445   4.276  12.903  0.5567  0.4611  0.0518
 6353SOL     OW30694   1.159   1.018   0.422 -0.2677  0.0042  0.7047
 6353SOL    HW130695   1.249   0.987   0.430 -0.3772 -0.1458  1.3646
 6353SOL    HW230696   1.174   1.102   0.465 -0.7871  0.9006 -0.8658
 6354SOL     OW30697   3.381   2.623   4.796 -0.1725 -0.1007 -0.0279
 6354SOL    HW130698   3.308   2.642   4.736  1.1450  0.3492 -1.4830
 6354SOL    HW230699   3.452   2.624   4.732 -0.2383  2.4529 -0.0639
 6355SOL     OW30700   1.665   0.646   9.816 -0.5135  0.2285 -1.0984
 6355SOL    HW130701   1.706   0.574   9.864 -1.3883  0.3294 -0.1940
 6355SOL    HW230702   1.723   0.715   9.849  0.4118 -0.8368 -0.5067
 6356SOL     OW30703   3.106   0.372   3.864 -0.4562 -0.0201 -0.7074
 6356SOL    HW130704   3.196   0.343   3.875 -0.1379  1.8249  1.5487
 6356SOL    HW230705   3.063   0.291   3.835 -0.1312 -0.3476 -0.2690
 6357SOL     OW30706   3.491   4.475  17.599  0.4294 -0.4653  0.0460
 6357SOL    HW130707   3.477   4.424  17.519 -0.2842 -1.8441  1.0384
 6357SOL    HW230708   3.436   4.429  17.663 -0.0057  0.2984  0.2280
 6358SOL     OW30709   1.954   2.977   7.900  0.2019  0.1792 -0.4325
 6358SOL    HW130710   2.007   2.935   7.967  1.3233 -1.3716 -2.3055
 6358SOL    HW230711   1.938   2.898   7.848  0.2090  1.0693 -1.7965
 6359SOL     OW30712   4.333   2.352   7.862 -0.0811 -0.2168 -0.0736
 6359SOL    HW130713   4.306   2.271   7.819 -0.1132 -2.1046  3.5331
 6359SOL    HW230714   4.278   2.356   7.940 -0.6421  1.2429 -0.5463
 6360SOL     OW30715   3.816   1.524  17.320  0.0837  1.2155 -0.4488
 6360SOL    HW130716   3.824   1.601  17.264 -2.0587  1.6061 -0.2137
 6360SOL    HW230717   3.770   1.565  17.394 -0.5906  1.2557 -0.8917
 6361SOL     OW30718   0.246   0.291   7.845  0.0203 -0.1796  0.9766
 6361SOL    HW130719   0.213   0.206   7.817 -1.3777  1.1928 -1.5288
 6361SOL    HW230720   0.174   0.348   7.822 -0.4756 -1.3932 -0.4958
 6362SOL     OW30721   0.712   3.196   5.657 -0.1300 -0.1021 -0.0166
 6362SOL    HW130722   0.738   3.153   5.739 -0.2336 -1.5404 -0.7395
 6362SOL    HW230723   0.738   3.129   5.593 -1.7392  0.5094 -1.3090
 6363SOL     OW30724   3.703   4.543   2.130 -0.3112 -0.3254 -0.2909
 6363SOL    HW130725   3.727   4.454   2.155  0.0136  0.2123  1.2926
 6363SOL    HW230726   3.785   4.590   2.111  0.4591 -1.3892  0.4558
 6364SOL     OW30727   1.793   3.572  12.521 -0.0971  0.3726 -0.0364
 6364SOL    HW130728   1.745   3.561  12.439  0.4874 -0.4376 -0.2648
 6364SOL    HW230729   1.750   3.642  12.570 -1.0179 -0.3218  0.1645
 6365SOL     OW30730   2.172   3.436   8.093 -0.4033 -0.1084  0.1502
 6365SOL    HW130731   2.153   3.401   8.179  1.2873  0.0740  0.6000
 6365SOL    HW230732   2.175   3.355   8.041  0.0140  0.5715 -0.8854
 6366SOL     OW30733   4.154   2.808  16.053  0.4496  0.1079  0.3263
 6366SOL    HW130734   4.207   2.774  16.125  2.2466 -0.6713 -1.3533
 6366SOL    HW230735   4.144   2.732  15.995 -0.8222  0.9344 -0.5427
 6367SOL     OW30736   0.941   1.888   7.168  0.4928 -0.0828  0.0489
 6367SOL    HW130737   0.897   1.972   7.179  0.3816  0.1383 -2.1412
 6367SOL    HW230738   0.920   1.863   7.078  1.2036  1.7988 -0.6419
 6368SOL     OW30739   3.055   0.028   1.090  0.1343  0.0273  0.4437
 6368SOL    HW130740   3.004   0.110   1.098  1.1238  0.4926  1.9966
 6368SOL    HW230741   3.143   0.066   1.086 -0.0334  0.6357  2.1662
 6369SOL     OW30742   2.286   0.494   4.191 -0.0082  0.2219 -0.0825
 6369SOL    HW130743   2.289   0.491   4.096 -0.0974 -0.5955 -0.0546
 6369SOL    HW230744   2.298   0.400   4.206 -2.3983  0.3011  2.3414
 6370SOL     OW30745   0.366   2.107  14.312  0.1194 -0.1695 -0.2945
 6370SOL    HW130746   0.312   2.042  14.267  2.2372 -2.1574  0.0263
 6370SOL    HW230747   0.448   2.058  14.321  1.1027  1.3719 -0.8243
 6371SOL     OW30748   1.324   0.804   1.391  0.3232  0.5161  0.2694
 6371SOL    HW130749   1.257   0.816   1.324  1.4098  2.2173 -0.5277
 6371SOL    HW230750   1.299   0.719   1.428 -1.0817  1.5286  1.6312
 6372SOL     OW30751   2.914   2.164   4.746  0.0112  0.1083 -0.3699
 6372SOL    HW130752   2.966   2.244   4.752  2.9055 -1.5626 -3.2985
 6372SOL    HW230753   2.834   2.190   4.791 -0.0465 -1.3360  0.3605
 6373SOL     OW30754   2.120   0.532   6.921  0.5281 -0.0855 -0.5420
 6373SOL    HW130755   2.035   0.503   6.887  0.8478 -0.2624 -1.1905
 6373SOL    HW230756   2.182   0.525   6.848  1.0589 -0.8063 -0.0162
 6374SOL     OW30757   4.469   1.022  10.131  0.1715  0.3996  0.2177
 6374SOL    HW130758   4.434   1.017  10.220  1.5289 -0.1134  0.7207
 6374SOL    HW230759   4.487   0.931  10.109  2.1609  0.3495  2.0429
 6375SOL     OW30760   0.013   1.743   5.579 -0.3963  0.6081 -0.2264
 6375SOL    HW130761   0.043   1.683   5.647 -1.2015  0.7921  0.2767
 6375SOL    HW230762   0.019   1.690   5.499 -1.9932  1.3240 -0.8151
 6376SOL     OW30763   4.708   2.771  16.848  0.0599  0.4655  0.5068
 6376SOL    HW130764   0.022   2.690  16.835  0.2385  0.5642  0.5807
 6376SOL    HW230765   0.007   2.802  16.932  2.2299 -2.0077  0.5206
 6377SOL     OW30766   3.176   1.179   1.797  0.0030  0.0565 -0.2038
 6377SOL    HW130767   3.228   1.222   1.730  2.2951 -0.6673  1.0936
 6377SOL    HW230768   3.088   1.152   1.771  0.0757 -0.4740  0.1056
 6378SOL     OW30769   0.120   3.757   6.448 -1.1757  0.0385 -0.2123
 6378SOL    HW130770   0.162   3.828   6.399  0.1053 -1.8998 -1.9202
 6378SOL    HW230771   0.183   3.750   6.520 -2.7843  1.3665  1.2950
 6379SOL     OW30772   4.301   0.620   0.262  0.3013  0.1485 -0.1205
 6379SOL    HW130773   4.208   0.633   0.283  1.0239  0.8809  2.5278
 6379SOL    HW230774   4.296   0.565   0.184 -1.1130 -0.7870  0.6329
 6380SOL     OW30775   0.867   3.052  12.920  0.0749  0.0222 -0.0394
 6380SOL    HW130776   0.880   3.036  13.014 -0.2562 -1.9899 -0.3233
 6380SOL    HW230777   0.771   3.046  12.924  0.0949  1.1171  2.0917
 6381SOL     OW30778   1.990   2.845   3.721 -0.2870 -0.0964  0.2942
 6381SOL    HW130779   2.041   2.863   3.800  0.5479  3.5809 -1.1231
 6381SOL    HW230780   2.060   2.804   3.669 -0.3744  0.3734 -0.1920
 6382SOL     OW30781   2.243   3.445   2.865  0.3637  0.1271 -0.3201
 6382SOL    HW130782   2.245   3.393   2.945 -1.1639  0.5677  0.0217
 6382SOL    HW230783   2.331   3.454   2.831  0.8762  0.7610  1.1847
 6383SOL     OW30784   4.564   4.015   2.517 -0.0454 -0.5268 -0.2156
 6383SOL    HW130785   4.627   3.957   2.560  0.4840  1.2725  1.4430
 6383SOL    HW230786   4.617   4.065   2.455  0.1626  1.4463  1.5357
 6384SOL     OW30787   3.667   4.163   4.437 -0.0896  0.2559 -0.0864
 6384SOL    HW130788   3.582   4.150   4.481 -0.3133 -1.1293 -0.9174
 6384SOL    HW230789   3.694   4.073   4.420 -0.1175  0.3056 -0.3950
 6385SOL     OW30790   2.438   0.920   1.032 -0.3088  0.1007  0.6079
 6385SOL    HW130791   2.461   1.001   1.077  2.0024 -0.8301  1.0971
 6385SOL    HW230792   2.527   0.897   1.005 -0.6891  0.9517 -1.3577
 6386SOL     OW30793   2.252   0.307  12.762  0.4125  0.0107 -0.2387
 6386SOL    HW130794   2.194   0.257  12.818  1.2151  1.4557  1.8788
 6386SOL    HW230795   2.331   0.299  12.816 -1.0120  0.4611  1.9081
 6387SOL     OW30796   4.525   1.645  13.132  0.1819  0.4527 -0.7551
 6387SOL    HW130797   4.534   1.658  13.038  1.7045 -0.4660 -0.7357
 6387SOL    HW230798   4.615   1.674  13.151  1.0394 -1.0883 -2.4168
 6388SOL     OW30799   3.371   4.238   2.565 -0.0036 -0.0546 -0.1090
 6388SOL    HW130800   3.319   4.242   2.645 -1.8633 -1.6057 -1.2313
 6388SOL    HW230801   3.337   4.161   2.519  2.9806 -1.0955 -0.5606
 6389SOL     OW30802   3.444   4.063   6.841  0.1266  0.5319 -0.4484
 6389SOL    HW130803   3.396   4.024   6.768 -0.3475 -0.0281  0.1612
 6389SOL    HW230804   3.460   4.150   6.806 -1.0460  1.0981  0.3974
 6390SOL     OW30805   0.139   4.251  16.205  0.2801  0.3190 -0.2563
 6390SOL    HW130806   0.074   4.319  16.186  1.7978  1.4527 -1.4380
 6390SOL    HW230807   0.185   4.290  16.280  2.9459 -1.0797 -1.1647
 6391SOL     OW30808   0.781   2.045   7.344  0.3728 -0.1863 -0.1572
 6391SOL    HW130809   0.820   1.959   7.362 -0.2354 -0.2900  0.6445
 6391SOL    HW230810   0.694   2.020   7.314  0.1376  0.8875 -0.3617
 6392SOL     OW30811   3.922   2.187  11.919 -0.4433 -0.0966 -0.5359
 6392SOL    HW130812   3.919   2.275  11.882 -2.8227 -0.7611 -1.9261
 6392SOL    HW230813   4.016   2.174  11.927 -0.0202  3.9884  1.0152
 6393SOL     OW30814   0.618   0.553   8.048 -0.9667 -0.0512 -0.3681
 6393SOL    HW130815   0.561   0.621   8.013 -0.4359  0.2657 -0.6172
 6393SOL    HW230816   0.569   0.474   8.023  0.3844 -0.0664 -3.0002
 6394SOL     OW30817   0.634   2.734   1.161  0.1550 -0.1152 -0.0454
 6394SOL    HW130818   0.728   2.740   1.144  0.0735  1.1074 -0.0080
 6394SOL    HW230819   0.629   2.740   1.256 -2.6052 -0.1739 -0.1946
 6395SOL     OW30820   2.295   1.464   3.765  0.3647  0.1951  0.2756
 6395SOL    HW130821   2.201   1.449   3.767  0.2432  1.2569  2.1068
 6395SOL    HW230822   2.293   1.557   3.740 -2.4637 -0.3711 -1.6314
 6396SOL     OW30823   0.445   4.351  11.399 -0.8413  0.0373 -0.3729
 6396SOL    HW130824   0.537   4.328  11.387 -1.3258 -0.4522 -3.1377
 6396SOL    HW230825   0.446   4.444  11.420  0.2826 -0.3899  1.5402
 6397SOL     OW30826   1.042   3.146  12.419  0.3747  0.6221 -0.3785
 6397SOL    HW130827   1.032   3.236  12.451  0.4429  0.6232 -0.3620
 6397SOL    HW230828   1.007   3.097  12.493  1.1616 -0.9128 -1.0219
 6398SOL     OW30829   0.751   2.978   3.303  0.0329 -0.5077  0.9425
 6398SOL    HW130830   0.758   2.936   3.217 -2.1773  0.8445  0.1209
 6398SOL    HW230831   0.781   2.909   3.362  0.0398  0.0731  1.6104
 6399SOL     OW30832   0.231   1.705  13.466  0.8354  0.2699  0.2058
 6399SOL    HW130833   0.259   1.633  13.410 -0.1693 -0.5812  0.8074
 6399SOL    HW230834   0.274   1.773  13.415  2.3016 -1.0275 -0.2653
 6400SOL     OW30835   3.455   3.391   6.610  0.3850  0.5283  0.1344
 6400SOL    HW130836   3.485   3.445   6.537  1.2262 -0.6777 -0.4170
 6400SOL    HW230837   3.530   3.426   6.657 -0.4906  1.2011  1.0110
 6401SOL     OW30838   0.987   3.959   1.074  0.0834  0.6347 -0.1011
 6401SOL    HW130839   1.010   3.948   0.982  2.1413 -2.5955  0.8335
 6401SOL    HW230840   1.057   3.916   1.123 -2.3219 -1.2708  1.6324
 6402SOL     OW30841   2.207   1.491  12.252 -0.3221 -0.1889  0.5080
 6402SOL    HW130842   2.201   1.409  12.202  1.0026  0.2176 -0.3106
 6402SOL    HW230843   2.239   1.549  12.183 -2.2199 -1.3842 -1.3767
 6403SOL     OW30844   3.803   1.447  13.620  0.1592  0.4030 -0.1617
 6403SOL    HW130845   3.817   1.527  13.569 -1.1306  0.5138 -0.3610
 6403SOL    HW230846   3.787   1.474  13.710  0.8442  1.5001 -0.3639
 6404SOL     OW30847   2.606   3.077  17.220 -0.3649  0.2049 -0.0532
 6404SOL    HW130848   2.647   3.127  17.290  2.3385 -2.4016  0.2417
 6404SOL    HW230849   2.546   3.138  17.177 -0.9320  1.1238  2.0680
 6405SOL     OW30850   2.362   1.181   7.732  0.1327 -0.4606  0.1200
 6405SOL    HW130851   2.360   1.091   7.698  0.6118 -0.6817  0.6710
 6405SOL    HW230852   2.290   1.213   7.678 -0.7203 -0.9025  0.9910
 6406SOL     OW30853   2.389   2.795   6.025 -0.8715 -0.0194  0.3898
 6406SOL    HW130854   2.372   2.823   5.935 -0.4279 -0.9468  0.0132
 6406SOL    HW230855   2.476   2.755   6.022 -0.4679  1.0354 -1.7954
 6407SOL     OW30856   1.656   1.942  16.560  0.0849 -0.1646  0.0615
 6407SOL    HW130857   1.624   1.855  16.586 -0.8715  0.8321  2.1944
 6407SOL    HW230858   1.695   1.968  16.643  0.0012 -0.2958  0.1426
 6408SOL     OW30859   3.823   2.332   4.817 -0.0424 -0.3948 -0.6660
 6408SOL    HW130860   3.825   2.411   4.763 -0.7592  0.5590  0.6789
 6408SOL    HW230861   3.729   2.336   4.838 -0.0686 -0.9648 -0.6693
 6409SOL     OW30862   4.504   1.726  13.655  0.7221  0.6357  0.4005
 6409SOL    HW130863   4.507   1.650  13.596  3.6723  0.8375  0.2851
 6409SOL    HW230864   4.590   1.766  13.647  1.0619 -0.1345  0.1893
 6410SOL     OW30865   2.566   3.861   5.012  0.5955  0.0433 -0.6598
 6410SOL    HW130866   2.614   3.818   4.940 -2.0661  0.0801 -2.4659
 6410SOL    HW230867   2.590   3.953   5.011  1.6394 -0.2185 -0.2187
 6411SOL     OW30868   4.648   4.712   2.538 -0.3948 -0.0030 -0.1483
 6411SOL    HW130869   4.663   4.647   2.469  0.4068 -0.9753  0.9627
 6411SOL    HW230870   4.720   4.703   2.600  1.1305 -0.2786 -1.9466
 6412SOL     OW30871   0.548   0.763   2.482  0.5196 -0.0371  0.4095
 6412SOL    HW130872   0.630   0.752   2.530  0.0156 -1.2302  0.9802
 6412SOL    HW230873   0.487   0.744   2.554  0.1929  2.0953  0.6892
 6413SOL     OW30874   3.747   1.535   1.041 -0.3661  0.2269 -0.2491
 6413SOL    HW130875   3.725   1.565   0.952  0.3139 -0.1546 -0.5407
 6413SOL    HW230876   3.778   1.448   1.015 -1.9575 -0.9027  1.6012
 6414SOL     OW30877   4.385   1.500   2.475  0.1978 -0.2858  0.4633
 6414SOL    HW130878   4.464   1.454   2.449  1.0631  0.6841  1.3790
 6414SOL    HW230879   4.411   1.573   2.532 -0.0869 -0.9645  1.4732
 6415SOL     OW30880   3.694   3.852   5.412  0.2496  0.1387 -0.5782
 6415SOL    HW130881   3.712   3.823   5.502  0.3772  1.2629 -0.2438
 6415SOL    HW230882   3.768   3.819   5.361  0.9413 -1.0733  1.1878
 6416SOL     OW30883   3.213   4.056   3.303 -0.2408  0.0378  0.6229
 6416SOL    HW130884   3.176   4.070   3.216  1.5275  1.2672  0.0703
 6416SOL    HW230885   3.272   3.981   3.296 -0.9365 -0.5713  1.2461
 6417SOL     OW30886   0.548   4.017   2.758  0.1260  0.7177  0.1150
 6417SOL    HW130887   0.519   3.951   2.821 -2.0462  3.3183  1.8424
 6417SOL    HW230888   0.607   4.070   2.811  2.3415 -0.3976 -1.2215
 6418SOL     OW30889   0.870   4.098  12.501 -0.4984 -0.3992  0.6618
 6418SOL    HW130890   0.835   4.106  12.589 -0.6516  0.7544  0.4954
 6418SOL    HW230891   0.855   4.007  12.475 -0.5660  0.1791 -1.3219
 6419SOL     OW30892   3.293   2.885   3.669 -0.3570 -0.4068  0.0221
 6419SOL    HW130893   3.313   2.966   3.716  0.3447 -0.8696  0.5312
 6419SOL    HW230894   3.228   2.844   3.726 -1.0732 -0.8462 -1.1135
 6420SOL     OW30895   2.419   1.750   6.229 -0.2708  0.0853 -0.4317
 6420SOL    HW130896   2.354   1.700   6.180 -1.2198  1.0975 -0.2096
 6420SOL    HW230897   2.440   1.817   6.165  0.1465  1.8617  1.5820
 6421SOL     OW30898   3.125   2.892  15.592  0.0462 -0.6778  0.1743
 6421SOL    HW130899   3.132   2.981  15.626 -0.2999 -0.1994 -1.0136
 6421SOL    HW230900   3.051   2.916  15.536 -0.6753 -1.5647  0.7448
 6422SOL     OW30901   0.683   3.587   7.811  0.0495  0.4242 -0.5060
 6422SOL    HW130902   0.713   3.586   7.902  0.9106  1.3493 -0.7728
 6422SOL    HW230903   0.595   3.623   7.821 -0.5440 -0.9173 -0.9428
 6423SOL     OW30904   3.582   1.811   9.001 -0.1108 -0.3256  0.0860
 6423SOL    HW130905   3.620   1.725   9.018 -1.3359 -1.0978 -1.0592
 6423SOL    HW230906   3.497   1.785   8.966 -1.0281 -0.3021  2.3085
 6424SOL     OW30907   3.398   1.875  12.769  0.2348 -0.6612  0.2865
 6424SOL    HW130908   3.307   1.897  12.785  1.0924  1.5495  2.2942
 6424SOL    HW230909   3.388   1.834  12.683  0.6510  2.9239 -1.4773
 6425SOL     OW30910   0.028   4.684   5.068  0.6294 -0.2853  0.4227
 6425SOL    HW130911   4.722   4.600   5.087 -0.1776 -0.0816 -0.4326
 6425SOL    HW230912   0.109   4.658   5.024  1.0281 -0.3174  1.1831
 6426SOL     OW30913   3.975   3.430   3.141 -0.1724  0.3296  0.0517
 6426SOL    HW130914   3.970   3.381   3.059 -0.6573  0.2866  0.1068
 6426SOL    HW230915   3.915   3.377   3.195 -0.4632  0.0031 -0.5896
 6427SOL     OW30916   3.890   0.647   4.982  0.0926 -0.0512 -0.1551
 6427SOL    HW130917   3.899   0.740   4.966 -3.2002 -0.1232 -2.3607
 6427SOL    HW230918   3.876   0.599   4.901  0.3724 -0.7724  0.2234
 6428SOL     OW30919   2.651   4.498   2.723  0.2432 -0.2592 -0.2456
 6428SOL    HW130920   2.559   4.523   2.709  1.9759  4.4106 -3.2015
 6428SOL    HW230921   2.695   4.583   2.728 -0.9243  0.4154 -1.0933
 6429SOL     OW30922   1.352   1.375   4.228  0.1070  0.1422  0.0967
 6429SOL    HW130923   1.343   1.362   4.134 -1.4630 -1.1469  0.4293
 6429SOL    HW230924   1.428   1.432   4.214 -0.2092  0.5265 -0.0200
 6430SOL     OW30925   4.484   2.796  17.050  0.4257 -0.0262 -0.0500
 6430SOL    HW130926   4.542   2.741  17.101 -1.2067 -3.1596 -1.5320
 6430SOL    HW230927   4.537   2.797  16.970  0.1820  1.4745 -0.2011
 6431SOL     OW30928   0.760   1.776   5.400  0.2428 -0.5701 -0.2894
 6431SOL    HW130929   0.784   1.684   5.390  3.9206  0.3302  0.0861
 6431SOL    HW230930   0.848   1.815   5.404  0.0649  0.0692 -2.5512
 6432SOL     OW30931   2.939   1.493   1.765 -0.5903 -0.2086  0.0543
 6432SOL    HW130932   2.871   1.466   1.703 -0.5259 -0.0802 -0.0721
 6432SOL    HW230933   3.011   1.479   1.704 -0.1672  0.1101  0.4795
 6433SOL     OW30934   4.491   2.457  13.789  0.4398 -0.6231  0.2879
 6433SOL    HW130935   4.457   2.503  13.713  0.8272 -0.6539  0.0973
 6433SOL    HW230936   4.541   2.521  13.840 -0.6064 -1.8691  2.8530
 6434SOL     OW30937   3.747   3.570   8.283  0.1592  0.0704  0.1913
 6434SOL    HW130938   3.814   3.630   8.250  1.7340 -1.2438  0.9817
 6434SOL    HW230939   3.715   3.544   8.197  1.4716  0.7313 -0.5103
 6435SOL     OW30940   1.474   2.840  16.946  0.1087  0.6193 -0.0455
 6435SOL    HW130941   1.503   2.794  16.867 -0.2919 -0.5559  0.4883
 6435SOL    HW230942   1.544   2.905  16.939 -0.7568  1.5465 -0.0896
 6436SOL     OW30943   3.615   3.618  17.446 -0.1451  0.5430  0.4809
 6436SOL    HW130944   3.606   3.523  17.433  0.3963  0.7976 -1.7745
 6436SOL    HW230945   3.698   3.642  17.404 -1.0259 -0.3846 -1.7906
 6437SOL     OW30946   3.621   1.071  11.812 -0.0613  0.7240 -0.4645
 6437SOL    HW130947   3.637   0.980  11.839 -0.3552  0.5733 -0.7923
 6437SOL    HW230948   3.536   1.069  11.770 -0.1965  1.3581 -0.2134
 6438SOL     OW30949   0.993   0.741  10.553  0.1159  0.2045  0.1687
 6438SOL    HW130950   0.985   0.691  10.635 -0.6935  3.6786  2.1949
 6438SOL    HW230951   1.024   0.676  10.490 -2.0583 -1.4414  0.8216
 6439SOL     OW30952   3.377   0.525  17.526  0.0343 -0.0796 -0.1184
 6439SOL    HW130953   3.464   0.500  17.555 -0.6972 -1.6217  0.7262
 6439SOL    HW230954   3.402   0.568  17.444  0.0126  2.2576  1.0990
 6440SOL     OW30955   4.173   0.551   6.279  0.5460 -0.4694  0.0170
 6440SOL    HW130956   4.234   0.481   6.255  0.8244 -0.1139 -0.2965
 6440SOL    HW230957   4.146   0.520   6.366  0.7429  0.6507  0.4774
 6441SOL     OW30958   1.281   0.448  13.964 -0.2459  0.2096  0.0211
 6441SOL    HW130959   1.325   0.403  14.036 -2.6253 -0.2154  1.2114
 6441SOL    HW230960   1.260   0.375  13.905  1.2424 -1.3301  1.3966
 6442SOL     OW30961   1.256   4.517   6.051 -0.0161  0.2325 -0.1626
 6442SOL    HW130962   1.330   4.540   5.994 -0.1476 -0.9380 -0.7936
 6442SOL    HW230963   1.276   4.583   6.117  0.4513  1.0996 -1.1591
 6443SOL     OW30964   2.150   0.010  13.173  0.1227 -0.3506 -0.0946
 6443SOL    HW130965   2.166   4.657  13.205 -0.9542 -0.2907  0.6192
 6443SOL    HW230966   2.231   0.026  13.124  0.4623  0.5223  0.7500
 6444SOL     OW30967   1.630   4.439  17.631  0.3414 -0.2235 -0.9688
 6444SOL    HW130968   1.635   4.535  17.637  1.2398 -0.2903 -0.6140
 6444SOL    HW230969   1.719   4.420  17.662  0.5256 -0.5145 -1.6753
 6445SOL     OW30970   1.465   1.766  16.908 -0.3026  0.3828  0.2395
 6445SOL    HW130971   1.447   1.752  17.001 -1.8047  1.5973  0.1335
 6445SOL    HW230972   1.559   1.783  16.903  0.1016 -2.2332 -1.1352
 6446SOL     OW30973   2.674   4.555   8.120 -0.5363 -0.0254  0.2110
 6446SOL    HW130974   2.707   4.478   8.074 -1.8588 -1.0020  0.8812
 6446SOL    HW230975   2.730   4.623   8.083 -0.3298  0.1762  0.9015
 6447SOL     OW30976   0.561   0.780   4.239  0.1126  0.1121  0.2534
 6447SOL    HW130977   0.496   0.849   4.223 -0.7616 -0.2426  2.3428
 6447SOL    HW230978   0.634   0.839   4.259 -0.4584  0.6876  0.6325
 6448SOL     OW30979   2.356   2.239   1.719 -0.0236  0.3285  0.5291
 6448SOL    HW130980   2.387   2.329   1.705  0.3288  0.4097  1.8882
 6448SOL    HW230981   2.344   2.223   1.625 -0.1644  0.8880  0.4484
 6449SOL     OW30982   3.683   4.598   3.735 -0.3418  0.0194 -0.6039
 6449SOL    HW130983   3.690   4.694   3.740 -2.3941  0.2505 -2.0134
 6449SOL    HW230984   3.610   4.593   3.674  0.9949 -0.8827 -2.1292
 6450SOL     OW30985   0.736   3.983   4.719 -0.3582 -0.0165 -0.2074
 6450SOL    HW130986   0.755   4.072   4.691 -1.0236  0.5292  1.0384
 6450SOL    HW230987   0.709   3.947   4.635 -1.7948  0.4548  0.0326
 6451SOL     OW30988   4.473   2.158   6.186 -0.4999  0.5292  0.1187
 6451SOL    HW130989   4.440   2.070   6.203 -2.1808  1.3406  1.0265
 6451SOL    HW230990   4.478   2.199   6.272 -2.7093  1.3998 -0.1795
 6452SOL     OW30991   2.158   4.172  11.151  0.1375  0.1279  0.1289
 6452SOL    HW130992   2.155   4.262  11.185  1.1036  0.3693 -0.4097
 6452SOL    HW230993   2.093   4.186  11.083  0.5990  2.2428  0.1119
 6453SOL     OW30994   4.197   2.048  12.886  0.4091  0.4653  0.3952
 6453SOL    HW130995   4.170   1.958  12.865 -2.6062  1.7535 -1.3481
 6453SOL    HW230996   4.113   2.094  12.895 -0.7931 -1.4228 -1.2413
 6454SOL     OW30997   1.961   3.365   1.143  0.8755 -0.4059  0.1043
 6454SOL    HW130998   1.969   3.422   1.219  0.2520 -0.0916 -0.0709
 6454SOL    HW230999   1.867   3.350   1.147  0.3761  1.8712 -2.8828
 6455SOL     OW31000   3.031   2.838   3.783 -0.2441  0.5017 -0.1549
 6455SOL    HW131001   2.967   2.787   3.834  0.2605 -2.6443 -2.6874
 6455SOL    HW231002   3.026   2.927   3.819 -0.7727  0.8937 -1.1774
 6456SOL     OW31003   1.235   0.812   6.882  0.2221 -0.3577 -0.1001
 6456SOL    HW131004   1.161   0.830   6.940 -0.2330 -0.0393 -0.7792
 6456SOL    HW231005   1.200   0.799   6.794  0.3084 -0.7946 -0.0699
 6457SOL     OW31006   2.544   1.571  16.143 -0.1139 -0.0985 -0.1111
 6457SOL    HW131007   2.486   1.630  16.094  1.1143  1.0760 -0.1572
 6457SOL    HW231008   2.557   1.619  16.225  1.0652 -0.0536 -0.3275
 6458SOL     OW31009   3.129   3.613  12.511 -0.0374 -0.1981 -0.4606
 6458SOL    HW131010   3.090   3.531  12.541  0.9957  0.1638  1.8690
 6458SOL    HW231011   3.221   3.604  12.534 -0.8861  0.3562  3.1031
 6459SOL     OW31012   4.011   4.298  17.619  0.8634 -0.0500 -0.2473
 6459SOL    HW131013   4.099   4.272  17.590  0.3996  0.4784 -2.1757
 6459SOL    HW231014   3.977   4.209  17.612  1.4751 -0.2266 -1.0097
 6460SOL     OW31015   1.889   0.511   5.994  0.0358 -0.0601  0.0891
 6460SOL    HW131016   1.829   0.550   6.058  1.1198  1.6989  0.0164
 6460SOL    HW231017   1.934   0.586   5.955 -0.5056  1.0829  1.6930
 6461SOL     OW31018   4.546   2.536  11.645  0.3155 -0.2252  0.7034
 6461SOL    HW131019   4.501   2.610  11.605 -0.1209 -1.2078 -0.6048
 6461SOL    HW231020   4.500   2.465  11.600  1.5250 -0.2581 -0.4794
 6462SOL     OW31021   3.017   1.090   2.376  0.6773 -0.4323  0.3326
 6462SOL    HW131022   3.111   1.084   2.395  0.2466  0.5059  2.7333
 6462SOL    HW231023   2.981   1.145   2.445  1.5539  1.7486 -0.9472
 6463SOL     OW31024   0.038   3.326  17.463  0.2547  0.0188 -0.1477
 6463SOL    HW131025   0.056   3.379  17.386  1.3185  0.3440  0.3248
 6463SOL    HW231026   0.052   3.383  17.538 -1.7222  2.3623 -1.5708
 6464SOL     OW31027   1.851   1.480   9.447 -0.7871 -0.2996  0.1831
 6464SOL    HW131028   1.847   1.562   9.496 -2.8945 -1.1171  1.3827
 6464SOL    HW231029   1.785   1.432   9.497 -1.0205 -0.9665 -0.7479
 6465SOL     OW31030   4.274   4.417   2.229  0.7469  0.5052 -0.0075
 6465SOL    HW131031   4.267   4.511   2.239 -0.3300  0.2296  1.8088
 6465SOL    HW231032   4.183   4.396   2.207  0.8710 -1.9762  1.8316
 6466SOL     OW31033   0.091   0.298   7.349 -0.0168 -0.1097 -0.0254
 6466SOL    HW131034   0.157   0.337   7.406  0.0468  0.0687 -0.2209
 6466SOL    HW231035   0.024   0.366   7.354 -0.6841 -0.6364 -1.8477
 6467SOL     OW31036   0.203   3.402   0.622 -0.5753 -0.1839  0.5987
 6467SOL    HW131037   0.266   3.400   0.694 -1.1356  1.4854  1.1397
 6467SOL    HW231038   0.188   3.494   0.599  2.0239 -0.3493 -1.7160
 6468SOL     OW31039   1.634   2.769   8.648  0.3316  0.0813  0.6794
 6468SOL    HW131040   1.600   2.797   8.733 -2.1046 -0.3645 -0.1516
 6468SOL    HW231041   1.634   2.674   8.653 -0.5785  0.1759  2.5097
 6469SOL     OW31042   4.284   4.421   0.131 -0.3180  0.1805  0.2613
 6469SOL    HW131043   4.359   4.377   0.091  0.0078 -0.7023  1.8483
 6469SOL    HW231044   4.328   4.479   0.193 -0.6608  1.3624 -0.6066
 6470SOL     OW31045   0.884   2.149   6.644  0.1808 -0.9732  0.5588
 6470SOL    HW131046   0.971   2.159   6.607  0.4445  0.2012  1.4698
 6470SOL    HW231047   0.897   2.062   6.681  3.5186  0.2628  2.3144
 6471SOL     OW31048   0.975   3.176  11.489 -0.6259  0.1396  0.4089
 6471SOL    HW131049   1.068   3.162  11.471 -0.5407 -1.3114  1.9830
 6471SOL    HW231050   0.940   3.112  11.427  0.5659 -0.1244  0.0068
 6472SOL     OW31051   4.576   3.101   8.891  0.2806  0.0296  0.1418
 6472SOL    HW131052   4.552   3.166   8.825 -1.0296 -3.6021 -2.9804
 6472SOL    HW231053   4.636   3.151   8.947 -1.9506  1.8502  0.9219
 6473SOL     OW31054   3.512   2.466   3.305  0.3021 -0.1499 -0.3288
 6473SOL    HW131055   3.493   2.511   3.222  0.3588 -0.1155 -0.3231
 6473SOL    HW231056   3.488   2.531   3.371 -0.6625 -1.2470  0.3912
 6474SOL     OW31057   1.939   3.239   8.870  0.0087  0.0214 -0.1101
 6474SOL    HW131058   2.009   3.271   8.813 -1.6514  3.0118 -0.4392
 6474SOL    HW231059   1.897   3.174   8.814  0.6895  0.0997 -0.7156
 6475SOL     OW31060   3.184   3.833  10.188 -0.6016 -0.8925 -0.1135
 6475SOL    HW131061   3.146   3.856  10.273  1.2948 -0.4505  0.5970
 6475SOL    HW231062   3.136   3.900  10.139  0.2092 -0.2051  0.0533
 6476SOL     OW31063   4.577   4.081   7.860 -0.0795  0.3017  0.1180
 6476SOL    HW131064   4.619   4.053   7.779 -0.7913  0.8748 -0.4491
 6476SOL    HW231065   4.615   4.016   7.920  0.5413  2.7315  2.3581
 6477SOL     OW31066   3.288   4.633   1.951 -0.0680  0.9089  0.5128
 6477SOL    HW131067   3.195   4.640   1.973 -0.6608 -0.9273 -1.4814
 6477SOL    HW231068   3.277   4.544   1.920  0.9865  1.0383 -0.2654
 6478SOL     OW31069   1.554   0.612   0.990 -0.6529  0.2889 -0.0300
 6478SOL    HW131070   1.602   0.530   0.976  1.7278  1.9914 -1.7166
 6478SOL    HW231071   1.510   0.585   1.070  3.0147  1.2973  2.3526
 6479SOL     OW31072   3.976   2.329  11.491 -0.1324 -0.4272 -0.0241
 6479SOL    HW131073   4.034   2.277  11.546 -0.1141 -0.4354 -0.0514
 6479SOL    HW231074   3.975   2.280  11.409  3.3602 -2.2507  1.0432
 6480SOL     OW31075   4.030   0.935   2.890 -0.2128 -0.3994 -0.2016
 6480SOL    HW131076   3.948   0.895   2.921  0.5802 -1.9152 -0.0960
 6480SOL    HW231077   4.069   0.861   2.844  0.4780 -0.7710  0.9869
 6481SOL     OW31078   2.973   0.473   5.122  0.4970  0.6055  0.2816
 6481SOL    HW131079   2.894   0.458   5.070  2.4490  0.9850 -2.7631
 6481SOL    HW231080   3.021   0.391   5.125 -0.0595  0.2864  0.4521
 6482SOL     OW31081   2.233   1.459   1.099 -0.6846 -0.2029  0.9456
 6482SOL    HW131082   2.201   1.386   1.154 -1.1868 -1.3512 -0.8855
 6482SOL    HW231083   2.311   1.421   1.058 -1.2843 -0.4749  0.0789
 6483SOL     OW31084   2.761   3.787   6.807 -0.3263  0.0876  0.0008
 6483SOL    HW131085   2.728   3.872   6.775  1.8839  0.6404 -0.8132
 6483SOL    HW231086   2.739   3.800   6.899  1.3690  1.7109  0.1747
 6484SOL     OW31087   0.004   3.455   3.438 -0.1953  0.1046 -0.2874
 6484SOL    HW131088   0.093   3.438   3.408  0.1739  0.0950  0.8275
 6484SOL    HW231089   0.022   3.536   3.485 -2.2831 -0.1675  0.9697
 6485SOL     OW31090   0.707   3.276   7.777  0.1501  0.0835 -0.9829
 6485SOL    HW131091   0.793   3.292   7.814  0.0981  0.4066 -1.0087
 6485SOL    HW231092   0.659   3.263   7.859  2.9940 -0.5531  0.5847
 6486SOL     OW31093   3.785   4.595   4.354 -0.8214 -0.3670 -0.1916
 6486SOL    HW131094   3.821   4.666   4.407 -0.3445  0.2012 -1.2966
 6486SOL    HW231095   3.715   4.569   4.415 -1.5850  0.9674 -0.4899
 6487SOL     OW31096   3.956   2.465   5.263  0.5472 -0.2050 -0.2658
 6487SOL    HW131097   4.048   2.483   5.282  0.4277  0.8346 -0.6647
 6487SOL    HW231098   3.932   2.553   5.231 -3.3326 -1.0872  0.3120
 6488SOL     OW31099   4.109   3.074   6.437 -0.3697  0.0662 -0.4680
 6488SOL    HW131100   4.171   3.147   6.437 -1.6685  1.1617  1.8931
 6488SOL    HW231101   4.059   3.100   6.360 -0.5440  2.3320  0.4184
 6489SOL     OW31102   1.404   4.653   5.134 -0.5745 -0.2350  0.3411
 6489SOL    HW131103   1.369   4.572   5.098  1.9383 -0.9693 -0.4396
 6489SOL    HW231104   1.487   4.664   5.088  0.0974 -0.4779  1.4822
 6490SOL     OW31105   3.384   4.075   8.182 -0.1538 -0.4856 -0.0012
 6490SOL    HW131106   3.387   4.102   8.091 -4.6934  3.3844  0.9769
 6490SOL    HW231107   3.293   4.049   8.197 -0.2779  0.1134  0.3226
 6491SOL     OW31108   1.345   1.496   1.522 -0.1657 -0.2363 -0.1597
 6491SOL    HW131109   1.339   1.493   1.617  1.1524  0.5342 -0.0480
 6491SOL    HW231110   1.302   1.415   1.496 -2.0000  0.9840 -0.9592
 6492SOL     OW31111   1.465   1.351   8.795  0.1738 -0.4676  0.5499
 6492SOL    HW131112   1.561   1.351   8.794  0.1114  0.7078 -3.2306
 6492SOL    HW231113   1.441   1.278   8.852 -0.5144  0.0949  0.9754
 6493SOL     OW31114   2.878   0.053   8.662 -0.0264  0.2107 -0.3696
 6493SOL    HW131115   2.952   4.731   8.643 -0.1911 -1.4277  4.0875
 6493SOL    HW231116   2.844   0.053   8.572  2.5098 -2.0969 -1.3090
 6494SOL     OW31117   2.815   3.210   1.251 -0.2056 -0.3220 -0.2546
 6494SOL    HW131118   2.763   3.235   1.328  0.1350  0.7337 -0.3741
 6494SOL    HW231119   2.790   3.119   1.233  0.2057 -0.6283  0.7306
 6495SOL     OW31120   2.415   2.075  14.631 -0.3429  0.0061 -0.5787
 6495SOL    HW131121   2.419   2.062  14.726 -1.2418  2.3798 -0.2153
 6495SOL    HW231122   2.337   2.028  14.602 -0.6754 -0.8977  1.7730
 6496SOL     OW31123   2.005   0.333   6.738 -0.1456  0.1308 -0.2758
 6496SOL    HW131124   2.052   0.279   6.674 -0.7541  1.3402 -1.7701
 6496SOL    HW231125   1.976   0.408   6.685  1.1033 -0.1446 -1.3666
 6497SOL     OW31126   3.085   3.300   5.090 -0.1484 -0.2358 -0.0175
 6497SOL    HW131127   3.113   3.355   5.017 -2.1022 -3.7046 -3.3376
 6497SOL    HW231128   3.005   3.342   5.122 -0.7500 -0.4265 -1.2671
 6498SOL     OW31129   0.407   0.288   3.243 -0.6706  0.4752 -0.1824
 6498SOL    HW131130   0.472   0.356   3.224  1.8210 -0.7497  3.9340
 6498SOL    HW231131   0.398   0.297   3.338 -0.6130 -0.1781 -0.1179
 6499SOL     OW31132   1.540   1.114   1.320  0.2522  0.1646  0.3782
 6499SOL    HW131133   1.574   1.027   1.342 -5.9103 -1.9866  1.1723
 6499SOL    HW231134   1.545   1.095   1.226  1.6861  1.4222  0.1868
 6500SOL     OW31135   0.928   0.785  11.425 -0.0900 -0.0664  0.5847
 6500SOL    HW131136   0.856   0.848  11.431 -1.3182 -1.3404 -0.7354
 6500SOL    HW231137   0.894   0.732  11.497 -1.1080 -1.2628 -0.7738
 6501SOL     OW31138   0.230   0.023   2.018  0.1904 -0.0568  0.9881
 6501SOL    HW131139   0.292   4.710   1.964 -0.1498 -0.3263  0.8433
 6501SOL    HW231140   0.280   0.056   2.093  0.5424 -1.6617  1.4456
 6502SOL     OW31141   2.271   0.102  11.585  0.0804  0.0016 -0.0403
 6502SOL    HW131142   2.195   0.133  11.634 -1.3880 -0.2443 -2.1725
 6502SOL    HW231143   2.324   0.178  11.559 -1.3698  1.3513  0.9512
 6503SOL     OW31144   0.011   2.041   3.942  0.1649  0.7711  0.4744
 6503SOL    HW131145   0.038   1.970   3.885  2.2704  0.6469  1.6529
 6503SOL    HW231146   4.651   2.042   3.933  0.2870  0.9545 -0.7591
 6504SOL     OW31147   0.267   2.984   5.596  0.2358 -0.6428 -0.2970
 6504SOL    HW131148   0.271   2.920   5.524  1.3626  0.3856 -1.1501
 6504SOL    HW231149   0.283   2.923   5.669  1.5107 -0.9994 -0.8582
 6505SOL     OW31150   3.984   1.738   9.245  0.0725  0.1813 -0.6982
 6505SOL    HW131151   3.972   1.777   9.332  0.9580 -0.1355 -0.4290
 6505SOL    HW231152   3.923   1.667   9.266  0.4161  0.2836  0.6716
 6506SOL     OW31153   1.439   3.090   2.895  0.6341 -0.1859 -0.2194
 6506SOL    HW131154   1.368   3.127   2.842  2.7258  2.2660 -1.3017
 6506SOL    HW231155   1.474   3.042   2.820 -0.9009 -0.6086 -0.6630
 6507SOL     OW31156   1.078   4.199   7.327 -0.3180  0.0633 -0.5810
 6507SOL    HW131157   1.153   4.239   7.371 -1.5766 -0.3975  1.9643
 6507SOL    HW231158   1.063   4.119   7.377 -0.0028 -0.1507 -0.8234
 6508SOL     OW31159   4.001   0.906  10.848  0.5409  0.9405  0.5621
 6508SOL    HW131160   3.942   0.860  10.908  0.0033  1.2787  0.3001
 6508SOL    HW231161   4.078   0.901  10.904  2.3667  1.0633 -1.9614
 6509SOL     OW31162   4.034   1.579   4.835  0.3066 -0.3393 -0.1208
 6509SOL    HW131163   3.982   1.528   4.896  3.3489 -0.8796  2.0100
 6509SOL    HW231164   4.026   1.664   4.879 -2.1927 -0.6220 -0.0521
 6510SOL     OW31165   3.993   3.405  13.408 -0.0776  0.5235 -0.0311
 6510SOL    HW131166   4.001   3.500  13.415  4.2044 -0.0657  3.3470
 6510SOL    HW231167   4.073   3.378  13.363 -1.4944  0.7749 -2.6639
 6511SOL     OW31168   3.422   2.204   4.957 -0.0567  0.2522 -0.3172
 6511SOL    HW131169   3.458   2.288   4.930  0.6182 -0.3181 -1.1929
 6511SOL    HW231170   3.505   2.156   4.955  0.1160  0.5485 -0.2811
 6512SOL     OW31171   1.466   2.003   0.551 -0.0864 -0.0193  0.2392
 6512SOL    HW131172   1.511   2.044   0.478  3.1671 -1.5057  1.3905
 6512SOL    HW231173   1.429   2.083   0.586 -0.2305  0.6323 -1.4359
 6513SOL     OW31174   4.060   4.018   0.529  0.5577  0.1033 -0.5852
 6513SOL    HW131175   3.999   3.944   0.539 -0.7226  0.9541 -2.1422
 6513SOL    HW231176   3.999   4.091   0.522  0.5791  0.2202  0.4911
 6514SOL     OW31177   1.317   4.000  13.567 -0.0005  0.6235  0.1307
 6514SOL    HW131178   1.284   3.943  13.636 -1.6962  1.0836 -0.2860
 6514SOL    HW231179   1.263   3.994  13.488  0.7747 -1.9586 -0.1826
 6515SOL     OW31180   0.567   2.555   8.524  0.0489  0.4724 -0.3858
 6515SOL    HW131181   0.511   2.612   8.470 -1.9657 -2.0822 -1.0271
 6515SOL    HW231182   0.496   2.497   8.553  2.1977 -2.3135 -0.6539
 6516SOL     OW31183   3.391   3.141   0.803  0.1592 -0.4640  0.1020
 6516SOL    HW131184   3.468   3.142   0.746  1.1567 -2.8519  1.4079
 6516SOL    HW231185   3.435   3.173   0.882 -1.4135  2.1957 -0.0832
 6517SOL     OW31186   3.994   1.580   4.498 -0.1557  0.6833  0.1901
 6517SOL    HW131187   3.954   1.628   4.426 -0.9233  2.1855  1.6391
 6517SOL    HW231188   3.950   1.601   4.581 -0.5769 -0.1367  0.1727
 6518SOL     OW31189   2.336   1.863  12.567 -0.6725  0.0378  0.2246
 6518SOL    HW131190   2.278   1.866  12.643 -1.1579  2.2611 -0.2455
 6518SOL    HW231191   2.391   1.939  12.585  1.0586 -0.8505 -1.3357
 6519SOL     OW31192   2.882   4.206  17.251 -0.2751 -0.3991 -0.0877
 6519SOL    HW131193   2.949   4.188  17.185 -0.6960 -1.7768 -0.1335
 6519SOL    HW231194   2.864   4.296  17.224  2.3038 -1.0055 -3.7849
 6520SOL     OW31195   1.818   4.110  11.280  0.1421 -0.0773  0.4382
 6520SOL    HW131196   1.781   4.050  11.215 -1.0601  0.3697  0.7100
 6520SOL    HW231197   1.785   4.066  11.358 -0.6323 -1.0419 -0.4352
 6521SOL     OW31198   0.934   4.658   2.181  0.2500  0.1271 -0.1818
 6521SOL    HW131199   0.906   0.007   2.214  1.0204  0.1038  0.5095
 6521SOL    HW231200   0.979   4.619   2.256 -1.2087 -0.0635  0.5874
 6522SOL     OW31201   2.191   1.979   9.466  0.1735 -0.0161 -0.5276
 6522SOL    HW131202   2.282   1.960   9.446  0.6449  0.7790  0.8910
 6522SOL    HW231203   2.202   2.053   9.525 -0.1686 -0.4623  0.0888
 6523SOL     OW31204   2.407   1.524   2.091 -0.2219 -0.0303  0.3416
 6523SOL    HW131205   2.363   1.561   2.015 -0.9767 -1.7709 -0.0670
 6523SOL    HW231206   2.335   1.523   2.154 -2.1175 -1.8904 -1.8546
 6524SOL     OW31207   1.166   1.684   2.958  0.2041 -0.2175 -0.0353
 6524SOL    HW131208   1.230   1.648   2.896  1.3257  0.9507  0.4480
 6524SOL    HW231209   1.184   1.777   2.948 -0.9244  0.1653  1.6223
 6525SOL     OW31210   1.047   0.958   2.608  0.3761 -0.0234 -0.2472
 6525SOL    HW131211   0.956   0.987   2.607 -0.4686 -2.7210 -0.6652
 6525SOL    HW231212   1.093   1.041   2.613 -0.4083  0.5191 -1.8882
 6526SOL     OW31213   1.729   2.068   7.467  0.1810  0.6785  0.2822
 6526SOL    HW131214   1.800   2.132   7.470  1.0667 -0.4223  2.2476
 6526SOL    HW231215   1.673   2.079   7.543  0.5526 -1.1708  0.8292
 6527SOL     OW31216   2.594   1.602   1.736 -0.5240 -0.1332 -0.0358
 6527SOL    HW131217   2.556   1.519   1.706 -1.2271 -0.0066  0.5089
 6527SOL    HW231218   2.639   1.571   1.816 -0.9936 -2.4385 -0.6509
 6528SOL     OW31219   1.015   4.611   7.856  0.4204 -0.5426 -0.5132
 6528SOL    HW131220   1.010   4.516   7.862  0.1443 -0.5043 -0.1187
 6528SOL    HW231221   0.946   4.624   7.791 -1.0415 -1.3478  0.8645
 6529SOL     OW31222   1.932   2.866   5.409  0.1148  0.1352  0.1113
 6529SOL    HW131223   1.972   2.866   5.496  1.1119  0.0862 -0.3475
 6529SOL    HW231224   1.843   2.836   5.425  0.3976 -0.2937  0.8598
 6530SOL     OW31225   1.148   1.701   4.718 -0.3629  0.0064 -0.5251
 6530SOL    HW131226   1.193   1.760   4.779 -0.3875  0.6343 -1.1130
 6530SOL    HW231227   1.159   1.614   4.756  0.5253  0.3599  0.0295
 6531SOL     OW31228   1.945   1.451   2.983  0.6791 -0.6771  0.5364
 6531SOL    HW131229   1.943   1.368   2.936 -2.0429  0.4907 -1.4424
 6531SOL    HW231230   2.035   1.442   3.012  0.4549  0.6532  1.6335
 6532SOL     OW31231   1.291   3.587  13.754 -0.3026 -0.8842 -0.2271
 6532SOL    HW131232   1.254   3.509  13.712  1.7744 -2.1323  0.2473
 6532SOL    HW231233   1.281   3.557  13.845 -1.5759 -0.5773 -0.2695
 6533SOL     OW31234   4.269   1.219   7.549 -0.0897  0.4763  0.5878
 6533SOL    HW131235   4.340   1.164   7.516  0.1714  0.2218  1.5800
 6533SOL    HW231236   4.273   1.187   7.639 -1.1931 -1.1356  0.0740
 6534SOL     OW31237   1.278   3.181   2.680  0.1830 -0.4124  0.0868
 6534SOL    HW131238   1.231   3.258   2.711 -1.0157 -2.0157  2.2153
 6534SOL    HW231239   1.224   3.163   2.603  0.9956 -0.1499 -0.5513
 6535SOL     OW31240   3.591   0.588   3.907 -0.6030 -0.6339 -0.0462
 6535SOL    HW131241   3.647   0.665   3.896 -0.6633 -0.7652 -1.2857
 6535SOL    HW231242   3.512   0.617   3.952  0.0676 -0.1860  0.8471
 6536SOL     OW31243   1.561   3.219  11.201 -0.0868  0.1025  0.1025
 6536SOL    HW131244   1.475   3.259  11.188 -0.5744 -0.8570  0.4423
 6536SOL    HW231245   1.566   3.153  11.132 -2.3275 -1.4723  1.4835
 6537SOL     OW31246   0.794   4.248   4.640 -0.0914 -0.6632 -0.3881
 6537SOL    HW131247   0.705   4.268   4.611 -0.1360 -1.3099 -0.7059
 6537SOL    HW231248   0.843   4.273   4.562 -0.3891  0.7911 -0.1225
 6538SOL     OW31249   1.541   2.928   3.154  1.0081  0.3153  0.0841
 6538SOL    HW131250   1.503   2.992   3.094 -0.0881  0.2503  0.7210
 6538SOL    HW231251   1.466   2.871   3.169  0.1634  0.6590 -2.8414
 6539SOL     OW31252   3.934   2.437  11.825  0.0214 -0.1516  0.3207
 6539SOL    HW131253   3.946   2.509  11.888 -0.7976 -1.1698  1.6233
 6539SOL    HW231254   3.886   2.484  11.758 -0.0449 -0.6060  0.0528
 6540SOL     OW31255   2.998   4.567   2.020 -0.5040  0.1761  0.0237
 6540SOL    HW131256   2.943   4.491   1.999  0.5008 -0.6832  0.5325
 6540SOL    HW231257   3.007   4.558   2.115 -2.6752  1.4570  0.3458
 6541SOL     OW31258   4.049   3.242   3.507 -0.0098  0.0286 -0.1362
 6541SOL    HW131259   4.103   3.163   3.516 -0.7675 -0.8249 -2.9312
 6541SOL    HW231260   4.043   3.263   3.600  2.8294  0.6376 -0.0941
 6542SOL     OW31261   0.145   0.003  17.650 -0.2102  0.4351 -0.0897
 6542SOL    HW131262   0.066   0.046  17.618 -1.5894  0.7086  3.7051
 6542SOL    HW231263   0.114   4.660  17.695  3.5158 -0.3121  1.1967
 6543SOL     OW31264   1.012   4.083   6.828 -0.4210 -0.2563 -0.6903
 6543SOL    HW131265   1.047   4.139   6.897 -2.0692  1.0362 -0.8915
 6543SOL    HW231266   0.972   4.009   6.873 -0.7447  0.6592  0.5240
 6544SOL     OW31267   3.083   4.013   2.207  0.4405  0.3645  0.0909
 6544SOL    HW131268   3.094   4.056   2.122  3.0905 -1.1639 -0.3588
 6544SOL    HW231269   2.988   4.012   2.213  0.3632  0.4500 -1.0270
 6545SOL     OW31270   4.118   3.825   1.373  0.2012  0.7748  0.0514
 6545SOL    HW131271   4.180   3.838   1.445 -1.1039 -2.0102  1.6528
 6545SOL    HW231272   4.054   3.896   1.386 -1.7905 -1.1253  0.5484
 6546SOL     OW31273   0.480   0.199  10.658  0.1912 -0.7457 -0.3872
 6546SOL    HW131274   0.467   0.124  10.599 -1.3358  1.2357 -2.5819
 6546SOL    HW231275   0.453   0.152  10.737  0.6466 -0.3026  0.0308
 6547SOL     OW31276   3.073   0.093   9.934 -0.3480  0.0015 -0.1658
 6547SOL    HW131277   3.142   0.038   9.896  0.0733 -0.7948  1.7789
 6547SOL    HW231278   3.116   0.133  10.010 -1.1892 -1.3278  1.0041
 6548SOL     OW31279   3.548   2.539  17.309 -0.2348  0.0599 -0.3818
 6548SOL    HW131280   3.615   2.541  17.240 -0.1047  0.7342 -0.2369
 6548SOL    HW231281   3.465   2.561  17.266  0.4071 -0.4392 -1.8961
 6549SOL     OW31282   0.820   0.509   2.804 -0.1601  0.0528 -0.2858
 6549SOL    HW131283   0.888   0.485   2.867  1.0090  2.1820 -0.7410
 6549SOL    HW231284   0.748   0.455   2.839  2.9765 -4.7173 -1.2418
 6550SOL     OW31285   1.295   4.396   7.767 -0.5467 -0.3257 -0.1130
 6550SOL    HW131286   1.305   4.429   7.856  0.5115  0.9028 -0.7001
 6550SOL    HW231287   1.207   4.359   7.783 -0.2533 -0.9875 -0.0213
 6551SOL     OW31288   4.105   1.074   6.333  0.2460 -0.2230 -0.0626
 6551SOL    HW131289   4.119   1.085   6.239 -2.5066 -0.2479 -0.4651
 6551SOL    HW231290   4.180   1.114   6.378  0.1452  1.1441 -1.1043
 6552SOL     OW31291   3.339   1.156  17.736  0.3412 -0.3115 -0.0273
 6552SOL    HW131292   3.351   1.221  17.666 -1.7947  0.7310  0.5355
 6552SOL    HW231293   3.418   1.104  17.738  0.1977 -0.4653  1.5990
 6553SOL     OW31294   2.063   0.903  16.101 -0.3597  0.1526  0.1173
 6553SOL    HW131295   2.041   0.892  16.009  2.4250 -1.1136 -0.3947
 6553SOL    HW231296   2.156   0.920  16.091 -0.4707  0.4285 -0.4707
 6554SOL     OW31297   4.587   1.213  13.057 -0.0683 -0.0153 -0.3097
 6554SOL    HW131298   4.627   1.142  13.007 -2.5158 -1.3386 -0.3949
 6554SOL    HW231299   4.525   1.253  12.996 -0.8182 -2.9161 -1.4443
 6555SOL     OW31300   2.868   2.881   4.963  0.2506 -0.1753 -0.5450
 6555SOL    HW131301   2.853   2.908   5.053 -0.0347 -1.3367 -0.2443
 6555SOL    HW231302   2.896   2.790   4.972  0.6608  0.0295  0.2510
 6556SOL     OW31303   1.351   3.523   5.301 -0.1714 -0.1399 -0.0165
 6556SOL    HW131304   1.445   3.509   5.292 -0.3455 -1.3479  0.0830
 6556SOL    HW231305   1.346   3.599   5.360  2.5931  0.5971 -0.7509
 6557SOL     OW31306   3.092   0.057   4.932  0.1442 -0.4785  0.4543
 6557SOL    HW131307   3.145   0.001   4.877  0.6446  2.0141 -1.5931
 6557SOL    HW231308   3.157   0.124   4.954 -1.1312  0.7389  0.5544
 6558SOL     OW31309   1.490   3.215   1.505  0.1977  0.1578  0.4504
 6558SOL    HW131310   1.399   3.186   1.493 -0.1481  0.0377  3.3410
 6558SOL    HW231311   1.503   3.221   1.599  2.7643  2.8491 -0.0690
 6559SOL     OW31312   1.933   0.899   1.967  0.7846 -0.2289 -0.1330
 6559SOL    HW131313   1.844   0.885   1.998  0.9837 -2.0253 -0.3859
 6559SOL    HW231314   1.918   0.991   1.943  1.7695 -0.4749 -1.6849
 6560SOL     OW31315   0.077   0.414   4.853  0.5887  0.6852  0.2701
 6560SOL    HW131316   0.054   0.482   4.790 -1.3420  0.0205  0.2428
 6560SOL    HW231317   4.732   0.376   4.887 -0.0330 -0.3497 -2.3488
 6561SOL     OW31318   0.049   3.678   3.616 -0.7245 -0.3701 -0.4546
 6561SOL    HW131319   0.103   3.755   3.599 -1.4704  0.8197  2.5688
 6561SOL    HW231320   4.693   3.705   3.613 -0.9172 -1.0216 -0.4780
 6562SOL     OW31321   2.476   4.224   8.297  0.3753 -0.0980  0.3077
 6562SOL    HW131322   2.460   4.168   8.373 -0.0953  1.6832  1.5160
 6562SOL    HW231323   2.520   4.164   8.237  0.2948 -0.4832  0.6359
 6563SOL     OW31324   2.172   1.821   8.689  0.0458 -0.4000 -0.0148
 6563SOL    HW131325   2.116   1.745   8.671  0.8699 -1.1533  0.5890
 6563SOL    HW231326   2.186   1.802   8.782  0.4704  1.3836  0.2906
 6564SOL     OW31327   3.891   2.477   6.220  0.1884  0.0355 -0.4429
 6564SOL    HW131328   3.967   2.449   6.169 -0.8329 -1.9889 -0.8802
 6564SOL    HW231329   3.836   2.399   6.211 -0.1995  0.3839 -1.0880
 6565SOL     OW31330   0.029   1.340   8.228  0.3966 -0.1935 -0.4401
 6565SOL    HW131331   0.047   1.280   8.156 -2.4633  1.5390 -2.6096
 6565SOL    HW231332   0.044   1.428   8.195  3.4172 -0.3288  0.5904
 6566SOL     OW31333   2.280   4.570   1.469  0.1202  0.3264  0.3902
 6566SOL    HW131334   2.223   4.620   1.527  1.9104  0.6987  1.8304
 6566SOL    HW231335   2.220   4.507   1.429  2.0375 -2.5085  1.9173
 6567SOL     OW31336   4.498   0.077   4.354 -0.0078  0.0220  0.7474
 6567SOL    HW131337   4.530   0.132   4.282 -0.1060  0.4363  1.0210
 6567SOL    HW231338   4.413   0.051   4.319  0.8011  1.0950 -2.0296
 6568SOL     OW31339   0.575   3.132   2.175  0.2595  0.4194 -0.0900
 6568SOL    HW131340   0.517   3.208   2.171  0.7000  0.7494 -0.2627
 6568SOL    HW231341   0.612   3.133   2.263 -0.7916 -0.6462  0.3578
 6569SOL     OW31342   3.302   0.790   6.850 -0.2701  0.6933 -0.3915
 6569SOL    HW131343   3.340   0.831   6.927 -1.6158 -0.5495  0.9481
 6569SOL    HW231344   3.213   0.764   6.875 -0.3477 -0.0116 -1.3962
 6570SOL     OW31345   0.196   1.099   9.354  0.3598 -0.4528 -0.0874
 6570SOL    HW131346   0.137   1.059   9.291 -1.2048  0.3543  0.8652
 6570SOL    HW231347   0.138   1.145   9.414  0.7275  2.0632 -1.6459
 6571SOL     OW31348   3.756   2.032   9.055  0.3126 -0.6269 -0.0683
 6571SOL    HW131349   3.759   2.009   9.148  1.8882  0.2719  0.1006
 6571SOL    HW231350   3.732   1.947   9.020 -1.6655  1.0533 -2.7844
 6572SOL     OW31351   1.711   4.520   2.927  0.6149 -0.1733  0.0580
 6572SOL    HW131352   1.709   4.455   2.997 -0.6858 -2.0584 -1.7200
 6572SOL    HW231353   1.774   4.588   2.950  1.4448 -0.6857 -0.6667
 6573SOL     OW31354   0.109   0.609  13.869  0.5014 -0.2946  0.2341
 6573SOL    HW131355   0.027   0.560  13.867 -1.4646  2.9992  0.9329
 6573SOL    HW231356   0.167   0.537  13.845 -0.9357 -1.2453 -0.3751
 6574SOL     OW31357   1.683   3.114  14.107  0.1723 -0.3357  0.4797
 6574SOL    HW131358   1.649   3.172  14.039  2.7961 -0.5396 -1.0129
 6574SOL    HW231359   1.656   3.160  14.186  0.8863  2.0212 -0.6490
 6575SOL     OW31360   2.431   1.869  10.885 -0.5770  0.1950 -0.1012
 6575SOL    HW131361   2.479   1.832  10.959  0.2585 -2.1669 -1.8261
 6575SOL    HW231362   2.342   1.851  10.916 -1.7000  2.4106 -2.0583
 6576SOL     OW31363   3.763   4.479   7.118  0.3903 -0.4825  0.5909
 6576SOL    HW131364   3.722   4.393   7.124  0.5228 -0.5644  0.3297
 6576SOL    HW231365   3.779   4.496   7.211 -1.4097 -1.1931  1.0140
 6577SOL     OW31366   2.886   3.927  16.875 -0.3049  0.0948  0.6752
 6577SOL    HW131367   2.830   3.937  16.952 -1.4711 -1.9621  0.0740
 6577SOL    HW231368   2.948   3.861  16.906  1.2098  1.6362  0.9144
 6578SOL     OW31369   3.281   2.903   4.802  0.1156 -0.3915 -0.3889
 6578SOL    HW131370   3.219   2.899   4.729 -1.1393 -0.7582  0.6867
 6578SOL    HW231371   3.263   2.819   4.843  0.8414 -0.5306 -0.3685
 6579SOL     OW31372   3.913   2.207   2.559 -0.4180  0.0066  0.0697
 6579SOL    HW131373   3.954   2.126   2.587 -3.1158 -1.7641 -1.1488
 6579SOL    HW231374   3.849   2.167   2.501  0.8750 -3.5460  1.1298
 6580SOL     OW31375   3.485   3.810  12.030  0.0811 -0.1787  0.3812
 6580SOL    HW131376   3.526   3.892  12.056 -3.7342  1.6624  0.5505
 6580SOL    HW231377   3.413   3.833  11.970 -1.1294 -0.6099  1.6598
 6581SOL     OW31378   1.511   0.864   3.988  0.3614  0.1790 -0.6603
 6581SOL    HW131379   1.520   0.817   4.070 -1.4719  1.0394  0.0372
 6581SOL    HW231380   1.418   0.883   3.984  0.8856  2.8313 -0.3102
 6582SOL     OW31381   3.922   0.001   4.543  0.0824 -0.1178  0.1735
 6582SOL    HW131382   3.907   0.096   4.537  2.3520  0.3937  2.5092
 6582SOL    HW231383   3.911   4.722   4.637  1.0424 -3.8455 -0.3292
 6583SOL     OW31384   3.148   0.218   2.371 -0.3561  0.1025  0.2635
 6583SOL    HW131385   3.209   0.164   2.321 -1.3672 -0.2658 -0.5694
 6583SOL    HW231386   3.194   0.302   2.363  0.5391 -0.4692 -0.5303
 6584SOL     OW31387   0.252   4.641  13.402  0.0052  0.1731  0.2338
 6584SOL    HW131388   0.168   4.683  13.420  0.5871  1.7329 -0.7277
 6584SOL    HW231389   0.215   4.553  13.396 -1.7131  0.9204 -0.1649
 6585SOL     OW31390   1.181   3.640   1.432 -0.3302 -0.0728 -0.0778
 6585SOL    HW131391   1.216   3.678   1.513 -1.2013  2.8300 -1.0598
 6585SOL    HW231392   1.260   3.590   1.410 -0.4275  0.2719 -1.2082
 6586SOL     OW31393   3.119   2.282   6.834  0.1103  0.1749  0.0419
 6586SOL    HW131394   3.167   2.217   6.782 -0.7241  0.4384 -1.0430
 6586SOL    HW231395   3.075   2.221   6.894 -1.5308 -1.4051 -2.7758
 6587SOL     OW31396   1.100   2.907   7.571 -0.4203 -0.4197 -0.4070
 6587SOL    HW131397   1.183   2.896   7.525  0.7800 -1.1521  1.9646
 6587SOL    HW231398   1.053   2.827   7.549  0.7246 -1.0207 -0.6831
 6588SOL     OW31399   3.346   3.567   6.166  0.0594  0.1718  0.3310
 6588SOL    HW131400   3.364   3.652   6.208 -0.0558  0.1493  0.4259
 6588SOL    HW231401   3.256   3.537   6.180 -0.2744  0.6776 -0.7868
 6589SOL     OW31402   1.648   2.322  11.205 -0.0371 -0.3541  0.3189
 6589SOL    HW131403   1.697   2.248  11.239 -0.6811 -1.3308 -0.8637
 6589SOL    HW231404   1.571   2.281  11.165  0.1149 -2.2510  1.9770
 6590SOL     OW31405   1.499   4.562   0.984 -0.0153 -0.1525  0.1344
 6590SOL    HW131406   1.435   4.543   0.916 -0.9891 -1.1402  1.3394
 6590SOL    HW231407   1.559   4.489   0.968 -1.3985 -1.5343  1.2666
 6591SOL     OW31408   4.586   2.589  10.731 -0.0811  0.1855 -0.4233
 6591SOL    HW131409   4.653   2.563  10.668  0.9237  2.1979 -0.1860
 6591SOL    HW231410   4.613   2.681  10.741 -0.6502 -0.0308  3.2540
 6592SOL     OW31411   3.692   3.684   3.134 -0.4847 -0.6221  0.1465
 6592SOL    HW131412   3.646   3.602   3.154 -0.9933 -0.9416 -2.3356
 6592SOL    HW231413   3.725   3.710   3.220  2.5992 -0.6589 -1.0064
 6593SOL     OW31414   4.709   2.625   8.960 -0.5476  0.2567 -0.0794
 6593SOL    HW131415   0.055   2.671   8.978 -0.4704 -0.0273  0.2969
 6593SOL    HW231416   4.640   2.689   8.972 -1.2539 -0.1353 -2.0122
 6594SOL     OW31417   2.795   1.892   3.968 -0.0366 -0.7157 -0.3823
 6594SOL    HW131418   2.765   1.808   3.936  0.1234 -1.7868  2.2690
 6594SOL    HW231419   2.889   1.878   3.982 -0.2530  0.9733  2.8149
 6595SOL     OW31420   0.113   4.704   4.267 -0.8241 -0.3057 -0.2145
 6595SOL    HW131421   0.052   4.679   4.337 -0.2993 -0.6215  0.1334
 6595SOL    HW231422   0.161   0.043   4.303  0.9682 -2.0908  1.1211
 6596SOL     OW31423   2.992   4.252   3.147 -0.1836 -0.3806  0.2847
 6596SOL    HW131424   3.048   4.197   3.091  0.8012  0.0799  0.8111
 6596SOL    HW231425   2.969   4.322   3.086 -0.8291 -0.9814 -0.1510
 6597SOL     OW31426   2.051   3.897   8.678 -0.4330  0.1876  0.1892
 6597SOL    HW131427   2.071   3.827   8.740  1.9865  0.2879 -0.4748
 6597SOL    HW231428   2.021   3.969   8.733 -0.0442 -0.9431  1.8679
 6598SOL     OW31429   3.669   0.491  17.058  0.1952  0.1694  0.1219
 6598SOL    HW131430   3.656   0.402  17.092  3.0218 -0.2547  0.0773
 6598SOL    HW231431   3.693   0.477  16.966  1.5584  1.7946  0.2399
 6599SOL     OW31432   3.579   1.877  14.066  0.5622  0.3604  0.3258
 6599SOL    HW131433   3.605   1.842  14.151 -0.5175 -0.3781  0.3495
 6599SOL    HW231434   3.667   1.884  14.030 -0.0966 -0.3382 -1.4343
 6600SOL     OW31435   1.094   1.714   1.093 -0.2715  0.5410 -0.2538
 6600SOL    HW131436   1.093   1.790   1.151 -0.9067 -0.9728  1.7036
 6600SOL    HW231437   1.184   1.713   1.061 -0.6667 -0.8279 -1.3493
 6601SOL     OW31438   4.154   3.254  14.340  0.3418  0.6707  0.3496
 6601SOL    HW131439   4.077   3.301  14.371 -0.5446  0.3968 -1.4289
 6601SOL    HW231440   4.208   3.250  14.419 -0.8092  0.1511  1.1096
 6602SOL     OW31441   4.227   2.456   5.334  0.8192 -0.0451  0.4090
 6602SOL    HW131442   4.304   2.434   5.385 -0.5465  0.3206  2.6246
 6602SOL    HW231443   4.272   2.457   5.250  0.4808  1.6271  0.2482
 6603SOL     OW31444   0.979   1.373   7.767  0.3616 -0.2453  0.1438
 6603SOL    HW131445   0.987   1.287   7.807 -0.6146 -1.6684 -2.7557
 6603SOL    HW231446   1.047   1.425   7.811 -0.5134  0.2767  0.8940
 6604SOL     OW31447   0.695   2.628  16.364  0.3268 -0.0995 -0.2963
 6604SOL    HW131448   0.761   2.689  16.330 -0.8378  0.5964 -1.2877
 6604SOL    HW231449   0.752   2.562  16.404  0.3192 -0.5105 -0.9597
 6605SOL     OW31450   4.082   0.752   3.473 -0.0878 -0.3391  0.1624
 6605SOL    HW131451   4.082   0.789   3.384  1.8544 -1.1507 -0.1783
 6605SOL    HW231452   4.086   0.832   3.526 -0.4628 -0.6726  0.6852
 6606SOL     OW31453   2.056   3.652  12.463 -0.1975 -0.5776 -0.1996
 6606SOL    HW131454   1.968   3.618  12.474 -1.1641  1.7447 -0.8933
 6606SOL    HW231455   2.055   3.718  12.532  2.6290  0.5726 -1.2344
 6607SOL     OW31456   3.013   1.213   7.536 -0.1199 -0.0820 -0.6896
 6607SOL    HW131457   2.983   1.127   7.506  2.3209 -1.4799  0.9362
 6607SOL    HW231458   3.074   1.183   7.603 -0.1715  2.4382  0.4660
 6608SOL     OW31459   4.477   4.242   2.627 -0.2658  0.0324  0.7553
 6608SOL    HW131460   4.496   4.292   2.547 -0.2424  0.5481  1.0829
 6608SOL    HW231461   4.492   4.152   2.599 -0.3777  0.5696 -1.0906
 6609SOL     OW31462   4.316   0.424   4.188  0.6242 -0.9250  0.3331
 6609SOL    HW131463   4.366   0.412   4.108  0.7892  0.6237  0.2231
 6609SOL    HW231464   4.260   0.346   4.198 -0.8887  0.4434  2.6005
 6610SOL     OW31465   3.362   3.173   5.803 -0.7834  0.0235 -0.4416
 6610SOL    HW131466   3.365   3.169   5.708  1.4473 -1.3905 -0.3085
 6610SOL    HW231467   3.369   3.081   5.828  0.2353  0.3000  0.2952
 6611SOL     OW31468   0.302   1.133  16.801  0.7040  0.1612  0.2461
 6611SOL    HW131469   0.376   1.188  16.826  0.2637  1.1941 -0.7473
 6611SOL    HW231470   0.244   1.143  16.877  0.5865  0.5948  0.0999
 6612SOL     OW31471   0.732   2.581   4.619 -0.5083 -0.2005 -0.3863
 6612SOL    HW131472   0.721   2.537   4.535  0.5601  0.0082 -0.6415
 6612SOL    HW231473   0.711   2.523   4.692 -2.0096  0.3639 -0.3624
 6613SOL     OW31474   3.506   0.605   8.488  0.5072  0.3363 -0.0279
 6613SOL    HW131475   3.559   0.557   8.552 -1.5836 -2.0846 -0.1050
 6613SOL    HW231476   3.443   0.648   8.546 -0.0911 -1.8281  0.9087
 6614SOL     OW31477   4.645   4.156  13.914 -0.1913 -0.7005 -0.4079
 6614SOL    HW131478   4.576   4.193  13.858  0.1662  0.5905 -0.0016
 6614SOL    HW231479   4.597   4.095  13.970  0.9370  1.5317  2.9975
 6615SOL     OW31480   3.605   1.936   1.791 -0.3165  0.7036 -0.3799
 6615SOL    HW131481   3.693   1.966   1.813  0.1499 -1.5302  0.7679
 6615SOL    HW231482   3.548   1.985   1.850 -0.5760 -0.0931  0.0287
 6616SOL     OW31483   1.644   1.849  10.859  0.3086  0.5991 -0.3571
 6616SOL    HW131484   1.714   1.799  10.901  2.3303  1.9309 -2.2068
 6616SOL    HW231485   1.574   1.794  10.897  2.0752 -1.0418  0.5152
 6617SOL     OW31486   3.907   3.352   0.626 -0.3452  0.1767  0.1720
 6617SOL    HW131487   3.867   3.408   0.560  0.1997  1.1549  0.6691
 6617SOL    HW231488   3.926   3.271   0.578  1.0839  0.1450  0.7853
 6618SOL     OW31489   2.989   3.781   7.183  0.2535 -0.1560  0.1286
 6618SOL    HW131490   2.917   3.798   7.244  1.1146  4.1307 -0.0680
 6618SOL    HW231491   3.061   3.815   7.236  0.0123 -2.3002  1.8274
 6619SOL     OW31492   1.048   1.108   7.817  0.2264 -0.5384 -0.0916
 6619SOL    HW131493   0.960   1.078   7.794 -0.6129  2.0538 -0.1609
 6619SOL    HW231494   1.098   1.048   7.761  1.9224  0.9564 -0.1800
 6620SOL     OW31495   1.782   2.347   8.145 -0.3629  0.4877  0.3735
 6620SOL    HW131496   1.743   2.396   8.073 -1.3954 -0.9373 -0.0385
 6620SOL    HW231497   1.797   2.258   8.112  1.7662  1.8252 -2.1869
 6621SOL     OW31498   3.456   1.200   8.046 -0.3858 -0.8525 -0.5110
 6621SOL    HW131499   3.385   1.246   8.091 -0.0489  0.7381 -1.6075
 6621SOL    HW231500   3.528   1.236   8.098 -0.2474 -0.5007 -0.9423
 6622SOL     OW31501   4.624   2.971   6.872  0.5749  0.4287  0.0302
 6622SOL    HW131502   4.565   2.912   6.918 -0.9874  0.4112 -1.9905
 6622SOL    HW231503   4.594   2.948   6.784  0.1689 -1.8477  0.7634
 6623SOL     OW31504   3.432   0.915  10.450 -0.1055  0.0645 -0.5023
 6623SOL    HW131505   3.411   0.837  10.502 -2.7391  1.6588  0.8143
 6623SOL    HW231506   3.483   0.961  10.517 -1.3063  0.7007 -0.0248
 6624SOL     OW31507   2.110   2.333   8.798 -0.4347 -0.0022 -0.2701
 6624SOL    HW131508   2.190   2.380   8.775 -1.3091  2.5112  1.9746
 6624SOL    HW231509   2.083   2.375   8.879  2.0944 -0.0855  0.6017
 6625SOL     OW31510   3.734   3.012  11.353  0.5046  0.0682 -0.1227
 6625SOL    HW131511   3.824   2.980  11.358  0.2226 -0.7619 -0.3221
 6625SOL    HW231512   3.755   3.105  11.344  2.7051 -0.5273 -1.1571
 6626SOL     OW31513   1.459   1.809  14.991 -0.1906 -0.8213  0.2803
 6626SOL    HW131514   1.518   1.884  14.989  0.7376 -1.5834 -0.9137
 6626SOL    HW231515   1.419   1.812  14.904 -2.5188 -0.2874  1.3573
 6627SOL     OW31516   4.545   0.163  14.780  0.0914 -0.3012  0.0849
 6627SOL    HW131517   4.531   0.075  14.745 -1.4868  0.1407 -0.4082
 6627SOL    HW231518   4.518   0.134  14.867 -0.2957 -1.1544 -0.3104
 6628SOL     OW31519   2.450   4.614   6.103 -0.0331 -0.3357 -0.4406
 6628SOL    HW131520   2.490   4.661   6.177 -2.5026 -0.2368  0.8369
 6628SOL    HW231521   2.380   4.565   6.145 -0.7693  1.5695  0.5400
 6629SOL     OW31522   1.387   0.379   2.152  0.1012 -0.0703 -0.5130
 6629SOL    HW131523   1.350   0.421   2.075 -2.6545  1.4293  1.6493
 6629SOL    HW231524   1.424   0.453   2.200 -2.9126 -0.1737  1.9825
 6630SOL     OW31525   2.454   2.718   1.044 -0.4876  0.4498  0.0878
 6630SOL    HW131526   2.404   2.785   1.089 -0.5298 -0.4572  1.3865
 6630SOL    HW231527   2.544   2.740   1.066 -0.2890  0.0643 -0.3204
 6631SOL     OW31528   1.398   4.019   4.806  0.0160  0.7116  0.2781
 6631SOL    HW131529   1.455   4.069   4.748  2.2522 -1.1222  0.9318
 6631SOL    HW231530   1.465   3.957   4.834 -0.5769  0.7945  1.9062
 6632SOL     OW31531   0.010   2.572  11.817  0.0320  0.0747 -0.3460
 6632SOL    HW131532   4.716   2.515  11.888  3.4074 -0.8428  0.3587
 6632SOL    HW231533   4.692   2.557  11.739  2.0307 -0.5577 -1.5938
 6633SOL     OW31534   4.155   4.074   0.833  0.4465 -0.6138 -0.4763
 6633SOL    HW131535   4.073   4.084   0.881  2.1318  3.0548  1.6630
 6633SOL    HW231536   4.124   4.024   0.758 -1.9750 -2.5946  1.8572
 6634SOL     OW31537   4.412   3.675  15.235  0.0263  0.3907  0.0015
 6634SOL    HW131538   4.485   3.731  15.209 -0.2357  1.8305  2.4775
 6634SOL    HW231539   4.336   3.719  15.197 -1.0720 -0.1862  1.5264
 6635SOL     OW31540   3.848   0.413  15.449  0.2127  0.2793  0.0602
 6635SOL    HW131541   3.810   0.337  15.407  1.1793 -0.6803  0.9329
 6635SOL    HW231542   3.933   0.376  15.472 -0.1993 -0.4941  0.3253
 6636SOL     OW31543   2.202   0.214   8.023 -0.2893  0.2967  0.3390
 6636SOL    HW131544   2.210   0.127   8.064 -1.0226 -0.3134 -0.8284
 6636SOL    HW231545   2.251   0.262   8.090  2.8828  0.3847 -2.0600
 6637SOL     OW31546   2.357   3.841   4.695 -0.3317 -0.4142  0.4162
 6637SOL    HW131547   2.324   3.912   4.751 -0.9257 -0.5091  0.1892
 6637SOL    HW231548   2.446   3.826   4.726  0.5431  1.6589 -1.1013
 6638SOL     OW31549   3.030   3.669   0.107  0.3000 -0.0665  0.0718
 6638SOL    HW131550   3.003   3.583   0.074  0.4445 -0.9241  2.2145
 6638SOL    HW231551   3.104   3.688   0.048 -0.0243  0.8440 -0.0382
 6639SOL     OW31552   1.578   2.006   8.345 -0.4533  0.3735  0.6235
 6639SOL    HW131553   1.558   2.027   8.254  2.5037  0.7754  0.0653
 6639SOL    HW231554   1.539   2.084   8.384 -0.9344  1.1236 -1.4213
 6640SOL     OW31555   0.010   1.827  13.630 -0.3150  0.0298 -0.0280
 6640SOL    HW131556   0.053   1.913  13.627 -1.0350  0.4173  0.8165
 6640SOL    HW231557   0.061   1.785  13.561 -0.1890  1.2660 -0.6862
 6641SOL     OW31558   4.342   1.126   3.824  0.2894  0.8474  0.1382
 6641SOL    HW131559   4.353   1.144   3.918  3.3934 -0.1283 -0.0224
 6641SOL    HW231560   4.252   1.093   3.819  0.2166  0.8522  1.5121
 6642SOL     OW31561   3.949   2.584  11.366  0.2198 -0.2366 -0.6309
 6642SOL    HW131562   3.972   2.517  11.431 -0.6135 -0.7590 -0.8789
 6642SOL    HW231563   3.888   2.538  11.309 -0.1874 -0.2777 -0.1658
 6643SOL     OW31564   2.818   4.403  12.290  0.2889  0.0357 -0.0671
 6643SOL    HW131565   2.861   4.393  12.205 -1.1329  0.4480 -0.8346
 6643SOL    HW231566   2.884   4.453  12.338  1.9473 -1.5231 -0.7360
 6644SOL     OW31567   1.490   2.073  13.328  0.2879 -0.1057  0.2092
 6644SOL    HW131568   1.442   2.061  13.410  0.0727  2.0558  0.3770
 6644SOL    HW231569   1.553   2.143  13.341  1.0884 -0.3890 -2.1750
 6645SOL     OW31570   2.983   1.526   7.675 -0.1478 -0.2702  0.1307
 6645SOL    HW131571   2.991   1.572   7.758 -0.1671  1.5355 -0.8827
 6645SOL    HW231572   3.039   1.448   7.683 -1.0899 -1.1989 -2.2997
 6646SOL     OW31573   1.720   1.352   5.876  0.4533 -0.2640 -0.6925
 6646SOL    HW131574   1.804   1.368   5.920  0.1065 -0.3594  0.0103
 6646SOL    HW231575   1.656   1.366   5.946  1.2860  0.8987 -0.1636
 6647SOL     OW31576   2.313   0.760   3.059  0.0952  0.3536  0.2183
 6647SOL    HW131577   2.393   0.806   3.035  0.5284 -0.0206  0.9583
 6647SOL    HW231578   2.321   0.680   3.007 -2.2979  0.0251  0.3389
 6648SOL     OW31579   2.894   0.497   3.327 -0.1185 -0.6097 -0.7184
 6648SOL    HW131580   2.843   0.453   3.395  0.4593  0.5078  0.4448
 6648SOL    HW231581   2.867   0.450   3.248 -1.8801 -1.1813  0.2302
 6649SOL     OW31582   2.165   4.523  12.522 -0.3033 -0.4828  0.6478
 6649SOL    HW131583   2.244   4.480  12.489 -0.8450  0.7296 -2.2643
 6649SOL    HW231584   2.096   4.518  12.455  1.2836  1.4674 -1.1431
 6650SOL     OW31585   4.499   3.329   8.707 -0.3396 -0.4772  0.6134
 6650SOL    HW131586   4.468   3.345   8.618 -1.3382 -2.8630  0.5148
 6650SOL    HW231587   4.462   3.405   8.752 -0.7306  0.4518 -1.2582
 6651SOL     OW31588   0.455   4.367   1.771  0.2284  0.1416  0.2604
 6651SOL    HW131589   0.392   4.309   1.815 -1.5037  0.6126 -1.6145
 6651SOL    HW231590   0.416   4.391   1.687 -0.3457  0.6958  0.6827
 6652SOL     OW31591   0.716   2.511   3.393 -0.4776  0.1975 -0.0395
 6652SOL    HW131592   0.674   2.440   3.442 -0.7203 -0.4599 -1.2020
 6652SOL    HW231593   0.632   2.547   3.364 -0.8184  0.8564  1.7641
 6653SOL     OW31594   1.698   3.673   5.836 -0.4081  0.7112  0.5736
 6653SOL    HW131595   1.644   3.682   5.915 -1.9547  1.0667 -0.5164
 6653SOL    HW231596   1.779   3.651   5.882 -0.5992 -1.2337 -0.0073
 6654SOL     OW31597   2.748   1.841   6.393  0.0782 -0.2173  0.1864
 6654SOL    HW131598   2.678   1.777   6.386  1.2351 -1.1542 -2.7010
 6654SOL    HW231599   2.698   1.913   6.433  1.7634  1.1099 -0.0902
 6655SOL     OW31600   0.906   0.191   5.143  0.0408  0.0254 -0.2171
 6655SOL    HW131601   0.997   0.162   5.144  0.6069  1.8611  1.6485
 6655SOL    HW231602   0.870   0.139   5.215 -1.3085  0.9867 -0.1910
 6656SOL     OW31603   0.093   2.529   6.023  0.1781  0.6903 -0.1835
 6656SOL    HW131604   0.067   2.598   6.085  1.6026 -0.6275  1.8808
 6656SOL    HW231605   0.011   2.479   6.018 -0.5393  1.8685 -0.3277
 6657SOL     OW31606   0.303   1.478   9.297  0.2855 -0.0630  0.1068
 6657SOL    HW131607   0.211   1.492   9.273 -0.0113 -2.5871 -0.2520
 6657SOL    HW231608   0.310   1.528   9.377  0.3103 -1.0767  0.7432
 6658SOL     OW31609   3.939   3.272  15.786  0.3744  0.3762 -0.1558
 6658SOL    HW131610   3.896   3.239  15.706  1.9536  1.2621 -1.3586
 6658SOL    HW231611   3.952   3.192  15.837 -0.5112  0.4343  0.1708
 6659SOL     OW31612   1.417   2.889  16.459 -0.0970 -0.1769 -0.5618
 6659SOL    HW131613   1.345   2.938  16.419  0.5729  1.0070 -0.3198
 6659SOL    HW231614   1.496   2.939  16.440 -0.0457 -0.1175 -0.1840
 6660SOL     OW31615   0.305   3.159   9.696 -0.5461  0.4216  0.4207
 6660SOL    HW131616   0.369   3.139   9.628  0.8128  4.5709  0.4546
 6660SOL    HW231617   0.326   3.095   9.763  0.0022  1.0459  0.8452
 6661SOL     OW31618   0.865   2.725   2.311 -0.4886  0.0826 -0.2918
 6661SOL    HW131619   0.852   2.810   2.270 -2.1982  0.9278  2.0107
 6661SOL    HW231620   0.776   2.690   2.303 -1.2357  1.4174  2.0997
 6662SOL     OW31621   1.989   4.196   1.686 -0.6924 -0.3269 -0.3268
 6662SOL    HW131622   1.997   4.247   1.605  0.8915 -0.5188 -0.3014
 6662SOL    HW231623   2.008   4.105   1.662 -0.5218 -0.9861  2.3604
 6663SOL     OW31624   1.062   0.990  13.048  0.4609  0.0714  0.0099
 6663SOL    HW131625   1.143   1.035  13.072  0.8862 -1.1572  0.8574
 6663SOL    HW231626   1.076   0.905  13.089 -0.1447 -0.6185 -1.1973
 6664SOL     OW31627   3.548   4.341  14.663  0.4744 -0.0016 -0.1895
 6664SOL    HW131628   3.487   4.377  14.727  0.7154  1.1085 -0.5893
 6664SOL    HW231629   3.621   4.310  14.717  0.3804  0.0044 -0.0581
 6665SOL     OW31630   1.154   4.057  16.787 -0.1620  0.6862 -0.3448
 6665SOL    HW131631   1.065   4.090  16.800 -0.9480 -1.0903 -1.0878
 6665SOL    HW231632   1.197   4.099  16.861  0.3584 -0.5991  0.0847
 6666SOL     OW31633   2.806   1.504   1.150 -0.0379 -0.1223 -0.4506
 6666SOL    HW131634   2.729   1.447   1.158 -0.8331  0.9367 -0.4571
 6666SOL    HW231635   2.821   1.507   1.056 -2.4024  0.3046 -0.8328
 6667SOL     OW31636   4.273   2.179  14.167  0.6208  0.0854  0.1025
 6667SOL    HW131637   4.304   2.226  14.089 -1.9681  0.4673 -0.6939
 6667SOL    HW231638   4.235   2.106  14.119 -0.0069 -0.5725  1.6082
 6668SOL     OW31639   4.457   3.634  17.101 -0.6474 -0.2679 -0.1850
 6668SOL    HW131640   4.446   3.540  17.092 -0.8132 -0.4197  1.5695
 6668SOL    HW231641   4.368   3.666  17.121 -0.1631  0.0868  1.4036
 6669SOL     OW31642   0.731   3.323   3.593  0.5351 -0.6154 -0.3234
 6669SOL    HW131643   0.676   3.369   3.529 -0.3752  0.6801  1.3959
 6669SOL    HW231644   0.817   3.355   3.566  0.2730  0.9034  0.6855
 6670SOL     OW31645   1.681   2.616   4.398 -0.1628  0.4680  0.3223
 6670SOL    HW131646   1.634   2.534   4.384 -1.0207  1.2246 -1.1001
 6670SOL    HW231647   1.636   2.663   4.468  0.3887 -0.2166  1.1398
 6671SOL     OW31648   0.653   0.061  17.442 -0.3750  0.0801 -0.8305
 6671SOL    HW131649   0.739   0.086  17.475 -1.8525  0.8201  2.4869
 6671SOL    HW231650   0.625   0.145  17.404  2.0464  1.7172  0.9700
 6672SOL     OW31651   3.069   1.882   6.121 -0.4188  0.5023 -0.1962
 6672SOL    HW131652   3.117   1.900   6.202 -1.3139  1.0172  0.2195
 6672SOL    HW231653   3.135   1.844   6.064 -1.1051 -1.0730  0.0476
 6673SOL     OW31654   1.917   1.133   1.102 -0.0794  0.3017  0.0897
 6673SOL    HW131655   1.845   1.070   1.112  0.8882 -0.9058 -0.4516
 6673SOL    HW231656   1.986   1.088   1.150 -0.5713 -3.6464 -2.8505
 6674SOL     OW31657   4.011   1.503   7.650  0.4179 -0.2088  0.4834
 6674SOL    HW131658   4.096   1.500   7.607  0.1369 -2.3955  0.0799
 6674SOL    HW231659   3.964   1.508   7.566  0.6961  2.0584  0.4662
 6675SOL     OW31660   2.560   1.643   6.428 -0.4151 -0.5281  0.2861
 6675SOL    HW131661   2.583   1.551   6.410 -1.1464 -0.7256  0.3814
 6675SOL    HW231662   2.499   1.670   6.359 -0.5359 -0.4027  0.4445
 6676SOL     OW31663   4.307   2.918   8.084  0.1403 -0.4769 -0.4733
 6676SOL    HW131664   4.271   2.852   8.142 -1.2134  0.0757 -0.7013
 6676SOL    HW231665   4.246   2.920   8.011  0.0526 -0.0271 -0.3905
 6677SOL     OW31666   3.108   3.779   2.967 -0.2163  0.1938 -0.4631
 6677SOL    HW131667   3.199   3.750   2.958 -0.2676 -0.1275  0.0392
 6677SOL    HW231668   3.073   3.721   3.034  2.6001 -0.1349  0.7185
 6678SOL     OW31669   0.355   0.383  12.224 -0.2124 -0.2819 -0.1612
 6678SOL    HW131670   0.448   0.396  12.210 -0.1114  0.1783  0.9403
 6678SOL    HW231671   0.346   0.425  12.309 -0.8418 -0.8815  0.0709
 6679SOL     OW31672   1.762   2.024   4.332 -0.2327  0.1920 -0.2274
 6679SOL    HW131673   1.854   2.036   4.353  0.0265  2.4905 -2.5642
 6679SOL    HW231674   1.742   1.974   4.411  2.7690  1.2440  1.1629
 6680SOL     OW31675   1.902   3.353  15.286 -0.2958  0.0838 -0.3581
 6680SOL    HW131676   1.971   3.399  15.334 -0.0500 -1.3784  0.6889
 6680SOL    HW231677   1.950   3.279  15.248 -1.0399 -2.4005  3.5389
 6681SOL     OW31678   2.439   2.961   6.271 -0.1584 -0.2767  0.0758
 6681SOL    HW131679   2.434   2.901   6.197  0.0619  1.7985 -1.6088
 6681SOL    HW231680   2.508   3.022   6.247 -0.2008  0.4158  1.7537
 6682SOL     OW31681   0.366   3.414   5.035 -0.3835  0.2805 -0.7338
 6682SOL    HW131682   0.279   3.433   5.072  0.5525  2.1785  0.4547
 6682SOL    HW231683   0.346   3.387   4.945 -0.4555  0.3124 -0.7277
 6683SOL     OW31684   3.128   2.864   6.361  0.1286 -0.1961  0.4167
 6683SOL    HW131685   3.166   2.780   6.384 -0.6547 -0.9221 -0.9260
 6683SOL    HW231686   3.041   2.846   6.398 -0.7438  1.5324 -0.7816
 6684SOL     OW31687   2.226   4.563   5.878  0.0805 -0.5046 -0.3526
 6684SOL    HW131688   2.137   4.537   5.899 -0.1987 -1.2967 -2.4476
 6684SOL    HW231689   2.273   4.526   5.953 -0.3044  1.7976  1.0176
 6685SOL     OW31690   3.498   1.153   7.211  0.0188  0.5458 -0.3403
 6685SOL    HW131691   3.535   1.220   7.267  1.6724  0.6365 -1.5258
 6685SOL    HW231692   3.470   1.091   7.278  0.3351 -1.4107 -2.0128
 6686SOL     OW31693   2.693   2.283   5.568  0.4177 -0.7324 -0.3120
 6686SOL    HW131694   2.642   2.254   5.643  0.5160  0.3697  0.1738
 6686SOL    HW231695   2.777   2.236   5.575  1.3083  0.8937 -0.1056
 6687SOL     OW31696   3.230   0.595   0.488 -0.2869 -0.8030  0.3464
 6687SOL    HW131697   3.307   0.543   0.511  0.4552 -0.5416 -1.5693
 6687SOL    HW231698   3.277   0.662   0.439 -0.5675 -1.7270 -1.1658
 6688SOL     OW31699   1.125   4.164  12.428 -0.8991  0.3884  0.6399
 6688SOL    HW131700   1.171   4.091  12.469 -1.0356 -1.0081 -1.7085
 6688SOL    HW231701   1.037   4.152  12.462 -0.4387 -3.3361  0.4377
 6689SOL     OW31702   1.807   0.963   7.531  0.1207  0.3715 -0.0338
 6689SOL    HW131703   1.801   1.024   7.458 -0.0383  0.0273 -0.3070
 6689SOL    HW231704   1.809   0.877   7.489 -1.6628 -0.8504  2.3682
 6690SOL     OW31705   3.766   0.156   6.890 -0.4032  0.1335 -0.2066
 6690SOL    HW131706   3.719   0.234   6.859 -1.6046  1.0843  4.0016
 6690SOL    HW231707   3.702   0.087   6.872  1.5955 -2.1482  1.3837
 6691SOL     OW31708   4.039   2.033  11.347  0.1708 -0.1843  0.2032
 6691SOL    HW131709   4.001   1.954  11.384  1.3064 -0.9323 -0.2235
 6691SOL    HW231710   4.036   2.018  11.253  0.0669  2.0117 -0.1482
 6692SOL     OW31711   3.669   3.727   1.512 -0.4485  0.2083  0.9471
 6692SOL    HW131712   3.632   3.807   1.549 -0.6098  0.4614  0.2465
 6692SOL    HW231713   3.711   3.768   1.437 -2.8672 -0.1759 -0.6221
 6693SOL     OW31714   2.954   3.219  17.727  0.5301  0.0944  0.1342
 6693SOL    HW131715   2.975   3.194   0.075  1.9878 -1.0192 -0.5101
 6693SOL    HW231716   2.867   3.257  17.733 -0.3049 -1.4410 -2.2550
 6694SOL     OW31717   4.395   2.248  13.870 -0.1954 -0.2236  0.0531
 6694SOL    HW131718   4.430   2.326  13.827 -2.5580 -0.5815 -2.5204
 6694SOL    HW231719   4.467   2.189  13.848  0.6404  0.0292  2.1718
 6695SOL     OW31720   1.585   2.671   5.821 -0.7855  0.7951 -0.0971
 6695SOL    HW131721   1.607   2.654   5.729 -0.7881  0.8159 -0.1016
 6695SOL    HW231722   1.545   2.588   5.847  1.5965 -1.0629 -2.3394
 6696SOL     OW31723   4.709   1.966   8.927 -0.1461  0.0857 -0.8415
 6696SOL    HW131724   4.693   2.055   8.898 -0.8354 -0.2384 -1.4478
 6696SOL    HW231725   4.688   1.975   9.020  0.1999 -0.2062 -0.7331
 6697SOL     OW31726   1.473   0.313  12.289 -0.4628  0.5954 -0.8973
 6697SOL    HW131727   1.411   0.308  12.217 -1.7189 -2.2543  0.3895
 6697SOL    HW231728   1.505   0.223  12.285 -1.4948  0.2203 -0.6895
 6698SOL     OW31729   2.440   3.448  15.174  0.1662  0.1891 -0.3060
 6698SOL    HW131730   2.391   3.368  15.191  1.9833 -0.5025  1.6731
 6698SOL    HW231731   2.493   3.459  15.253  1.7239 -0.0083 -1.3276
 6699SOL     OW31732   1.300   2.534   2.662  0.2975 -0.2204 -0.1899
 6699SOL    HW131733   1.271   2.468   2.600 -1.5136  0.3719  0.0365
 6699SOL    HW231734   1.319   2.478   2.737  0.6946  2.0215  1.3992
 6700SOL     OW31735   3.170   4.656   9.129  0.3111  0.0115  0.4880
 6700SOL    HW131736   3.150   4.730   9.071  1.9820  0.0073 -0.0972
 6700SOL    HW231737   3.219   4.693   9.203  0.6307  1.8490 -0.6481
 6701SOL     OW31738   2.669   1.095  12.616  0.4208  0.1449 -0.3517
 6701SOL    HW131739   2.694   1.144  12.538 -0.7344 -4.1690 -3.4035
 6701SOL    HW231740   2.749   1.109  12.668  0.3799  1.5062 -0.6670
 6702SOL     OW31741   0.966   2.781   5.920  0.4800 -0.5112 -0.2630
 6702SOL    HW131742   0.919   2.781   5.836  0.8560  1.9061 -0.4730
 6702SOL    HW231743   1.056   2.798   5.893  0.1659 -0.0151 -1.0058
 6703SOL     OW31744   2.539   0.974   9.322  0.2814  0.3257 -0.3388
 6703SOL    HW131745   2.445   0.988   9.324 -0.0621 -2.1374  0.7564
 6703SOL    HW231746   2.555   0.979   9.417 -0.4609  0.5605 -0.2287
 6704SOL     OW31747   0.905   1.711   4.572  0.2797 -0.0312 -0.3418
 6704SOL    HW131748   0.931   1.626   4.538  1.0857  0.7770 -1.7745
 6704SOL    HW231749   0.988   1.734   4.614  0.1131  1.0576 -0.5959
 6705SOL     OW31750   2.549   0.015  10.463  0.0477 -0.0313 -0.7112
 6705SOL    HW131751   2.504   0.099  10.455 -1.4951 -0.9502 -1.7531
 6705SOL    HW231752   2.624   0.037  10.517 -0.3828  1.6141 -0.7876
 6706SOL     OW31753   2.549   3.932   8.746  0.6415  0.1207 -0.2636
 6706SOL    HW131754   2.637   3.894   8.739  0.2453 -0.8312 -0.1961
 6706SOL    HW231755   2.532   3.888   8.830 -0.7736  3.4672  1.1696
 6707SOL     OW31756   2.693   0.907   7.950  0.0042  0.3130 -0.0799
 6707SOL    HW131757   2.782   0.928   7.922  0.0815  1.1330  0.7731
 6707SOL    HW231758   2.682   0.830   7.894 -0.6223 -0.6107  1.3296
 6708SOL     OW31759   2.023   3.051   6.798  0.1800 -0.0828 -0.2745
 6708SOL    HW131760   1.929   3.047   6.780  0.2132 -2.4013 -0.0453
 6708SOL    HW231761   2.027   3.067   6.892  1.1070 -0.4924 -0.2372
 6709SOL     OW31762   2.900   1.700   3.550  0.6805  0.1675 -0.1312
 6709SOL    HW131763   2.843   1.731   3.480 -0.0448  0.2878  0.5170
 6709SOL    HW231764   2.975   1.759   3.541  0.1413  0.6393 -1.4044
 6710SOL     OW31765   1.813   4.618   4.675 -0.1159 -0.2391 -0.1198
 6710SOL    HW131766   1.767   4.682   4.730  0.5187  0.7600 -0.7480
 6710SOL    HW231767   1.901   4.638   4.707  0.5814 -1.3680 -1.3255
 6711SOL     OW31768   2.581   0.225   8.198 -0.3926 -0.3890 -0.2434
 6711SOL    HW131769   2.651   0.280   8.164  0.8569 -2.3786 -0.9241
 6711SOL    HW231770   2.570   0.249   8.290 -1.9789  1.3672 -0.8956
 6712SOL     OW31771   3.529   3.123   7.336 -0.1288 -0.0027 -0.0486
 6712SOL    HW131772   3.611   3.148   7.294 -2.0261  3.6605 -1.5786
 6712SOL    HW231773   3.480   3.115   7.254 -0.3191  1.2156 -0.0521
 6713SOL     OW31774   1.540   0.161   5.938 -0.5561  0.3212  0.2948
 6713SOL    HW131775   1.573   0.239   5.893 -0.3801 -0.5452 -1.0860
 6713SOL    HW231776   1.545   0.186   6.030 -0.8149 -1.7173  0.8717
 6714SOL     OW31777   4.655   3.812  17.049 -0.0899  0.3542  0.3780
 6714SOL    HW131778   4.701   3.815  17.133 -1.2057  1.3058  0.9480
 6714SOL    HW231779   4.583   3.750  17.061 -0.2689  0.6504  0.8091
 6715SOL     OW31780   1.441   1.127   5.097 -0.7057  0.0535 -0.4583
 6715SOL    HW131781   1.469   1.195   5.036  0.3800 -1.1121 -1.2575
 6715SOL    HW231782   1.349   1.150   5.114 -1.1190 -1.3195 -0.8893
 6716SOL     OW31783   3.262   3.636  17.166  0.0050  0.3265  0.5809
 6716SOL    HW131784   3.196   3.594  17.220  1.9124  1.3948  3.7332
 6716SOL    HW231785   3.305   3.559  17.127  0.4205  0.9571 -0.2213
 6717SOL     OW31786   1.385   1.000   7.500  0.2076 -0.2159 -0.1995
 6717SOL    HW131787   1.377   1.007   7.595  0.6531  1.0603 -0.2555
 6717SOL    HW231788   1.292   1.014   7.480  0.5743  0.2755 -1.5997
 6718SOL     OW31789   2.710   4.514   6.411  0.1480 -0.0293  0.6117
 6718SOL    HW131790   2.736   4.466   6.489 -1.3176 -0.8200  0.6165
 6718SOL    HW231791   2.736   4.453   6.341 -1.4385 -0.0744  0.0653
 6719SOL     OW31792   2.315   2.823  12.349  0.2849  0.2204  0.7132
 6719SOL    HW131793   2.257   2.762  12.304 -1.2230  2.4058 -0.2918
 6719SOL    HW231794   2.360   2.829  12.264 -1.4361  0.7599 -0.1565
 6720SOL     OW31795   1.442   0.807  10.092 -0.2012 -0.6080  0.0085
 6720SOL    HW131796   1.425   0.895  10.123  1.4808  0.0830 -1.0301
 6720SOL    HW231797   1.466   0.810   9.999  0.3817  0.4493  0.2024
 6721SOL     OW31798   0.684   2.476   9.074  0.0949  0.0623  0.4789
 6721SOL    HW131799   0.707   2.416   9.003 -0.8529  0.9446 -0.5739
 6721SOL    HW231800   0.610   2.524   9.038  0.6720  1.0569  0.6162
 6722SOL     OW31801   1.843   4.557   5.259  0.9259 -0.2665  0.5093
 6722SOL    HW131802   1.899   4.632   5.275  1.1981  0.0355 -1.9089
 6722SOL    HW231803   1.880   4.482   5.307  2.2464 -0.2165 -0.4318
 6723SOL     OW31804   4.565   4.213   9.282  0.2345  0.6133  0.2294
 6723SOL    HW131805   4.575   4.257   9.367 -0.0403  0.7677  0.1830
 6723SOL    HW231806   4.564   4.126   9.322 -1.7167  0.9438  0.8881
 6724SOL     OW31807   2.449   3.328   7.426 -0.4295  0.5965  0.3934
 6724SOL    HW131808   2.491   3.409   7.399 -0.8563  0.0953 -1.7884
 6724SOL    HW231809   2.417   3.315   7.337 -1.4015 -1.7348  1.0849
 6725SOL     OW31810   1.667   1.356   9.603  0.2925 -0.3314  0.3820
 6725SOL    HW131811   1.678   1.355   9.698  2.9423 -2.7516  0.0303
 6725SOL    HW231812   1.572   1.372   9.605  0.2654  0.0202 -2.9836
 6726SOL     OW31813   3.803   0.947   5.319 -0.3675 -0.3526 -0.1923
 6726SOL    HW131814   3.818   0.944   5.413  1.2393 -0.2457 -0.4561
 6726SOL    HW231815   3.755   1.029   5.336  1.3299  0.3693  1.0636
 6727SOL     OW31816   4.437   3.785  16.771  0.5841 -0.1771 -0.0153
 6727SOL    HW131817   4.497   3.844  16.726  1.5800  0.0047  1.5611
 6727SOL    HW231818   4.499   3.775  16.843 -0.3638 -2.0733  0.5496
 6728SOL     OW31819   0.490   1.728   3.866 -0.2340  0.1607 -0.1935
 6728SOL    HW131820   0.523   1.780   3.792  0.6921  1.4447  1.1187
 6728SOL    HW231821   0.569   1.717   3.919  1.0674  2.4701 -1.6458
 6729SOL     OW31822   3.670   3.075  10.048  0.1221  0.4459  0.1205
 6729SOL    HW131823   3.608   3.043   9.982  2.3349 -1.1679 -1.1718
 6729SOL    HW231824   3.723   2.999  10.070 -0.0672  0.9964  2.4535
 6730SOL     OW31825   2.033   2.007   7.708 -0.3288 -0.6729  0.1755
 6730SOL    HW131826   1.976   1.931   7.719 -0.5204 -0.3409  1.4316
 6730SOL    HW231827   2.069   2.015   7.796 -0.1319 -0.4517  0.0760
 6731SOL     OW31828   4.115   3.441   6.631 -0.6108  0.1081  0.3418
 6731SOL    HW131829   4.036   3.387   6.642  1.4416 -2.6128  1.5948
 6731SOL    HW231830   4.075   3.527   6.615 -1.3050 -0.4526 -0.8754
 6732SOL     OW31831   1.918   3.988   2.075  0.3236 -0.1744 -0.2462
 6732SOL    HW131832   1.882   3.994   2.163 -0.4122 -2.2044 -0.4050
 6732SOL    HW231833   2.004   3.949   2.093  0.8525  1.1735  0.0749
 6733SOL     OW31834   4.211   4.142   0.205 -0.2114  0.5519  0.4141
 6733SOL    HW131835   4.205   4.199   0.282 -2.5326 -1.6639  1.8856
 6733SOL    HW231836   4.140   4.177   0.152  0.4947  1.9983  0.4278
 6734SOL     OW31837   1.647   1.590   2.884 -0.1290 -0.4938 -0.2149
 6734SOL    HW131838   1.705   1.587   2.808 -1.4122  0.1381 -1.2323
 6734SOL    HW231839   1.707   1.623   2.951  1.0572 -0.9721 -1.0511
 6735SOL     OW31840   3.811   3.744   7.918  0.0251  0.5755 -0.1653
 6735SOL    HW131841   3.857   3.720   7.838 -0.9170  2.4060 -1.2615
 6735SOL    HW231842   3.725   3.704   7.904  0.6577 -0.9134  0.2376
 6736SOL     OW31843   3.629   4.500  14.073  0.1514 -0.5071  0.0895
 6736SOL    HW131844   3.681   4.513  14.152  0.8486 -0.6001 -0.3542
 6736SOL    HW231845   3.550   4.549  14.099  0.9707  0.3224  1.0173
 6737SOL     OW31846   0.731   4.637  16.849 -0.4677 -0.6988 -0.2141
 6737SOL    HW131847   0.692   4.695  16.784 -2.2257 -1.2786  0.3288
 6737SOL    HW231848   0.651   4.601  16.888 -0.3572  2.2318  2.6442
 6738SOL     OW31849   4.548   1.915   3.629  0.1550 -0.3490 -0.2151
 6738SOL    HW131850   4.515   1.835   3.587 -1.6896  0.4032 -0.2112
 6738SOL    HW231851   4.621   1.920   3.567  1.2975 -2.4912  0.9697
 6739SOL     OW31852   0.088   0.100   8.023  0.6671 -0.4294 -0.3106
 6739SOL    HW131853   0.040   0.085   7.942  0.3015 -0.5192 -0.0741
 6739SOL    HW231854   0.018   0.134   8.078 -1.0468 -1.7593 -1.6408
 6740SOL     OW31855   3.243   1.069   6.673  0.5562  0.0268  0.0959
 6740SOL    HW131856   3.203   1.010   6.610 -0.2198 -0.6574  1.2321
 6740SOL    HW231857   3.177   1.063   6.742 -1.1067  1.3744 -1.3961
 6741SOL     OW31858   0.725   4.211  10.601  0.7311  0.0153  0.0948
 6741SOL    HW131859   0.739   4.177  10.512 -1.4523  0.4662 -0.4182
 6741SOL    HW231860   0.733   4.128  10.648 -0.1037 -0.0308  0.1498
 6742SOL     OW31861   0.511   0.353   2.340  0.0910  0.0660  0.2087
 6742SOL    HW131862   0.535   0.389   2.425  0.8788  1.5979 -0.6679
 6742SOL    HW231863   0.598   0.318   2.325 -0.2809 -0.8593  0.2362
 6743SOL     OW31864   4.202   3.418  14.762 -0.2893 -0.3808  0.4761
 6743SOL    HW131865   4.279   3.363  14.777  0.4248 -0.1479 -2.3508
 6743SOL    HW231866   4.229   3.465  14.683 -0.0109  1.4364  1.6456
 6744SOL     OW31867   1.484   0.097  12.555  0.3776 -0.2745 -0.6279
 6744SOL    HW131868   1.465   0.183  12.518  1.2036 -0.1235 -0.7007
 6744SOL    HW231869   1.459   0.034  12.487 -1.6371  0.7442 -0.8504
 6745SOL     OW31870   1.156   1.135  17.591  0.3068  0.4368 -0.3290
 6745SOL    HW131871   1.208   1.197  17.642  1.4620  1.2737 -2.5191
 6745SOL    HW231872   1.091   1.109  17.656 -1.0758  1.0495 -1.4613
 6746SOL     OW31873   1.790   3.269   1.730 -0.7409 -0.1523 -0.3630
 6746SOL    HW131874   1.799   3.364   1.732  3.0656 -0.4608 -1.5624
 6746SOL    HW231875   1.706   3.261   1.774 -0.0481  2.0463  1.3374
 6747SOL     OW31876   4.337   0.311   7.439 -0.1329  0.4763  0.3964
 6747SOL    HW131877   4.285   0.283   7.364  1.4362 -1.1380 -0.0980
 6747SOL    HW231878   4.414   0.264   7.405 -0.6105 -0.2337  0.3032
 6748SOL     OW31879   0.620   2.151  16.572  0.5560  0.2098  0.2181
 6748SOL    HW131880   0.652   2.132  16.484 -1.4221  0.4808 -0.5413
 6748SOL    HW231881   0.693   2.207  16.601  0.0388  1.2530 -0.5033
 6749SOL     OW31882   3.874   1.372  13.219 -0.4839  0.5358  0.9507
 6749SOL    HW131883   3.932   1.376  13.143  0.0763 -0.2776  1.3418
 6749SOL    HW231884   3.806   1.425  13.178  0.2811  0.3868 -0.5099
 6750SOL     OW31885   1.406   1.262   0.318 -0.0128 -0.1887  0.7403
 6750SOL    HW131886   1.350   1.226   0.387  1.6856 -1.1938  1.5958
 6750SOL    HW231887   1.398   1.355   0.336 -0.9734 -0.1533  0.1080
 6751SOL     OW31888   0.947   2.747   5.086  0.2828  0.0406 -0.0110
 6751SOL    HW131889   0.919   2.750   4.995  1.7955 -1.4776 -0.5172
 6751SOL    HW231890   0.895   2.673   5.118 -0.6049  0.1850 -1.1403
 6752SOL     OW31891   3.800   4.023  17.147 -0.0651 -0.1563 -0.4382
 6752SOL    HW131892   3.716   4.065  17.166  1.3195  0.8004  3.5283
 6752SOL    HW231893   3.824   3.994  17.235  3.2084 -1.4432 -1.7517
 6753SOL     OW31894   4.711   3.219   5.129  0.2623 -0.7038  0.8430
 6753SOL    HW131895   4.704   3.134   5.086  1.9730 -0.7116  0.5687
 6753SOL    HW231896   4.621   3.247   5.115  0.3056  0.1479  2.1909
 6754SOL     OW31897   1.985   0.090  14.864  0.2011  0.2239  0.0582
 6754SOL    HW131898   1.919   0.085  14.933 -0.2317  0.5051 -0.3368
 6754SOL    HW231899   2.059   0.037  14.895 -0.5339 -1.2508 -0.7025
 6755SOL     OW31900   0.776   3.685   5.604 -0.6976  0.4417  0.4626
 6755SOL    HW131901   0.684   3.705   5.617 -0.4635  0.0631  2.6357
 6755SOL    HW231902   0.778   3.662   5.510  2.5323 -2.4669  1.2261
 6756SOL     OW31903   1.548   4.617   2.349  0.2624 -0.3115  0.0545
 6756SOL    HW131904   1.580   4.707   2.346 -3.0844  0.9282  2.8775
 6756SOL    HW231905   1.464   4.621   2.395 -0.0643 -0.9360 -0.4846
 6757SOL     OW31906   2.959   2.806   9.405 -0.5377 -0.8354  0.1629
 6757SOL    HW131907   2.959   2.729   9.347  0.4577  0.6862 -1.8434
 6757SOL    HW231908   3.013   2.782   9.481 -1.6288  0.4408  1.3340
 6758SOL     OW31909   2.374   4.452   2.005  0.3108 -0.6683 -0.0804
 6758SOL    HW131910   2.346   4.521   1.945 -0.4582  0.1461  1.2153
 6758SOL    HW231911   2.452   4.424   1.958 -1.0755 -1.7697 -1.7283
 6759SOL     OW31912   2.602   3.338  10.488 -0.1323 -0.3124 -0.3898
 6759SOL    HW131913   2.693   3.308  10.492  0.3320  1.2884  1.0008
 6759SOL    HW231914   2.577   3.329  10.396 -1.7112  0.7031 -0.0552
 6760SOL     OW31915   2.852   3.483   6.290  0.2798 -0.2785 -0.6259
 6760SOL    HW131916   2.837   3.388   6.290  0.4946 -0.2810  4.5171
 6760SOL    HW231917   2.904   3.496   6.369  0.6610  2.7516 -1.3962
 6761SOL     OW31918   3.834   3.016   3.670  0.0807 -0.0088  0.2193
 6761SOL    HW131919   3.813   3.108   3.683  0.8540 -0.1678  2.5638
 6761SOL    HW231920   3.928   3.015   3.688  0.6971 -0.4675 -2.8624
 6762SOL     OW31921   4.440   3.021  16.796 -0.6310 -0.8402 -0.0258
 6762SOL    HW131922   4.456   3.051  16.886  0.4571 -0.9927 -0.1600
 6762SOL    HW231923   4.530   3.015  16.765 -0.5129 -2.3952  0.6199
 6763SOL     OW31924   2.049   0.170   3.641  0.0531 -0.2339  0.4726
 6763SOL    HW131925   2.081   0.247   3.594 -0.3876 -0.2051  0.2195
 6763SOL    HW231926   2.122   0.113   3.616 -0.6157 -0.1257 -1.6996
 6764SOL     OW31927   2.557   4.325   1.818  0.1854  0.4563  0.3443
 6764SOL    HW131928   2.637   4.272   1.815 -0.3168 -0.2939  0.0458
 6764SOL    HW231929   2.594   4.408   1.788 -1.1131  0.7107 -0.5306
 6765SOL     OW31930   4.679   2.007   1.553 -0.0111  0.9212 -0.0859
 6765SOL    HW131931   4.610   2.058   1.596 -2.5131 -2.7783  0.2396
 6765SOL    HW231932   0.007   2.012   1.624 -0.0120 -1.4007  0.0613
 6766SOL     OW31933   4.034   2.184  17.130 -0.2106  0.0498 -0.4543
 6766SOL    HW131934   4.041   2.169  17.036  1.5941 -0.6023 -0.2077
 6766SOL    HW231935   3.945   2.219  17.137 -0.6678 -1.0660 -0.7776
 6767SOL     OW31936   1.456   0.822   7.298  0.2635 -0.2236 -0.3782
 6767SOL    HW131937   1.443   0.890   7.364 -1.0123 -0.2436 -0.5979
 6767SOL    HW231938   1.487   0.747   7.350 -1.4671 -1.2654 -0.8192
 6768SOL     OW31939   1.808   4.314   9.238 -0.4898  0.6227  0.2626
 6768SOL    HW131940   1.801   4.294   9.145  1.0104  0.7767  0.1215
 6768SOL    HW231941   1.747   4.387   9.237 -0.5785  0.5685  1.5216
 6769SOL     OW31942   0.777   0.043   6.314  0.2151 -0.0314 -0.8001
 6769SOL    HW131943   0.763   0.009   6.402 -1.4364 -0.0871 -1.0873
 6769SOL    HW231944   0.695   0.017   6.273 -0.4311  2.6389 -1.2308
 6770SOL     OW31945   3.890   2.946   7.048 -0.7219 -0.2406  0.5555
 6770SOL    HW131946   3.926   2.871   7.096  1.4590  1.1559  1.0956
 6770SOL    HW231947   3.844   2.905   6.974  0.7615 -0.7613 -0.0772
 6771SOL     OW31948   4.118   3.615   0.690  0.2554 -0.0256  0.0841
 6771SOL    HW131949   4.142   3.543   0.631 -1.9211 -0.0635 -0.7572
 6771SOL    HW231950   4.145   3.576   0.774 -1.3336 -1.4783 -0.0768
 6772SOL     OW31951   2.232   3.658  14.798 -0.1713 -0.4846 -0.4340
 6772SOL    HW131952   2.139   3.643  14.814  0.1446 -0.6179  1.2839
 6772SOL    HW231953   2.231   3.663  14.703  0.2858 -0.9450 -0.4611
 6773SOL     OW31954   0.611   4.666   2.591  0.4513  0.1072 -0.7803
 6773SOL    HW131955   0.598   0.025   2.601 -1.1693 -0.4605  2.5330
 6773SOL    HW231956   0.556   4.642   2.665 -0.2210  3.1440 -0.2923
 6774SOL     OW31957   4.655   0.070  12.959  0.4450  0.1586  0.1768
 6774SOL    HW131958   0.008   0.079  12.993  0.8893  1.0384 -1.2495
 6774SOL    HW231959   4.610   0.012  13.021  2.1362 -0.2939  0.9770
 6775SOL     OW31960   3.482   0.373   6.232  0.1904 -0.4510 -0.6347
 6775SOL    HW131961   3.417   0.325   6.285  0.2079  0.3002  0.0685
 6775SOL    HW231962   3.494   0.306   6.165 -0.1442 -1.4625  0.3032
 6776SOL     OW31963   0.125   2.795   2.066  0.2118  0.1810  0.2815
 6776SOL    HW131964   0.160   2.846   1.993 -0.4860 -0.6164 -0.6114
 6776SOL    HW231965   0.039   2.834   2.082 -0.3021 -0.1385 -1.6511
 6777SOL     OW31966   1.450   1.847   1.331 -0.0163 -0.1817  0.4415
 6777SOL    HW131967   1.505   1.806   1.397 -0.9877  0.9073  1.9435
 6777SOL    HW231968   1.411   1.920   1.380  0.3494  0.5018 -0.2894
 6778SOL     OW31969   1.463   0.712   6.024  0.3590  0.1883  0.1360
 6778SOL    HW131970   1.383   0.758   6.049 -0.2042 -0.9452  0.4497
 6778SOL    HW231971   1.441   0.695   5.932 -0.5601 -1.3971  0.6417
 6779SOL     OW31972   4.579   1.649  12.273  0.0623 -0.3862 -0.0918
 6779SOL    HW131973   4.648   1.661  12.207  1.0694 -1.8090  0.7302
 6779SOL    HW231974   4.634   1.623  12.346  0.9925  0.9146 -0.3127
 6780SOL     OW31975   1.251   2.497   6.657 -0.0131  0.0554  0.3026
 6780SOL    HW131976   1.164   2.464   6.635  1.8855 -3.2265 -2.2683
 6780SOL    HW231977   1.233   2.591   6.665  1.7655  0.4516 -0.2866
 6781SOL     OW31978   2.694   3.699  16.837 -0.0999 -0.3489  0.0909
 6781SOL    HW131979   2.678   3.738  16.923  0.4562  0.6490 -0.2662
 6781SOL    HW231980   2.756   3.765  16.806  0.6912 -1.3341 -0.4284
 6782SOL     OW31981   2.912   2.841  13.480  0.4768 -0.8435  0.1979
 6782SOL    HW131982   2.909   2.747  13.458 -1.3998 -1.0753  1.4253
 6782SOL    HW231983   2.893   2.832  13.574  0.5219  3.2564  0.5951
 6783SOL     OW31984   4.541   0.121  11.722 -0.1601 -0.3626 -0.6571
 6783SOL    HW131985   4.468   0.114  11.783 -0.5529 -0.4097 -1.1348
 6783SOL    HW231986   4.618   0.097  11.773 -0.0065  0.0302 -0.7080
 6784SOL     OW31987   1.361   0.271   6.849 -0.0815  0.1008 -0.4965
 6784SOL    HW131988   1.373   0.283   6.944 -2.4748  0.6886 -0.2640
 6784SOL    HW231989   1.361   0.364   6.828  0.5259  0.2109 -0.0342
 6785SOL     OW31990   2.225   0.935   0.856 -0.5327 -0.3256  0.4624
 6785SOL    HW131991   2.214   0.841   0.845  0.5282 -0.3030 -0.8564
 6785SOL    HW231992   2.301   0.952   0.911 -0.0280  0.8728 -0.6014
 6786SOL     OW31993   2.663   4.127   8.111 -0.1416  0.1112  0.1715
 6786SOL    HW131994   2.656   4.045   8.062  1.2269  0.4093 -0.5107
 6786SOL    HW231995   2.756   4.129   8.090 -0.2624 -1.3260 -0.4868
 6787SOL     OW31996   2.807   0.847   9.619 -0.0274 -0.2624 -0.0536
 6787SOL    HW131997   2.746   0.917   9.598  0.7070  0.3571 -0.1520
 6787SOL    HW231998   2.787   0.787   9.548  2.9885 -3.0147  1.3971
 6788SOL     OW31999   4.332   2.890   4.609 -0.0976 -0.1933 -0.2209
 6788SOL    HW132000   4.392   2.841   4.552  3.0860  0.2091  2.7991
 6788SOL    HW232001   4.365   2.979   4.623  0.3487 -0.5942  1.2017
 6789SOL     OW32002   3.279   1.609   4.171  0.2319  0.2191  0.2287
 6789SOL    HW132003   3.233   1.556   4.236  1.1057 -1.4832 -0.5178
 6789SOL    HW232004   3.250   1.579   4.084 -0.4249  0.6630  0.3002
 6790SOL     OW32005   1.299   4.706   7.761  0.2638  0.2658 -0.2876
 6790SOL    HW132006   1.344   4.624   7.744  0.6636  0.5825 -0.7601
 6790SOL    HW232007   1.212   4.671   7.783 -0.7026  2.7929 -0.0666
 6791SOL     OW32008   2.340   4.623  14.568 -0.0742 -0.1106 -0.2263
 6791SOL    HW132009   2.300   4.614  14.481  1.0239 -2.8067 -0.4529
 6791SOL    HW232010   2.267   4.597  14.625  0.7368 -2.4106 -0.2384
 6792SOL     OW32011   0.263   1.322   1.967  0.2176  0.4141 -0.1965
 6792SOL    HW132012   0.349   1.287   1.946 -0.1132 -0.8164  0.5196
 6792SOL    HW232013   0.214   1.250   1.928  1.6694 -0.4174 -0.4774
 6793SOL     OW32014   0.361   1.841  13.260  0.1676  0.0940 -0.1112
 6793SOL    HW132015   0.352   1.923  13.309  1.1777 -0.4100  0.9260
 6793SOL    HW232016   0.423   1.860  13.190 -0.3763  1.7842 -0.1365
 6794SOL     OW32017   4.432   2.319   3.216  0.1001 -0.3181  0.5679
 6794SOL    HW132018   4.488   2.349   3.288  0.0482  1.1213  0.0122
 6794SOL    HW232019   4.347   2.361   3.230  1.0631  1.7514  0.2555
 6795SOL     OW32020   4.103   1.148   3.451 -0.4137  0.1180 -0.2288
 6795SOL    HW132021   4.120   1.074   3.509  0.6029  1.6924  1.4617
 6795SOL    HW232022   4.168   1.129   3.383  0.4380 -0.4008  0.7470
 6796SOL     OW32023   3.318   4.607  15.029  0.4619 -1.0353 -0.1649
 6796SOL    HW132024   3.356   4.686  14.989 -0.5140 -1.8594 -2.7177
 6796SOL    HW232025   3.228   4.635  15.047  0.9446  0.7951 -0.5223
 6797SOL     OW32026   3.402   3.233   3.201 -0.0809 -0.3941 -0.0522
 6797SOL    HW132027   3.321   3.240   3.252 -2.1316  0.8933 -3.4675
 6797SOL    HW232028   3.370   3.181   3.127  1.5698  0.1136 -1.1348
 6798SOL     OW32029   1.970   3.902   4.601  0.2078  0.1237  0.1746
 6798SOL    HW132030   1.954   3.987   4.642  0.5756  0.3852 -0.2248
 6798SOL    HW232031   1.885   3.859   4.608  0.2130  0.1579  0.4407
 6799SOL     OW32032   2.104   2.893   4.338  0.3157  0.5346  0.0433
 6799SOL    HW132033   2.121   2.905   4.432 -0.7725 -0.6765  0.3976
 6799SOL    HW232034   2.040   2.823   4.355  0.5975 -0.1181 -1.6665
 6800SOL     OW32035   3.716   1.629   8.593  0.5593  0.0489  0.1724
 6800SOL    HW132036   3.681   1.562   8.651 -0.8803 -0.7698 -1.6544
 6800SOL    HW232037   3.703   1.710   8.643  3.1401  0.4389  0.2524
 6801SOL     OW32038   2.788   4.181   1.778 -0.1072  0.1364 -0.1562
 6801SOL    HW132039   2.847   4.194   1.704 -1.4544  0.6079 -1.1580
 6801SOL    HW232040   2.809   4.088   1.788  2.2051  0.7288  0.5330
 6802SOL     OW32041   0.047   0.806   0.509 -0.0173 -0.3956  0.3829
 6802SOL    HW132042   4.721   0.852   0.565 -0.6298  1.5348 -1.8347
 6802SOL    HW232043   0.108   0.760   0.565  0.3440  1.3598  1.4422
 6803SOL     OW32044   1.414   2.249   3.399 -0.4428  0.1466 -0.3856
 6803SOL    HW132045   1.465   2.199   3.334  0.8587  2.1658 -0.9210
 6803SOL    HW232046   1.444   2.339   3.383 -0.0684  0.3342  1.3853
 6804SOL     OW32047   1.167   0.445   1.746  0.2355  0.6806  0.1590
 6804SOL    HW132048   1.174   0.352   1.766 -0.1271  0.7006  0.3828
 6804SOL    HW232049   1.088   0.476   1.792 -0.0888 -0.6357  0.4895
 6805SOL     OW32050   4.408   0.525   5.737  0.5917 -0.4033 -0.3729
 6805SOL    HW132051   4.312   0.517   5.734  0.4037  1.5228  0.2906
 6805SOL    HW232052   4.428   0.541   5.645  0.5724 -0.8349 -0.4527
 6806SOL     OW32053   3.630   4.316   5.203 -0.2225  0.2733 -0.0405
 6806SOL    HW132054   3.586   4.233   5.222  0.2028  0.3401  1.2419
 6806SOL    HW232055   3.680   4.303   5.122  1.0447 -0.3778  0.8454
 6807SOL     OW32056   0.556   4.112   2.496  0.3131  0.1085 -0.4361
 6807SOL    HW132057   0.537   4.090   2.587 -0.1844  1.6240 -0.1696
 6807SOL    HW232058   0.573   4.205   2.506  0.7578 -0.1918  1.7026
 6808SOL     OW32059   1.771   0.864  11.781  0.0083  0.2545 -0.0766
 6808SOL    HW132060   1.718   0.811  11.721 -0.1124  0.2005  0.0754
 6808SOL    HW232061   1.755   0.812  11.860 -0.8933  1.0013  0.2359
 6809SOL     OW32062   0.041   2.860   7.198  0.0430  0.4689  0.2489
 6809SOL    HW132063   0.094   2.901   7.266  0.0215 -0.0299  0.5625
 6809SOL    HW232064   4.706   2.924   7.192 -0.9038 -0.6560 -0.5603
 6810SOL     OW32065   4.049   4.350   0.281 -0.6678  0.3279  0.2716
 6810SOL    HW132066   4.090   4.413   0.222 -3.5511  2.4064  0.5088
 6810SOL    HW232067   4.100   4.355   0.363  5.2753  0.2675 -3.4025
 6811SOL     OW32068   2.914   2.375  10.901 -0.2612  0.1335 -0.1635
 6811SOL    HW132069   2.871   2.310  10.956  0.1992  1.1483  1.3951
 6811SOL    HW232070   2.837   2.429  10.880 -0.4479  0.1452  0.5600
 6812SOL     OW32071   1.791   3.328   8.214 -0.2382 -0.2497  0.4570
 6812SOL    HW132072   1.823   3.242   8.189 -1.7963 -0.4624 -0.8100
 6812SOL    HW232073   1.737   3.335   8.136  5.1674  0.2154 -3.2433
 6813SOL     OW32074   3.379   0.207   5.739 -0.0620 -0.1955 -0.3831
 6813SOL    HW132075   3.394   0.299   5.761  1.7080 -0.7043  0.5546
 6813SOL    HW232076   3.284   0.197   5.745  0.1013 -2.0351 -0.6920
 6814SOL     OW32077   3.282   3.371   2.610  0.6815 -0.6238  0.1846
 6814SOL    HW132078   3.334   3.402   2.536 -0.9478  0.8345 -0.3528
 6814SOL    HW232079   3.317   3.431   2.676  0.9918 -2.9433  2.1173
 6815SOL     OW32080   2.007   1.712   2.008 -0.3759  0.0632 -0.0834
 6815SOL    HW132081   2.090   1.670   2.030 -1.7018 -1.8742  1.2684
 6815SOL    HW232082   2.003   1.702   1.913  1.5382 -1.2078 -0.0165
 6816SOL     OW32083   1.432   2.771   6.192  0.5341  0.8234 -0.1387
 6816SOL    HW132084   1.473   2.713   6.257 -1.3452  1.1107  1.3056
 6816SOL    HW232085   1.352   2.798   6.237 -0.5732 -0.8999 -1.0425
 6817SOL     OW32086   1.055   2.516  12.088  0.1626  0.0606  0.0392
 6817SOL    HW132087   1.016   2.429  12.097  4.3233 -1.7515  0.6583
 6817SOL    HW232088   1.110   2.512  12.010  0.4444  1.8339  0.1554
 6818SOL     OW32089   2.265   3.599  14.535 -0.3218  0.2166  0.3195
 6818SOL    HW132090   2.268   3.504  14.545  2.0525  0.3176  0.6064
 6818SOL    HW232091   2.198   3.614  14.469  0.0852 -0.3219 -0.2130
 6819SOL     OW32092   1.430   4.713   5.637  0.0053 -0.3352  0.0971
 6819SOL    HW132093   1.352   4.711   5.582 -0.5732 -0.5893  0.9229
 6819SOL    HW232094   1.485   4.647   5.596  0.9609  0.0573  0.7605
 6820SOL     OW32095   2.593   0.265   0.191 -0.1674 -0.2299  0.2573
 6820SOL    HW132096   2.569   0.264   0.098  0.1199  0.3645  0.1799
 6820SOL    HW232097   2.681   0.302   0.186 -1.0466  1.6114 -1.4139
 6821SOL     OW32098   3.785   4.628   6.707  0.3263 -0.4368  0.1196
 6821SOL    HW132099   3.880   4.622   6.701  0.4380 -1.3375  2.6544
 6821SOL    HW232100   3.770   4.705   6.653 -0.9444 -0.5365  0.3164
 6822SOL     OW32101   3.699   4.129   3.205 -0.1815 -0.1802  0.3052
 6822SOL    HW132102   3.659   4.150   3.121  1.5850 -2.0290 -0.9926
 6822SOL    HW232103   3.635   4.154   3.272  1.7637  1.3651  1.6121
 6823SOL     OW32104   0.183   1.808   3.237 -0.5376 -0.0506 -0.2318
 6823SOL    HW132105   0.186   1.830   3.144 -1.3157  0.7624 -0.0586
 6823SOL    HW232106   0.268   1.762   3.237 -0.6742 -0.3245 -1.1827
 6824SOL     OW32107   2.279   3.589   5.278 -0.1969  0.8891  0.1730
 6824SOL    HW132108   2.211   3.523   5.266 -0.8745  1.5096  0.6403
 6824SOL    HW232109   2.359   3.536   5.288 -0.4673  0.3179 -0.6920
 6825SOL     OW32110   3.124   4.651   3.578  0.5853  0.0133  0.0075
 6825SOL    HW132111   3.094   4.564   3.603  0.5663  0.3892  1.2556
 6825SOL    HW232112   3.101   4.662   3.485 -0.0207 -0.1160  0.1456
 6826SOL     OW32113   4.376   1.347   5.978  0.0858 -0.1390  0.0146
 6826SOL    HW132114   4.434   1.401   5.925 -2.4329 -0.0606 -2.6914
 6826SOL    HW232115   4.387   1.260   5.940  2.6850 -0.0096  0.5153
 6827SOL     OW32116   0.112   3.946   3.148 -0.8132 -0.5083  0.6607
 6827SOL    HW132117   0.134   3.857   3.120  1.1958 -0.1318  1.0569
 6827SOL    HW232118   0.190   3.998   3.132 -1.3754  0.7292  1.9256
 6828SOL     OW32119   3.469   1.223  12.589 -0.0207  0.5798 -0.2194
 6828SOL    HW132120   3.540   1.196  12.531  0.8713 -0.8674  1.5475
 6828SOL    HW232121   3.420   1.141  12.589  0.2659  0.4054  0.8139
 6829SOL     OW32122   4.189   4.673   2.280  0.1766 -0.3165  0.0411
 6829SOL    HW132123   4.260   0.001   2.270 -0.4866  0.3605 -0.3171
 6829SOL    HW232124   4.139   4.710   2.353 -1.2981 -2.3651  0.0719
 6830SOL     OW32125   2.045   1.429  11.959  0.1091  0.3781  0.5301
 6830SOL    HW132126   2.069   1.419  11.867  1.3333 -1.4768  1.0661
 6830SOL    HW232127   2.073   1.520  11.974  0.1061  0.1921  1.7199
 6831SOL     OW32128   3.351   2.033   2.412 -0.2538 -0.3320 -0.5092
 6831SOL    HW132129   3.271   1.984   2.396 -0.0243 -0.3316 -1.6736
 6831SOL    HW232130   3.413   1.962   2.429 -1.1389 -0.7434  0.9211
 6832SOL     OW32131   4.536   1.134   5.451  0.1576  0.7536 -0.0099
 6832SOL    HW132132   4.497   1.169   5.371  1.8833 -0.0124 -1.1772
 6832SOL    HW232133   4.530   1.040   5.436 -0.4127  0.9752 -1.1424
 6833SOL     OW32134   0.910   1.110   6.681  0.1529  0.3331  0.1014
 6833SOL    HW132135   0.942   1.190   6.724  0.2245  0.1266  0.4257
 6833SOL    HW232136   0.923   1.140   6.590  2.4082 -1.8737 -0.2870
 6834SOL     OW32137   0.010   3.954  15.002  0.5411  0.6496  0.3011
 6834SOL    HW132138   4.682   3.885  15.021 -0.5266  1.9430  1.4264
 6834SOL    HW232139   0.002   4.008  15.080 -0.5667 -1.6407  1.7838
 6835SOL     OW32140   2.955   0.339   8.552 -0.0806 -0.5991 -0.4197
 6835SOL    HW132141   2.945   0.250   8.519  0.3986  0.3525 -3.0867
 6835SOL    HW232142   2.901   0.348   8.631  0.4329  0.5503 -0.1983
 6836SOL     OW32143   3.800   2.037   4.744  0.2020  0.4253  0.0581
 6836SOL    HW132144   3.822   2.125   4.775  0.2560  0.7866 -1.0029
 6836SOL    HW232145   3.785   2.053   4.651 -0.4267 -0.6749 -0.0260
 6837SOL     OW32146   4.292   4.395   9.783  0.0690  0.1937 -0.4771
 6837SOL    HW132147   4.361   4.397   9.850  0.3161  3.1651 -0.8366
 6837SOL    HW232148   4.219   4.385   9.845 -0.0410 -0.6956 -0.7396
 6838SOL     OW32149   2.003   1.025   3.493  0.1839  0.0174 -0.3719
 6838SOL    HW132150   2.094   1.008   3.520 -0.5821 -2.4175  0.6918
 6838SOL    HW232151   1.972   0.935   3.499 -1.0641  0.4767 -0.0986
 6839SOL     OW32152   0.901   3.834   7.892 -0.0876 -0.2183 -0.2599
 6839SOL    HW132153   0.828   3.817   7.952 -1.4577  1.7080 -1.3563
 6839SOL    HW232154   0.869   3.812   7.804  0.7285 -2.8075  0.1015
 6840SOL     OW32155   3.241   1.123   3.151  0.4705 -0.3501  0.9421
 6840SOL    HW132156   3.333   1.137   3.170  0.3329 -1.5268  2.5175
 6840SOL    HW232157   3.226   1.048   3.210 -0.0703 -0.5086  0.6056
 6841SOL     OW32158   1.159   2.114   4.998 -0.4989  0.1981  0.7303
 6841SOL    HW132159   1.065   2.099   4.990 -0.5650  1.0110  0.0001
 6841SOL    HW232160   1.172   2.086   5.089  0.5811 -2.1448 -0.1606
 6842SOL     OW32161   3.183   4.174   5.426 -0.1386 -0.2808  0.0893
 6842SOL    HW132162   3.177   4.266   5.402 -0.3194  0.0106  1.2310
 6842SOL    HW232163   3.273   4.173   5.457  0.2076 -0.9078 -0.9644
 6843SOL     OW32164   2.274   0.939   8.395 -0.8783  0.4156  0.0665
 6843SOL    HW132165   2.263   0.978   8.481 -0.6203 -0.5098  0.5142
 6843SOL    HW232166   2.256   0.847   8.415 -2.2302  0.6984  0.1283
 6844SOL     OW32167   2.071   3.037   2.755  0.8636  0.1205 -0.4996
 6844SOL    HW132168   2.023   3.059   2.676  0.0110  1.2326  0.3327
 6844SOL    HW232169   2.110   2.953   2.731  0.5895 -0.2891  0.4889
 6845SOL     OW32170   0.654   2.074  17.041 -0.5778  0.2943  1.2304
 6845SOL    HW132171   0.616   2.044  16.958 -1.2602  3.7479  0.2650
 6845SOL    HW232172   0.581   2.116  17.087  1.1051  2.7964  1.6235
 6846SOL     OW32173   4.145   3.372   8.859 -0.1530  0.2729  0.0383
 6846SOL    HW132174   4.180   3.283   8.863 -2.0480 -0.4485  0.6756
 6846SOL    HW232175   4.224   3.413   8.825  0.4192 -1.0833 -0.2706
 6847SOL     OW32176   2.827   1.697   2.052  0.1080  0.0803 -0.4096
 6847SOL    HW132177   2.750   1.735   2.094 -0.0744  1.4579 -1.9661
 6847SOL    HW232178   2.802   1.622   1.997 -0.9664  2.3824 -3.0599
 6848SOL     OW32179   3.778   3.064  13.155 -0.2633 -0.2426 -0.2081
 6848SOL    HW132180   3.810   2.975  13.141  0.2247 -0.0850 -0.0705
 6848SOL    HW232181   3.749   3.074  13.064 -1.4323  1.5318  0.3549
 6849SOL     OW32182   4.433   2.576  15.744 -0.6552  0.4687  0.0495
 6849SOL    HW132183   4.490   2.549  15.672  1.0105  0.0894  1.5061
 6849SOL    HW232184   4.411   2.668  15.730 -2.2740 -0.2880 -2.3510
 6850SOL     OW32185   3.225   4.393   2.396 -0.1734  0.3135 -0.5158
 6850SOL    HW132186   3.148   4.441   2.363 -0.6150  0.4941  0.7675
 6850SOL    HW232187   3.180   4.345   2.465 -0.9890  0.8063 -0.6893
 6851SOL     OW32188   1.263   1.804  11.528 -0.6268 -0.2835 -0.4698
 6851SOL    HW132189   1.305   1.874  11.578 -0.3988 -0.2455 -0.7162
 6851SOL    HW232190   1.192   1.789  11.590  0.3585 -0.5860  0.5839
 6852SOL     OW32191   0.471   4.144  13.554 -0.1290  0.7571 -0.5584
 6852SOL    HW132192   0.510   4.076  13.608 -0.9618  1.8923  1.4665
 6852SOL    HW232193   0.418   4.092  13.493 -1.2443  0.2017  0.8812
 6853SOL     OW32194   3.754   0.712   7.824  0.2066 -0.0540 -0.7329
 6853SOL    HW132195   3.735   0.776   7.893  0.4723 -2.6084  1.7263
 6853SOL    HW232196   3.800   0.764   7.758 -3.9046  1.1277 -2.6705
 6854SOL     OW32197   4.718   3.669   6.892 -0.5705 -0.4171 -0.6744
 6854SOL    HW132198   4.656   3.603   6.861 -0.6015  0.5123 -2.6077
 6854SOL    HW232199   0.064   3.620   6.889 -0.0813  0.3724  0.0293
 6855SOL     OW32200   0.236   4.368  13.485 -0.4414 -0.1731 -0.3072
 6855SOL    HW132201   0.326   4.335  13.477  0.1385  0.9893  1.3358
 6855SOL    HW232202   0.191   4.306  13.428  0.2667  1.1292 -2.2668
 6856SOL     OW32203   2.331   1.645  16.552  0.2668  0.4765 -0.3972
 6856SOL    HW132204   2.268   1.703  16.595  0.4122 -0.5005  1.1645
 6856SOL    HW232205   2.324   1.665  16.459  1.3032  1.0204 -0.3632
 6857SOL     OW32206   3.774   4.416   0.348 -0.1902  0.1495 -0.1414
 6857SOL    HW132207   3.806   4.351   0.286 -2.4880 -0.6234 -0.5450
 6857SOL    HW232208   3.804   4.500   0.313 -0.1711  0.7387  1.3040
 6858SOL     OW32209   2.234   4.584   1.115 -0.2559 -0.0797 -0.1665
 6858SOL    HW132210   2.225   4.678   1.127 -0.2302 -0.0171 -0.6379
 6858SOL    HW232211   2.161   4.555   1.170  0.8072  0.4085  1.4907
 6859SOL     OW32212   4.587   3.468   6.764 -0.6659 -0.1217 -0.7169
 6859SOL    HW132213   4.496   3.445   6.744 -0.3832 -0.8710 -1.1558
 6859SOL    HW232214   4.611   3.378   6.787  1.0077  0.5624  0.2058
 6860SOL     OW32215   0.914   0.486   6.374  0.0332 -0.0212 -0.2237
 6860SOL    HW132216   0.969   0.555   6.337 -0.5440 -0.1856 -1.3841
 6860SOL    HW232217   0.833   0.533   6.358 -0.4685 -0.2391  1.6755
 6861SOL     OW32218   3.592   4.585   1.746  0.0451 -0.0380  0.2687
 6861SOL    HW132219   3.615   4.504   1.792  0.7649 -0.4711 -0.8655
 6861SOL    HW232220   3.661   4.593   1.681  0.1352 -0.0063  0.3692
 6862SOL     OW32221   1.415   0.234   5.635  0.8608 -0.1439  0.2092
 6862SOL    HW132222   1.430   0.145   5.668 -2.5037 -0.4779  0.8289
 6862SOL    HW232223   1.342   0.215   5.576  0.4779  0.4527  0.4880
 6863SOL     OW32224   3.839   0.115  11.425  0.3007 -0.0861 -0.2022
 6863SOL    HW132225   3.788   0.106  11.344  2.3701 -1.8952 -1.3303
 6863SOL    HW232226   3.924   0.080  11.395  0.0478  0.2606 -1.3477
 6864SOL     OW32227   0.185   1.638   6.034  0.1000 -0.3387  0.1693
 6864SOL    HW132228   0.144   1.561   5.993 -2.9963  0.4564  1.7577
 6864SOL    HW232229   0.212   1.594   6.115 -0.9465 -3.2363 -1.0324
 6865SOL     OW32230   4.496   3.785   0.242  0.3457 -0.3318 -0.2414
 6865SOL    HW132231   4.442   3.820   0.313  1.6946  0.0153  0.6175
 6865SOL    HW232232   4.500   3.690   0.254  0.4197 -0.2445  0.4131
 6866SOL     OW32233   4.542   3.979   6.125  0.1031 -0.6448 -0.6235
 6866SOL    HW132234   4.515   3.927   6.201 -2.8523  3.5315  1.2190
 6866SOL    HW232235   4.623   3.931   6.113 -0.3500 -1.0915 -1.9039
 6867SOL     OW32236   1.779   3.610  11.765 -0.0980 -0.3058 -0.3747
 6867SOL    HW132237   1.747   3.673  11.701 -1.4167 -1.1497 -0.5413
 6867SOL    HW232238   1.780   3.534  11.706 -2.8866 -1.1396  0.6469
 6868SOL     OW32239   4.339   2.581   2.439 -0.6311 -1.0601 -0.1500
 6868SOL    HW132240   4.260   2.527   2.433 -0.7977 -1.0281  1.8905
 6868SOL    HW232241   4.304   2.653   2.491  0.2982 -0.5935 -0.1761
 6869SOL     OW32242   1.939   1.864   1.425  0.4185  0.0688  0.2002
 6869SOL    HW132243   1.951   1.790   1.365 -0.0913 -1.5208  2.0503
 6869SOL    HW232244   2.026   1.862   1.464  0.1236 -2.4584  0.7271
 6870SOL     OW32245   3.277   2.160   2.760  0.1304  0.0051  0.6714
 6870SOL    HW132246   3.288   2.227   2.827 -1.3798  0.8141  0.1311
 6870SOL    HW232247   3.181   2.166   2.762  0.1404 -0.0771  1.4403
 6871SOL     OW32248   2.914   0.056   2.315  0.2736 -0.1770 -0.4810
 6871SOL    HW132249   2.974   0.128   2.334 -2.2561  2.5719 -3.0602
 6871SOL    HW232250   2.834   0.108   2.317 -0.0868 -0.8277  2.0719
 6872SOL     OW32251   2.634   1.999   8.425  0.1863  0.7198  0.3265
 6872SOL    HW132252   2.641   1.940   8.350 -2.4574  0.9170 -0.0997
 6872SOL    HW232253   2.539   1.998   8.437  0.2641  1.1489  1.0253
 6873SOL     OW32254   1.790   1.720   0.025 -0.0891 -0.5667  0.4670
 6873SOL    HW132255   1.790   1.751   0.116  1.9490  0.1981  0.2001
 6873SOL    HW232256   1.882   1.732  17.742 -0.8588  0.4414 -1.8440
 6874SOL     OW32257   2.281   0.944  16.466  0.3184 -0.2225 -0.4127
 6874SOL    HW132258   2.199   0.967  16.510  0.0565  1.2222 -1.6823
 6874SOL    HW232259   2.320   1.028  16.443 -1.0445 -0.3496 -3.1774
 6875SOL     OW32260   4.490   0.916   2.821  0.4967  0.3824  0.3690
 6875SOL    HW132261   4.411   0.948   2.864  0.5578  0.0821  0.7066
 6875SOL    HW232262   4.559   0.982   2.815  1.0480 -0.0188  2.1156
 6876SOL     OW32263   2.639   1.133   8.896 -0.3796 -0.1940 -0.7104
 6876SOL    HW132264   2.561   1.080   8.911 -0.8072  0.0842 -1.9304
 6876SOL    HW232265   2.697   1.069   8.853 -1.3705 -0.5072 -1.6017
 6877SOL     OW32266   0.893   3.529   4.652 -0.2909 -0.7517 -0.5931
 6877SOL    HW132267   0.931   3.475   4.721 -0.9546  0.8850  1.0628
 6877SOL    HW232268   0.824   3.583   4.691  2.8576  2.7269  0.0948
 6878SOL     OW32269   3.701   2.828  17.195 -0.1942  0.0006 -0.0174
 6878SOL    HW132270   3.715   2.749  17.143 -2.0226 -1.9640  2.4601
 6878SOL    HW232271   3.619   2.865  17.164  0.0916  2.0922  1.7348
 6879SOL     OW32272   0.459   3.942   8.020 -0.3719  0.4745  0.2439
 6879SOL    HW132273   0.430   3.987   7.941 -1.3128  0.2752  0.4688
 6879SOL    HW232274   0.424   3.855   8.000  0.9362  0.4013 -1.7002
 6880SOL     OW32275   0.613   3.941   7.040 -0.6701 -0.1196 -0.2485
 6880SOL    HW132276   0.696   3.956   7.085 -0.9190 -0.1830  0.2258
 6880SOL    HW232277   0.572   3.897   7.114  1.0029 -2.1536 -0.5181
 6881SOL     OW32278   1.483   0.464   3.063 -0.0477 -0.8104 -0.3489
 6881SOL    HW132279   1.475   0.543   3.117 -0.5103 -1.5659  0.6810
 6881SOL    HW232280   1.502   0.405   3.136  0.2118  1.5488  1.4975
 6882SOL     OW32281   4.209   2.889   5.269  0.1287  0.8509  0.2487
 6882SOL    HW132282   4.176   2.876   5.180  1.2647 -0.2398 -0.0250
 6882SOL    HW232283   4.133   2.932   5.307  0.2901  1.5614 -0.2453
 6883SOL     OW32284   1.026   3.574   3.591 -0.2669  0.3413 -0.1625
 6883SOL    HW132285   0.986   3.661   3.602  1.4986  0.8815  1.9579
 6883SOL    HW232286   1.117   3.597   3.608 -0.0785  0.1943 -0.9972
 6884SOL     OW32287   4.571   0.992   9.246  0.3550  0.5092 -0.0729
 6884SOL    HW132288   4.652   0.959   9.206 -1.2361 -2.7970 -0.6306
 6884SOL    HW232289   4.590   1.085   9.231  2.3476 -0.0429 -1.1179
 6885SOL     OW32290   2.408   0.445   3.389  0.0693 -0.3163 -0.3271
 6885SOL    HW132291   2.431   0.463   3.480 -1.7674 -0.5101  0.1641
 6885SOL    HW232292   2.401   0.350   3.396  1.3360 -0.2161  2.3855
 6886SOL     OW32293   3.382   2.376  10.778 -0.1145 -0.4635  0.3868
 6886SOL    HW132294   3.305   2.414  10.821 -0.4477  1.0695 -1.5686
 6886SOL    HW232295   3.442   2.381  10.852  0.6342  1.5499 -0.3554
 6887SOL     OW32296   2.951   3.651   4.079  0.4237  0.6067 -0.3745
 6887SOL    HW132297   2.945   3.730   4.134 -0.8030 -0.3606  0.8800
 6887SOL    HW232298   2.965   3.692   3.993  1.1730  0.2035 -0.4439
 6888SOL     OW32299   0.021   2.981  13.061  0.2491  0.7769  0.4584
 6888SOL    HW132300   0.076   2.950  12.989 -2.1233 -0.0578 -0.9687
 6888SOL    HW232301   4.691   2.912  13.058  1.5203 -0.2812 -3.1038
 6889SOL     OW32302   3.319   2.374   7.414  0.6075  0.2885 -0.5792
 6889SOL    HW132303   3.395   2.431   7.419 -0.1384  0.9959  2.8221
 6889SOL    HW232304   3.275   2.396   7.496  0.7820 -0.7332 -0.2067
 6890SOL     OW32305   2.298   3.945  10.197  0.3360 -0.2657  0.1887
 6890SOL    HW132306   2.290   3.871  10.138 -2.5283  0.9038 -0.9156
 6890SOL    HW232307   2.341   4.009  10.139  2.2675 -2.0630 -0.3362
 6891SOL     OW32308   1.732   0.102   2.369  0.2256  0.0430 -0.2319
 6891SOL    HW132309   1.722   0.197   2.365 -0.5673 -0.0374 -0.2550
 6891SOL    HW232310   1.742   0.087   2.463  3.6276  1.4683 -0.3899
 6892SOL     OW32311   3.058   3.742   1.537 -0.7090 -0.2586 -0.2461
 6892SOL    HW132312   3.151   3.724   1.520 -0.5582 -2.3380  2.6223
 6892SOL    HW232313   3.021   3.692   1.465  0.6068 -1.7223  0.0827
 6893SOL     OW32314   0.160   1.461   6.692 -0.7334 -0.3112 -0.2191
 6893SOL    HW132315   0.168   1.556   6.682  2.9749 -0.7447 -1.0494
 6893SOL    HW232316   0.075   1.441   6.651 -0.2014  0.9183 -1.9134
 6894SOL     OW32317   3.983   2.697   5.902 -0.1227  0.5071  0.0633
 6894SOL    HW132318   4.060   2.750   5.923 -0.1121  0.2684  0.6276
 6894SOL    HW232319   3.909   2.737   5.947 -0.3601 -0.8648  0.9110
 6895SOL     OW32320   2.800   2.663  15.467  0.1954 -0.2100 -0.5771
 6895SOL    HW132321   2.789   2.755  15.443 -2.4055 -0.5745 -0.8427
 6895SOL    HW232322   2.868   2.673  15.533 -1.7350 -0.1486  1.4326
 6896SOL     OW32323   1.409   1.062   2.363  0.2583  0.3418 -0.7837
 6896SOL    HW132324   1.462   1.141   2.353  1.1400 -0.2288 -0.6990
 6896SOL    HW232325   1.373   1.085   2.449  2.9826  1.3509  0.1023
 6897SOL     OW32326   4.227   4.612  15.322 -0.2878  0.5831 -0.1274
 6897SOL    HW132327   4.236   4.666  15.243  0.0817  0.1420 -0.3937
 6897SOL    HW232328   4.277   4.656  15.391  1.3122 -1.3155 -0.0609
 6898SOL     OW32329   0.016   1.285   5.498  0.1644 -0.8175  0.4833
 6898SOL    HW132330   0.087   1.260   5.438 -0.8960 -0.0717 -1.0949
 6898SOL    HW232331   4.695   1.208   5.500 -1.2295  0.1109 -2.5041
 6899SOL     OW32332   1.802   3.618   6.581  0.0622  0.0742 -0.5768
 6899SOL    HW132333   1.840   3.543   6.535  0.8713 -1.0207  1.8342
 6899SOL    HW232334   1.881   3.671   6.594 -1.0449  1.4181  0.6614
 6900SOL     OW32335   4.332   2.706  13.699 -0.3506  0.1635  0.5099
 6900SOL    HW132336   4.356   2.795  13.724 -1.1509  0.0837  1.5631
 6900SOL    HW232337   4.265   2.687  13.765  0.3082 -0.9077  0.8651
 6901SOL     OW32338   4.271   3.087  15.638  0.2617 -0.5914  0.0707
 6901SOL    HW132339   4.228   3.073  15.722  1.2929  2.9450  1.2058
 6901SOL    HW232340   4.294   2.998  15.612 -0.0375 -0.4432 -0.7055
 6902SOL     OW32341   0.873   0.504   8.045  0.5143  0.3550  0.0528
 6902SOL    HW132342   0.939   0.566   8.074  1.5357 -1.7856  2.2315
 6902SOL    HW232343   0.788   0.550   8.044  0.1482 -0.3388 -1.0055
 6903SOL     OW32344   2.706   0.549  10.477 -0.3085  0.1993 -0.3651
 6903SOL    HW132345   2.654   0.617  10.519  0.3709  0.6196 -0.1968
 6903SOL    HW232346   2.787   0.599  10.464  0.3679 -0.9574 -0.6369
 6904SOL     OW32347   3.789   0.391   1.232 -0.1297  0.3207 -0.6778
 6904SOL    HW132348   3.727   0.322   1.211  0.6586 -0.6121  0.0240
 6904SOL    HW232349   3.870   0.341   1.221 -0.9849 -0.9520 -1.1333
 6905SOL     OW32350   1.175   0.948   9.937  0.3305  0.2468  0.3911
 6905SOL    HW132351   1.155   0.930  10.029 -0.8220 -2.1395 -0.3410
 6905SOL    HW232352   1.265   0.975   9.957  0.8992 -0.5267 -1.1746
 6906SOL     OW32353   0.567   1.238   3.823  0.3554  0.1385  0.4518
 6906SOL    HW132354   0.525   1.312   3.779  0.1861  0.2269  0.7592
 6906SOL    HW232355   0.490   1.182   3.829  1.3426 -1.0524  1.9763
 6907SOL     OW32356   1.798   1.217  14.033  0.6694  0.2271  0.3525
 6907SOL    HW132357   1.795   1.309  14.005  1.6303 -0.2891 -1.3958
 6907SOL    HW232358   1.874   1.179  13.989  0.6035  0.1568  0.2996
 6908SOL     OW32359   4.067   1.478   8.788 -0.1055  0.0221 -0.1969
 6908SOL    HW132360   4.125   1.473   8.864  0.1298  1.3276 -0.2906
 6908SOL    HW232361   3.995   1.522   8.832 -0.1775  0.2392 -0.5321
 6909SOL     OW32362   2.245   1.945   5.226  0.2438 -0.2246 -0.7345
 6909SOL    HW132363   2.165   1.900   5.251 -0.3948  1.3650  0.0768
 6909SOL    HW232364   2.208   1.995   5.153  1.7875  0.7134 -0.8748
 6910SOL     OW32365   3.580   0.578   2.287  0.0405  0.3099 -0.0849
 6910SOL    HW132366   3.581   0.646   2.219 -0.1259  0.1559 -0.2421
 6910SOL    HW232367   3.668   0.543   2.270  0.6328  1.7073  0.0919
 6911SOL     OW32368   0.882   0.490   5.322 -0.3452 -0.1478 -0.2246
 6911SOL    HW132369   0.904   0.445   5.240  2.3625  0.3082  0.2580
 6911SOL    HW232370   0.893   0.416   5.382  0.5453  0.3768  0.2663
 6912SOL     OW32371   1.559   1.131  14.153  0.4543  0.1060 -0.2295
 6912SOL    HW132372   1.641   1.126  14.102  0.4603  0.4326 -0.2488
 6912SOL    HW232373   1.575   1.220  14.184 -1.4364  1.4647 -3.1136
 6913SOL     OW32374   2.572   0.461   2.470  0.0734 -0.0927  0.1066
 6913SOL    HW132375   2.620   0.543   2.483 -1.1398  1.0614 -2.5785
 6913SOL    HW232376   2.505   0.466   2.538 -0.2916 -3.2547 -0.0261
 6914SOL     OW32377   2.404   1.609  16.819 -0.7474 -0.0226  0.3320
 6914SOL    HW132378   2.375   1.623  16.729  1.1065 -2.7385 -0.6789
 6914SOL    HW232379   2.341   1.546  16.854 -0.6036 -0.8520 -0.9059
 6915SOL     OW32380   2.792   3.993   8.988  0.2153  0.4216  0.5236
 6915SOL    HW132381   2.781   4.048   8.910  1.1501  0.9346  0.7582
 6915SOL    HW232382   2.849   4.046   9.044  0.1877  1.4900 -0.4616
 6916SOL     OW32383   3.057   4.208   2.530 -0.4449 -0.5126  0.0978
 6916SOL    HW132384   3.114   4.140   2.495 -0.1329 -1.7633  3.0531
 6916SOL    HW232385   2.972   4.164   2.533 -0.2379 -0.9799 -1.1990
 6917SOL     OW32386   3.852   1.030  10.662 -0.5427 -0.5270 -0.4026
 6917SOL    HW132387   3.906   0.976  10.719  0.5904  1.2104  0.1517
 6917SOL    HW232388   3.771   0.979  10.667 -1.7407  1.1872 -2.2969
 6918SOL     OW32389   4.519   4.336  16.292  0.2774 -0.0954 -0.4190
 6918SOL    HW132390   4.437   4.375  16.322  1.3368  1.8977 -0.0837
 6918SOL    HW232391   4.571   4.415  16.275  0.7161 -1.1473 -3.8988
 6919SOL     OW32392   1.439   1.707   5.371  0.5300 -0.1719 -0.1037
 6919SOL    HW132393   1.390   1.697   5.290 -0.2258  1.4827  0.1662
 6919SOL    HW232394   1.449   1.802   5.376 -0.4006 -0.1940  2.0507
 6920SOL     OW32395   2.326   1.918  11.278 -0.3767 -0.1389 -0.2794
 6920SOL    HW132396   2.271   1.873  11.342 -2.1862 -0.0397 -1.7572
 6920SOL    HW232397   2.397   1.963  11.322 -0.1269  0.3797 -1.2098
 6921SOL     OW32398   1.852   2.445   5.196  0.0455  0.4044  0.1248
 6921SOL    HW132399   1.941   2.422   5.224  0.1956 -1.2525 -1.7111
 6921SOL    HW232400   1.802   2.439   5.276  0.2141 -1.2277  0.0916
 6922SOL     OW32401   2.530   0.605   4.248 -0.2287 -0.4463  0.2423
 6922SOL    HW132402   2.543   0.650   4.164 -4.9364 -0.5944 -0.6077
 6922SOL    HW232403   2.474   0.530   4.227 -0.6492 -0.0367 -0.1072
 6923SOL     OW32404   3.634   0.918   0.653  0.2271 -0.2740 -0.0575
 6923SOL    HW132405   3.609   0.907   0.562 -1.3570 -0.5134  0.4184
 6923SOL    HW232406   3.646   1.013   0.662 -1.4368 -0.3060  2.5645
 6924SOL     OW32407   2.713   1.179   2.909 -0.3959 -0.2581 -0.0182
 6924SOL    HW132408   2.787   1.121   2.928  0.1160 -0.4650 -2.6879
 6924SOL    HW232409   2.758   1.261   2.931  0.5505 -0.5821 -0.7567
 6925SOL     OW32410   2.235   2.564  15.769  0.6967  0.3267  0.8018
 6925SOL    HW132411   2.187   2.488  15.738  1.1541  0.0362  0.8073
 6925SOL    HW232412   2.240   2.620  15.691  0.9481 -0.5867  0.1634
 6926SOL     OW32413   0.980   1.314  10.887  0.5453 -0.5589  0.0153
 6926SOL    HW132414   1.066   1.353  10.873 -0.0761  0.7104 -0.2674
 6926SOL    HW232415   0.934   1.395  10.867  1.1816 -0.5475 -1.4744
 6927SOL     OW32416   3.160   3.157  16.543  0.5215 -0.1825 -0.3669
 6927SOL    HW132417   3.103   3.197  16.478 -2.1472 -2.1933  0.7151
 6927SOL    HW232418   3.227   3.119  16.486  1.3086 -0.9138  1.0361
 6928SOL     OW32419   3.895   0.948   5.574  0.1638  0.3276 -0.5805
 6928SOL    HW132420   3.862   0.887   5.640 -1.5126 -1.0745 -2.7023
 6928SOL    HW232421   3.918   1.019   5.634  0.1898  1.2511 -1.6839
 6929SOL     OW32422   0.045   0.552   2.072  0.5977 -0.1052 -0.9491
 6929SOL    HW132423   0.072   0.463   2.093 -2.3213 -0.7446 -0.0171
 6929SOL    HW232424   0.006   0.568   2.158  1.4660 -3.3080  0.0390
 6930SOL     OW32425   1.888   3.142   3.610  0.4489 -0.2097  0.2870
 6930SOL    HW132426   1.980   3.169   3.621  0.5278  0.4242 -1.9175
 6930SOL    HW232427   1.893   3.051   3.640  4.5431  0.2560  0.9981
 6931SOL     OW32428   0.109   0.459  15.750  0.4955  0.2075 -0.5262
 6931SOL    HW132429   0.121   0.504  15.833 -0.1316  2.7231 -1.8119
 6931SOL    HW232430   0.168   0.385  15.766  0.7075  0.7879  1.2990
 6932SOL     OW32431   3.636   4.721   4.150  0.4381 -0.1601  0.4327
 6932SOL    HW132432   3.683   4.681   4.223 -1.4909 -0.5384  1.4666
 6932SOL    HW232433   3.555   4.671   4.160  0.7389 -0.1626  2.7487
 6933SOL     OW32434   3.449   0.634   9.880 -0.6243  0.0393 -0.1592
 6933SOL    HW132435   3.424   0.712   9.831 -0.0554 -0.0736 -0.6292
 6933SOL    HW232436   3.411   0.651   9.966  0.1530 -0.7014  0.3406
 6934SOL     OW32437   4.375   4.138   5.579  0.2338  0.4385 -0.9897
 6934SOL    HW132438   4.334   4.224   5.579  0.8859  0.7498 -0.3678
 6934SOL    HW232439   4.462   4.179   5.578  0.9212 -0.9969 -0.1055
 6935SOL     OW32440   1.041   2.377   4.479 -0.1503  0.6155  0.1588
 6935SOL    HW132441   1.094   2.416   4.548  1.1108  0.3655 -0.6657
 6935SOL    HW232442   1.104   2.338   4.419  0.6630  3.2514 -0.6910
 6936SOL     OW32443   4.084   3.173   4.337  0.2077 -0.4145  0.2445
 6936SOL    HW132444   4.065   3.082   4.358 -0.3692 -0.4819 -0.5901
 6936SOL    HW232445   4.007   3.196   4.286 -1.3028  1.0266  3.1691
 6937SOL     OW32446   1.930   3.222   5.254  0.1518 -0.2008 -0.1733
 6937SOL    HW132447   1.854   3.203   5.310  0.4205  0.3828  0.4008
 6937SOL    HW232448   1.922   3.147   5.196  1.3852 -0.7079  0.3308
 6938SOL     OW32449   0.809   2.934   1.874  0.9499  0.2702  0.6882
 6938SOL    HW132450   0.776   2.878   1.945  1.6349  2.1817  2.5063
 6938SOL    HW232451   0.898   2.944   1.906  0.0468 -0.6085  3.5136
 6939SOL     OW32452   1.934   4.681   3.395 -0.0503 -0.4324  0.4333
 6939SOL    HW132453   1.963   0.016   3.338 -1.3011  0.6099  1.0808
 6939SOL    HW232454   1.979   4.608   3.352 -1.3929  0.3570 -2.3088
 6940SOL     OW32455   1.246   0.751   1.132  0.4370 -0.3640  0.4263
 6940SOL    HW132456   1.267   0.789   1.047 -1.3732 -2.9508 -1.2060
 6940SOL    HW232457   1.165   0.704   1.111  0.2723  0.5307 -1.0006
 6941SOL     OW32458   2.101   2.746   2.701 -0.0417 -0.0632  0.3633
 6941SOL    HW132459   2.043   2.722   2.773 -2.2187 -0.7843 -1.6048
 6941SOL    HW232460   2.187   2.730   2.739  0.8822 -2.6222 -2.7396
 6942SOL     OW32461   4.542   1.916   7.223  0.1716 -0.3186  0.2461
 6942SOL    HW132462   4.566   1.922   7.315 -0.0798 -1.2051  0.3662
 6942SOL    HW232463   4.564   2.007   7.199  1.1249 -0.5932  0.0618
 6943SOL     OW32464   2.647   0.450  14.866 -0.1788  0.8503  0.0118
 6943SOL    HW132465   2.679   0.421  14.951 -1.8589  2.1944  1.1162
 6943SOL    HW232466   2.727   0.491  14.835 -0.3502  0.7047 -0.6271
 6944SOL     OW32467   4.190   0.477   3.717 -0.4196 -0.4652 -0.1734
 6944SOL    HW132468   4.156   0.398   3.759  1.6372 -0.4389  1.5499
 6944SOL    HW232469   4.156   0.458   3.630  2.5314  0.1343 -1.4556
 6945SOL     OW32470   0.437   3.047   8.639 -0.1421 -0.0749  0.4803
 6945SOL    HW132471   0.384   3.099   8.700  0.6270  1.8597 -0.4965
 6945SOL    HW232472   0.403   3.079   8.556  0.2983 -0.1357  0.2788
 6946SOL     OW32473   1.457   2.198   3.767  0.1569 -0.9967 -0.2315
 6946SOL    HW132474   1.371   2.162   3.785 -0.2626  0.5440  0.8201
 6946SOL    HW232475   1.478   2.227   3.855 -0.4146  1.0917 -0.7779
 6947SOL     OW32476   1.507   3.665  10.243  0.3170 -0.0458 -0.6442
 6947SOL    HW132477   1.559   3.683  10.321 -0.2172 -3.8144  0.5716
 6947SOL    HW232478   1.419   3.684  10.275  1.3264 -1.0278  2.6809
 6948SOL     OW32479   1.567   2.101  14.131  0.2113 -0.0380  0.0706
 6948SOL    HW132480   1.557   2.192  14.104  1.6735 -0.4847 -1.9970
 6948SOL    HW232481   1.648   2.081  14.084  0.1265  3.0057 -1.3143
 6949SOL     OW32482   0.547   4.017  16.985 -0.0692  0.0690 -0.4789
 6949SOL    HW132483   0.542   4.030  16.890  1.2847 -1.6805 -0.7769
 6949SOL    HW232484   0.452   4.013  16.998 -0.0975  3.3074  0.2992
 6950SOL     OW32485   1.011   4.334   7.822 -0.3146 -0.3688  1.1486
 6950SOL    HW132486   0.928   4.303   7.859 -3.0653  3.1353 -2.1479
 6950SOL    HW232487   1.008   4.290   7.738 -3.3910  1.3687  0.3445
 6951SOL     OW32488   1.304   3.338   3.630  0.3203  0.3291 -0.0989
 6951SOL    HW132489   1.397   3.346   3.650  0.8344  0.7496 -2.5617
 6951SOL    HW232490   1.269   3.379   3.708 -0.2405  1.2700 -0.8458
 6952SOL     OW32491   1.559   4.264   6.243 -0.5389 -0.4783  0.2222
 6952SOL    HW132492   1.617   4.204   6.196  0.9387 -0.0184  1.4511
 6952SOL    HW232493   1.561   4.225   6.330 -0.7180 -1.5400 -0.2507
 6953SOL     OW32494   4.616   1.741   4.179  0.2526  0.4138  0.1179
 6953SOL    HW132495   4.580   1.790   4.105 -0.9244 -1.7990 -0.7764
 6953SOL    HW232496   4.701   1.784   4.187 -0.1623  0.8265  2.2149
 6954SOL     OW32497   2.021   0.425   2.993  0.1437 -0.6849 -0.2178
 6954SOL    HW132498   1.928   0.400   2.994  0.1338 -0.6751 -0.7534
 6954SOL    HW232499   2.014   0.519   2.978 -0.5441 -0.3635  2.1074
 6955SOL     OW32500   4.185   0.959   5.547 -0.3934 -0.1823 -0.4890
 6955SOL    HW132501   4.093   0.957   5.520  0.0843  1.0705 -2.1992
 6955SOL    HW232502   4.191   1.046   5.586  0.8193 -1.3433  1.8868
 6956SOL     OW32503   0.698   1.504  14.653 -0.0846  0.5777  0.0360
 6956SOL    HW132504   0.676   1.433  14.593 -0.2422 -1.4352  2.5054
 6956SOL    HW232505   0.613   1.513  14.694 -0.9122  1.0771 -1.7810
 6957SOL     OW32506   0.662   1.032   7.293 -0.7125  0.1202  0.2753
 6957SOL    HW132507   0.622   1.026   7.206  0.3541 -2.0572 -0.0642
 6957SOL    HW232508   0.602   1.078   7.353  0.1776 -1.0374  2.0705
 6958SOL     OW32509   3.401   1.899   8.455 -0.5007  0.1650 -0.6432
 6958SOL    HW132510   3.347   1.902   8.534  0.7430  1.8394  0.1250
 6958SOL    HW232511   3.456   1.973   8.481  2.4390 -2.2514  0.0256
 6959SOL     OW32512   3.878   0.935   7.671 -0.3666 -0.3303 -0.4482
 6959SOL    HW132513   3.837   1.013   7.634  0.1281  0.3188  0.4050
 6959SOL    HW232514   3.953   0.935   7.612  0.9465 -1.7800  1.2172
 6960SOL     OW32515   2.161   3.902   2.076 -0.0285 -0.0737  0.5828
 6960SOL    HW132516   2.204   3.973   2.028  0.2911 -1.5027 -1.2707
 6960SOL    HW232517   2.234   3.840   2.070 -0.7006 -1.0023  1.8854
 6961SOL     OW32518   3.235   1.585   9.390 -0.4807  0.5604 -0.1159
 6961SOL    HW132519   3.331   1.594   9.396 -0.2769 -1.3690 -0.6092
 6961SOL    HW232520   3.214   1.678   9.383  1.1529  0.9032 -0.6544
 6962SOL     OW32521   4.369   1.502  10.250  0.3067  0.3006 -0.0508
 6962SOL    HW132522   4.355   1.592  10.278 -1.6990  0.3868 -1.2966
 6962SOL    HW232523   4.282   1.486  10.212  0.3381 -2.7855  1.1122
 6963SOL     OW32524   4.515   3.790   1.281 -0.2587  0.6625  0.2645
 6963SOL    HW132525   4.507   3.700   1.312 -1.1027  0.0815 -1.6163
 6963SOL    HW232526   4.446   3.786   1.215 -2.0152  0.9338  2.1121
 6964SOL     OW32527   4.476   0.200   6.495 -0.2259  0.2239 -0.1172
 6964SOL    HW132528   4.428   0.131   6.448 -1.6188  1.0292  0.1364
 6964SOL    HW232529   4.559   0.153   6.504 -1.6042 -1.7322  2.2967
 6965SOL     OW32530   2.906   0.949   7.480 -0.0590 -0.5804  0.5295
 6965SOL    HW132531   2.816   0.975   7.500 -0.5563  1.0146 -3.6521
 6965SOL    HW232532   2.904   0.887   7.407 -1.1854 -0.9728  0.9087
 6966SOL     OW32533   4.658   3.615   2.918  0.2864  0.3007  0.3465
 6966SOL    HW132534   4.630   3.584   3.005  0.8116  1.8662  1.0678
 6966SOL    HW232535   4.667   3.531   2.873  1.2903  1.5792 -1.8190
 6967SOL     OW32536   1.779   2.931   3.321 -0.4434  0.9518  0.3678
 6967SOL    HW132537   1.701   2.950   3.269 -0.4336 -0.2923 -0.1011
 6967SOL    HW232538   1.752   2.848   3.360  1.9657 -0.0464 -0.1178
 6968SOL     OW32539   3.979   0.848   8.473 -0.2440  0.0304  0.5330
 6968SOL    HW132540   3.892   0.811   8.494 -0.6482  0.3959 -0.5088
 6968SOL    HW232541   4.037   0.808   8.538  0.1009 -0.3010  0.0165
 6969SOL     OW32542   2.815   0.388  14.187  0.0141 -0.6685  0.4720
 6969SOL    HW132543   2.767   0.458  14.144  2.2915  0.7810  0.3158
 6969SOL    HW232544   2.795   0.325  14.118 -2.2612 -0.4232  0.9042
 6970SOL     OW32545   1.785   4.135   4.189  0.2548 -0.2150  0.1088
 6970SOL    HW132546   1.703   4.165   4.151  0.4352  2.0457  1.5017
 6970SOL    HW232547   1.779   4.168   4.279  3.0493  0.4008  0.0622
 6971SOL     OW32548   1.253   0.482   3.553  0.2283 -0.4272  0.2620
 6971SOL    HW132549   1.252   0.571   3.588 -1.1899 -0.1829 -0.3981
 6971SOL    HW232550   1.234   0.507   3.462 -0.0881 -1.1392  0.1344
 6972SOL     OW32551   3.870   0.097   6.057 -0.0692 -0.0846  0.3975
 6972SOL    HW132552   3.934   0.162   6.087  0.1334 -0.2148  0.2460
 6972SOL    HW232553   3.862   0.131   5.968 -0.3479  2.4851  1.4025
 6973SOL     OW32554   0.396   2.791   9.459  0.0249 -0.4618  0.2985
 6973SOL    HW132555   0.456   2.772   9.531  0.4088  0.1966  0.1512
 6973SOL    HW232556   0.452   2.831   9.393  1.0749  0.0143  1.4916
 6974SOL     OW32557   4.430   3.824  14.656  0.0317  0.1209  0.6804
 6974SOL    HW132558   4.460   3.914  14.647  0.0836  0.1600  1.2551
 6974SOL    HW232559   4.508   3.797  14.704  1.2249  1.2545 -0.6460
 6975SOL     OW32560   1.819   1.131   9.304 -0.5657 -0.0608  0.2004
 6975SOL    HW132561   1.855   1.056   9.353  0.9192 -0.0857 -0.9355
 6975SOL    HW232562   1.748   1.085   9.259 -1.0376  1.0832 -0.2140
 6976SOL     OW32563   2.818   2.415   4.333 -0.2526  0.6430  0.0641
 6976SOL    HW132564   2.839   2.321   4.326 -0.7821  0.6757 -2.0167
 6976SOL    HW232565   2.731   2.411   4.372 -0.6679  0.9607 -0.8551
 6977SOL     OW32566   0.604   4.420   3.364 -0.4085  0.0087  0.0059
 6977SOL    HW132567   0.673   4.399   3.302 -0.9664  0.7570 -0.8703
 6977SOL    HW232568   0.554   4.339   3.370  0.0717 -0.0994  2.3413
 6978SOL     OW32569   2.272   2.226  13.936 -0.2806 -0.2309 -0.0266
 6978SOL    HW132570   2.271   2.175  13.855  2.3840  1.1623 -0.9144
 6978SOL    HW232571   2.342   2.195  13.994 -0.2541 -0.9346 -0.4393
 6979SOL     OW32572   3.939   3.844  11.673 -0.2224 -0.2491  0.2376
 6979SOL    HW132573   3.863   3.810  11.720  0.8555  0.0707  2.2016
 6979SOL    HW232574   4.014   3.801  11.713 -0.7503 -0.2471  1.2331
 6980SOL     OW32575   2.270   0.078   7.539 -0.0558  0.6411 -0.2235
 6980SOL    HW132576   2.212   0.059   7.613  1.5634 -0.2901  0.8103
 6980SOL    HW232577   2.351   0.038   7.570  0.1546  0.3351 -1.1611
 6981SOL     OW32578   4.675   0.872   3.776  0.3657  0.1540  0.2435
 6981SOL    HW132579   4.661   0.964   3.753 -1.6660  0.5074  2.7959
 6981SOL    HW232580   0.027   0.886   3.811  0.1818  1.6935  0.0798
 6982SOL     OW32581   0.919   1.468  10.510  1.2551 -0.3778  0.9202
 6982SOL    HW132582   0.845   1.482  10.451  0.2194 -1.3740  1.9923
 6982SOL    HW232583   0.997   1.505  10.468 -0.2359  0.7880 -0.8091
 6983SOL     OW32584   1.031   0.074   1.247  0.5745  0.7199 -0.0078
 6983SOL    HW132585   1.055   4.732   1.198 -0.3082 -0.0199  0.7443
 6983SOL    HW232586   1.091   0.065   1.321 -1.0515 -0.4649  1.1565
 6984SOL     OW32587   4.362   0.165   8.760  0.3876 -0.2674  0.0688
 6984SOL    HW132588   4.337   0.245   8.806  0.1496  0.2100 -0.8697
 6984SOL    HW232589   4.418   0.198   8.690  1.3633 -1.5169  0.2805
 6985SOL     OW32590   2.088   4.517   4.774 -0.0866 -0.0823  0.3819
 6985SOL    HW132591   2.134   4.445   4.730  1.1250  0.5817  0.5494
 6985SOL    HW232592   2.164   4.575   4.780 -1.2548  1.7805 -2.9537
 6986SOL     OW32593   3.187   0.817   9.507 -0.0893 -0.0208  0.3503
 6986SOL    HW132594   3.173   0.723   9.491  1.4995 -0.1457 -0.3328
 6986SOL    HW232595   3.181   0.856   9.420 -1.6962  0.4036  0.6506
 6987SOL     OW32596   2.334   1.267  11.280 -0.0927  0.1328  0.3995
 6987SOL    HW132597   2.243   1.277  11.310  0.3333 -0.6929  1.9383
 6987SOL    HW232598   2.328   1.225  11.194 -1.0591 -0.1906  0.6214
 6988SOL     OW32599   4.239   2.527   8.474 -0.1495  0.1449  0.8508
 6988SOL    HW132600   4.241   2.601   8.534  1.6423  1.3013 -0.6487
 6988SOL    HW232601   4.329   2.494   8.471 -0.2487  0.1663 -1.8968
 6989SOL     OW32602   1.973   0.273   7.480  0.2596  0.0183  0.4093
 6989SOL    HW132603   2.018   0.351   7.512  1.4155 -0.7579  0.6840
 6989SOL    HW232604   1.903   0.308   7.425  1.5418  0.8470 -0.6993
 6990SOL     OW32605   3.439   2.738   5.390  0.0330  0.2940 -0.3546
 6990SOL    HW132606   3.487   2.677   5.334  1.7509  0.7917  0.5885
 6990SOL    HW232607   3.480   2.818   5.356  0.2227  0.4196  0.1713
 6991SOL     OW32608   4.240   1.391   8.014 -0.1988  0.0165 -0.1712
 6991SOL    HW132609   4.316   1.406   8.069 -1.3279 -0.9889  1.6884
 6991SOL    HW232610   4.183   1.355   8.082 -0.1816 -0.6470 -0.5011
 6992SOL     OW32611   4.322   1.058   8.168 -0.1974 -0.4312 -0.0106
 6992SOL    HW132612   4.372   1.071   8.249  1.2648  1.1132 -1.1529
 6992SOL    HW232613   4.310   0.964   8.156 -0.1078 -0.2303 -1.6801
 6993SOL     OW32614   0.740   2.128  14.585  0.0976  0.0920 -0.4126
 6993SOL    HW132615   0.794   2.081  14.648  0.7001 -2.0747 -2.5299
 6993SOL    HW232616   0.789   2.210  14.579 -0.3218  0.5468  2.2899
 6994SOL     OW32617   0.667   3.167  11.551 -1.0660 -0.0650 -0.0814
 6994SOL    HW132618   0.761   3.148  11.553 -0.8892  0.9825  2.0686
 6994SOL    HW232619   0.623   3.086  11.526  1.4272 -1.0518 -1.3129
 6995SOL     OW32620   3.403   3.251   9.706  0.2409  0.0932  0.2534
 6995SOL    HW132621   3.316   3.248   9.665  0.3400 -1.8531  0.2124
 6995SOL    HW232622   3.383   3.276   9.796 -0.6066  1.0726 -0.2023
 6996SOL     OW32623   1.501   4.064   3.845 -0.5519  0.6443  0.3030
 6996SOL    HW132624   1.414   4.103   3.845 -0.8710 -0.0989 -1.3918
 6996SOL    HW232625   1.507   4.003   3.919  1.2354  1.1785  0.5995
 6997SOL     OW32626   0.498   3.558   4.432  0.8366 -0.0614 -0.1197
 6997SOL    HW132627   0.439   3.492   4.396 -1.1621  0.4506  2.2329
 6997SOL    HW232628   0.577   3.510   4.406  1.1824  0.1189  0.5866
 6998SOL     OW32629   3.900   0.205  17.420 -0.3020 -0.2336 -0.7080
 6998SOL    HW132630   3.937   0.288  17.390  0.8940  0.0478  1.4902
 6998SOL    HW232631   3.807   0.225  17.410 -0.0184  1.2541 -0.3073
 6999SOL     OW32632   1.084   1.376   4.188  0.0853  0.4779  0.1826
 6999SOL    HW132633   1.163   1.380   4.242 -0.3759  1.0858  0.8091
 6999SOL    HW232634   1.101   1.437   4.116 -2.4360  1.3045  0.3128
 7000SOL     OW32635   3.422   3.684   6.777 -0.4536  0.0642 -0.2042
 7000SOL    HW132636   3.468   3.757   6.736  0.9318  0.5709  2.2729
 7000SOL    HW232637   3.489   3.666   6.842  1.4814  0.3636 -2.1118
 7001SOL     OW32638   2.789   3.797   7.635  0.6541 -0.5804  0.3730
 7001SOL    HW132639   2.703   3.764   7.661  0.4607  0.1398  0.6366
 7001SOL    HW232640   2.839   3.745   7.698 -1.1764 -0.2486  2.1041
 7002SOL     OW32641   4.524   2.697   6.085 -0.0160  0.0853 -0.0155
 7002SOL    HW132642   4.568   2.782   6.080  3.8170 -1.8171  1.7020
 7002SOL    HW232643   4.546   2.672   6.174  0.5406 -0.6449 -0.3579
 7003SOL     OW32644   1.709   0.231  17.465  0.6564 -0.4739  0.5645
 7003SOL    HW132645   1.768   0.208  17.538 -1.0273 -1.6270  1.5797
 7003SOL    HW232646   1.661   0.307  17.495 -0.9705 -2.2646  2.5088
 7004SOL     OW32647   1.242   0.063   4.322  0.1250  0.4351 -0.1834
 7004SOL    HW132648   1.190   0.100   4.394  1.7642 -1.9182  2.2121
 7004SOL    HW232649   1.178   0.001   4.288  0.9515  0.2103 -1.3054
 7005SOL     OW32650   0.996   4.504   4.275 -0.0244  0.5021  0.0864
 7005SOL    HW132651   1.083   4.477   4.247  0.1396  1.9863 -0.8514
 7005SOL    HW232652   1.005   4.595   4.248 -0.7850  0.9246  1.2116
 7006SOL     OW32653   2.537   3.450   2.768 -0.5117 -0.0107  0.4757
 7006SOL    HW132654   2.584   3.533   2.772 -0.2133 -0.3140  3.4586
 7006SOL    HW232655   2.607   3.388   2.744 -1.3441 -0.7752  0.0057
 7007SOL     OW32656   3.881   4.235   5.690  0.2258  0.0410  0.1203
 7007SOL    HW132657   3.801   4.219   5.739  0.5174 -2.1800 -0.1436
 7007SOL    HW232658   3.865   4.319   5.646 -0.9325  0.6198  1.6599
 7008SOL     OW32659   2.280   2.948   3.861 -0.1211 -0.5211 -0.1785
 7008SOL    HW132660   2.288   3.042   3.874 -0.1362 -0.5266 -0.1307
 7008SOL    HW232661   2.304   2.924   3.951  0.9178 -0.5530 -0.4573
 7009SOL     OW32662   4.403   4.654  11.595  0.5865  0.1046 -0.2141
 7009SOL    HW132663   4.462   4.724  11.625  0.7171  0.2129 -0.7239
 7009SOL    HW232664   4.351   4.642  11.675  1.5047  0.8208  0.5039
 7010SOL     OW32665   4.012   0.199   2.086 -0.3571 -0.7422  0.2799
 7010SOL    HW132666   4.073   0.236   2.150 -1.3776  1.8786 -0.2670
 7010SOL    HW232667   3.943   0.266   2.090 -0.4758 -0.6573 -3.3093
 7011SOL     OW32668   0.356   3.004  14.929  1.0160  0.8113  0.2213
 7011SOL    HW132669   0.429   3.060  14.957  2.0530 -0.4038 -0.0045
 7011SOL    HW232670   0.288   3.071  14.927 -0.9073 -1.1633 -0.0285
 7012SOL     OW32671   4.111   0.076   2.831 -0.4424  0.2448  0.6110
 7012SOL    HW132672   4.089   0.131   2.755 -1.2568  0.5637  1.0883
 7012SOL    HW232673   4.136   4.725   2.798 -2.0104  0.4926 -1.2378
 7013SOL     OW32674   2.573   2.180   4.568  0.1448 -0.2512  0.1659
 7013SOL    HW132675   2.567   2.273   4.545 -0.0441 -0.6550 -1.4000
 7013SOL    HW232676   2.666   2.160   4.560 -0.1999 -1.0374 -1.6942
 7014SOL     OW32677   4.647   0.585   4.282  0.1968  0.1145 -0.6914
 7014SOL    HW132678   4.653   0.658   4.343 -0.5412 -0.0895 -0.3753
 7014SOL    HW232679   4.707   0.521   4.320 -0.6373  0.9930  2.0509
 7015SOL     OW32680   2.899   2.862   6.495 -0.0884  0.5609 -0.3475
 7015SOL    HW132681   2.942   2.817   6.567  0.5101 -0.1453 -1.1444
 7015SOL    HW232682   2.811   2.847   6.530  0.3868  0.6860  0.9012
 7016SOL     OW32683   1.925   0.546   3.260 -0.1050  0.2447  0.1180
 7016SOL    HW132684   1.965   0.598   3.191 -0.2813 -0.6495 -0.6562
 7016SOL    HW232685   1.991   0.477   3.264  0.5928  0.8826 -0.6427
 7017SOL     OW32686   1.609   3.260   6.894 -0.5086 -0.4357 -0.2466
 7017SOL    HW132687   1.550   3.272   6.968 -2.4639 -1.2796 -1.6554
 7017SOL    HW232688   1.548   3.228   6.827 -0.7012 -1.8640  0.6059
 7018SOL     OW32689   2.008   0.523  12.070 -0.0028  0.0942 -0.1245
 7018SOL    HW132690   1.945   0.566  12.012 -1.7840  0.6788  2.2463
 7018SOL    HW232691   2.056   0.472  12.005 -0.0498 -2.6863  2.0465
 7019SOL     OW32692   2.989   2.632   2.020  0.2956  0.4660  0.6382
 7019SOL    HW132693   3.043   2.594   1.952 -2.4003 -0.5093 -0.9628
 7019SOL    HW232694   3.050   2.694   2.059  0.4802  0.8041 -0.1920
 7020SOL     OW32695   3.933   2.918   4.639  0.3082  0.0775  0.7286
 7020SOL    HW132696   3.927   2.823   4.643 -1.0453  0.1068 -0.3460
 7020SOL    HW232697   3.961   2.923   4.548  0.9789  2.5460  1.0695
 7021SOL     OW32698   0.699   1.271  14.972 -0.2197 -0.1701 -0.4485
 7021SOL    HW132699   0.757   1.301  14.901  0.7601 -1.0357 -0.0235
 7021SOL    HW232700   0.758   1.214  15.020 -0.9104  0.8797  1.6209
 7022SOL     OW32701   2.128   3.989   7.854  0.1254  0.4702  0.0725
 7022SOL    HW132702   2.172   4.010   7.771 -0.3550  0.5019 -0.1702
 7022SOL    HW232703   2.146   3.896   7.869  0.8221  0.5062 -0.5135
 7023SOL     OW32704   0.915   3.252   9.331  0.0795  0.6256  0.1512
 7023SOL    HW132705   0.918   3.315   9.259 -2.1136 -0.0211 -0.5236
 7023SOL    HW232706   1.005   3.221   9.336  0.0163  0.1736 -1.2813
 7024SOL     OW32707   1.999   2.121   6.898  0.0395 -0.7031 -0.6516
 7024SOL    HW132708   1.993   2.088   6.988  1.4830 -0.8133 -0.5957
 7024SOL    HW232709   1.967   2.209   6.917  0.3543 -0.5512 -0.8341
 7025SOL     OW32710   4.482   0.408   3.958 -0.0958  0.2008  0.3463
 7025SOL    HW132711   4.487   0.492   3.912  0.1270 -0.5511 -1.0114
 7025SOL    HW232712   4.446   0.349   3.892 -2.9975 -0.6763  2.7172
 7026SOL     OW32713   4.098   4.661   0.325 -0.0357 -0.0306 -0.0168
 7026SOL    HW132714   4.057   4.715   0.258 -0.9210 -0.6729  0.0077
 7026SOL    HW232715   4.180   4.710   0.333 -0.3307  0.3296  0.8940
 7027SOL     OW32716   4.558   1.901   0.160 -0.0828  0.4178  0.0796
 7027SOL    HW132717   4.640   1.919   0.206  0.2731 -0.9215 -0.0113
 7027SOL    HW232718   4.580   1.811   0.134  0.5391  1.4699 -3.0453
 7028SOL     OW32719   2.048   0.659   8.871 -0.1120 -0.9130 -0.0720
 7028SOL    HW132720   1.966   0.609   8.866 -1.0435  0.4358  1.7679
 7028SOL    HW232721   2.108   0.595   8.832  1.1689  0.2951 -0.0821
 7029SOL     OW32722   2.186   2.610   7.893  0.0176  0.0781 -0.3618
 7029SOL    HW132723   2.146   2.645   7.972  0.4787 -0.3328  0.0499
 7029SOL    HW232724   2.120   2.622   7.825 -0.6981 -0.6315  0.2047
 7030SOL     OW32725   2.386   2.718  16.856 -0.7217 -0.0202  0.2029
 7030SOL    HW132726   2.431   2.788  16.902 -0.1376 -0.5501  0.4227
 7030SOL    HW232727   2.319   2.695  16.920  0.5707 -0.4019  1.4007
 7031SOL     OW32728   0.793   0.422   7.774 -0.6676  0.1390 -0.2990
 7031SOL    HW132729   0.775   0.444   7.865 -0.4416  1.4485 -0.5770
 7031SOL    HW232730   0.754   0.498   7.731  0.4523  0.6449 -0.4143
 7032SOL     OW32731   1.956   3.080   1.073 -0.0388 -0.4097  0.0928
 7032SOL    HW132732   1.943   3.058   1.166  0.3120 -2.2620 -0.3038
 7032SOL    HW232733   1.950   3.175   1.082  0.7968 -0.3616  0.1553
 7033SOL     OW32734   2.856   1.196  13.703 -0.5999  0.1764  0.2369
 7033SOL    HW132735   2.940   1.197  13.749 -0.5949 -2.6905  0.3207
 7033SOL    HW232736   2.797   1.251  13.754 -1.6185 -0.9800  0.3293
 7034SOL     OW32737   2.236   1.884  12.983  0.1228  0.4020  0.2242
 7034SOL    HW132738   2.327   1.895  12.955  0.6771 -0.9059  1.5060
 7034SOL    HW232739   2.203   1.920  12.900  0.4221  0.6362  0.2066
 7035SOL     OW32740   3.802   0.530   4.734 -0.7111  0.1809  0.4576
 7035SOL    HW132741   3.742   0.493   4.799 -1.7620 -1.1787 -1.2567
 7035SOL    HW232742   3.836   0.451   4.692 -1.2442  1.6407 -2.7163
 7036SOL     OW32743   1.234   4.140   5.452 -0.4386 -0.4900  0.9010
 7036SOL    HW132744   1.296   4.201   5.412 -1.4940  0.8432  1.2831
 7036SOL    HW232745   1.238   4.067   5.390 -0.0869  0.7974 -0.5806
 7037SOL     OW32746   2.777   1.861   9.571 -0.0250  0.2080 -0.3491
 7037SOL    HW132747   2.871   1.852   9.588  0.0459  0.0048 -0.8379
 7037SOL    HW232748   2.771   1.923   9.498 -1.0103  0.2567 -0.2271
 7038SOL     OW32749   0.084   3.714   8.201 -0.0446  0.0981 -0.0849
 7038SOL    HW132750   0.126   3.754   8.277  0.9189 -2.4366  0.6817
 7038SOL    HW232751   0.055   3.627   8.227 -3.2001  1.2228  0.1502
 7039SOL     OW32752   2.819   3.981   0.859  0.4535 -0.0299  0.2110
 7039SOL    HW132753   2.795   3.993   0.767  1.4839  0.4063 -0.0025
 7039SOL    HW232754   2.742   4.018   0.901  1.7091  3.3673 -0.4432
 7040SOL     OW32755   3.211   3.954  10.817 -0.5020  0.2965 -0.0069
 7040SOL    HW132756   3.122   3.982  10.841 -1.5445 -3.0514  0.0181
 7040SOL    HW232757   3.218   3.897  10.893  1.3129 -0.9861 -1.1731
 7041SOL     OW32758   1.133   4.603   1.096 -0.9060  0.0472 -0.0631
 7041SOL    HW132759   1.161   4.512   1.091  1.5261  0.8054 -0.3867
 7041SOL    HW232760   1.165   4.628   1.009  2.6543 -0.4787  1.1107
 7042SOL     OW32761   4.355   1.479  17.033  0.4759  0.6045  0.0186
 7042SOL    HW132762   4.294   1.553  17.028 -0.1146 -0.0500 -2.6654
 7042SOL    HW232763   4.385   1.471  16.943  1.6478  1.0126  0.3799
 7043SOL     OW32764   1.805   1.502   1.070  0.4476 -0.1037  0.6102
 7043SOL    HW132765   1.773   1.561   1.001  0.2952  0.3579  1.0799
 7043SOL    HW232766   1.848   1.439   1.012 -0.5032  0.5398 -0.8187
 7044SOL     OW32767   4.267   2.111   5.246  0.1413 -0.4850  0.0524
 7044SOL    HW132768   4.172   2.123   5.238  0.4538  1.5742 -0.5260
 7044SOL    HW232769   4.291   2.103   5.154 -2.4900  2.7447 -0.8966
 7045SOL     OW32770   3.596   4.547   4.566  0.1609  0.3657  0.2314
 7045SOL    HW132771   3.539   4.539   4.643  0.1109  1.2668  0.2942
 7045SOL    HW232772   3.660   4.486   4.601  0.5371  0.2180 -0.7412
 7046SOL     OW32773   1.594   2.283   9.509 -0.4174 -0.4077  0.5987
 7046SOL    HW132774   1.669   2.308   9.564 -0.3877 -2.2926  1.4019
 7046SOL    HW232775   1.612   2.194   9.480 -0.7525 -0.5471  0.8190
 7047SOL     OW32776   4.181   2.889   6.005 -0.3628  0.0441  0.2305
 7047SOL    HW132777   4.226   2.937   6.074  0.1319 -1.0868  0.7002
 7047SOL    HW232778   4.120   2.956   5.974 -2.1572 -1.0975  1.3361
 7048SOL     OW32779   3.367   2.162   6.280  0.1192  0.4716 -0.3606
 7048SOL    HW132780   3.346   2.121   6.196 -0.9308  1.4603 -0.5886
 7048SOL    HW232781   3.294   2.135   6.335  0.3491  0.7754  0.0906
 7049SOL     OW32782   3.928   2.989   5.246  0.2342 -0.2567  0.5230
 7049SOL    HW132783   3.918   3.023   5.335 -1.8906  1.0226 -0.1982
 7049SOL    HW232784   3.937   3.065   5.189  0.0304 -0.1379  0.6494
 7050SOL     OW32785   1.585   3.949  14.830  0.0744 -0.2771  0.3379
 7050SOL    HW132786   1.637   3.882  14.875 -0.6201 -1.0762 -0.0730
 7050SOL    HW232787   1.546   3.986  14.909  1.6096 -2.6288  2.1656
 7051SOL     OW32788   1.689   2.112   4.969  0.1657  0.1020 -0.1346
 7051SOL    HW132789   1.636   2.183   4.933  3.3129  1.6697 -1.6270
 7051SOL    HW232790   1.773   2.156   4.983 -0.6813  2.3441 -2.1279
 7052SOL     OW32791   1.867   1.798   4.724 -0.2442  0.1774  0.2059
 7052SOL    HW132792   1.891   1.707   4.707  0.4289  0.4939 -0.5674
 7052SOL    HW232793   1.953   1.837   4.710 -0.8602  2.8983  4.1074
 7053SOL     OW32794   4.045   3.294   1.045 -0.0617  0.5549 -0.1797
 7053SOL    HW132795   4.089   3.211   1.061 -0.5535  0.2407 -0.4427
 7053SOL    HW232796   3.958   3.266   1.015 -0.4743 -2.3962  3.7107
 7054SOL     OW32797   2.554   3.977   3.524 -0.1126 -0.5532  0.6513
 7054SOL    HW132798   2.566   3.884   3.503 -1.5096 -0.7758  0.8306
 7054SOL    HW232799   2.642   3.992   3.559  0.1593  1.5437 -0.9104
 7055SOL     OW32800   0.350   3.002  14.429 -0.2731  0.6650 -0.0215
 7055SOL    HW132801   0.306   3.070  14.377 -0.4463  0.3892 -0.2352
 7055SOL    HW232802   0.298   3.009  14.509 -0.4209  0.0826 -0.0665
 7056SOL     OW32803   0.610   2.903  14.012 -0.4070 -0.1699 -0.4376
 7056SOL    HW132804   0.688   2.853  14.034 -0.9656 -2.2150 -3.0895
 7056SOL    HW232805   0.577   2.855  13.936 -0.1267 -0.6987 -0.2244
 7057SOL     OW32806   4.671   4.632   4.477 -0.2562 -0.5465  0.0363
 7057SOL    HW132807   4.596   4.677   4.437 -0.2575  0.4172  1.1248
 7057SOL    HW232808   4.623   4.565   4.525 -0.3978 -0.2776  0.2708
 7058SOL     OW32809   1.071   1.984   6.159  0.0462 -0.4833 -0.9418
 7058SOL    HW132810   1.145   2.008   6.104  1.2213  0.2621  0.9362
 7058SOL    HW232811   1.123   1.957   6.235 -1.4524 -0.7301  0.0001
 7059SOL     OW32812   3.982   2.978  16.362  0.8603 -0.4080 -0.1612
 7059SOL    HW132813   3.983   3.009  16.453 -0.1943  2.0547 -0.9965
 7059SOL    HW232814   4.004   3.062  16.322  0.5285  0.3830  1.3127
 7060SOL     OW32815   1.791   3.588  10.590 -0.4010 -0.2493 -0.2736
 7060SOL    HW132816   1.766   3.499  10.615 -0.0539 -0.5402 -0.9557
 7060SOL    HW232817   1.883   3.571  10.609 -0.3858  0.1370 -0.0002
 7061SOL     OW32818   1.569   4.640  11.896  0.3059  0.2536 -0.3150
 7061SOL    HW132819   1.653   4.684  11.910  0.3115  0.7932 -2.1329
 7061SOL    HW232820   1.559   4.645  11.801 -0.2951  3.4768 -0.0836
 7062SOL     OW32821   1.444   2.361  13.428  0.1737 -0.2161  0.0451
 7062SOL    HW132822   1.492   2.333  13.506  0.4963  0.6198  0.1440
 7062SOL    HW232823   1.453   2.457  13.433  1.5266 -0.3638  0.3476
 7063SOL     OW32824   0.635   3.125  14.813 -0.1986  0.1201 -0.9504
 7063SOL    HW132825   0.623   3.089  14.901  1.9671 -1.8747 -1.4786
 7063SOL    HW232826   0.668   3.213  14.830  0.7364 -0.2832 -0.6936
 7064SOL     OW32827   2.627   1.389   9.019 -0.0976  0.4829 -0.9151
 7064SOL    HW132828   2.609   1.363   9.109  1.2717  1.2968 -0.4110
 7064SOL    HW232829   2.624   1.300   8.984 -1.2600  0.0117  0.3866
 7065SOL     OW32830   1.753   3.809  15.021 -0.0990  0.1206 -0.0178
 7065SOL    HW132831   1.799   3.725  15.030  0.1116  0.2765  0.3442
 7065SOL    HW232832   1.738   3.837  15.111 -3.1067 -0.9112 -0.2042
 7066SOL     OW32833   1.368   1.401   2.902 -0.2892 -0.0660 -0.0961
 7066SOL    HW132834   1.376   1.393   2.997  0.4547  1.4349 -0.0367
 7066SOL    HW232835   1.459   1.403   2.870 -0.2004  0.1052  0.1648
 7067SOL     OW32836   2.516   0.682   3.993  0.2918 -0.1260 -0.0396
 7067SOL    HW132837   2.591   0.690   3.934 -1.3819 -2.2396 -2.4589
 7067SOL    HW232838   2.485   0.772   3.989  0.2927 -0.1767 -1.2330
 7068SOL     OW32839   3.017   1.834   6.438  0.1598 -0.2259 -0.7102
 7068SOL    HW132840   2.927   1.829   6.406 -0.8154  1.4520  1.7668
 7068SOL    HW232841   3.009   1.755   6.492 -4.2501  1.2245  0.7232
 7069SOL     OW32842   3.813   4.144  16.718 -0.3593 -0.6319 -0.1793
 7069SOL    HW132843   3.878   4.078  16.696 -0.4775 -0.7488 -0.1772
 7069SOL    HW232844   3.846   4.176  16.802 -0.9630  0.8127 -0.4782
 7070SOL     OW32845   2.700   4.325   6.206  0.2141 -0.2473  0.0042
 7070SOL    HW132846   2.743   4.282   6.132  1.3763  0.5863  0.2044
 7070SOL    HW232847   2.609   4.301   6.187  0.1632  0.3452 -0.5057
 7071SOL     OW32848   1.937   3.064   2.506 -0.2990 -0.6338  1.0678
 7071SOL    HW132849   1.915   3.152   2.476 -0.4269 -0.1436  2.6323
 7071SOL    HW232850   1.856   3.019   2.482  0.7756 -1.1816 -1.5476
 7072SOL     OW32851   2.369   0.112   7.278 -0.0060  0.2453 -0.3338
 7072SOL    HW132852   2.373   0.116   7.373  0.9568  2.1663 -0.4472
 7072SOL    HW232853   2.275   0.109   7.264 -0.1100  2.4401 -0.0977
 7073SOL     OW32854   3.274   4.316   2.820 -0.4129  0.1217  0.5351
 7073SOL    HW132855   3.289   4.237   2.873  0.7811 -1.1252 -1.6231
 7073SOL    HW232856   3.340   4.377   2.854 -2.4570  1.6469  1.7536
 7074SOL     OW32857   1.281   0.226  10.805  0.1624  0.1132 -0.1178
 7074SOL    HW132858   1.333   0.146  10.796  2.4508  1.5134  0.4848
 7074SOL    HW232859   1.255   0.237  10.714 -0.5735 -3.3567 -0.3361
 7075SOL     OW32860   3.758   2.446  14.942  0.0147 -0.1322 -0.4043
 7075SOL    HW132861   3.747   2.377  14.877 -0.4986  0.1236 -0.5823
 7075SOL    HW232862   3.728   2.521  14.891 -0.6998  1.5906  2.5588
 7076SOL     OW32863   2.160   3.445  16.302  0.6211 -0.0480  0.1419
 7076SOL    HW132864   2.254   3.464  16.294  0.5003  0.0654 -0.9844
 7076SOL    HW232865   2.144   3.420  16.211  2.0156 -1.4033  0.2597
 7077SOL     OW32866   3.665   3.618   9.425  0.1848  0.0052 -0.4889
 7077SOL    HW132867   3.735   3.664   9.470  0.6015  1.2202 -2.3989
 7077SOL    HW232868   3.715   3.595   9.347 -0.4084 -1.0078 -0.5771
 7078SOL     OW32869   1.749   0.654   8.789 -0.1330  0.3860 -0.1273
 7078SOL    HW132870   1.703   0.734   8.763  0.1293  0.8906  0.9396
 7078SOL    HW232871   1.779   0.642   8.700  1.8108  1.5209  0.3803
 7079SOL     OW32872   1.836   2.724   6.880 -0.6393  0.0199  0.2628
 7079SOL    HW132873   1.915   2.681   6.847  0.7568  2.2166  0.7307
 7079SOL    HW232874   1.777   2.655   6.851  0.1141 -0.8167  0.7199
 7080SOL     OW32875   4.392   3.915   2.062 -0.4887  0.0472  0.1545
 7080SOL    HW132876   4.477   3.914   2.016  0.7410 -2.7568  2.5164
 7080SOL    HW232877   4.401   3.998   2.107 -2.6461  0.7886 -0.7941
 7081SOL     OW32878   1.571   3.846   8.739  0.5051  0.1597  0.1784
 7081SOL    HW132879   1.580   3.755   8.767 -0.0006 -0.2581 -1.0287
 7081SOL    HW232880   1.570   3.849   8.643  2.3220  0.6431  0.1827
 7082SOL     OW32881   1.435   4.088   7.897 -0.2416  0.2344 -0.7677
 7082SOL    HW132882   1.431   4.176   7.857 -0.9219 -1.1898 -3.8541
 7082SOL    HW232883   1.345   4.076   7.925  0.0598  2.0406  1.0091
 7083SOL     OW32884   3.400   0.603   2.815 -0.8697  0.2330  0.5519
 7083SOL    HW132885   3.407   0.673   2.750 -2.8607 -1.1381 -1.1426
 7083SOL    HW232886   3.321   0.561   2.781  0.9671 -1.8804 -1.0919
 7084SOL     OW32887   1.043   1.462   9.323 -0.1275 -0.2141  0.3447
 7084SOL    HW132888   1.005   1.400   9.385  3.9465 -1.7100  1.3487
 7084SOL    HW232889   1.122   1.490   9.369  0.4327 -0.1889 -0.6309
 7085SOL     OW32890   4.585   1.686   6.026 -0.1063  0.6419  0.5856
 7085SOL    HW132891   4.528   1.659   5.955 -0.1075 -1.4426  1.3535
 7085SOL    HW232892   4.657   1.623   6.016 -1.2722 -0.8273  1.3834
 7086SOL     OW32893   3.663   1.084  13.706  0.3300 -0.2039  0.5852
 7086SOL    HW132894   3.750   1.062  13.674  0.1974 -0.7679  0.6111
 7086SOL    HW232895   3.628   0.998  13.731 -0.3237 -0.7010 -2.1276
 7087SOL     OW32896   1.564   2.398   7.285 -0.4298  0.0031  0.2031
 7087SOL    HW132897   1.652   2.411   7.250 -0.6101 -0.7254 -0.5107
 7087SOL    HW232898   1.553   2.482   7.328  2.3076  0.9360 -0.9319
 7088SOL     OW32899   1.995   2.423   9.097  0.3014 -0.4919 -0.5961
 7088SOL    HW132900   1.904   2.448   9.081  0.3777  0.3126  0.2498
 7088SOL    HW232901   2.038   2.505   9.072  1.6059 -0.7798  0.7001
 7089SOL     OW32902   1.147   4.660  10.944  0.5237 -0.3307 -0.5311
 7089SOL    HW132903   1.142   0.008  10.989 -2.7961 -0.5043 -0.5878
 7089SOL    HW232904   1.101   4.680  10.862 -0.5677 -2.1756 -0.3607
 7090SOL     OW32905   3.376   2.619   1.401  1.0357  0.0792  0.5995
 7090SOL    HW132906   3.297   2.673   1.399  0.4383 -0.8200  0.3393
 7090SOL    HW232907   3.438   2.689   1.424  1.6113 -0.4009  0.5176
 7091SOL     OW32908   2.747   4.474   3.401  0.1843  0.1905 -0.1383
 7091SOL    HW132909   2.836   4.437   3.398 -0.7521 -2.2346  2.5410
 7091SOL    HW232910   2.730   4.495   3.309 -0.2258  0.6438  0.0437
 7092SOL     OW32911   0.541   0.851   3.703 -0.0295 -0.7839 -0.1315
 7092SOL    HW132912   0.521   0.847   3.796 -1.3732 -0.3490 -0.4096
 7092SOL    HW232913   0.634   0.871   3.709 -0.1074 -1.2255  2.4378
 7093SOL     OW32914   3.750   1.944  11.854 -0.4773 -0.2807 -0.5617
 7093SOL    HW132915   3.795   1.875  11.903 -1.1825  0.2200  0.8101
 7093SOL    HW232916   3.808   2.017  11.873 -2.0270  0.6917  0.4640
 7094SOL     OW32917   4.282   4.497   3.514  0.1775  0.0276  0.6153
 7094SOL    HW132918   4.189   4.503   3.537 -0.0053  0.0118 -0.1021
 7094SOL    HW232919   4.307   4.411   3.548  2.0445 -0.1938 -1.3210
 7095SOL     OW32920   4.460   4.058   2.966  0.1635 -0.6549  0.9524
 7095SOL    HW132921   4.509   3.986   2.926  1.0727 -0.3037  1.4411
 7095SOL    HW232922   4.379   4.040   2.918 -0.1272  0.7661  0.9255
 7096SOL     OW32923   1.440   2.690   3.818 -0.1519  0.0224  0.1901
 7096SOL    HW132924   1.525   2.684   3.774 -0.1773  1.0405  0.0060
 7096SOL    HW232925   1.406   2.602   3.803 -1.6199  0.3956  1.3747
 7097SOL     OW32926   0.716   2.828   7.765  0.2737  0.5797  0.3555
 7097SOL    HW132927   0.643   2.885   7.790 -1.7123 -1.3136 -1.1669
 7097SOL    HW232928   0.669   2.750   7.733 -0.7212  2.5297 -2.9036
 7098SOL     OW32929   1.618   2.096  10.947 -0.0786 -0.3161  0.1695
 7098SOL    HW132930   1.627   2.007  10.913 -0.8161 -0.2068 -0.3144
 7098SOL    HW232931   1.704   2.129  10.923  0.4182  0.1240  2.5122
 7099SOL     OW32932   0.093   2.057   3.385  0.1074  0.0846 -0.1240
 7099SOL    HW132933   0.076   2.120   3.315  0.4758  2.0277  1.5442
 7099SOL    HW232934   0.060   1.974   3.349 -0.5420 -0.1654  1.0588
 7100SOL     OW32935   1.408   2.148  11.109  0.1189 -0.0631  0.3070
 7100SOL    HW132936   1.360   2.207  11.050  1.2724  1.8038  1.2216
 7100SOL    HW232937   1.480   2.126  11.050 -1.1946  0.9757 -1.7103
 7101SOL     OW32938   3.596   0.506   8.729  0.0588 -0.2070  0.6984
 7101SOL    HW132939   3.584   0.412   8.737 -0.2907 -0.0501  2.0829
 7101SOL    HW232940   3.687   0.514   8.756  0.2849  0.4611 -0.2400
 7102SOL     OW32941   4.669   0.718   3.066  0.5437  0.1464 -0.4179
 7102SOL    HW132942   4.674   0.759   3.152 -0.6628 -1.9212  0.6394
 7102SOL    HW232943   4.607   0.776   3.023 -1.8856 -1.0188  1.5578
 7103SOL     OW32944   3.928   0.075  11.693  0.2461  0.2643  0.2796
 7103SOL    HW132945   3.962   4.722  11.696  1.4806  0.7814  1.9245
 7103SOL    HW232946   3.881   0.084  11.610  0.4396 -0.1700  0.1252
 7104SOL     OW32947   1.199   0.675  16.831  0.0315 -0.0777 -0.2917
 7104SOL    HW132948   1.173   0.688  16.922  1.5553  1.5882 -0.1015
 7104SOL    HW232949   1.259   0.747  16.815  0.1714 -0.4199 -1.2905
 7105SOL     OW32950   0.555   2.726   3.702 -0.6399  0.4127 -0.3738
 7105SOL    HW132951   0.513   2.808   3.674 -2.2222  0.4016  1.9788
 7105SOL    HW232952   0.644   2.759   3.693 -0.6119  0.5657  0.4934
 7106SOL     OW32953   2.734   2.608  10.722  0.3454  0.2824 -0.4626
 7106SOL    HW132954   2.714   2.625  10.814  0.5058 -2.0391  0.0034
 7106SOL    HW232955   2.680   2.529  10.720  0.3310  0.2914 -0.4153
 7107SOL     OW32956   2.846   0.138   3.492 -0.0388  0.1741  0.6992
 7107SOL    HW132957   2.912   0.199   3.526  0.6787  1.1715 -2.5041
 7107SOL    HW232958   2.891   0.090   3.422 -1.1995 -0.5405  0.4541
 7108SOL     OW32959   3.386   2.845  13.331 -0.1130 -0.1444 -0.0341
 7108SOL    HW132960   3.390   2.812  13.241  0.2622 -0.9920  0.2905
 7108SOL    HW232961   3.443   2.780  13.371 -0.0218 -0.3732 -0.5414
 7109SOL     OW32962   2.711   2.528   6.598 -0.1381 -0.7162 -0.0349
 7109SOL    HW132963   2.763   2.472   6.656 -1.6273 -2.0691 -0.0099
 7109SOL    HW232964   2.651   2.573   6.657 -1.0847 -0.6761 -1.0317
 7110SOL     OW32965   0.305   3.514   9.691  0.5742 -0.1665  0.1254
 7110SOL    HW132966   0.261   3.579   9.744 -0.5205 -0.4005 -0.5064
 7110SOL    HW232967   0.301   3.434   9.744  0.1864 -0.2717 -0.0623
 7111SOL     OW32968   1.884   1.663   4.124  0.4876  0.1564 -0.2683
 7111SOL    HW132969   1.850   1.653   4.213  0.0394 -0.6696 -0.5261
 7111SOL    HW232970   1.810   1.617   4.083  0.8613 -0.7783  0.1029
 7112SOL     OW32971   2.000   2.831   6.419 -0.1547 -0.3594 -0.0818
 7112SOL    HW132972   2.087   2.823   6.457 -1.5010 -0.7537  2.8928
 7112SOL    HW232973   1.994   2.921   6.453 -0.3839 -0.6289  0.6017
 7113SOL     OW32974   1.663   1.032   5.922 -0.3409 -0.0801  0.1512
 7113SOL    HW132975   1.606   1.058   5.850 -0.9429 -0.4861  0.4879
 7113SOL    HW232976   1.682   1.114   5.969  0.6226 -0.4357  0.3797
 7114SOL     OW32977   1.939   3.656   8.153 -0.4133  0.7524 -0.0468
 7114SOL    HW132978   1.913   3.712   8.080  0.7830  1.0714 -0.2223
 7114SOL    HW232979   1.882   3.580   8.140  0.1804  0.2912  0.0452
 7115SOL     OW32980   0.905   4.080   3.664  0.1390 -0.0517 -0.2548
 7115SOL    HW132981   0.941   4.162   3.698 -1.7100  0.5821  0.1459
 7115SOL    HW232982   0.911   4.105   3.571  0.3265  1.5261  0.1820
 7116SOL     OW32983   3.460   0.043  16.599  0.4948 -0.0800 -0.4300
 7116SOL    HW132984   3.413   4.699  16.621  0.7551 -0.6067 -1.7866
 7116SOL    HW232985   3.384   0.097  16.579  1.5422  1.1924 -0.9973
 7117SOL     OW32986   3.863   4.149   8.610 -0.0810  0.4479  0.3041
 7117SOL    HW132987   3.919   4.124   8.537  2.1993  1.0948  1.8205
 7117SOL    HW232988   3.922   4.134   8.684 -0.9123 -0.1456  0.8470
 7118SOL     OW32989   1.403   3.058  10.680  0.0054  0.6040  0.4482
 7118SOL    HW132990   1.343   2.991  10.649 -0.3889  0.6037  1.2027
 7118SOL    HW232991   1.368   3.071  10.769 -0.6140 -0.2247  0.3185
 7119SOL     OW32992   1.970   2.723   6.070  0.1299  0.3181 -0.2065
 7119SOL    HW132993   1.893   2.745   6.122  0.0451 -0.3719 -0.0496
 7119SOL    HW232994   2.039   2.739   6.135 -0.6717  1.6393  0.3153
 7120SOL     OW32995   3.510   1.679   4.892  0.2267 -0.4424 -0.5322
 7120SOL    HW132996   3.582   1.720   4.844 -0.8328  0.9200 -0.9463
 7120SOL    HW232997   3.528   1.594   4.852 -1.4054  0.5243 -3.3283
 7121SOL     OW32998   2.861   0.743   6.258 -0.2721  0.7953  0.3066
 7121SOL    HW132999   2.796   0.693   6.209  1.3245  0.1244 -1.1569
 7121SOL    HW233000   2.817   0.828   6.257  1.3249  1.6084 -1.7186
 7122SOL     OW33001   0.162   3.188  14.925 -0.0460 -0.0058  0.5596
 7122SOL    HW133002   0.139   3.255  14.860 -0.7976 -0.6816  0.1386
 7122SOL    HW233003   0.172   3.237  15.007 -1.9144  1.4356 -0.0645
 7123SOL     OW33004   3.161   2.590   6.405  0.3768 -0.7492 -0.0160
 7123SOL    HW133005   3.225   2.540   6.356 -0.9088 -0.1983 -2.2315
 7123SOL    HW233006   3.162   2.533   6.483  0.3087 -1.4736 -0.5410
 7124SOL     OW33007   1.632   1.079   9.537 -0.2038 -0.2687 -0.4372
 7124SOL    HW133008   1.654   1.172   9.532  1.3030 -0.7548 -2.8277
 7124SOL    HW233009   1.710   1.046   9.492  0.5539 -0.6009  1.0803
 7125SOL     OW33010   1.530   1.983   5.382  0.2938  0.3143  0.2887
 7125SOL    HW133011   1.548   2.056   5.441 -1.9702  0.3562  0.9038
 7125SOL    HW233012   1.583   1.918   5.427  0.3469  0.6254  0.6780
 7126SOL     OW33013   0.865   0.264   1.827  0.3414  0.0630  0.4637
 7126SOL    HW133014   0.848   0.170   1.826 -2.8670  0.6840 -1.0106
 7126SOL    HW233015   0.918   0.275   1.906  0.1565 -0.4541  0.6555
 7127SOL     OW33016   1.108   1.415   2.817  0.3479  0.2326 -0.1825
 7127SOL    HW133017   1.074   1.401   2.906  0.3214 -2.0717 -0.5660
 7127SOL    HW233018   1.197   1.382   2.835 -0.2491 -1.8392 -1.0747
 7128SOL     OW33019   1.270   0.176   8.241  0.5684  0.2163  0.3225
 7128SOL    HW133020   1.183   0.190   8.203  0.4077  0.9638  0.9726
 7128SOL    HW233021   1.299   0.266   8.253 -0.0446  0.5162 -0.3971
 7129SOL     OW33022   1.867   4.576   8.781 -0.3253  0.2566 -0.5328
 7129SOL    HW133023   1.888   4.600   8.871 -2.6893  0.3656 -0.0226
 7129SOL    HW233024   1.952   4.534   8.764 -0.1330  0.0067  1.1005
 7130SOL     OW33025   1.137   3.398  12.185  0.0018 -0.4813  0.3717
 7130SOL    HW133026   1.200   3.460  12.222 -0.6294 -0.3113  1.1455
 7130SOL    HW233027   1.053   3.428  12.220 -0.8339 -2.2730 -0.0877
 7131SOL     OW33028   0.879   1.609  10.271 -0.6335 -0.5486  0.0989
 7131SOL    HW133029   0.918   1.667  10.206 -0.0757 -2.7341 -1.5515
 7131SOL    HW233030   0.795   1.617  10.226 -0.2811 -1.0184 -0.6434
 7132SOL     OW33031   3.271   3.042  16.925 -0.6345  0.0537  0.1283
 7132SOL    HW133032   3.199   3.105  16.934 -1.1900 -0.4720 -0.6786
 7132SOL    HW233033   3.343   3.092  16.889  1.3269 -1.4696  1.9597
 7133SOL     OW33034   0.888   4.107   8.715 -0.0201 -0.0753  0.0404
 7133SOL    HW133035   0.887   4.093   8.621  0.9930  0.6686 -0.0729
 7133SOL    HW233036   0.975   4.147   8.714 -0.4935  0.9313 -0.4139
 7134SOL     OW33037   0.451   0.670   7.282  0.5582  0.7527 -0.5418
 7134SOL    HW133038   0.430   0.710   7.198 -0.1076  1.7335  0.0884
 7134SOL    HW233039   0.537   0.629   7.271  0.9685  1.2178  0.8862
 7135SOL     OW33040   2.030   3.607   2.381  0.5372  0.5611  0.1349
 7135SOL    HW133041   2.028   3.579   2.473  0.3797  1.7032  0.4812
 7135SOL    HW233042   2.121   3.584   2.363  0.7868  1.8595 -0.2456
 7136SOL     OW33043   3.475   0.063   2.457  0.4301  0.0789  0.4698
 7136SOL    HW133044   3.427   0.088   2.378  1.0766 -2.3858 -0.7081
 7136SOL    HW233045   3.412   4.731   2.481 -0.4737  0.1988 -1.5585
 7137SOL     OW33046   1.143   4.688  16.992  0.2538  0.1064 -0.1841
 7137SOL    HW133047   1.136   0.042  16.958  3.4533 -0.3870 -2.1437
 7137SOL    HW233048   1.202   4.696  17.067 -2.3969  4.7581  1.3985
 7138SOL     OW33049   4.176   3.659  17.389  0.1704  0.0058 -0.2488
 7138SOL    HW133050   4.144   3.583  17.438  2.2269  1.0558  2.7595
 7138SOL    HW233051   4.264   3.664  17.425 -0.8491 -0.5009  2.3550
 7139SOL     OW33052   3.248   4.025   6.677  0.0100  0.2063 -0.1688
 7139SOL    HW133053   3.159   3.999   6.652  0.0928  0.8222 -1.0996
 7139SOL    HW233054   3.287   4.041   6.591 -0.9927  1.3008 -0.4056
 7140SOL     OW33055   2.895   2.839  13.749  0.2179  0.3220  0.7583
 7140SOL    HW133056   2.960   2.873  13.810 -0.3346  1.6116  0.6253
 7140SOL    HW233057   2.862   2.762  13.797 -0.3294 -0.9054 -1.6238
 7141SOL     OW33058   2.745   1.016   6.905  0.3942  0.1809  0.0908
 7141SOL    HW133059   2.783   1.035   6.991 -1.4759 -0.6940  1.1293
 7141SOL    HW233060   2.757   0.921   6.900 -1.0602 -0.0256  0.5137
 7142SOL     OW33061   0.945   3.587   2.406  0.2886  0.0841  0.3611
 7142SOL    HW133062   0.984   3.659   2.455  2.5563  0.6115 -2.2132
 7142SOL    HW233063   0.887   3.640   2.353 -3.0788 -2.6542  1.2711
 7143SOL     OW33064   1.697   0.370   1.937 -0.3781 -0.0594  0.1385
 7143SOL    HW133065   1.739   0.449   1.902 -0.1858 -0.9924 -1.6897
 7143SOL    HW233066   1.739   0.308   1.877 -3.9207 -0.8281 -1.4846
 7144SOL     OW33067   3.502   4.720   8.060 -0.6046  0.1462  0.0636
 7144SOL    HW133068   3.447   4.706   7.982 -1.8905  0.6894  0.8713
 7144SOL    HW233069   3.452   4.680   8.131 -1.2246 -0.3652 -0.6618
 7145SOL     OW33070   4.503   0.137  10.874 -0.0771  0.2594 -0.2882
 7145SOL    HW133071   4.427   0.158  10.928  0.3266  2.3640 -0.5456
 7145SOL    HW233072   4.567   0.186  10.926 -1.1051  1.3762 -0.0791
 7146SOL     OW33073   4.076   0.677   5.538 -0.3701  0.5535 -0.7240
 7146SOL    HW133074   4.017   0.751   5.523 -1.8768 -1.0497 -2.7898
 7146SOL    HW233075   4.070   0.673   5.633  0.1110 -2.5307 -0.8246
 7147SOL     OW33076   3.020   2.406   5.335  0.8197  0.1232 -0.3277
 7147SOL    HW133077   3.065   2.324   5.316  2.2416  1.8466 -4.3462
 7147SOL    HW233078   3.082   2.470   5.300 -0.7161  2.4066  1.0713
 7148SOL     OW33079   1.407   4.301   3.304  0.0999  0.4186  0.0134
 7148SOL    HW133080   1.362   4.267   3.227 -0.0088 -0.1520  0.3256
 7148SOL    HW233081   1.391   4.395   3.311 -0.4017  0.3969 -0.8022
 7149SOL     OW33082   4.630   3.161   6.516  0.6550 -0.0799 -0.1192
 7149SOL    HW133083   4.572   3.101   6.564 -0.0629  1.1892  0.5822
 7149SOL    HW233084   4.711   3.157   6.568 -0.0044 -1.6452  0.7899
 7150SOL     OW33085   1.636   1.964   6.062 -0.0865  0.6791  0.4492
 7150SOL    HW133086   1.714   1.909   6.061  0.2016  1.0959 -1.8569
 7150SOL    HW233087   1.564   1.904   6.041  1.2293 -0.8867  0.3954
 7151SOL     OW33088   4.525   3.629   2.133  0.4373  0.5382 -0.0126
 7151SOL    HW133089   4.587   3.559   2.115  0.8305  0.5815  1.1897
 7151SOL    HW233090   4.458   3.610   2.068  3.0049  0.2221 -2.5419
 7152SOL     OW33091   3.791   1.940   7.361 -1.1039 -0.0240 -0.8218
 7152SOL    HW133092   3.874   1.973   7.328 -0.1864  0.4152  1.9919
 7152SOL    HW233093   3.726   1.982   7.304  0.2998  1.2390 -1.4858
 7153SOL     OW33094   3.209   1.065   5.980  0.0202 -0.1415 -0.3179
 7153SOL    HW133095   3.138   1.005   6.000 -0.4768  0.7038  0.4552
 7153SOL    HW233096   3.250   1.067   6.066 -1.9897 -1.9165  0.6648
 7154SOL     OW33097   0.265   0.749   2.018  0.3973 -0.1799  0.5909
 7154SOL    HW133098   0.194   0.687   2.002 -1.1230  2.3490 -2.2977
 7154SOL    HW233099   0.317   0.704   2.085  1.3260 -2.7908 -1.8696
 7155SOL     OW33100   1.468   2.070   6.806  0.2736 -0.2503 -0.0826
 7155SOL    HW133101   1.400   2.127   6.771 -0.2181 -1.2837 -0.8177
 7155SOL    HW233102   1.529   2.041   6.739  1.2292  0.7615  0.3447
 7156SOL     OW33103   0.358   1.005  13.110  0.1766  0.0840  0.1125
 7156SOL    HW133104   0.333   0.922  13.069  1.6728 -0.8077  1.0241
 7156SOL    HW233105   0.440   1.037  13.071 -0.1087  0.7015  0.0268
 7157SOL     OW33106   3.366   0.348   7.294 -0.4813 -0.5482  0.0570
 7157SOL    HW133107   3.332   0.390   7.214 -0.9868  1.6567  1.4365
 7157SOL    HW233108   3.444   0.401   7.313 -1.0139 -0.4116  1.8404
 7158SOL     OW33109   2.093   0.967   1.234 -0.3120  0.3719 -0.1055
 7158SOL    HW133110   2.142   0.893   1.199  0.6698  2.0940 -2.3623
 7158SOL    HW233111   2.009   0.932   1.265  0.1212  1.3076  2.1524
 7159SOL     OW33112   3.145   1.534   3.944  0.6100  0.4067  0.3409
 7159SOL    HW133113   3.133   1.513   3.852 -1.8394 -1.3186  1.0559
 7159SOL    HW233114   3.082   1.485   3.998  0.3183 -1.3579 -1.6015
 7160SOL     OW33115   4.019   2.557   3.487 -0.0941 -0.5289  0.3031
 7160SOL    HW133116   4.012   2.526   3.577  0.1592 -0.3652  0.3795
 7160SOL    HW233117   3.935   2.545   3.444  0.8975 -1.7274 -1.3345
 7161SOL     OW33118   3.801   3.173   8.242  0.3290  0.4244  0.5014
 7161SOL    HW133119   3.828   3.175   8.334  0.6873 -2.8606  0.4963
 7161SOL    HW233120   3.707   3.177   8.253  0.3835  2.6721  0.0186
 7162SOL     OW33121   2.774   4.072   8.391 -0.0009 -0.1256  0.6572
 7162SOL    HW133122   2.712   4.000   8.400 -0.5914  0.1454 -1.1773
 7162SOL    HW233123   2.790   4.065   8.297 -0.0875 -3.3629  0.8889
 7163SOL     OW33124   1.792   2.197   1.780 -0.1800 -0.7430 -0.2324
 7163SOL    HW133125   1.704   2.234   1.772 -0.5904 -1.8783 -0.9511
 7163SOL    HW233126   1.806   2.137   1.707  0.6556 -1.3723  0.4392
 7164SOL     OW33127   0.424   3.410  14.202 -0.0092  0.2729 -0.4023
 7164SOL    HW133128   0.378   3.335  14.239  2.5317 -0.2438  1.7208
 7164SOL    HW233129   0.505   3.376  14.166  0.2588  0.1460  0.3192
 7165SOL     OW33130   3.151   2.951   1.539  0.1596  0.2705  0.1241
 7165SOL    HW133131   3.098   3.023   1.572 -0.7620 -0.5751  0.4851
 7165SOL    HW233132   3.185   2.914   1.620  0.9944 -1.7410 -1.1446
 7166SOL     OW33133   3.080   2.171   3.677  0.1115  0.0812  1.1975
 7166SOL    HW133134   3.034   2.151   3.759 -0.7112 -1.4269  0.3775
 7166SOL    HW233135   3.171   2.184   3.702  0.0452  0.4993  1.2217
 7167SOL     OW33136   3.552   2.989   2.208  0.2175 -0.2022  0.3983
 7167SOL    HW133137   3.496   3.034   2.144  1.4243  0.1231 -0.4251
 7167SOL    HW233138   3.539   3.039   2.288 -1.3668 -1.6656  1.0582
 7168SOL     OW33139   0.430   4.680   7.969  0.1458 -0.1108 -0.1497
 7168SOL    HW133140   0.506   4.642   8.013 -1.8307 -2.0640  1.5806
 7168SOL    HW233141   0.373   4.626   8.024 -2.3734  1.6815 -1.0187
 7169SOL     OW33142   3.096   2.185  12.636 -0.1096 -0.6645 -0.2526
 7169SOL    HW133143   3.085   2.092  12.657  2.0691 -1.1332 -1.1290
 7169SOL    HW233144   3.168   2.204  12.696 -0.5067  0.2872 -0.0930
 7170SOL     OW33145   0.618   1.619   7.332  0.5465 -0.0783  0.4646
 7170SOL    HW133146   0.647   1.531   7.308 -1.0809 -0.0669 -1.5290
 7170SOL    HW233147   0.648   1.636   7.422 -0.2201 -0.3589  0.7718
 7171SOL     OW33148   2.600   0.788   2.764 -0.4296  0.1935  0.1667
 7171SOL    HW133149   2.531   0.748   2.711  0.5281  0.0961 -1.0051
 7171SOL    HW233150   2.635   0.845   2.696  0.2141  1.2810  1.4065
 7172SOL     OW33151   4.315   0.179   9.618  0.0705  0.1956 -0.6685
 7172SOL    HW133152   4.337   0.087   9.632 -0.9510 -0.1023 -0.9924
 7172SOL    HW233153   4.296   0.217   9.704  1.5208  0.6576 -0.5469
 7173SOL     OW33154   2.933   0.474  10.907 -0.2513 -0.1786  0.4402
 7173SOL    HW133155   2.953   0.409  10.975  2.1504  0.8057  0.6785
 7173SOL    HW233156   2.879   0.540  10.950  0.1987 -0.6138  1.6912
 7174SOL     OW33157   1.053   1.229  10.622  0.1068  0.0638  0.3805
 7174SOL    HW133158   1.057   1.217  10.717 -1.8086  1.3424  0.6245
 7174SOL    HW233159   0.976   1.283  10.607  1.7343  1.7274 -1.9723
 7175SOL     OW33160   3.685   4.512   8.643  0.1887  0.1607 -0.0114
 7175SOL    HW133161   3.605   4.496   8.693 -0.3722  0.5704 -0.7850
 7175SOL    HW233162   3.654   4.522   8.553 -0.1204 -2.9098 -0.2643
 7176SOL     OW33163   1.728   0.241   0.151  0.5652 -0.6849 -0.3471
 7176SOL    HW133164   1.645   0.207   0.116 -0.0824 -0.4617  1.0029
 7176SOL    HW233165   1.701   0.332   0.140  1.4573 -0.3755 -0.0072
 7177SOL     OW33166   1.025   1.876   3.876  0.2199 -0.5141  0.4079
 7177SOL    HW133167   0.959   1.887   3.807 -1.5215 -1.2175  1.9496
 7177SOL    HW233168   1.094   1.933   3.844 -1.5241  0.1978 -2.0481
 7178SOL     OW33169   2.524   4.049   9.179  0.8453 -0.2707 -0.1444
 7178SOL    HW133170   2.538   4.104   9.256  1.0049  2.1248 -1.8932
 7178SOL    HW233171   2.604   3.996   9.177 -0.9321 -2.9803  0.2956
 7179SOL     OW33172   0.460   3.788   7.652 -0.5345 -0.2504 -0.0795
 7179SOL    HW133173   0.463   3.882   7.672  0.2922 -0.5349  1.1225
 7179SOL    HW233174   0.375   3.773   7.610  1.2117  1.2031 -4.0866
 7180SOL     OW33175   1.495   2.640  16.402  0.1542 -0.0077  0.2843
 7180SOL    HW133176   1.408   2.622  16.367 -0.4002  0.1436  1.5833
 7180SOL    HW233177   1.474   2.732  16.415 -0.7103 -0.0916 -0.5645
 7181SOL     OW33178   0.244   2.335   8.430 -0.1278 -0.1914 -0.2151
 7181SOL    HW133179   0.229   2.406   8.492  0.5471 -1.6746  1.6217
 7181SOL    HW233180   0.311   2.282   8.473 -0.3652 -1.0398 -0.8907
 7182SOL     OW33181   3.372   1.781   4.509 -0.6453 -0.1168  0.2443
 7182SOL    HW133182   3.463   1.776   4.478  0.1466  0.6822  2.4319
 7182SOL    HW233183   3.359   1.704   4.564  0.1664 -1.5665 -1.5789
 7183SOL     OW33184   3.557   2.427   4.910 -0.1301  0.2332  0.8191
 7183SOL    HW133185   3.592   2.475   4.985 -0.3318 -0.4727  1.3732
 7183SOL    HW233186   3.492   2.487   4.872  0.0071 -0.2068 -0.1005
 7184SOL     OW33187   0.849   3.948   4.323 -0.6199  0.5709  0.4566
 7184SOL    HW133188   0.836   3.854   4.335 -0.1052  0.3302 -0.7896
 7184SOL    HW233189   0.776   3.980   4.376 -0.1439  1.5614  0.5027
 7185SOL     OW33190   1.207   3.613   1.745  0.0838  0.6829 -0.4559
 7185SOL    HW133191   1.209   3.527   1.703 -0.2061  1.2701 -1.6918
 7185SOL    HW233192   1.133   3.617   1.805 -0.3198 -2.3091 -0.7440
 7186SOL     OW33193   2.328   2.810   3.034  0.3852 -0.1147 -0.2721
 7186SOL    HW133194   2.351   2.825   2.943  0.4254 -1.2299 -0.4365
 7186SOL    HW233195   2.396   2.746   3.052 -0.6244 -1.1637 -0.1953
 7187SOL     OW33196   2.886   0.863   0.830 -0.1078 -0.5377  0.2164
 7187SOL    HW133197   2.926   0.835   0.748  0.8158 -0.5875  0.6876
 7187SOL    HW233198   2.808   0.906   0.793  1.1541  1.0755 -0.6043
 7188SOL     OW33199   1.036   0.857   5.846 -0.1127  0.0265  0.3041
 7188SOL    HW133200   1.069   0.883   5.760  0.3849  2.3076  1.1874
 7188SOL    HW233201   0.950   0.824   5.819 -0.5056  0.7692  0.6342
 7189SOL     OW33202   2.891   3.986   6.274  0.2101  0.2228  0.4098
 7189SOL    HW133203   2.858   3.966   6.187 -2.3188  2.2113  0.8865
 7189SOL    HW233204   2.978   3.947   6.273 -0.7503 -1.9258  0.5790
 7190SOL     OW33205   3.804   4.730   5.159 -0.0494  0.3090 -0.3417
 7190SOL    HW133206   3.822   4.651   5.210 -0.7286  0.6692  0.4542
 7190SOL    HW233207   3.882   0.048   5.171 -0.2214  0.1610  1.4219
 7191SOL     OW33208   1.204   0.852   6.037  0.1716  0.4676  0.0768
 7191SOL    HW133209   1.146   0.839   5.962 -0.1171 -1.6831  0.6639
 7191SOL    HW233210   1.155   0.919   6.084 -2.6496 -0.5071 -1.4459
 7192SOL     OW33211   3.414   0.137  14.952 -0.0523  0.2105 -0.4675
 7192SOL    HW133212   3.486   0.162  14.895  0.3522 -0.4582 -0.2503
 7192SOL    HW233213   3.341   0.179  14.907  1.3359  1.9954 -1.0341
 7193SOL     OW33214   0.875   2.442  16.414  0.1420  0.0779  0.1227
 7193SOL    HW133215   0.965   2.424  16.387  0.0235 -0.7848  0.2918
 7193SOL    HW233216   0.877   2.392  16.496 -0.0877 -0.9000 -0.4640
 7194SOL     OW33217   0.732   3.417   2.141 -0.1399  0.1796  0.8386
 7194SOL    HW133218   0.748   3.510   2.131  1.7606 -0.4546 -1.9029
 7194SOL    HW233219   0.668   3.414   2.212 -0.8308 -0.5905  0.1943
 7195SOL     OW33220   0.461   1.561   2.668 -0.0665  0.3898  0.0974
 7195SOL    HW133221   0.380   1.605   2.641 -0.1279  0.6572  0.7012
 7195SOL    HW233222   0.522   1.595   2.602 -1.1332  2.2107  0.0504
 7196SOL     OW33223   2.734   3.078   7.354  0.2256 -0.1482 -0.1830
 7196SOL    HW133224   2.642   3.083   7.380  0.8206  2.5774  1.3840
 7196SOL    HW233225   2.770   2.993   7.382  0.0955 -0.4700 -0.9880
 7197SOL     OW33226   3.357   4.338  16.624  0.3815 -0.0960 -0.3339
 7197SOL    HW133227   3.432   4.291  16.661 -1.2682 -0.9076  1.9244
 7197SOL    HW233228   3.317   4.267  16.574 -1.0072  0.0110  0.6542
 7198SOL     OW33229   1.507   3.168   9.355  0.2688  0.5372  0.9707
 7198SOL    HW133230   1.508   3.088   9.304 -1.5978  1.4382 -0.4859
 7198SOL    HW233231   1.577   3.160   9.419  2.1410  1.3599 -0.9707
 7199SOL     OW33232   3.542   1.662   2.386  0.3773 -0.6532  0.0733
 7199SOL    HW133233   3.543   1.693   2.295 -0.3070 -0.4175  0.1471
 7199SOL    HW233234   3.473   1.597   2.377 -0.9297  0.5801  1.1669
 7200SOL     OW33235   2.268   1.696   7.958  0.2258 -0.3074  1.2048
 7200SOL    HW133236   2.328   1.767   7.981  0.6129  0.1423 -1.1622
 7200SOL    HW233237   2.286   1.634   8.028 -0.4099 -0.7522  0.9803
 7201SOL     OW33238   3.169   4.198  14.713  0.0856  0.0127  0.2032
 7201SOL    HW133239   3.224   4.160  14.781  0.2984  0.9256  0.5443
 7201SOL    HW233240   3.232   4.206  14.641  1.2094 -2.7624  0.9069
 7202SOL     OW33241   3.675   2.268  11.509 -0.5123 -0.4096  0.8856
 7202SOL    HW133242   3.758   2.309  11.532  2.0667 -3.5614 -2.7208
 7202SOL    HW233243   3.617   2.283  11.584  2.3288 -2.0110  3.3846
 7203SOL     OW33244   1.199   4.479   2.309  0.3903 -0.0338  0.1856
 7203SOL    HW133245   1.186   4.386   2.328  0.3146 -0.1850 -0.6220
 7203SOL    HW233246   1.247   4.470   2.227 -0.2584 -0.8704 -0.1023
 7204SOL     OW33247   2.343   4.130  15.021 -0.1950  0.0978  0.5599
 7204SOL    HW133248   2.426   4.094  15.052  0.4652  0.3784 -0.9248
 7204SOL    HW233249   2.363   4.137  14.928 -1.0007 -0.8068  0.3179
 7205SOL     OW33250   1.767   2.944   4.443  0.2561 -1.0433 -0.3045
 7205SOL    HW133251   1.779   3.000   4.520  0.5286  0.4900 -1.4665
 7205SOL    HW233252   1.793   2.860   4.480 -2.0443 -1.6547 -0.0830
 7206SOL     OW33253   4.496   2.681   4.948 -0.7769 -0.6323  0.0175
 7206SOL    HW133254   4.485   2.704   5.040  1.3554  1.4747 -0.2591
 7206SOL    HW233255   4.410   2.644   4.929  0.0422 -1.4678 -2.0815
 7207SOL     OW33256   1.572   1.296   8.029  0.1068  0.0382  0.2819
 7207SOL    HW133257   1.582   1.207   8.063 -4.5653 -0.7088 -0.3804
 7207SOL    HW233258   1.640   1.340   8.080 -1.1891  3.6147 -1.0408
 7208SOL     OW33259   1.579   2.177  15.287 -0.1021 -0.0980 -0.3250
 7208SOL    HW133260   1.645   2.163  15.355 -0.0973  0.9488 -0.1190
 7208SOL    HW233261   1.522   2.103  15.311 -0.3754 -0.0304 -0.7835
 7209SOL     OW33262   1.548   0.218   6.668 -0.5686 -0.5829 -0.5686
 7209SOL    HW133263   1.501   0.243   6.588  1.0964  1.3055 -0.9603
 7209SOL    HW233264   1.476   0.202   6.729  0.1763 -0.6077  0.3010
 7210SOL     OW33265   4.727   2.371   6.559  0.0072  0.1090  0.0878
 7210SOL    HW133266   4.702   2.431   6.628  2.3076 -0.6951  1.6252
 7210SOL    HW233267   0.077   2.352   6.595  0.0397  3.7359  1.8866
 7211SOL     OW33268   3.744   2.049   5.807 -0.1494  0.1529  0.8497
 7211SOL    HW133269   3.830   2.091   5.815  0.5991 -1.2995  0.4695
 7211SOL    HW233270   3.727   2.019   5.896 -2.2207 -1.4098 -0.0769
 7212SOL     OW33271   1.970   3.451  15.703  0.8762 -0.6808 -0.5885
 7212SOL    HW133272   1.919   3.511  15.648 -1.2040 -2.3488 -0.4760
 7212SOL    HW233273   2.051   3.499  15.718  0.8880 -1.2454  1.1234
 7213SOL     OW33274   3.113   4.005   8.831 -0.0474  0.5033 -0.2706
 7213SOL    HW133275   3.044   4.060   8.794  0.0157  0.3034 -0.6881
 7213SOL    HW233276   3.162   3.985   8.752 -0.6934  0.3298 -0.6253
 7214SOL     OW33277   0.018   4.078   4.473  0.4607 -0.2871  0.3504
 7214SOL    HW133278   0.047   4.158   4.517 -0.7151  0.2543  0.1476
 7214SOL    HW233279   0.105   4.047   4.447  1.1416  0.7259  1.3850
 7215SOL     OW33280   4.102   4.147   8.806  0.0310 -0.0242 -0.1311
 7215SOL    HW133281   4.067   4.109   8.886  3.2598  0.2025  1.3551
 7215SOL    HW233282   4.135   4.075   8.752  1.4155  0.6156 -0.1428
 7216SOL     OW33283   4.532   1.186   3.285 -0.2520  0.3395 -0.1759
 7216SOL    HW133284   4.599   1.168   3.219  2.1079 -1.1940  2.6527
 7216SOL    HW233285   4.588   1.158   3.358 -0.2467  1.1795  0.1492
 7217SOL     OW33286   2.236   4.454  15.814 -0.0766 -0.7012 -0.2169
 7217SOL    HW133287   2.280   4.382  15.860  3.3787  1.3476 -0.3306
 7217SOL    HW233288   2.145   4.436  15.838 -0.7851 -0.9679 -3.1378
 7218SOL     OW33289   0.219   1.260   6.094  0.2138 -0.8316 -0.6423
 7218SOL    HW133290   0.222   1.188   6.156 -0.7983 -1.8932 -1.8262
 7218SOL    HW233291   0.135   1.242   6.051 -0.5406 -1.9070  1.3167
 7219SOL     OW33292   2.180   1.033   4.218  0.5028 -0.1457 -0.2247
 7219SOL    HW133293   2.194   1.014   4.126 -0.2513  2.2631 -0.8319
 7219SOL    HW233294   2.191   0.945   4.254  0.5342 -0.4720 -1.0318
 7220SOL     OW33295   3.877   3.974  11.301 -0.3708  0.1055  0.5740
 7220SOL    HW133296   3.841   4.003  11.217  1.4737  0.8621  0.0365
 7220SOL    HW233297   3.887   3.881  11.283 -1.9718 -0.3575  2.1082
 7221SOL     OW33298   0.919   3.819   3.550  0.6782  0.3496  0.4009
 7221SOL    HW133299   1.004   3.854   3.523  1.2794 -0.4301  1.3140
 7221SOL    HW233300   0.881   3.883   3.610  2.3326  1.9441 -0.2416
 7222SOL     OW33301   2.806   2.636   5.799  0.5034  0.0528 -0.1353
 7222SOL    HW133302   2.856   2.606   5.723  0.7346 -1.4704  0.6146
 7222SOL    HW233303   2.785   2.550   5.836  0.8953  0.2119  0.4692
 7223SOL     OW33304   2.432   4.099  11.438 -0.3066  0.4751 -0.6685
 7223SOL    HW133305   2.441   4.178  11.384 -1.3799  0.7079 -0.4964
 7223SOL    HW233306   2.359   4.057  11.393  0.1596 -1.8063  0.7277
 7224SOL     OW33307   2.354   4.625   4.816  0.2249 -0.0963 -0.3625
 7224SOL    HW133308   2.444   4.595   4.827  1.1680  2.4930 -0.9131
 7224SOL    HW233309   2.333   4.635   4.909  2.4688 -2.9771  0.4334
 7225SOL     OW33310   2.245   1.067   3.245  0.0134  0.3654 -0.3072
 7225SOL    HW133311   2.177   1.134   3.242  0.0867  0.4797  0.7210
 7225SOL    HW233312   2.229   1.042   3.336 -0.9919 -2.4275 -1.2388
 7226SOL     OW33313   1.389   3.411   7.646  0.3597 -0.0702 -0.2241
 7226SOL    HW133314   1.404   3.429   7.739  1.7077 -0.5975 -0.3422
 7226SOL    HW233315   1.419   3.497   7.617  2.6845 -1.0561 -0.7413
 7227SOL     OW33316   4.328   4.402   7.149 -0.0875  0.3417  0.3069
 7227SOL    HW133317   4.389   4.336   7.183 -1.8218 -0.9671  0.9002
 7227SOL    HW233318   4.245   4.384   7.193  0.0827 -1.4531 -0.1044
 7228SOL     OW33319   3.026   4.235  13.183 -0.5824  0.2596 -0.6074
 7228SOL    HW133320   3.006   4.252  13.275 -0.4827 -0.0093 -0.5328
 7228SOL    HW233321   3.065   4.313  13.144 -1.1115  0.8682  0.1015
 7229SOL     OW33322   0.050   2.099   4.327 -0.4556  0.6937  0.3442
 7229SOL    HW133323   4.694   2.088   4.303 -0.6460  0.3170  1.2437
 7229SOL    HW233324   0.050   2.125   4.419  2.5304  1.8172  0.0400
 7230SOL     OW33325   3.002   0.264  16.514  0.0917  0.6112 -0.3133
 7230SOL    HW133326   2.911   0.252  16.488 -0.5093  1.5126  1.4385
 7230SOL    HW233327   2.993   0.351  16.551 -1.5236 -0.4619  1.7699
 7231SOL     OW33328   1.071   3.596   6.053  0.9662 -0.2373 -0.1492
 7231SOL    HW133329   0.976   3.599   6.051  0.9837  1.7837  1.7948
 7231SOL    HW233330   1.083   3.507   6.087 -1.9320 -0.0335  1.3167
 7232SOL     OW33331   2.501   0.362  10.737  0.0675  0.5263  0.2634
 7232SOL    HW133332   2.579   0.328  10.694 -1.6832 -1.0092 -1.6851
 7232SOL    HW233333   2.523   0.358  10.830 -0.6309 -1.9847  0.3110
 7233SOL     OW33334   0.761   4.607   7.222  0.4716 -0.1275 -0.3301
 7233SOL    HW133335   0.774   4.512   7.216 -0.6371 -0.2212 -1.3077
 7233SOL    HW233336   0.699   4.605   7.296  1.0535 -0.0100  0.1623
 7234SOL     OW33337   2.085   2.806   2.192 -0.4258 -0.3630  0.2538
 7234SOL    HW133338   1.995   2.840   2.198 -1.2227 -2.5115  0.3031
 7234SOL    HW233339   2.070   2.731   2.135  1.7701 -1.1748  0.7559
 7235SOL     OW33340   0.893   2.919   7.938 -0.3623 -0.1184 -0.7487
 7235SOL    HW133341   0.836   2.915   8.015  0.6202 -0.4302 -0.0420
 7235SOL    HW233342   0.831   2.882   7.875  0.6536 -2.9442 -0.1008
 7236SOL     OW33343   1.861   0.045   7.581  0.4232  0.2431 -0.3554
 7236SOL    HW133344   1.914   0.114   7.541 -0.1642  0.2474 -1.1282
 7236SOL    HW233345   1.778   0.088   7.602 -0.0256 -0.2546 -1.0841
 7237SOL     OW33346   4.543   3.321   7.193 -0.1610 -0.5122 -0.3910
 7237SOL    HW133347   4.588   3.262   7.133 -0.6372  0.0218 -1.2760
 7237SOL    HW233348   4.543   3.270   7.274 -0.3440  0.9557  0.5323
 7238SOL     OW33349   4.115   1.211  17.215 -0.0779 -0.1375 -0.0291
 7238SOL    HW133350   4.093   1.118  17.206  0.5533 -0.3826  0.9276
 7238SOL    HW233351   4.030   1.238  17.251  1.2876  0.5246  2.7154
 7239SOL     OW33352   1.626   3.877   4.888 -0.0179 -0.2313 -0.5703
 7239SOL    HW133353   1.655   3.788   4.912  1.7426  1.1048  2.2309
 7239SOL    HW233354   1.688   3.924   4.944  0.7117 -0.1845 -1.4171
 7240SOL     OW33355   0.921   3.676   4.421  0.4565 -0.4089  0.2986
 7240SOL    HW133356   0.889   3.616   4.354 -0.9603  2.0396 -1.2522
 7240SOL    HW233357   0.918   3.623   4.500 -1.3765 -1.1499 -0.2567
 7241SOL     OW33358   0.624   2.781   9.643  0.5005 -0.0252 -0.5964
 7241SOL    HW133359   0.707   2.736   9.635 -0.0960 -1.3975  0.9490
 7241SOL    HW233360   0.659   2.869   9.657  0.8925 -0.6502  2.3660
 7242SOL     OW33361   3.528   2.874   1.756 -0.0029 -0.0512 -0.0165
 7242SOL    HW133362   3.566   2.943   1.701  0.4510 -2.3701 -2.5817
 7242SOL    HW233363   3.583   2.798   1.741  0.7789  0.1646  1.6661
 7243SOL     OW33364   4.046   1.408   6.295 -0.0767 -0.3782 -0.2360
 7243SOL    HW133365   4.087   1.326   6.326  1.8750  0.8982  0.5795
 7243SOL    HW233366   4.064   1.383   6.204  0.6237  2.4029 -0.8371
 7244SOL     OW33367   4.241   3.728   3.258  0.6599 -0.2417 -0.0596
 7244SOL    HW133368   4.192   3.647   3.270 -0.4367  0.3838 -0.3556
 7244SOL    HW233369   4.258   3.735   3.164  1.8096  1.3221  0.2707
 7245SOL     OW33370   3.268   0.627   5.917  0.4850 -0.6623  0.1492
 7245SOL    HW133371   3.175   0.650   5.918  0.2177 -1.6732 -1.6778
 7245SOL    HW233372   3.293   0.628   6.010 -2.6867 -0.7191  1.0095
 7246SOL     OW33373   3.422   0.053   0.042 -0.0431 -0.1410 -0.0187
 7246SOL    HW133374   3.453   0.023   0.127 -0.5621 -0.4126  0.0754
 7246SOL    HW233375   3.369   4.714   0.013 -1.5528  0.7137  0.4914
 7247SOL     OW33376   4.535   0.372   5.925 -0.1841 -0.2010 -0.5477
 7247SOL    HW133377   4.492   0.413   5.850  0.5404  1.7363  0.0988
 7247SOL    HW233378   4.627   0.365   5.899  0.2773  1.4990  0.6174
 7248SOL     OW33379   3.051   4.677   6.639  0.9217 -0.2588 -0.2574
 7248SOL    HW133380   3.091   4.727   6.711 -1.8798  0.5637  0.7388
 7248SOL    HW233381   3.108   4.601   6.629  0.2980 -0.9150  1.2109
 7249SOL     OW33382   3.795   1.296   4.650 -0.3703 -0.3878  0.0639
 7249SOL    HW133383   3.854   1.222   4.664  0.6464  0.9391  2.8518
 7249SOL    HW233384   3.780   1.299   4.555  2.7366 -0.3455 -0.4095
 7250SOL     OW33385   1.016   1.577   8.895 -0.4226  0.5299  0.4205
 7250SOL    HW133386   1.084   1.572   8.961  1.8207 -1.1893 -2.0150
 7250SOL    HW233387   0.945   1.529   8.938 -3.3121  3.1689 -1.3601
 7251SOL     OW33388   3.520   3.021  15.409 -0.5562 -0.3089 -0.2660
 7251SOL    HW133389   3.600   3.037  15.460 -1.4250  1.3915  0.5594
 7251SOL    HW233390   3.474   2.961  15.468 -0.2558 -0.1009  0.1842
 7252SOL     OW33391   1.257   3.238   8.796 -0.1420 -0.4686  0.1909
 7252SOL    HW133392   1.189   3.263   8.859  0.1053  0.3553  0.1279
 7252SOL    HW233393   1.340   3.262   8.837  0.3070 -1.0251 -0.3906
 7253SOL     OW33394   1.354   4.532  13.622  0.1280  0.2086 -0.0777
 7253SOL    HW133395   1.415   4.592  13.665  0.6062  0.3886 -0.9941
 7253SOL    HW233396   1.266   4.570  13.628 -0.0878 -0.4618  0.8931
 7254SOL     OW33397   3.394   0.466   5.739  0.9132 -0.0888 -0.2012
 7254SOL    HW133398   3.353   0.522   5.805  1.4876  1.6249 -1.2933
 7254SOL    HW233399   3.329   0.494   5.675 -0.5380  1.2955  1.8710
 7255SOL     OW33400   1.849   0.862   1.325 -0.2467  0.5844 -0.4601
 7255SOL    HW133401   1.852   0.767   1.334 -1.1880  0.6773  0.9123
 7255SOL    HW233402   1.761   0.879   1.357  0.5107  1.8202  0.9890
 7256SOL     OW33403   3.508   3.270   6.253  0.3933 -0.2666 -0.2935
 7256SOL    HW133404   3.521   3.202   6.319 -0.1179  0.4334  0.5313
 7256SOL    HW233405   3.420   3.249   6.222  0.9510 -0.5235 -1.7052
 7257SOL     OW33406   2.879   3.998   2.515  0.3919 -0.5609  0.4223
 7257SOL    HW133407   2.923   3.953   2.586 -1.3159 -0.9370  1.2472
 7257SOL    HW233408   2.789   3.964   2.518 -0.0746  0.6852  0.6572
 7258SOL     OW33409   2.560   0.555  16.866 -0.6492  0.1339  0.4560
 7258SOL    HW133410   2.548   0.520  16.778 -0.2260 -0.6262  0.6992
 7258SOL    HW233411   2.493   0.623  16.867 -1.9613 -1.1133 -2.1025
 7259SOL     OW33412   4.014   2.131   7.379 -0.4210  0.3235  0.3279
 7259SOL    HW133413   4.104   2.136   7.412 -0.3175 -0.0129  0.1023
 7259SOL    HW233414   4.022   2.181   7.298  0.0194 -1.6560 -0.8443
 7260SOL     OW33415   0.290   0.058   9.567  0.4815 -0.4852  0.7217
 7260SOL    HW133416   0.215   0.078   9.511  0.8586 -1.5918 -0.1528
 7260SOL    HW233417   0.341   0.138   9.553 -0.9221 -0.0125 -1.6647
 7261SOL     OW33418   2.405   1.470   7.783  0.0957  0.4928  0.2546
 7261SOL    HW133419   2.385   1.519   7.863  2.1651  1.5680  0.0926
 7261SOL    HW233420   2.477   1.418   7.819 -1.1987 -0.8525  0.9436
 7262SOL     OW33421   4.017   1.670  13.468  0.6137 -0.3408  0.3818
 7262SOL    HW133422   4.024   1.631  13.555  0.6125 -0.8115  0.1731
 7262SOL    HW233423   4.081   1.617  13.420  0.3156  1.8635 -2.4339
 7263SOL     OW33424   2.091   1.167   4.883  0.5902  0.1506  0.3739
 7263SOL    HW133425   2.185   1.149   4.885 -0.0020 -2.8697 -0.0263
 7263SOL    HW233426   2.084   1.149   4.789 -1.6770  1.6154  0.2529
 7264SOL     OW33427   0.046   3.450   5.456 -0.0271  0.4172  0.4112
 7264SOL    HW133428   0.090   3.372   5.490 -2.7174 -1.6355 -0.8126
 7264SOL    HW233429   4.694   3.414   5.449  0.9987 -1.9753 -0.1956
 7265SOL     OW33430   2.638   3.579   5.459 -0.5469  0.6965 -0.0886
 7265SOL    HW133431   2.717   3.602   5.507  0.4882  0.4426 -1.6653
 7265SOL    HW233432   2.615   3.670   5.437  0.4608  0.2171 -3.1156
 7266SOL     OW33433   1.018   0.115   2.379 -0.1472 -0.6630 -0.3328
 7266SOL    HW133434   1.096   0.136   2.329  0.5687 -0.8805  0.7020
 7266SOL    HW233435   1.050   0.055   2.446 -1.8100  0.1111  1.1342
 7267SOL     OW33436   0.323   4.671   1.099 -0.5750 -0.4895 -0.6817
 7267SOL    HW133437   0.238   4.715   1.105  1.0702  2.7908 -1.3021
 7267SOL    HW233438   0.377   0.005   1.061 -0.3817  0.7137  1.7659
 7268SOL     OW33439   1.246   3.373   3.914  0.1772  0.0880 -0.5523
 7268SOL    HW133440   1.334   3.356   3.880  1.3522  0.6473  2.2334
 7268SOL    HW233441   1.237   3.305   3.981 -2.2681 -1.2892 -2.2339
 7269SOL     OW33442   2.047   2.078  14.835  0.0203 -0.1556  0.4622
 7269SOL    HW133443   1.992   2.078  14.914 -0.1009 -1.9526  0.3639
 7269SOL    HW233444   2.112   2.014  14.865 -0.2297 -0.7191 -0.1956
 7270SOL     OW33445   4.735   2.097   8.629  0.2077 -0.1762 -0.3650
 7270SOL    HW133446   0.093   2.078   8.634  0.0791 -0.7517 -0.1556
 7270SOL    HW233447   4.698   2.026   8.681 -1.3624 -0.4868 -1.9091
 7271SOL     OW33448   2.290   4.106   2.219  0.4524 -0.2291 -0.9676
 7271SOL    HW133449   2.228   4.034   2.233  1.3970 -0.2753  2.9707
 7271SOL    HW233450   2.264   4.164   2.147  0.5219  0.2395 -0.6119
 7272SOL     OW33451   3.749   0.531  16.805  0.9826 -0.1606 -0.1665
 7272SOL    HW133452   3.801   0.611  16.807  2.3477 -1.0248 -1.2388
 7272SOL    HW233453   3.726   0.520  16.713 -0.3761  0.7962  0.0614
 7273SOL     OW33454   1.573   0.225  14.788  0.1517 -0.0240 -0.6824
 7273SOL    HW133455   1.625   0.302  14.764  1.0428 -0.6105 -0.6581
 7273SOL    HW233456   1.636   0.182  14.846 -0.7554 -0.6899 -0.1985
 7274SOL     OW33457   2.262   3.322   6.781 -0.3839 -0.2719  0.0844
 7274SOL    HW133458   2.270   3.247   6.840 -0.9284 -0.7317 -0.4320
 7274SOL    HW233459   2.312   3.286   6.708 -0.7336 -0.2686 -0.1560
 7275SOL     OW33460   3.873   2.963   7.452 -0.4063  0.1296 -0.1087
 7275SOL    HW133461   3.917   2.896   7.401 -1.7918  1.7238 -3.4559
 7275SOL    HW233462   3.826   3.012   7.385  1.4827 -1.0574 -2.2834
 7276SOL     OW33463   0.325   3.674   7.043 -0.1284 -0.4050 -0.3860
 7276SOL    HW133464   0.253   3.734   7.061  0.0218 -0.1599 -0.5932
 7276SOL    HW233465   0.305   3.643   6.955  0.3705  0.3208 -0.7613
 7277SOL     OW33466   2.481   3.501   8.698  0.3971 -0.0060 -0.1090
 7277SOL    HW133467   2.463   3.576   8.642 -1.0541  0.1453  0.5353
 7277SOL    HW233468   2.387   3.484   8.708  0.4148  0.2384  0.5096
 7278SOL     OW33469   2.566   1.260   9.235 -0.0703  0.3392  0.0084
 7278SOL    HW133470   2.503   1.279   9.305 -0.4402 -1.3916  0.1405
 7278SOL    HW233471   2.598   1.174   9.261  1.2223 -0.3146 -3.8317
 7279SOL     OW33472   1.885   0.124   9.758 -0.2608  0.4712  0.4050
 7279SOL    HW133473   1.945   0.196   9.738 -0.7161 -0.0270 -2.7330
 7279SOL    HW233474   1.947   0.067   9.802 -1.4889 -1.4772 -0.4147
 7280SOL     OW33475   2.140   2.788   8.382 -0.3071  0.2527  0.3687
 7280SOL    HW133476   2.235   2.784   8.394 -0.0772  0.2926 -1.4214
 7280SOL    HW233477   2.112   2.697   8.395  0.5769  0.1208  1.3667
 7281SOL     OW33478   1.375   4.663   2.612 -0.0292  0.3176  0.7078
 7281SOL    HW133479   1.440   4.732   2.623  0.6591 -0.7437  3.2106
 7281SOL    HW233480   1.434   4.594   2.643 -1.2347 -1.3667 -0.7409
 7282SOL     OW33481   0.196   0.399   2.984  0.4156 -0.5408 -0.0042
 7282SOL    HW133482   0.160   0.361   3.064 -2.2221 -0.9860 -1.4266
 7282SOL    HW233483   0.274   0.436   3.026  0.2571 -1.5719  1.1818
 7283SOL     OW33484   1.735   4.273   8.309 -0.3665  0.4100  0.1080
 7283SOL    HW133485   1.687   4.356   8.311 -1.0070  0.0394 -0.0695
 7283SOL    HW233486   1.715   4.248   8.219 -0.8933  1.3665 -0.0336
 7284SOL     OW33487   2.436   3.137   2.158  0.0022 -0.3573  0.6244
 7284SOL    HW133488   2.465   3.167   2.071 -2.1340 -0.8083 -0.2343
 7284SOL    HW233489   2.393   3.053   2.144 -0.3737 -0.1136  0.2901
 7285SOL     OW33490   2.773   2.997   5.521  0.8796 -0.3113  0.4100
 7285SOL    HW133491   2.713   2.941   5.569  1.8176 -2.2777 -0.6789
 7285SOL    HW233492   2.715   3.063   5.483  0.0365 -0.9742  0.5524
 7286SOL     OW33493   2.660   2.300   8.393 -0.1182  0.2301 -0.0826
 7286SOL    HW133494   2.647   2.207   8.376 -0.5324 -0.0280  1.6106
 7286SOL    HW233495   2.644   2.297   8.487  1.5680 -2.1162  0.1492
 7287SOL     OW33496   2.189   3.123   6.160 -0.1991  0.1578 -0.4280
 7287SOL    HW133497   2.218   3.214   6.161  0.6626 -0.1067 -1.3306
 7287SOL    HW233498   2.271   3.076   6.174  0.4475  1.7349  1.0649
 7288SOL     OW33499   3.086   0.999  15.805 -0.2101  0.1360 -0.0314
 7288SOL    HW133500   3.168   0.988  15.854 -0.2731 -1.9117 -0.3655
 7288SOL    HW233501   3.066   0.906  15.794 -3.1966  0.5243  2.1189
 7289SOL     OW33502   3.906   0.446   2.945  0.5659 -0.3727 -0.0438
 7289SOL    HW133503   3.824   0.440   2.895 -0.2590  1.5958  1.0801
 7289SOL    HW233504   3.937   0.355   2.951  0.0063 -0.6329 -1.0636
 7290SOL     OW33505   3.160   1.808  13.348  0.5453 -0.1971 -0.7516
 7290SOL    HW133506   3.127   1.720  13.363 -2.0679  0.8712 -0.2626
 7290SOL    HW233507   3.252   1.793  13.323  0.9739  1.3841 -0.0988
 7291SOL     OW33508   0.570   0.018   4.686  0.1710 -0.5367  0.3257
 7291SOL    HW133509   0.521   0.093   4.719  0.7648 -0.5490  1.2433
 7291SOL    HW233510   0.572   4.693   4.759 -1.1890 -1.7080 -0.6202
 7292SOL     OW33511   0.753   0.411   3.681 -0.5148 -0.2797  0.1854
 7292SOL    HW133512   0.738   0.354   3.605  0.0289 -0.5630  0.2916
 7292SOL    HW233513   0.664   0.431   3.711  0.4219  1.9675  1.5026
 7293SOL     OW33514   1.163   1.955   2.930 -1.0454 -0.0801 -0.0541
 7293SOL    HW133515   1.107   2.023   2.967  0.4808  1.8061 -1.2762
 7293SOL    HW233516   1.238   1.963   2.988 -0.5762  1.5966 -0.8980
 7294SOL     OW33517   3.187   4.071   4.018  0.3685  0.4096 -0.4446
 7294SOL    HW133518   3.185   3.983   3.981  0.4564  0.2830 -0.1526
 7294SOL    HW233519   3.137   4.059   4.098 -1.0656  3.3857 -0.8875
 7295SOL     OW33520   4.060   1.809  11.728 -0.5350  0.5188  0.0636
 7295SOL    HW133521   4.141   1.851  11.755  0.2091 -1.9923  1.7773
 7295SOL    HW233522   4.066   1.814  11.633  0.9071 -0.8187  0.0784
 7296SOL     OW33523   4.404   0.287  13.458  0.0255 -0.4725  0.1446
 7296SOL    HW133524   4.492   0.308  13.428 -0.2079  0.5298  0.1571
 7296SOL    HW233525   4.419   0.205  13.505  2.8789  0.1210  0.2892
 7297SOL     OW33526   0.637   3.174   4.654 -0.0279 -0.0116 -0.5990
 7297SOL    HW133527   0.716   3.181   4.600 -0.2688 -0.2660 -0.9818
 7297SOL    HW233528   0.674   3.166   4.741  0.2488  3.7387 -0.3685
 7298SOL     OW33529   1.294   4.424   4.313  0.1391  0.2178 -0.2129
 7298SOL    HW133530   1.337   4.484   4.374 -0.8896  2.5300 -1.7559
 7298SOL    HW233531   1.328   4.464   4.233 -2.6844  0.5196 -1.2577
 7299SOL     OW33532   3.565   4.047   5.266  0.4907  0.2338 -0.4094
 7299SOL    HW133533   3.616   3.972   5.297  0.4384  1.4917  2.7939
 7299SOL    HW233534   3.481   4.004   5.287  0.2697  0.8178 -0.0993
 7300SOL     OW33535   4.474   4.480   9.443  0.5144 -0.3388 -0.5309
 7300SOL    HW133536   4.472   4.495   9.348 -1.5415 -2.3567 -0.8140
 7300SOL    HW233537   4.469   4.566   9.485  1.3912 -1.5369  2.0142
 7301SOL     OW33538   0.240   2.885   7.849 -0.5431  0.1840  0.5239
 7301SOL    HW133539   0.233   2.867   7.942  0.0445 -0.1539  0.5004
 7301SOL    HW233540   0.151   2.911   7.825 -0.8522  0.1640  1.6702
 7302SOL     OW33541   0.028   1.719   7.908 -0.3915  0.2567  0.2324
 7302SOL    HW133542   4.699   1.770   7.957 -0.6019  0.4583 -0.2586
 7302SOL    HW233543   0.110   1.769   7.908 -0.7863  0.9016  2.1450
 7303SOL     OW33544   4.682   2.842   8.260  0.1080 -0.1986  0.3205
 7303SOL    HW133545   4.660   2.798   8.342  2.0402  1.8119  1.9094
 7303SOL    HW233546   4.625   2.783   8.211  2.1132  0.3909 -2.7424
 7304SOL     OW33547   2.227   0.556  16.895 -0.0485 -0.5052 -0.2562
 7304SOL    HW133548   2.301   0.614  16.913  0.3362 -0.2943 -2.4947
 7304SOL    HW233549   2.179   0.601  16.825  0.7093 -1.4012 -1.3515
 7305SOL     OW33550   4.301   4.108   4.548  0.4191 -0.9707 -0.3848
 7305SOL    HW133551   4.258   4.119   4.633  1.0520 -2.9563  0.2097
 7305SOL    HW233552   4.391   4.092   4.574  0.0377  0.8800  2.1056
 7306SOL     OW33553   3.441   4.573   2.175 -0.1569 -0.5426  0.5095
 7306SOL    HW133554   3.408   4.585   2.086  1.4944 -2.7206 -0.4040
 7306SOL    HW233555   3.534   4.565   2.154  0.0925 -0.2977  1.4946
 7307SOL     OW33556   1.947   2.658   2.913 -1.2197  0.1540 -0.1608
 7307SOL    HW133557   1.884   2.597   2.951 -2.2374  0.6786 -1.0314
 7307SOL    HW233558   2.000   2.677   2.991 -1.7784  1.7011 -0.1614
 7308SOL     OW33559   0.628   3.747   3.943 -0.0774  0.8039  0.0444
 7308SOL    HW133560   0.605   3.763   3.852 -0.9310  2.0385  0.4666
 7308SOL    HW233561   0.544   3.738   3.988  0.9950  0.3327  1.9530
 7309SOL     OW33562   4.121   3.635   5.648 -0.1350  0.2635 -0.2646
 7309SOL    HW133563   4.098   3.728   5.651 -0.6215  0.2335 -2.7551
 7309SOL    HW233564   4.209   3.624   5.613  0.7186 -0.4783  2.1207
 7310SOL     OW33565   3.833   1.249  13.454 -0.3003  0.0558  0.2579
 7310SOL    HW133566   3.851   1.307  13.380  0.4169 -1.1443 -0.5030
 7310SOL    HW233567   3.815   1.308  13.527 -2.0906  1.6406 -1.4439
 7311SOL     OW33568   1.746   2.067   9.351  0.0313  0.4437  0.1991
 7311SOL    HW133569   1.806   2.065   9.425 -0.7692  0.1490  0.8350
 7311SOL    HW233570   1.771   1.991   9.298  0.9861  0.6945  0.2935
 7312SOL     OW33571   0.435   3.090  11.263  0.0854 -0.6383 -0.9847
 7312SOL    HW133572   0.445   2.998  11.240 -0.3295 -1.2683  1.3997
 7312SOL    HW233573   0.525   3.118  11.248  0.6043 -1.9026 -0.2124
 7313SOL     OW33574   2.695   1.112   3.746  0.3052 -0.0691  0.0098
 7313SOL    HW133575   2.611   1.125   3.790  0.2419 -1.5210  0.3311
 7313SOL    HW233576   2.670   1.050   3.678 -0.0781  0.2586 -0.1488
 7314SOL     OW33577   2.433   0.571   2.699  0.1511  0.0225  0.0630
 7314SOL    HW133578   2.397   0.499   2.751 -0.2498 -0.4919 -0.9381
 7314SOL    HW233579   2.363   0.592   2.637  0.9596 -0.5737 -1.0362
 7315SOL     OW33580   4.372   3.676  17.574 -0.3435 -0.3852  1.0352
 7315SOL    HW133581   4.394   3.594  17.618  0.9673 -1.3176 -1.3347
 7315SOL    HW233582   4.457   3.720  17.574 -1.3937  1.6386  0.6335
 7316SOL     OW33583   3.204   0.414   1.621  0.3494  0.0909 -0.5547
 7316SOL    HW133584   3.154   0.495   1.611 -1.6458 -0.9851  0.6705
 7316SOL    HW233585   3.265   0.418   1.548 -0.5078  0.6180 -1.2469
 7317SOL     OW33586   0.791   1.065   8.626 -0.7943 -0.0968 -0.3249
 7317SOL    HW133587   0.813   0.978   8.592  1.7775 -0.5085  2.3615
 7317SOL    HW233588   0.860   1.120   8.587  0.4630  0.0338  2.0899
 7318SOL     OW33589   3.041   1.362  13.897 -0.8609 -0.3244 -0.3032
 7318SOL    HW133590   3.013   1.344  13.987 -0.1587 -0.1814 -0.0607
 7318SOL    HW233591   3.125   1.406  13.911 -1.3076  0.2302  0.6582
 7319SOL     OW33592   1.734   4.604   1.356 -0.5042  0.6546  0.4567
 7319SOL    HW133593   1.730   4.548   1.434 -1.5605 -0.4169 -0.3701
 7319SOL    HW233594   1.727   4.688   1.402 -2.4632  1.2683 -1.0039
 7320SOL     OW33595   1.239   4.598  13.921  0.0526 -0.3680 -0.6868
 7320SOL    HW133596   1.301   4.638  13.861 -0.8901  2.5431  0.2119
 7320SOL    HW233597   1.243   4.658  13.996 -1.0624 -0.1288 -0.8150
 7321SOL     OW33598   4.581   0.832   7.313 -0.0029  0.3344 -0.1814
 7321SOL    HW133599   4.627   0.796   7.389 -1.7450 -0.0832  0.6622
 7321SOL    HW233600   4.517   0.762   7.306 -1.9077  1.8665  1.7039
 7322SOL     OW33601   0.064   1.751   5.267 -0.0883  0.0860 -0.1028
 7322SOL    HW133602   0.065   1.671   5.319 -1.4202 -0.9415 -1.6792
 7322SOL    HW233603   0.151   1.782   5.294 -0.6286  0.6464  0.9801
 7323SOL     OW33604   2.564   2.830  12.517  0.2338  0.3957 -0.3094
 7323SOL    HW133605   2.573   2.922  12.540 -3.5518  0.4788  0.9552
 7323SOL    HW233606   2.477   2.821  12.478 -0.2682 -1.3461  1.1852
 7324SOL     OW33607   4.062   3.830  11.449 -0.5083  0.7289 -0.3600
 7324SOL    HW133608   4.041   3.897  11.384  1.4379 -0.9446 -2.7390
 7324SOL    HW233609   4.000   3.835  11.521 -1.3356 -0.7839 -0.9803
 7325SOL     OW33610   1.357   3.677   4.532  0.1853  0.0740 -0.3266
 7325SOL    HW133611   1.312   3.625   4.465  0.5783  0.3813 -0.8263
 7325SOL    HW233612   1.444   3.637   4.526  0.1697  0.0237 -0.2152
 7326SOL     OW33613   0.463   1.886   9.749  0.1931  0.0985 -0.6523
 7326SOL    HW133614   0.422   1.874   9.834 -0.4457  0.1009 -0.9621
 7326SOL    HW233615   0.429   1.805   9.710  2.8176 -0.7367 -1.2109
 7327SOL     OW33616   1.758   2.685   8.265  0.1809  0.5718 -0.2969
 7327SOL    HW133617   1.745   2.591   8.252 -1.4840  0.6013  1.1196
 7327SOL    HW233618   1.670   2.724   8.266  1.2545  2.9578  0.5530
 7328SOL     OW33619   4.636   2.739   8.545  0.4855 -0.4696 -0.8889
 7328SOL    HW133620   4.616   2.682   8.619 -0.0161  1.3729  0.3786
 7328SOL    HW233621   4.688   2.806   8.590 -1.3794  1.0317 -0.9760
 7329SOL     OW33622   3.943   0.699   2.039  0.1037 -0.3163 -0.5580
 7329SOL    HW133623   3.903   0.638   2.101  1.1330 -0.4430 -0.0182
 7329SOL    HW233624   4.037   0.697   2.058  0.3476  0.5102 -1.6504
 7330SOL     OW33625   4.267   3.517   7.495 -0.3628  0.0161  0.3891
 7330SOL    HW133626   4.311   3.597   7.465 -1.5699  0.9173  1.0418
 7330SOL    HW233627   4.245   3.485   7.407  0.3101 -2.0895  0.9781
 7331SOL     OW33628   4.666   0.732   6.927  0.8833 -0.1912 -0.1977
 7331SOL    HW133629   4.698   0.697   7.010  1.0946 -1.5664 -0.8615
 7331SOL    HW233630   4.663   0.656   6.869 -1.1988  1.4227 -2.2036
 7332SOL     OW33631   4.259   0.926   5.140  0.4654  0.0498 -0.8103
 7332SOL    HW133632   4.222   0.898   5.056 -1.9435 -2.8777  1.2159
 7332SOL    HW233633   4.201   0.871   5.192  0.2526 -0.8323 -1.9673
 7333SOL     OW33634   1.467   1.133   9.004 -0.0150  0.6753  0.1779
 7333SOL    HW133635   1.419   1.052   8.988 -0.3019  0.6911  0.9798
 7333SOL    HW233636   1.534   1.096   9.062 -0.7873 -0.6662  0.2108
 7334SOL     OW33637   2.417   4.381   3.881  0.2642 -0.5413  0.1083
 7334SOL    HW133638   2.443   4.353   3.969 -1.1633 -1.9343  0.0892
 7334SOL    HW233639   2.376   4.303   3.845  0.8349 -0.3470 -0.9491
 7335SOL     OW33640   1.800   2.020  16.772 -0.0941  0.5081 -0.3914
 7335SOL    HW133641   1.862   2.081  16.811 -0.9035  1.6530 -0.8992
 7335SOL    HW233642   1.785   1.959  16.845  2.3422 -0.3307 -0.5792
 7336SOL     OW33643   2.025   2.303   7.810  0.3865  0.3741  0.3323
 7336SOL    HW133644   2.043   2.214   7.840 -1.6257 -0.3458 -0.6216
 7336SOL    HW233645   2.111   2.330   7.775  0.7112 -1.0867  0.0008
 7337SOL     OW33646   3.590   4.266  15.224  0.1427  0.1078  0.1721
 7337SOL    HW133647   3.541   4.199  15.272 -1.3721 -1.2999 -3.3217
 7337SOL    HW233648   3.528   4.339  15.229 -1.6974 -1.5634  1.7587
 7338SOL     OW33649   0.727   2.120   3.352 -0.3712 -0.0389 -0.2246
 7338SOL    HW133650   0.746   2.180   3.280  2.2239  0.0766  0.5613
 7338SOL    HW233651   0.679   2.182   3.407 -1.6612 -0.3471 -0.9995
 7339SOL     OW33652   4.229   2.136   8.157  0.3021  0.2604 -0.4792
 7339SOL    HW133653   4.290   2.193   8.204 -0.4211  0.0223  0.7508
 7339SOL    HW233654   4.292   2.082   8.109 -0.7850  0.3786 -2.0245
 7340SOL     OW33655   4.619   2.400   9.126  0.4257  0.3854 -0.2047
 7340SOL    HW133656   4.593   2.429   9.213 -1.7899 -0.5521 -0.5710
 7340SOL    HW233657   4.642   2.485   9.090 -1.5842  0.6417 -0.8381
 7341SOL     OW33658   1.815   2.470  12.209 -0.4150  0.5303  0.5258
 7341SOL    HW133659   1.905   2.492  12.185 -0.8374  1.0843 -0.5420
 7341SOL    HW233660   1.770   2.498  12.129 -3.2235  0.0184  1.9317
 7342SOL     OW33661   4.526   4.092   5.230  0.2478 -0.2028 -0.4232
 7342SOL    HW133662   4.619   4.071   5.221  0.2962 -0.6807  1.2201
 7342SOL    HW233663   4.492   4.003   5.239  0.8573 -0.5486 -1.6170
 7343SOL     OW33664   3.229   4.018   2.440  0.1747  0.3799 -0.3566
 7343SOL    HW133665   3.232   3.924   2.455  0.4885  0.6934  1.4984
 7343SOL    HW233666   3.162   4.008   2.372 -1.6949 -0.7033  1.6594
 7344SOL     OW33667   3.582   2.293  11.245 -0.0528 -0.4594  0.3385
 7344SOL    HW133668   3.508   2.308  11.304  0.8547 -0.4412  1.4962
 7344SOL    HW233669   3.643   2.351  11.290  1.9726 -1.9318 -0.4962
 7345SOL     OW33670   2.160   2.335   1.968  0.7494  0.1514 -0.0906
 7345SOL    HW133671   2.232   2.294   1.920 -0.1426 -0.7737 -0.6388
 7345SOL    HW233672   2.194   2.323   2.057 -1.6963 -1.0323  0.6853
 7346SOL     OW33673   3.233   0.838   5.444 -0.3060 -0.3279 -0.0730
 7346SOL    HW133674   3.180   0.848   5.523  0.2752 -2.2019  0.5801
 7346SOL    HW233675   3.160   0.806   5.391  0.9961 -0.4312 -1.8271
 7347SOL     OW33676   1.036   0.219   4.431  0.1064 -0.2773 -0.1196
 7347SOL    HW133677   0.952   0.177   4.452  0.1315  0.0860  0.7125
 7347SOL    HW233678   1.052   0.259   4.517  1.1611 -2.9120  0.9025
 7348SOL     OW33679   2.581   3.670  17.149  0.2378 -0.0417  0.2830
 7348SOL    HW133680   2.506   3.715  17.110  1.0672  1.1818  0.0727
 7348SOL    HW233681   2.653   3.729  17.126  1.4781 -1.2405  1.1023
 7349SOL     OW33682   3.174   3.556  10.084 -0.1287  0.2050  0.0586
 7349SOL    HW133683   3.179   3.627  10.148 -1.0051  0.0288  0.3174
 7349SOL    HW233684   3.167   3.481  10.142 -0.6795 -0.1665 -0.4816
 7350SOL     OW33685   2.634   1.543   4.880 -0.7138  0.2663 -0.2010
 7350SOL    HW133686   2.661   1.632   4.861 -1.5141  0.2842 -1.2866
 7350SOL    HW233687   2.554   1.533   4.828 -1.9041  1.4093  1.4202
 7351SOL     OW33688   2.548   0.614  17.377 -0.0046  0.1434  0.1679
 7351SOL    HW133689   2.611   0.563  17.427  0.5472  0.5476 -0.1171
 7351SOL    HW233690   2.517   0.556  17.307  0.4689  0.6484 -0.4654
 7352SOL     OW33691   2.788   0.357   8.781  0.2790  0.9582  0.0924
 7352SOL    HW133692   2.740   0.417   8.724 -0.0244 -0.5930 -1.3283
 7352SOL    HW233693   2.712   0.303   8.804  0.7900 -0.0323 -0.4918
 7353SOL     OW33694   4.692   0.505   2.328  0.0780  0.1688 -0.5833
 7353SOL    HW133695   4.651   0.419   2.317 -0.3479  0.7395 -3.5024
 7353SOL    HW233696   0.044   0.479   2.358 -0.0893  0.9347  0.5348
 7354SOL     OW33697   3.451   3.657   9.626  1.0482  0.2273  0.0895
 7354SOL    HW133698   3.529   3.685   9.578  1.3649 -3.2537 -1.4035
 7354SOL    HW233699   3.457   3.693   9.715 -1.8130 -0.3328  0.5131
 7355SOL     OW33700   1.284   2.269   8.863  0.1283 -0.1301 -0.2561
 7355SOL    HW133701   1.213   2.333   8.856  1.3655  1.3318  0.4137
 7355SOL    HW233702   1.248   2.185   8.835 -0.7741 -0.2224  1.1934
 7356SOL     OW33703   3.193   3.577  13.756 -0.0501  0.2372  0.5603
 7356SOL    HW133704   3.238   3.544  13.834 -1.7308 -0.6792  1.1458
 7356SOL    HW233705   3.126   3.508  13.760  1.0190 -0.8318 -0.0654
 7357SOL     OW33706   3.223   2.961   8.229 -0.3682 -0.1770  0.1403
 7357SOL    HW133707   3.128   2.948   8.229 -0.3495 -0.3077  2.0524
 7357SOL    HW233708   3.240   2.947   8.323 -1.1296  1.5363  0.5426
 7358SOL     OW33709   2.435   1.746   1.572  0.0856  0.3190 -0.5615
 7358SOL    HW133710   2.504   1.701   1.622  2.1809  0.6977 -3.0914
 7358SOL    HW233711   2.384   1.670   1.544  1.4907 -1.4170  1.5394
 7359SOL     OW33712   0.303   3.698   0.239  0.0265 -0.0743 -0.0032
 7359SOL    HW133713   0.242   3.627   0.258 -0.3408  0.1070 -0.5103
 7359SOL    HW233714   0.304   3.753   0.318 -3.5673 -0.9539  0.6254
 7360SOL     OW33715   3.348   1.548   4.647  0.6991  0.0061 -0.3139
 7360SOL    HW133716   3.391   1.479   4.698  0.7720 -1.5977 -2.6035
 7360SOL    HW233717   3.296   1.585   4.719  0.2936  0.6735 -0.9518
 7361SOL     OW33718   3.768   1.673  13.350  0.2616  0.0766 -0.0991
 7361SOL    HW133719   3.769   1.766  13.327 -1.8722  0.0896 -0.1670
 7361SOL    HW233720   3.849   1.685  13.399 -0.2475 -0.2573  0.8261
 7362SOL     OW33721   1.954   0.423   3.787  0.5499  0.1998 -0.2247
 7362SOL    HW133722   1.985   0.388   3.871 -1.0230  1.3456  0.8436
 7362SOL    HW233723   1.865   0.389   3.778  0.9458 -0.4335 -1.5882
 7363SOL     OW33724   0.026   1.497  17.601 -0.5369 -0.2400 -0.0269
 7363SOL    HW133725   0.062   1.422  17.554 -0.2897 -0.1956  0.0901
 7363SOL    HW233726   4.674   1.500  17.563 -0.9737  0.4938  1.0347
 7364SOL     OW33727   2.394   1.199  16.447  0.0907  0.8228 -0.3087
 7364SOL    HW133728   2.376   1.198  16.541 -1.2387 -0.8874 -0.5878
 7364SOL    HW233729   2.392   1.293  16.426 -0.7643  1.0751  0.8817
 7365SOL     OW33730   1.122   3.518   7.758  0.0141  0.4307 -0.0212
 7365SOL    HW133731   1.202   3.567   7.776  0.4124 -1.6865  3.9084
 7365SOL    HW233732   1.114   3.446   7.820  0.8202  2.9478  2.9804
 7366SOL     OW33733   0.555   0.457   2.578  0.3045  0.3879 -0.5539
 7366SOL    HW133734   0.635   0.507   2.589 -0.7299  1.9323 -0.0163
 7366SOL    HW233735   0.489   0.519   2.610 -0.5661 -1.1471  0.6216
 7367SOL     OW33736   4.251   4.287  15.119  0.6147 -0.1706  0.0104
 7367SOL    HW133737   4.345   4.280  15.105  0.4621 -0.9085 -0.6759
 7367SOL    HW233738   4.236   4.376  15.088 -0.3677 -0.3200  0.0658
 7368SOL     OW33739   0.379   3.746  16.603 -0.3048  0.0630 -0.3321
 7368SOL    HW133740   0.396   3.738  16.509  1.1928 -0.7382  0.0001
 7368SOL    HW233741   0.463   3.709  16.630 -0.2146  1.0906  0.7705
 7369SOL     OW33742   1.751   4.731   6.236 -0.3653 -0.3419  0.9597
 7369SOL    HW133743   1.705   4.647   6.232 -1.0605  0.1008 -0.5308
 7369SOL    HW233744   1.669   0.043   6.223  1.3528  2.6312  1.1257
 7370SOL     OW33745   0.027   2.091   7.689 -0.4851 -0.2400 -0.4354
 7370SOL    HW133746   0.050   2.043   7.610 -1.1371  2.5175 -2.2833
 7370SOL    HW233747   0.108   2.084   7.741 -0.8875 -1.0737  0.0662
 7371SOL     OW33748   1.991   0.894  12.068 -0.0226 -0.5554  0.1547
 7371SOL    HW133749   2.030   0.911  12.154 -0.3305  0.6713  0.0503
 7371SOL    HW233750   2.016   0.972  12.019 -0.1044 -0.1509  0.7542
 7372SOL     OW33751   4.047   1.807  15.688  0.3027  0.2460 -0.3681
 7372SOL    HW133752   4.049   1.888  15.739  0.2722 -0.7319  1.1723
 7372SOL    HW233753   4.131   1.810  15.640 -0.2792 -0.2779 -1.4246
 7373SOL     OW33754   0.996   3.166   5.175  0.2027  0.1784  0.1882
 7373SOL    HW133755   0.950   3.081   5.173  2.7785 -1.2219  0.3119
 7373SOL    HW233756   0.926   3.224   5.203 -0.6472 -1.6059  1.7522
 7374SOL     OW33757   3.043   4.197   0.819 -0.2265  0.4514  0.1898
 7374SOL    HW133758   3.114   4.146   0.858 -1.0788 -1.0592 -0.2282
 7374SOL    HW233759   2.970   4.160   0.868 -0.9941  2.0154  0.2288
 7375SOL     OW33760   4.403   3.268   0.234 -0.3426 -0.4541  0.5920
 7375SOL    HW133761   4.362   3.223   0.160 -0.7612  0.2648  0.3781
 7375SOL    HW233762   4.403   3.201   0.302 -0.0956 -1.1806 -0.1279
 7376SOL     OW33763   0.869   2.154  15.035 -0.2668 -0.0540  0.4247
 7376SOL    HW133764   0.952   2.109  15.048 -0.1337  0.7835  2.4909
 7376SOL    HW233765   0.804   2.093  15.070 -2.1801 -0.1357 -3.3097
 7377SOL     OW33766   3.098   0.281   7.135  0.2023  0.3703 -0.4973
 7377SOL    HW133767   3.077   0.248   7.222 -0.1241  3.0780  0.4795
 7377SOL    HW233768   3.133   0.200   7.099 -1.8672 -0.4028 -0.8069
 7378SOL     OW33769   3.514   4.131  12.652 -0.2615 -0.0955 -0.2892
 7378SOL    HW133770   3.577   4.193  12.614  0.4209 -1.1311 -0.8611
 7378SOL    HW233771   3.436   4.182  12.632 -0.5078 -1.3677 -2.5876
 7379SOL     OW33772   3.177   0.396  14.519  0.3171 -0.2358  0.5232
 7379SOL    HW133773   3.113   0.338  14.478  0.4826 -0.5266  0.6822
 7379SOL    HW233774   3.193   0.451  14.442 -0.7965 -0.2749  0.2565
 7380SOL     OW33775   2.011   2.395   1.740 -0.0298 -0.0027 -0.3833
 7380SOL    HW133776   1.950   2.323   1.757  0.6524 -0.6147 -0.5423
 7380SOL    HW233777   2.067   2.394   1.817 -1.4577  3.4000  0.6881
 7381SOL     OW33778   0.725   4.152  11.945  0.2168 -0.2931  0.6648
 7381SOL    HW133779   0.721   4.088  12.016 -1.4868  0.2489  1.0482
 7381SOL    HW233780   0.674   4.111  11.875  2.5624  0.2495 -1.3448
 7382SOL     OW33781   2.239   0.583   1.690  0.1135  0.1214 -0.2886
 7382SOL    HW133782   2.178   0.510   1.680 -0.6868  1.2842 -3.8943
 7382SOL    HW233783   2.178   0.627   1.750  0.1373  0.4968 -0.5421
 7383SOL     OW33784   1.193   4.689   4.602 -0.3304 -0.1841 -0.8299
 7383SOL    HW133785   1.156   4.602   4.620 -0.8668  0.3908  0.8467
 7383SOL    HW233786   1.153   0.001   4.674 -0.9293 -0.5675 -0.9117
 7384SOL     OW33787   3.683   1.399  12.866  0.8086  0.3689 -0.5396
 7384SOL    HW133788   3.612   1.341  12.894 -1.3754  3.7313  0.8940
 7384SOL    HW233789   3.693   1.464  12.935 -2.8229 -0.4233  0.7511
 7385SOL     OW33790   0.285   3.269   6.297 -0.0447 -0.1092  0.1401
 7385SOL    HW133791   0.304   3.357   6.330 -0.3388  0.7905 -2.0957
 7385SOL    HW233792   0.263   3.281   6.204  0.9787  1.9681  0.1679
 7386SOL     OW33793   1.134   4.462   6.862  0.2647  0.2372 -0.6962
 7386SOL    HW133794   1.145   4.420   6.948 -0.5530 -1.6441 -1.5026
 7386SOL    HW233795   1.178   4.546   6.861 -2.7694  1.8281  0.0288
 7387SOL     OW33796   3.485   0.187   6.706  0.6871  0.2238  0.2389
 7387SOL    HW133797   3.543   0.262   6.718  1.9031 -1.3599  4.0435
 7387SOL    HW233798   3.481   0.174   6.611  1.5592  0.3282  0.1956
 7388SOL     OW33799   4.374   0.421  11.548 -0.3711  0.1687  0.2189
 7388SOL    HW133800   4.347   0.352  11.487  1.2866  0.7379 -1.1589
 7388SOL    HW233801   4.462   0.393  11.571 -0.2908  1.4851  1.5721
 7389SOL     OW33802   4.021   4.481   2.589  0.0777  0.0496  0.5252
 7389SOL    HW133803   3.929   4.474   2.565  0.6706  0.4928 -1.9065
 7389SOL    HW233804   4.041   4.573   2.570 -1.5908 -0.5703 -4.1275
 7390SOL     OW33805   3.236   4.313   5.763 -0.4463 -0.2432 -0.2338
 7390SOL    HW133806   3.291   4.279   5.691  0.0219 -0.6823  0.3294
 7390SOL    HW233807   3.252   4.242   5.825 -2.2467  1.3568  2.0019
 7391SOL     OW33808   3.374   1.436   8.463 -0.1741 -0.3612  0.2440
 7391SOL    HW133809   3.421   1.511   8.429 -1.7754 -0.3241 -1.9066
 7391SOL    HW233810   3.443   1.371   8.452  0.9564  0.9403 -0.3653
 7392SOL     OW33811   1.186   3.340   8.215 -0.2006 -0.1001 -0.4267
 7392SOL    HW133812   1.228   3.280   8.153  1.5584  1.5764 -0.8755
 7392SOL    HW233813   1.107   3.290   8.233 -0.0904  0.0251  0.4153
 7393SOL     OW33814   2.940   1.407   4.115 -0.3476 -0.2065 -0.3557
 7393SOL    HW133815   2.919   1.324   4.157  0.2285  0.0970  0.5311
 7393SOL    HW233816   2.884   1.402   4.037  0.2168 -0.5138 -0.7478
 7394SOL     OW33817   3.194   3.022   3.936 -0.0352  0.1632 -0.1217
 7394SOL    HW133818   3.119   3.059   3.983 -1.4795  0.4390 -2.6445
 7394SOL    HW233819   3.216   3.087   3.869  1.5369 -0.4010 -0.1516
 7395SOL     OW33820   1.341   3.036  15.738 -0.0395 -0.0322 -0.3634
 7395SOL    HW133821   1.420   2.983  15.731  0.4161  0.8881 -2.2985
 7395SOL    HW233822   1.312   3.032  15.647  1.9455 -1.8891 -0.9101
 7396SOL     OW33823   0.870   3.079   6.464  0.2989  0.0744  0.9604
 7396SOL    HW133824   0.866   3.011   6.397  0.5608 -0.0637  1.0859
 7396SOL    HW233825   0.863   3.030   6.546 -0.0442  1.4252  1.7546
 7397SOL     OW33826   4.164   0.492  16.571 -0.1691 -0.0487 -0.2982
 7397SOL    HW133827   4.233   0.514  16.634 -1.7743 -0.0207  1.4065
 7397SOL    HW233828   4.151   0.579  16.533  1.8729  0.0946 -0.6833
 7398SOL     OW33829   0.851   3.484  17.649  0.4804 -0.0698 -0.6217
 7398SOL    HW133830   0.758   3.489  17.671  0.3202 -1.6351 -0.9912
 7398SOL    HW233831   0.849   3.478  17.553 -2.3263  1.8252 -0.7058
 7399SOL     OW33832   0.058   2.638   4.502  0.0586 -0.4403 -0.0822
 7399SOL    HW133833   4.720   2.613   4.447  0.6934  0.1077 -1.1636
 7399SOL    HW233834   0.068   2.554   4.547  2.2956 -0.1255  0.0435
 7400SOL     OW33835   3.243   3.929   9.829 -0.0256 -0.1984  0.5891
 7400SOL    HW133836   3.210   4.000   9.883  1.5986  0.7420  0.3501
 7400SOL    HW233837   3.312   3.900   9.888  0.2931  1.2690  0.9256
 7401SOL     OW33838   4.509   2.032  16.223 -0.8093  0.4889 -0.0933
 7401SOL    HW133839   4.561   1.996  16.152  0.5847  0.0172  1.1599
 7401SOL    HW233840   4.503   2.122  16.193 -1.0217  0.5928  0.2568
 7402SOL     OW33841   0.345   2.869   1.905  0.3609  0.2104  0.1634
 7402SOL    HW133842   0.421   2.831   1.949 -1.1005 -2.6313  0.2546
 7402SOL    HW233843   0.386   2.905   1.826  1.3364 -2.0609 -0.3600
 7403SOL     OW33844   0.524   3.987   6.085  0.1553 -0.3326  0.0510
 7403SOL    HW133845   0.601   4.042   6.100  0.8012 -1.5698  1.3382
 7403SOL    HW233846   0.554   3.907   6.041 -0.7691  0.3252 -1.7739
 7404SOL     OW33847   1.002   1.134   8.254  0.3778  0.2460  0.0158
 7404SOL    HW133848   0.963   1.200   8.312 -1.0294  0.7945 -1.5512
 7404SOL    HW233849   1.067   1.090   8.309  0.4432 -1.2942 -1.3031
 7405SOL     OW33850   1.448   2.146   7.165 -0.4448 -0.3033  0.1781
 7405SOL    HW133851   1.505   2.220   7.184  0.3280 -0.8360 -0.0964
 7405SOL    HW233852   1.365   2.190   7.147 -0.5584 -0.9203 -0.8021
 7406SOL     OW33853   4.234   4.265  17.453 -0.0887 -0.3957  0.0481
 7406SOL    HW133854   4.313   4.278  17.504 -0.1930 -1.4107  0.4719
 7406SOL    HW233855   4.237   4.339  17.392 -0.1619  0.8333  1.5605
 7407SOL     OW33856   2.055   4.440   1.934  0.2474  0.4141 -0.0581
 7407SOL    HW133857   2.039   4.453   1.841  0.1495 -0.1851 -0.1268
 7407SOL    HW233858   1.971   4.473   1.966 -0.0028 -0.9929  0.7418
 7408SOL     OW33859   0.961   0.256   7.132  0.1845  0.0947  0.4924
 7408SOL    HW133860   0.993   0.272   7.044  1.6083  0.5549  1.0989
 7408SOL    HW233861   0.867   0.277   7.132 -0.4271 -2.6896 -0.4495
 7409SOL     OW33862   2.041   1.029   5.596 -0.2148 -0.4657  0.1864
 7409SOL    HW133863   2.040   0.936   5.572 -0.3821 -0.4126 -0.0183
 7409SOL    HW233864   1.947   1.050   5.600 -0.3952 -1.2368  0.1283
 7410SOL     OW33865   1.814   3.041   3.992  0.4483  0.2047  0.0394
 7410SOL    HW133866   1.744   2.976   4.000  1.0128 -0.2306  1.5402
 7410SOL    HW233867   1.814   3.058   4.087 -2.1645 -0.9673  0.2563
 7411SOL     OW33868   1.422   2.058  12.929  0.1369  0.3280  0.1080
 7411SOL    HW133869   1.329   2.070  12.946 -0.5357 -1.3255 -2.3302
 7411SOL    HW233870   1.425   1.984  12.869 -1.7848 -0.6727  1.2495
 7412SOL     OW33871   0.768   1.338   7.308 -0.4752  0.1204  0.1329
 7412SOL    HW133872   0.834   1.279   7.273 -0.1330  1.3351 -1.2920
 7412SOL    HW233873   0.691   1.282   7.320  0.3331 -0.7703  1.1528
 7413SOL     OW33874   0.304   3.820   0.504  0.6687 -0.3990 -0.5581
 7413SOL    HW133875   0.328   3.780   0.588 -1.5166 -0.2031  0.1589
 7413SOL    HW233876   0.375   3.880   0.482 -1.0475  1.4382 -1.0705
 7414SOL     OW33877   2.757   1.944   5.770 -0.4442  0.1965 -0.0199
 7414SOL    HW133878   2.821   2.014   5.780 -0.6277  0.2019  1.1257
 7414SOL    HW233879   2.772   1.887   5.845 -0.9841  3.0269  2.1999
 7415SOL     OW33880   3.098   1.393   4.999  0.2807  0.5696  0.4273
 7415SOL    HW133881   3.144   1.476   4.991  0.2682  0.6293  0.9635
 7415SOL    HW233882   3.136   1.345   4.926  0.4430 -1.1244  1.6149
 7416SOL     OW33883   0.124   2.595   2.473 -0.4664 -0.5831 -0.1370
 7416SOL    HW133884   0.154   2.677   2.434 -0.5284 -1.2184 -1.4946
 7416SOL    HW233885   0.030   2.591   2.457 -0.2334  0.4436 -1.6751
 7417SOL     OW33886   4.409   4.548   0.337  0.3207 -0.3940 -0.0923
 7417SOL    HW133887   4.377   4.638   0.326  1.1949  0.0054  0.6093
 7417SOL    HW233888   4.424   4.555   0.432  0.0247 -0.0109 -0.0745
 7418SOL     OW33889   3.676   1.340  17.564  0.1205 -0.2360 -1.2661
 7418SOL    HW133890   3.673   1.435  17.548 -1.8068  0.0031  0.5022
 7418SOL    HW233891   3.736   1.324  17.636  1.3532  1.4606 -1.8975
 7419SOL     OW33892   2.016   2.146   8.276  0.1927  0.0715  0.0278
 7419SOL    HW133893   1.938   2.151   8.220 -1.3207 -0.0845  2.1147
 7419SOL    HW233894   2.074   2.092   8.222  0.3877 -0.0255  0.3362
 7420SOL     OW33895   1.280   3.913   3.056 -0.7801 -0.2111  0.2041
 7420SOL    HW133896   1.337   3.869   3.119  0.5512  2.7985  1.0654
 7420SOL    HW233897   1.344   3.926   2.986  0.2152 -0.1751  1.1315
 7421SOL     OW33898   2.338   4.611   6.501 -0.2621  0.1691  0.6160
 7421SOL    HW133899   2.273   4.681   6.507 -1.5054 -0.8967 -0.5560
 7421SOL    HW233900   2.287   4.540   6.462 -0.8060 -0.2555  2.1213
 7422SOL     OW33901   4.103   1.134   6.826  0.1754 -0.0582  0.4236
 7422SOL    HW133902   4.053   1.127   6.907  1.0425  1.0393  1.0510
 7422SOL    HW233903   4.059   1.071   6.768 -1.7297  1.5620  0.0868
 7423SOL     OW33904   1.511   2.244   0.695 -0.2166 -0.2907  0.2150
 7423SOL    HW133905   1.546   2.171   0.745 -1.6039 -0.2392  1.2801
 7423SOL    HW233906   1.591   2.287   0.668  0.1862 -2.4534 -2.0794
 7424SOL     OW33907   1.278   3.857   9.041 -0.0016  0.0467 -0.1787
 7424SOL    HW133908   1.311   3.906   8.966  0.3728  0.7959  0.4718
 7424SOL    HW233909   1.222   3.910   9.098  1.9226  0.1144  1.6858
 7425SOL     OW33910   2.645   3.373   7.774 -0.5588  0.0752 -0.1426
 7425SOL    HW133911   2.563   3.335   7.806 -0.6734 -0.0475 -0.5844
 7425SOL    HW233912   2.675   3.291   7.736 -0.7057  0.4052 -0.9686
 7426SOL     OW33913   0.230   1.123   6.831 -0.4764 -0.1774  0.5665
 7426SOL    HW133914   0.231   1.029   6.852 -0.6859 -0.3252 -0.0839
 7426SOL    HW233915   0.283   1.165   6.899 -0.9882  0.5286  0.5293
 7427SOL     OW33916   3.768   0.838   3.896 -0.2341  0.4466 -0.1674
 7427SOL    HW133917   3.784   0.928   3.925 -0.2268 -0.1146  1.5295
 7427SOL    HW233918   3.814   0.833   3.812  1.6751 -2.0895  1.0254
 7428SOL     OW33919   2.105   1.672   2.493  0.0602 -0.2670 -0.8066
 7428SOL    HW133920   2.150   1.627   2.565  0.1784 -3.0347 -2.6043
 7428SOL    HW233921   2.015   1.679   2.525  1.0928 -1.2394  2.3495
 7429SOL     OW33922   0.256   1.192  17.139  0.6984 -0.7485  0.3882
 7429SOL    HW133923   0.266   1.262  17.204  3.7789 -1.7849  1.0267
 7429SOL    HW233924   0.341   1.150  17.124  0.5527 -0.0326 -2.3866
 7430SOL     OW33925   4.701   3.743   6.067 -0.5641  0.1523  0.4660
 7430SOL    HW133926   0.022   3.674   6.102 -1.3826 -0.2328  1.0721
 7430SOL    HW233927   4.705   3.724   5.974  1.0336 -0.5087  0.6761
 7431SOL     OW33928   1.546   4.535   6.489 -0.2435  0.3170  0.5027
 7431SOL    HW133929   1.601   4.535   6.567  1.0894 -1.4816 -0.4576
 7431SOL    HW233930   1.468   4.582   6.521 -1.5777 -0.7073 -1.2491
 7432SOL     OW33931   3.113   1.428   2.619  0.6479 -0.2526  0.1852
 7432SOL    HW133932   3.150   1.494   2.561  1.7578  0.1876  1.4014
 7432SOL    HW233933   3.188   1.396   2.668  0.0178 -0.6997  0.8567
 7433SOL     OW33934   2.736   4.061  17.057  0.3646 -0.7493  0.2136
 7433SOL    HW133935   2.743   4.108  17.140 -1.2139 -0.2996  0.1021
 7433SOL    HW233936   2.644   4.034  17.047  0.2542  0.0430 -0.7998
 7434SOL     OW33937   0.748   0.221  12.785 -0.2797 -0.1064 -0.5253
 7434SOL    HW133938   0.787   0.136  12.764 -0.0335  0.0062 -0.5184
 7434SOL    HW233939   0.753   0.217  12.880  3.3459 -1.2228 -0.7503
 7435SOL     OW33940   0.559   1.904   7.248  0.2903 -0.2053  0.5891
 7435SOL    HW133941   0.537   1.926   7.158 -1.7535 -2.1462  0.6108
 7435SOL    HW233942   0.615   1.826   7.244  0.4330 -0.1649  1.8309
 7436SOL     OW33943   3.824   4.708  10.767  0.2353  0.7576 -0.5493
 7436SOL    HW133944   3.917   4.721  10.785  0.2995 -1.6160  0.7024
 7436SOL    HW233945   3.813   0.014  10.681 -2.2530 -1.6793 -1.3889
 7437SOL     OW33946   0.988   0.640   8.908 -0.5393  0.0545 -0.5623
 7437SOL    HW133947   1.055   0.704   8.884 -1.0197  0.7373 -0.0986
 7437SOL    HW233948   0.932   0.694   8.964 -3.8057 -1.0905 -2.6879
 7438SOL     OW33949   3.410   0.664   0.299  0.2004 -0.2174 -0.4297
 7438SOL    HW133950   3.435   0.573   0.281  0.1463 -0.3227  0.0035
 7438SOL    HW233951   3.327   0.679   0.254 -0.7113 -0.7503  1.0736
 7439SOL     OW33952   0.731   2.751   6.900 -0.1793  0.0221 -0.4756
 7439SOL    HW133953   0.700   2.698   6.827 -0.1462 -0.1287 -0.3801
 7439SOL    HW233954   0.645   2.778   6.932  1.0615  1.3244  1.7488
 7440SOL     OW33955   1.354   2.256   7.451  0.5627 -0.0272  0.4251
 7440SOL    HW133956   1.327   2.338   7.491  1.8291  0.5276  0.1537
 7440SOL    HW233957   1.404   2.295   7.380  1.2073 -0.5769  0.5737
 7441SOL     OW33958   0.966   3.101   3.484 -0.4238 -0.0321 -0.0648
 7441SOL    HW133959   0.945   3.195   3.485  2.5572  0.6619 -1.5443
 7441SOL    HW233960   0.890   3.065   3.438 -0.6213  0.3935 -0.0803
 7442SOL     OW33961   3.477   2.970   8.148  0.4419  0.6384  1.1102
 7442SOL    HW133962   3.389   2.947   8.179 -0.1056  1.4208  0.1175
 7442SOL    HW233963   3.483   3.051   8.198 -0.5872  1.3175  0.1261
 7443SOL     OW33964   2.744   2.091   6.776  0.2798  0.0964 -0.1933
 7443SOL    HW133965   2.659   2.119   6.810 -0.0197 -0.4827 -0.4639
 7443SOL    HW233966   2.719   2.020   6.718 -1.9604  0.9184 -0.2152
 7444SOL     OW33967   4.535   2.481  16.156 -1.0614 -0.1851 -0.2281
 7444SOL    HW133968   4.589   2.554  16.185  1.2135 -1.0229 -2.4121
 7444SOL    HW233969   4.451   2.528  16.159 -1.1192 -0.1675 -2.2069
 7445SOL     OW33970   3.788   2.986   4.004  0.1252 -0.3705 -0.0084
 7445SOL    HW133971   3.719   3.034   3.959 -1.1731 -1.8101  0.4418
 7445SOL    HW233972   3.864   3.016   3.954 -1.0638  2.5555 -0.0559
 7446SOL     OW33973   3.534   0.806   5.029  0.1396  0.2350  0.1267
 7446SOL    HW133974   3.471   0.734   5.023 -1.0642  1.2935 -0.0782
 7446SOL    HW233975   3.550   0.811   5.123  2.2018 -0.6974 -0.1950
 7447SOL     OW33976   1.984   4.708  15.352  0.2662  0.6653  0.2323
 7447SOL    HW133977   1.974   0.033  15.279  2.3515  2.3924  1.3809
 7447SOL    HW233978   2.065   4.666  15.322  0.2325 -0.8838  2.3324
 7448SOL     OW33979   4.657   0.020   6.642  0.5410 -0.2909 -0.2433
 7448SOL    HW133980   4.652   0.037   6.736  1.1077  1.3700 -0.5300
 7448SOL    HW233981   4.601   4.678   6.636  0.1235 -0.0681  0.7937
 7449SOL     OW33982   0.493   1.859   8.969 -0.3942  0.2977 -0.7205
 7449SOL    HW133983   0.562   1.812   9.017 -3.1165 -2.5341  0.4308
 7449SOL    HW233984   0.498   1.813   8.885  1.8167 -0.4626 -0.1724
 7450SOL     OW33985   3.565   3.417  15.942  0.6543  0.0405 -0.0454
 7450SOL    HW133986   3.648   3.433  15.987  0.6859  1.2248 -0.5092
 7450SOL    HW233987   3.508   3.390  16.014  1.4947 -0.0030  0.5889
 7451SOL     OW33988   0.653   4.416   7.656  0.7651  0.6542 -0.3107
 7451SOL    HW133989   0.685   4.386   7.741 -2.8171  0.8288  1.1102
 7451SOL    HW233990   0.562   4.387   7.664 -0.1192  2.7734 -2.4320
 7452SOL     OW33991   2.024   1.692   1.745  0.2274 -0.4712  0.0352
 7452SOL    HW133992   1.998   1.626   1.680 -2.0082  0.4015  0.0418
 7452SOL    HW233993   1.986   1.775   1.714  0.8639  0.0831  0.7479
 7453SOL     OW33994   4.190   2.206   4.771 -0.1429 -1.0890 -0.2193
 7453SOL    HW133995   4.172   2.289   4.815 -2.6262 -1.1034 -1.1835
 7453SOL    HW233996   4.161   2.224   4.682 -0.9147 -0.9436  0.0579
 7454SOL     OW33997   2.494   4.524   0.649  0.7881  0.1399  0.3066
 7454SOL    HW133998   2.563   4.463   0.623 -0.0975 -0.2286 -1.1782
 7454SOL    HW233999   2.494   4.520   0.745 -1.4958  1.2183  0.3601
 7455SOL     OW34000   4.404   2.988   2.959  0.5048  0.1048  0.4066
 7455SOL    HW134001   4.412   2.988   2.863 -1.1189 -0.1822  0.2735
 7455SOL    HW234002   4.484   3.025   2.997  0.5496 -0.4808  0.8864
 7456SOL     OW34003   2.361   3.611   3.819 -0.2219 -0.2279 -0.1613
 7456SOL    HW134004   2.423   3.681   3.836  0.9294 -0.9599 -1.3332
 7456SOL    HW234005   2.325   3.599   3.907 -1.0325  0.7009 -0.3681
 7457SOL     OW34006   3.273   0.743   7.846  0.3359 -0.2360 -0.3460
 7457SOL    HW134007   3.329   0.665   7.850  2.1302  0.9895 -1.2952
 7457SOL    HW234008   3.346   0.804   7.837  1.8324 -1.7162  1.6770
 7458SOL     OW34009   2.360   3.622  11.448  0.4591  0.3840  0.2856
 7458SOL    HW134010   2.400   3.538  11.425  2.4651  0.3943  3.7465
 7458SOL    HW234011   2.274   3.628  11.407 -0.0096 -0.3934  1.1766
 7459SOL     OW34012   2.179   3.911   3.258 -0.4844 -0.3043  0.1360
 7459SOL    HW134013   2.126   3.990   3.270  0.7338  0.6227 -0.5700
 7459SOL    HW234014   2.141   3.889   3.173 -0.8934  0.6845  0.0575
 7460SOL     OW34015   4.222   1.492   7.492 -0.0728 -0.1334 -0.1575
 7460SOL    HW134016   4.311   1.527   7.479  0.3321 -1.0480  0.1783
 7460SOL    HW234017   4.238   1.398   7.495 -0.9959 -0.2902 -0.2411
 7461SOL     OW34018   0.289   0.508   5.515  0.1187  0.4957 -0.0339
 7461SOL    HW134019   0.335   0.455   5.581  0.9909  0.4046 -0.7183
 7461SOL    HW234020   0.289   0.442   5.446 -0.4010 -1.8693  2.2208
 7462SOL     OW34021   1.098   2.222   9.173  0.1604 -0.3210  0.3401
 7462SOL    HW134022   1.019   2.258   9.215 -1.0493 -0.8415 -1.5009
 7462SOL    HW234023   1.157   2.287   9.209 -0.4048  1.1155 -1.3448
 7463SOL     OW34024   4.177   2.583   6.414 -0.4403 -0.1223 -0.1153
 7463SOL    HW134025   4.240   2.531   6.463 -1.5507 -0.0363  1.4177
 7463SOL    HW234026   4.104   2.521   6.424 -1.0760  0.2795 -2.3237
 7464SOL     OW34027   0.777   0.547   8.427  0.4514  0.1044 -0.2731
 7464SOL    HW134028   0.749   0.460   8.397 -1.9452  1.1676 -1.0835
 7464SOL    HW234029   0.872   0.553   8.422  0.4963  0.2444  0.6887
 7465SOL     OW34030   3.025   2.729   6.685  0.5501 -0.3146  0.4241
 7465SOL    HW134031   3.061   2.647   6.650  2.5814  0.7372  0.0601
 7465SOL    HW234032   2.987   2.699   6.768  1.5605 -0.5585  0.7951
 7466SOL     OW34033   0.497   3.858   6.811  0.1637 -0.3958  0.2752
 7466SOL    HW134034   0.524   3.860   6.902  0.4131  1.8048  0.1565
 7466SOL    HW234035   0.563   3.797   6.780 -0.7248 -1.7716  1.0908
 7467SOL     OW34036   4.116   0.153   3.404  0.9828  0.1904  0.4494
 7467SOL    HW134037   4.091   0.228   3.351 -0.1084  0.2842  1.1106
 7467SOL    HW234038   4.048   0.089   3.383  1.9388 -0.7431  0.1850
 7468SOL     OW34039   2.589   0.631  14.643 -0.4804 -0.1981  0.2954
 7468SOL    HW134040   2.600   0.553  14.590  1.6437  1.9440 -2.3878
 7468SOL    HW234041   2.598   0.593  14.731  0.3470 -1.6916 -0.4454
 7469SOL     OW34042   1.484   3.497  14.987 -0.0430 -0.0918 -0.0170
 7469SOL    HW134043   1.393   3.514  15.009 -0.3858 -1.6844 -0.1810
 7469SOL    HW234044   1.524   3.482  15.073  2.9100  2.0025 -1.0265
 7470SOL     OW34045   3.930   1.999   2.909  0.0236 -1.2086 -0.0515
 7470SOL    HW134046   3.981   2.078   2.931  1.7800 -1.6458 -2.6176
 7470SOL    HW234047   3.853   2.022   2.962  0.2737 -0.7355  0.1121
 7471SOL     OW34048   1.866   1.276   5.633 -0.2812  0.1878  0.5645
 7471SOL    HW134049   1.793   1.303   5.689 -0.2456 -0.8534  1.1020
 7471SOL    HW234050   1.946   1.288   5.684  0.4015 -0.2533 -0.3945
 7472SOL     OW34051   0.314   2.033  13.670 -0.0585  0.4013  0.2257
 7472SOL    HW134052   0.375   2.094  13.711  0.2246  0.2751 -0.0114
 7472SOL    HW234053   0.228   2.062  13.702  0.0679 -0.0235  0.9645
 7473SOL     OW34054   4.085   3.129   8.161 -0.5337 -0.0711 -0.3083
 7473SOL    HW134055   4.096   3.035   8.167 -1.1086 -0.2123 -1.4653
 7473SOL    HW234056   4.107   3.148   8.253  1.6709 -1.0710 -0.6285
 7474SOL     OW34057   2.499   2.959   4.477  0.3765 -0.8901  0.3692
 7474SOL    HW134058   2.558   3.008   4.535  0.1012  0.1302 -0.2000
 7474SOL    HW234059   2.417   3.004   4.498  1.0522  0.9557 -0.8903
 7475SOL     OW34060   0.325   2.685   4.396  0.0524  0.3218  0.1103
 7475SOL    HW134061   0.240   2.660   4.433  1.6250 -2.8223  1.6518
 7475SOL    HW234062   0.345   2.595   4.369  0.5999  0.1664  0.9929
 7476SOL     OW34063   1.853   3.632   4.343 -0.3839  0.1707 -0.1923
 7476SOL    HW134064   1.883   3.594   4.260  2.4661 -1.4189  1.5601
 7476SOL    HW234065   1.806   3.713   4.321 -0.7332  0.5257  1.8882
 7477SOL     OW34066   0.900   4.135   6.583  0.6029 -0.0557 -0.8720
 7477SOL    HW134067   0.962   4.126   6.655  0.6402  0.3468 -0.8577
 7477SOL    HW234068   0.841   4.204   6.613 -0.7418 -0.7716 -1.8349
 7478SOL     OW34069   1.246   2.866   2.355  0.8788  0.3994 -0.2946
 7478SOL    HW134070   1.303   2.933   2.318  0.6465 -0.6239 -2.5052
 7478SOL    HW234071   1.312   2.823   2.409  0.7335 -0.3311 -0.6909
 7479SOL     OW34072   0.833   2.960   9.425  0.0220  0.3249  0.4623
 7479SOL    HW134073   0.802   2.964   9.335  0.9172  0.9259  0.1873
 7479SOL    HW234074   0.838   3.054   9.445  0.6235  0.7944 -1.9271
 7480SOL     OW34075   0.234   1.036   7.928 -0.4806  0.0855 -0.6828
 7480SOL    HW134076   0.179   1.107   7.960 -1.5051 -1.3320  0.7190
 7480SOL    HW234077   0.223   0.960   7.985 -1.3800  0.6344 -0.1229
 7481SOL     OW34078   4.417   3.838  15.719  0.3429  0.5372 -0.8723
 7481SOL    HW134079   4.349   3.771  15.717  1.5282 -0.6590 -0.9442
 7481SOL    HW234080   4.390   3.898  15.649  0.1501  0.3844 -0.9299
 7482SOL     OW34081   4.130   2.929   7.873  0.2434  0.0718  0.5433
 7482SOL    HW134082   4.162   3.003   7.822 -2.4929  1.2140  0.4636
 7482SOL    HW234083   4.046   2.967   7.900 -0.3819 -1.7194  1.0908
 7483SOL     OW34084   3.659   0.897  11.501  0.3151 -0.1666 -0.4279
 7483SOL    HW134085   3.716   0.945  11.561  0.2920 -0.9554  0.2280
 7483SOL    HW234086   3.580   0.901  11.556  1.7163  1.8450  1.4478
 7484SOL     OW34087   2.685   3.709  17.422  0.6634  0.7178 -0.1091
 7484SOL    HW134088   2.695   3.690  17.329  0.2881 -2.4542  0.4989
 7484SOL    HW234089   2.595   3.742  17.425  1.5783  3.4423 -2.7220
 7485SOL     OW34090   2.451   1.195   7.405  0.2319 -0.4603  0.1282
 7485SOL    HW134091   2.360   1.212   7.431  0.0819  0.8543 -1.2588
 7485SOL    HW234092   2.467   1.261   7.338 -1.1522 -0.8905 -0.6081
 7486SOL     OW34093   2.864   3.700  15.580 -0.2184 -0.9437  0.3510
 7486SOL    HW134094   2.897   3.625  15.529 -1.6022 -0.7052 -0.9086
 7486SOL    HW234095   2.865   3.771  15.515 -0.5390 -0.2422  1.1195
 7487SOL     OW34096   3.752   4.461   2.541 -0.1604  0.5325 -0.4400
 7487SOL    HW134097   3.744   4.371   2.572  0.5644  0.7247  0.2905
 7487SOL    HW234098   3.664   4.475   2.506 -0.6025 -0.2927  0.3331
 7488SOL     OW34099   1.895   0.864  15.672 -0.3765 -0.1955  0.4238
 7488SOL    HW134100   1.952   0.828  15.604  1.3328  1.1674  1.1166
 7488SOL    HW234101   1.951   0.922  15.723 -0.6035 -0.0982  0.5636
 7489SOL     OW34102   1.507   3.248  13.855  0.6019  0.2277 -0.0424
 7489SOL    HW134103   1.519   3.175  13.794  0.9995 -0.1013  0.4381
 7489SOL    HW234104   1.571   3.305  13.813  0.6189  2.1578  2.6180
 7490SOL     OW34105   0.523   2.485   5.416 -0.4381 -0.6720 -0.6170
 7490SOL    HW134106   0.480   2.490   5.501  0.9847 -3.4515  0.2546
 7490SOL    HW234107   0.575   2.407   5.434  2.0891  0.6865 -2.0246
 7491SOL     OW34108   0.938   1.871   8.804 -0.4740 -0.1606 -0.1307
 7491SOL    HW134109   0.977   1.785   8.818  0.4776  0.4705  1.0551
 7491SOL    HW234110   0.945   1.905   8.894 -0.4809  1.2458 -0.6610
 7492SOL     OW34111   0.182   3.448   9.168  0.3343  0.1882 -0.6253
 7492SOL    HW134112   0.165   3.518   9.231 -0.5517  0.9176 -1.6895
 7492SOL    HW234113   0.271   3.470   9.144  0.0739  1.0867 -0.7691
 7493SOL     OW34114   4.180   0.193  13.339 -0.3457 -0.2200 -0.0999
 7493SOL    HW134115   4.139   0.161  13.419 -0.2922  1.1356  0.4765
 7493SOL    HW234116   4.255   0.236  13.379 -0.2814 -0.8748  0.4755
 7494SOL     OW34117   3.931   3.777   0.604 -0.7626  0.2220  0.0345
 7494SOL    HW134118   3.902   3.710   0.542  1.0733  0.5695 -1.1839
 7494SOL    HW234119   4.016   3.750   0.639 -0.7388 -1.9832 -1.7556
 7495SOL     OW34120   2.645   0.382  14.506  0.2499  0.0065 -0.3479
 7495SOL    HW134121   2.663   0.306  14.561 -2.7641  0.4598  1.3207
 7495SOL    HW234122   2.614   0.339  14.427  2.2770 -2.7118  0.3516
 7496SOL     OW34123   2.159   1.484   3.361  0.2126  0.0263  0.2937
 7496SOL    HW134124   2.244   1.470   3.402 -0.3757  0.4609  1.6605
 7496SOL    HW234125   2.178   1.482   3.267  1.2493  0.3994  0.5044
 7497SOL     OW34126   3.456   1.047   8.939  0.0612  0.5887 -0.1191
 7497SOL    HW134127   3.416   0.974   8.986 -0.9683  0.8059 -0.6495
 7497SOL    HW234128   3.415   1.110   8.999 -0.6582 -0.8805  0.9372
 7498SOL     OW34129   4.346   3.223   4.202 -0.4166 -0.7076 -0.2209
 7498SOL    HW134130   4.266   3.226   4.255 -0.3930  0.2783 -0.2559
 7498SOL    HW234131   4.402   3.174   4.262 -1.5293 -0.9443  0.6287
 7499SOL     OW34132   1.794   2.044  13.146  0.3436 -0.2207 -0.2740
 7499SOL    HW134133   1.765   1.955  13.127 -1.0128  0.5993 -2.0056
 7499SOL    HW234134   1.812   2.042  13.240  2.0358 -5.3276 -0.6587
 7500SOL     OW34135   2.240   0.745   1.108  0.4345  0.6357  0.2195
 7500SOL    HW134136   2.245   0.717   1.016  1.1488  2.7758 -0.4087
 7500SOL    HW234137   2.325   0.788   1.116  0.2778  0.8674  0.6435
 7501SOL     OW34138   2.033   4.270   7.532  0.1325 -0.4125  0.3950
 7501SOL    HW134139   1.966   4.286   7.598  0.1525  0.3517  0.2317
 7501SOL    HW234140   2.013   4.177   7.522 -0.1098 -0.4917  1.5938
 7502SOL     OW34141   0.728   3.285   9.013 -0.0395  0.2040  0.9844
 7502SOL    HW134142   0.783   3.243   8.948 -0.5829  1.7471 -0.4667
 7502SOL    HW234143   0.793   3.327   9.069  1.0915 -0.8350  0.4422
 7503SOL     OW34144   0.913   2.700  14.305  0.0885  0.2515 -0.7622
 7503SOL    HW134145   0.888   2.696  14.212 -1.0954 -0.0084 -0.4288
 7503SOL    HW234146   0.917   2.795  14.321  3.2663  0.1598 -1.1248
 7504SOL     OW34147   2.861   1.499   8.984  0.2649  0.3592 -0.0594
 7504SOL    HW134148   2.781   1.450   8.999 -0.2523  1.2649  0.1778
 7504SOL    HW234149   2.854   1.556   9.061  0.3806 -1.3949  1.2459
 7505SOL     OW34150   0.353   2.340   0.165 -0.6360 -0.1409  0.1185
 7505SOL    HW134151   0.392   2.354   0.251 -2.1725  1.4716  0.5568
 7505SOL    HW234152   0.386   2.411   0.110 -1.7047 -0.3105 -0.7443
 7506SOL     OW34153   3.630   0.082   3.237 -0.1120 -0.0926 -0.3179
 7506SOL    HW134154   3.567   0.106   3.169  3.1291  0.1703 -3.2155
 7506SOL    HW234155   3.570   0.085   3.312 -0.7818 -0.0242 -0.8535
 7507SOL     OW34156   1.471   0.038  13.055 -0.6882 -0.7983 -0.2267
 7507SOL    HW134157   1.497   4.706  12.993  0.1562 -3.3743  2.9039
 7507SOL    HW234158   1.462   4.720  13.134 -0.7284  0.0876  0.3668
 7508SOL     OW34159   0.752   1.239  10.671  0.3373 -0.1669  0.4751
 7508SOL    HW134160   0.728   1.222  10.580  1.4533  0.6327  0.0415
 7508SOL    HW234161   0.671   1.253  10.720 -0.4143 -1.2803 -0.4463
 7509SOL     OW34162   3.190   4.425   9.510  0.3550  0.6854 -0.0039
 7509SOL    HW134163   3.162   4.339   9.541  0.5869  0.7953  0.5035
 7509SOL    HW234164   3.180   4.486   9.583  1.4026  2.3395 -1.2284
 7510SOL     OW34165   2.577   3.195  14.666  0.0262  0.5605 -0.2992
 7510SOL    HW134166   2.631   3.270  14.689 -0.7177  0.9755  0.1028
 7510SOL    HW234167   2.625   3.136  14.608  2.3093  3.2349 -1.1158
 7511SOL     OW34168   2.084   0.090   7.316 -0.7596 -0.5686  0.1697
 7511SOL    HW134169   2.112   0.057   7.401  0.2264 -0.3868 -0.0947
 7511SOL    HW234170   2.035   0.161   7.359 -0.6228 -0.6133  0.4000
 7512SOL     OW34171   3.044   0.105  15.382  0.3914  0.3460 -0.9628
 7512SOL    HW134172   2.988   0.029  15.394  2.0429 -0.6195  0.7416
 7512SOL    HW234173   3.132   0.067  15.389 -0.0320 -0.1369  1.7829
 7513SOL     OW34174   2.665   4.383   4.496  0.1807 -0.5245  0.1686
 7513SOL    HW134175   2.658   4.478   4.503  0.6260 -0.4760 -0.0392
 7513SOL    HW234176   2.615   4.350   4.571 -1.5872 -1.7670 -1.5661
 7514SOL     OW34177   1.207   3.804   7.757 -0.5387  0.4104 -0.7327
 7514SOL    HW134178   1.195   3.887   7.804 -0.8261  0.5943 -1.1355
 7514SOL    HW234179   1.119   3.800   7.721 -0.2241  1.9478 -1.6816
 7515SOL     OW34180   1.179   3.945  12.542  0.2577 -0.3144 -0.4410
 7515SOL    HW134181   1.140   3.863  12.512  1.3692 -0.8760 -0.3587
 7515SOL    HW234182   1.211   3.925  12.630 -1.2666  2.1582  0.6730
 7516SOL     OW34183   1.731   0.803   1.677 -0.1416  0.4548 -0.6892
 7516SOL    HW134184   1.725   0.897   1.661  0.2763  0.5001 -0.5759
 7516SOL    HW234185   1.658   0.791   1.738 -0.5735 -0.1829 -1.3264
 7517SOL     OW34186   3.231   1.272   2.852 -0.4134 -0.2100  0.0577
 7517SOL    HW134187   3.161   1.275   2.917  0.4821 -0.5913  1.0454
 7517SOL    HW234188   3.237   1.176   2.852  0.4651 -0.1628  0.6094
 7518SOL     OW34189   3.517   1.661   8.400 -0.0812 -0.0127  0.2344
 7518SOL    HW134190   3.500   1.755   8.393  0.4301  0.0617 -0.0291
 7518SOL    HW234191   3.564   1.664   8.483  1.2592  2.0748 -0.5787
 7519SOL     OW34192   4.721   1.347  13.382  0.1702 -0.2431  0.0789
 7519SOL    HW134193   0.038   1.281  13.428  0.7624  0.2623  0.1092
 7519SOL    HW234194   4.633   1.313  13.398 -0.0637  0.6168  0.5937
 7520SOL     OW34195   2.618   2.467   0.735  0.2301  0.1850  0.5328
 7520SOL    HW134196   2.570   2.392   0.700  2.3495 -0.1317 -1.7111
 7520SOL    HW234197   2.694   2.425   0.774 -0.2110  0.4984  1.7274
 7521SOL     OW34198   3.413   4.019   6.162  0.5077 -0.0720  0.4579
 7521SOL    HW134199   3.353   4.050   6.229  0.1774 -1.7091  0.9229
 7521SOL    HW234200   3.400   3.924   6.156  1.2482  0.0077 -2.6646
 7522SOL     OW34201   4.038   4.615   0.586  0.4100 -0.5008 -0.2814
 7522SOL    HW134202   4.072   4.526   0.584  1.9517  0.0541  1.5355
 7522SOL    HW234203   4.035   4.639   0.493 -2.0012  1.2005  0.2298
 7523SOL     OW34204   0.591   1.387   6.246 -0.2698  0.4839 -0.1755
 7523SOL    HW134205   0.496   1.384   6.239 -0.2813  2.3310 -0.8043
 7523SOL    HW234206   0.606   1.481   6.242 -1.1088  0.5211 -2.4985
 7524SOL     OW34207   4.114   4.702   5.178 -0.0311  0.1567  0.0152
 7524SOL    HW134208   4.045   4.669   5.237  1.7053 -1.4619  1.1330
 7524SOL    HW234209   4.181   4.646   5.215 -1.5488 -1.8483 -0.2777
 7525SOL     OW34210   0.720   3.112   9.227 -0.8795 -0.3960 -0.0427
 7525SOL    HW134211   0.686   3.183   9.173  0.8951 -0.4002 -1.1694
 7525SOL    HW234212   0.790   3.166   9.263 -0.3374  0.0848 -1.8001
 7526SOL     OW34213   1.214   1.818   7.169  0.6895  0.3035 -0.0354
 7526SOL    HW134214   1.119   1.827   7.177  0.6876  1.7476 -1.6106
 7526SOL    HW234215   1.220   1.724   7.150  0.7470  0.2962  0.0199
 7527SOL     OW34216   1.179   4.046  15.788 -0.3022  0.4415 -0.2803
 7527SOL    HW134217   1.142   4.089  15.711 -1.4734  0.9711  0.5767
 7527SOL    HW234218   1.177   4.108  15.860  0.6325 -1.6740  1.5706
 7528SOL     OW34219   3.209   3.129   6.357 -0.8904  0.2331  1.0382
 7528SOL    HW134220   3.160   3.047   6.350  0.1478 -0.3035 -0.0535
 7528SOL    HW234221   3.201   3.151   6.264  0.6978 -0.5595  0.7173
 7529SOL     OW34222   0.595   1.642   3.384  0.4117  0.3299  0.1422
 7529SOL    HW134223   0.544   1.724   3.385  0.3184  0.2597  1.7669
 7529SOL    HW234224   0.671   1.688   3.348  0.6890  0.2086  0.5669
 7530SOL     OW34225   0.598   1.480   5.928 -0.2540 -0.7037  0.2181
 7530SOL    HW134226   0.675   1.534   5.947  0.8731 -1.7214 -1.4876
 7530SOL    HW234227   0.646   1.440   5.855 -0.8101  1.2849 -1.2231
 7531SOL     OW34228   2.428   1.275   9.462 -0.4536 -0.1446 -0.3792
 7531SOL    HW134229   2.333   1.278   9.449 -0.6791  0.6522  1.3659
 7531SOL    HW234230   2.429   1.340   9.533 -0.8467 -1.1883  0.5788
 7532SOL     OW34231   0.077   1.165   4.908 -0.3792 -0.3045 -1.2177
 7532SOL    HW134232   0.058   1.112   4.830  1.3040 -0.9280 -1.1980
 7532SOL    HW234233   4.735   1.136   4.956 -0.4376 -0.6220 -1.5018
 7533SOL     OW34234   2.122   2.840  10.564 -0.1432 -0.4718  0.0445
 7533SOL    HW134235   2.055   2.868  10.502  0.2387  0.1879 -0.0709
 7533SOL    HW234236   2.103   2.885  10.646  0.8511  2.8682 -1.5327
 7534SOL     OW34237   2.682   0.441   2.820 -0.3083  0.0074 -0.6009
 7534SOL    HW134238   2.624   0.515   2.803 -2.3368 -1.2244  0.9925
 7534SOL    HW234239   2.615   0.373   2.810 -0.0898 -0.4116  0.8441
 7535SOL     OW34240   4.334   3.610   4.397  0.1698 -0.1937  0.2081
 7535SOL    HW134241   4.298   3.593   4.310 -0.6960  1.0747  0.3140
 7535SOL    HW234242   4.399   3.680   4.389  0.0886 -0.0252  1.0576
 7536SOL     OW34243   0.149   1.972   9.638  0.2107  0.3355 -0.6250
 7536SOL    HW134244   0.174   1.922   9.560 -2.3074 -1.5363 -0.2183
 7536SOL    HW234245   0.211   1.941   9.704  0.5647  0.6590 -0.8070
 7537SOL     OW34246   2.888   2.877   2.575 -0.1150 -0.6247  0.1666
 7537SOL    HW134247   2.895   2.972   2.581 -1.9540 -0.3818 -1.2987
 7537SOL    HW234248   2.918   2.847   2.661 -0.3127 -0.9326  0.1308
 7538SOL     OW34249   4.096   1.138   5.302  1.0722  0.3373  0.2340
 7538SOL    HW134250   4.060   1.148   5.213  1.6987  0.6954  0.0227
 7538SOL    HW234251   4.163   1.072   5.285 -0.0462 -0.9258  0.6986
 7539SOL     OW34252   0.880   4.667  13.534  0.2715  0.0192 -0.4749
 7539SOL    HW134253   0.815   4.735  13.517  0.2375  0.6819  2.3328
 7539SOL    HW234254   0.823   4.609  13.585 -0.8446  0.1598 -1.5479
 7540SOL     OW34255   3.229   0.306   3.005  0.0821  0.1598 -0.7198
 7540SOL    HW134256   3.194   0.372   3.065  4.3933  2.3261 -0.6010
 7540SOL    HW234257   3.224   0.347   2.919  1.0906 -0.0459 -0.8763
 7541SOL     OW34258   1.170   1.456   4.845 -0.1072 -0.5304  0.1074
 7541SOL    HW134259   1.238   1.416   4.792 -0.2785 -1.4401  0.5884
 7541SOL    HW234260   1.194   1.419   4.929 -0.6100  2.4116  1.5557
 7542SOL     OW34261   3.844   0.621   6.150 -0.2456  0.1549  0.0380
 7542SOL    HW134262   3.776   0.597   6.087  0.0509  0.2172 -0.3071
 7542SOL    HW234263   3.926   0.603   6.103 -0.0020  1.4533 -0.0314
 7543SOL     OW34264   2.122   0.163  14.641 -0.2846 -0.3543 -0.3513
 7543SOL    HW134265   2.079   0.174  14.726 -0.0728  0.3416 -0.3330
 7543SOL    HW234266   2.197   0.106  14.659  0.9150  1.7150  1.2200
 7544SOL     OW34267   4.098   3.995  10.480  0.2690 -0.0904 -0.4359
 7544SOL    HW134268   4.006   3.969  10.482  0.4817 -0.8971 -1.1742
 7544SOL    HW234269   4.116   3.980  10.387 -0.5735 -1.8873 -0.3100
 7545SOL     OW34270   4.619   0.631   8.164  0.0772  0.1203  0.0620
 7545SOL    HW134271   4.705   0.616   8.125  0.6346 -1.5001  1.9400
 7545SOL    HW234272   4.607   0.550   8.213 -1.0688  1.4696  2.0074
 7546SOL     OW34273   2.529   1.779   5.231 -0.1931 -0.2074 -0.1983
 7546SOL    HW134274   2.455   1.766   5.290  0.5218  1.0076  0.9574
 7546SOL    HW234275   2.556   1.687   5.225 -0.8435 -0.3119 -1.6832
 7547SOL     OW34276   4.377   0.567   6.061 -0.0053 -0.0782 -0.0929
 7547SOL    HW134277   4.440   0.496   6.054 -0.8407 -0.4248 -4.0684
 7547SOL    HW234278   4.339   0.573   5.973 -1.1438 -1.5362  0.3041
 7548SOL     OW34279   4.218   4.633   5.565  0.1662 -0.2687 -0.4008
 7548SOL    HW134280   4.209   4.706   5.627 -0.2164 -2.0525  1.6233
 7548SOL    HW234281   4.313   4.632   5.552  0.7988 -1.1709  4.5131
 7549SOL     OW34282   3.403   2.038   4.136 -0.4243  0.2641 -0.1257
 7549SOL    HW134283   3.479   2.094   4.146 -0.7902  0.5779  0.8758
 7549SOL    HW234284   3.423   1.972   4.069  1.1352  1.7164 -1.0810
 7550SOL     OW34285   1.705   2.616  17.446 -0.2801  0.2647  0.0105
 7550SOL    HW134286   1.644   2.658  17.506  0.4580 -0.2895  1.1364
 7550SOL    HW234287   1.745   2.692  17.405 -3.7864  2.5549  0.9036
 7551SOL     OW34288   3.578   0.716  14.676  0.2299 -0.0625 -0.2550
 7551SOL    HW134289   3.532   0.632  14.670 -0.2943  0.2545 -0.7272
 7551SOL    HW234290   3.513   0.779  14.644  1.4952  2.0347  1.2442
 7552SOL     OW34291   4.722   1.171   5.991  0.9262 -0.2501  0.0022
 7552SOL    HW134292   4.664   1.138   6.059  1.5914  0.4978  0.9410
 7552SOL    HW234293   4.702   1.120   5.913  3.0677 -2.8269  1.1270
 7553SOL     OW34294   3.387   3.546   7.347  0.6159 -0.4997 -0.0667
 7553SOL    HW134295   3.465   3.549   7.293  1.0676 -0.0871  0.6203
 7553SOL    HW234296   3.316   3.575   7.290  1.5032  1.8411  0.0330
 7554SOL     OW34297   3.790   3.565   0.479  0.2382  0.2063 -0.0525
 7554SOL    HW134298   3.697   3.564   0.454  0.9796  1.8383 -2.8972
 7554SOL    HW234299   3.829   3.584   0.394  0.6033  2.2414  0.5729
 7555SOL     OW34300   4.194   4.536   2.800 -0.3748  1.1904  0.0381
 7555SOL    HW134301   4.208   4.444   2.780 -0.3636  0.7521  2.0295
 7555SOL    HW234302   4.133   4.546   2.728  2.1580 -0.7377 -2.3480
 7556SOL     OW34303   1.552   3.739   9.106  0.2457 -0.5445 -0.4724
 7556SOL    HW134304   1.516   3.731   9.195 -1.2907 -3.4666 -1.3834
 7556SOL    HW234305   1.503   3.816   9.078  0.6042 -0.6352 -1.3260
 7557SOL     OW34306   3.470   1.004   9.897  0.0224  0.2207  0.2682
 7557SOL    HW134307   3.388   0.959   9.877  0.0628 -0.3314  1.4037
 7557SOL    HW234308   3.461   0.990   9.991  0.6010 -1.3509  0.0839
 7558SOL     OW34309   3.645   0.931   8.237  0.1858  0.8496 -0.8699
 7558SOL    HW134310   3.635   0.871   8.311  0.2121  2.8730  0.7840
 7558SOL    HW234311   3.554   0.960   8.226 -0.3408 -0.6089 -0.3965
 7559SOL     OW34312   2.052   2.269   4.538  0.5464  0.2742  0.2300
 7559SOL    HW134313   2.026   2.181   4.511  2.8565  0.1169 -1.4711
 7559SOL    HW234314   2.147   2.254   4.543  0.4372 -1.1564 -2.0592
 7560SOL     OW34315   0.789   1.502   5.748 -0.5400 -0.3221 -0.0749
 7560SOL    HW134316   0.877   1.504   5.709 -0.6835  3.8801 -0.2015
 7560SOL    HW234317   0.774   1.595   5.763  0.7172  0.1430 -1.7101
 7561SOL     OW34318   3.881   3.616   9.211  0.0961 -0.4001  0.0822
 7561SOL    HW134319   3.821   3.682   9.175 -0.3011 -1.5584 -1.3756
 7561SOL    HW234320   3.917   3.586   9.128 -1.2388 -1.2312 -0.1986
 7562SOL     OW34321   3.368   1.509  13.562  0.1101  0.1567  0.1867
 7562SOL    HW134322   3.396   1.418  13.568  1.1854  0.4741 -0.0311
 7562SOL    HW234323   3.320   1.501  13.479 -1.3196  1.1797  0.9218
 7563SOL     OW34324   0.266   3.179   9.280  0.0548 -0.5170  0.2925
 7563SOL    HW134325   0.243   3.267   9.310 -1.2408 -0.2620 -1.4363
 7563SOL    HW234326   0.259   3.200   9.187  1.8031  1.3830  0.5885
 7564SOL     OW34327   2.848   4.428  11.781 -0.4337  0.3678  0.2458
 7564SOL    HW134328   2.828   4.512  11.741  2.8748  1.0125  0.0348
 7564SOL    HW234329   2.763   4.388  11.761 -0.1770 -1.2011  2.2642
 7565SOL     OW34330   3.917   1.765  11.957  0.4934 -0.2083 -0.3301
 7565SOL    HW134331   3.971   1.773  11.878 -0.4271 -0.5798 -0.9944
 7565SOL    HW234332   3.884   1.675  11.959  1.4833 -0.5860 -0.9560
 7566SOL     OW34333   2.472   2.663   7.759  0.2677 -0.9262  0.4006
 7566SOL    HW134334   2.428   2.611   7.827  1.6026 -0.8651  1.3113
 7566SOL    HW234335   2.561   2.642   7.787  0.6371  2.8198  1.9945
 7567SOL     OW34336   2.389   1.446   1.502  0.2800  0.1437  0.0012
 7567SOL    HW134337   2.302   1.405   1.500  0.7635 -0.9249  1.1140
 7567SOL    HW234338   2.437   1.374   1.542 -2.0286 -1.5630 -0.2516
 7568SOL     OW34339   2.849   3.817   6.515  0.4115 -0.0755  0.2333
 7568SOL    HW134340   2.882   3.899   6.479 -3.8298  1.7947  0.5925
 7568SOL    HW234341   2.915   3.801   6.583  1.7515  0.3552 -0.9898
 7569SOL     OW34342   2.485   1.096   6.897 -0.3020 -0.3725 -0.1040
 7569SOL    HW134343   2.571   1.056   6.884 -1.9302 -3.2331 -1.9721
 7569SOL    HW234344   2.506   1.177   6.850  0.0341 -1.1743 -1.3118
 7570SOL     OW34345   2.972   1.891   4.753 -0.3151 -0.3523  0.1145
 7570SOL    HW134346   2.939   1.980   4.754 -0.7549 -0.5218  0.7501
 7570SOL    HW234347   3.062   1.905   4.782 -0.9811  0.2377  1.8928
 7571SOL     OW34348   2.598   2.497   6.149  0.3329 -1.1373  0.3761
 7571SOL    HW134349   2.592   2.452   6.233 -1.6103 -0.7244  0.4788
 7571SOL    HW234350   2.635   2.581   6.177  0.9278 -1.4708  0.5776
 7572SOL     OW34351   1.238   4.698   7.067 -0.1296 -0.4637 -0.6031
 7572SOL    HW134352   1.203   0.018   7.137  1.1899 -1.8394  1.1416
 7572SOL    HW234353   1.204   4.617   7.105  1.6912 -0.1272  1.7080
 7573SOL     OW34354   1.410   1.515   7.978  0.4490  0.5242 -0.1408
 7573SOL    HW134355   1.494   1.559   7.993  0.9317 -0.0952 -1.0223
 7573SOL    HW234356   1.438   1.426   8.001 -0.5198  0.7367  1.8238
 7574SOL     OW34357   0.528   2.228   9.232 -0.0323 -0.2349  0.6201
 7574SOL    HW134358   0.461   2.295   9.227  1.5750  1.3270 -0.1452
 7574SOL    HW234359   0.524   2.183   9.147 -1.3402  0.5501  0.2658
 7575SOL     OW34360   2.509   1.904   1.834 -0.2849  0.5682  0.5645
 7575SOL    HW134361   2.567   1.967   1.876  1.5350  0.6999 -2.1882
 7575SOL    HW234362   2.577   1.841   1.812  0.3394  1.3183  0.3577
 7576SOL     OW34363   1.578   2.315   2.522 -0.5583 -0.1670 -0.1441
 7576SOL    HW134364   1.645   2.379   2.503 -0.5663  0.6755  2.6695
 7576SOL    HW234365   1.591   2.262   2.444 -1.8253  0.2118 -0.6167
 7577SOL     OW34366   4.280   4.091   1.114  0.0558  0.1145 -0.3423
 7577SOL    HW134367   4.358   4.139   1.087  1.0523  0.1539  2.6142
 7577SOL    HW234368   4.218   4.117   1.045  1.6275 -0.2874 -1.9158
 7578SOL     OW34369   0.694   3.129  11.241 -0.2066 -0.4951  0.2033
 7578SOL    HW134370   0.720   3.116  11.149  2.4734  3.8590  0.3045
 7578SOL    HW234371   0.770   3.105  11.293 -0.8606 -0.7013  1.0604
 7579SOL     OW34372   0.896   0.519   5.866 -0.3837  0.0148  0.5740
 7579SOL    HW134373   0.941   0.438   5.889 -0.3680  0.3504  1.7279
 7579SOL    HW234374   0.809   0.481   5.878 -0.3015  0.1546  1.5768
 7580SOL     OW34375   0.347   3.340   0.866  0.2288  0.5617 -0.3872
 7580SOL    HW134376   0.404   3.401   0.820  0.7018 -0.7835 -1.5826
 7580SOL    HW234377   0.407   3.291   0.922 -1.2892 -0.3069  0.4805
 7581SOL     OW34378   3.765   1.571   2.752 -0.2952  0.5555  0.1853
 7581SOL    HW134379   3.800   1.603   2.668 -1.9368  1.0197 -0.3229
 7581SOL    HW234380   3.716   1.645   2.786  1.5304  1.0617  1.7539
 7582SOL     OW34381   4.048   1.116   6.013 -0.1485  0.7039  0.2266
 7582SOL    HW134382   3.969   1.168   6.023 -0.2873  0.0534  2.4766
 7582SOL    HW234383   4.097   1.172   5.952 -0.7957  0.3160 -0.6496
 7583SOL     OW34384   3.713   2.259   6.101 -0.2574 -0.0552  0.1660
 7583SOL    HW134385   3.720   2.327   6.034  1.2198  0.0237  0.3929
 7583SOL    HW234386   3.669   2.184   6.060 -1.9110  1.2301 -0.4106
 7584SOL     OW34387   2.794   4.059  11.868 -0.4247  0.2056 -0.4202
 7584SOL    HW134388   2.871   4.109  11.897 -0.6175  0.1788  0.1239
 7584SOL    HW234389   2.737   4.119  11.820 -3.2914 -0.2712  2.4027
 7585SOL     OW34390   0.604   0.533   4.104 -0.2926  0.3265 -0.0259
 7585SOL    HW134391   0.590   0.464   4.169 -0.9336  0.9307  0.4756
 7585SOL    HW234392   0.632   0.609   4.154 -0.5527 -2.1153  3.8221
 7586SOL     OW34393   1.891   1.907  11.268  0.4233 -0.0747  0.2904
 7586SOL    HW134394   1.801   1.933  11.286 -0.4314 -2.2388 -0.9502
 7586SOL    HW234395   1.907   1.963  11.192  2.9252  1.1528  1.7079
 7587SOL     OW34396   2.262   0.192   4.189 -0.2623  0.7758  0.5688
 7587SOL    HW134397   2.259   0.106   4.230 -1.5296  1.0869  1.1315
 7587SOL    HW234398   2.333   0.173   4.129  0.7182  1.4876  1.5153
 7588SOL     OW34399   2.857   0.272  14.682  0.2704  0.3633 -0.2558
 7588SOL    HW134400   2.819   0.358  14.661 -2.2249 -0.7861 -0.4328
 7588SOL    HW234401   2.924   0.272  14.614  0.6774 -1.0000  0.1546
 7589SOL     OW34402   1.875   3.908   8.490 -0.7329  0.4663 -0.0905
 7589SOL    HW134403   1.902   3.993   8.457 -0.8761  0.6660  0.3016
 7589SOL    HW234404   1.937   3.901   8.563 -1.1632  1.0668  0.3371
 7590SOL     OW34405   4.512   1.473   8.099  0.6227 -0.0052 -0.9074
 7590SOL    HW134406   4.590   1.517   8.133 -0.9549 -0.3967  3.1563
 7590SOL    HW234407   4.465   1.455   8.180  0.9152 -1.3374 -1.0334
 7591SOL     OW34408   4.380   3.397  12.767 -0.6586  0.2581  0.4802
 7591SOL    HW134409   4.380   3.396  12.671  0.4802  1.3540  0.4645
 7591SOL    HW234410   4.289   3.420  12.783 -0.1332  2.2042  0.6700
 7592SOL     OW34411   2.733   2.074   9.398  0.3929  0.5282  0.4278
 7592SOL    HW134412   2.799   2.119   9.345 -0.2061  1.4111  0.4386
 7592SOL    HW234413   2.684   2.041   9.322 -0.2100  1.2369  0.5164
 7593SOL     OW34414   1.571   1.446   8.298 -0.4943  0.3599 -0.2360
 7593SOL    HW134415   1.659   1.450   8.260  0.7117  0.4961  2.5623
 7593SOL    HW234416   1.582   1.393   8.377  2.0026 -2.1234 -2.2528
 7594SOL     OW34417   4.323   4.693   6.383 -0.5374  0.2960  0.2250
 7594SOL    HW134418   4.325   4.599   6.402 -0.7007  0.1453 -0.5203
 7594SOL    HW234419   4.246   4.717   6.434  0.7957  2.6489  1.1295
 7595SOL     OW34420   0.678   1.428   3.555  0.0991 -0.0840 -0.2541
 7595SOL    HW134421   0.765   1.396   3.531 -0.4240 -1.3546 -0.4737
 7595SOL    HW234422   0.666   1.484   3.478  0.2767 -1.5754 -1.3772
 7596SOL     OW34423   2.166   4.000   5.196  0.4923  0.3452 -0.3966
 7596SOL    HW134424   2.200   3.928   5.144  1.8933  1.5173 -1.0918
 7596SOL    HW234425   2.199   4.075   5.147 -0.8336  0.8660 -0.5170
 7597SOL     OW34426   4.055   0.595   3.132  0.5780  0.7578  0.1059
 7597SOL    HW134427   4.004   0.611   3.053 -0.8574  2.3839  1.3676
 7597SOL    HW234428   4.074   0.687   3.151  0.2231  1.0596 -1.0248
 7598SOL     OW34429   4.014   0.410  16.768  0.4174 -0.0886 -0.0846
 7598SOL    HW134430   4.068   0.411  16.689 -2.4750 -0.1197 -2.0643
 7598SOL    HW234431   3.933   0.456  16.745  1.0614  0.5185 -1.1300
 7599SOL     OW34432   4.018   1.355   3.606  0.0115  0.1115 -0.0225
 7599SOL    HW134433   4.072   1.410   3.663 -0.5028 -0.4926  1.0455
 7599SOL    HW234434   4.075   1.295   3.557 -0.1923 -1.4654  1.6619
 7600SOL     OW34435   2.333   2.467   7.356  0.0197 -0.3816 -0.4452
 7600SOL    HW134436   2.278   2.400   7.397 -1.6009 -0.1551 -2.2387
 7600SOL    HW234437   2.265   2.508   7.302 -0.7602  1.6835  2.0973
 7601SOL     OW34438   2.078   2.122   7.220  0.7444 -0.2797 -0.5612
 7601SOL    HW134439   2.118   2.191   7.273  0.1309  1.3395 -2.1887
 7601SOL    HW234440   2.153   2.064   7.213 -0.1944 -1.6469  0.7431
 7602SOL     OW34441   0.445   2.726  11.522 -0.6088  0.9005  0.0650
 7602SOL    HW134442   0.371   2.765  11.567 -0.7186  0.1405  0.5292
 7602SOL    HW234443   0.452   2.655  11.585  1.2102  1.5062  0.5625
 7603SOL     OW34444   3.179   3.432   3.007 -0.2289 -0.0972 -0.5246
 7603SOL    HW134445   3.182   3.378   3.086 -1.4548  1.1463  0.3585
 7603SOL    HW234446   3.089   3.434   2.975 -0.3640  2.0665  0.0083
 7604SOL     OW34447   2.367   1.536   8.568 -0.3223  0.7470 -0.2874
 7604SOL    HW134448   2.403   1.624   8.578  0.8215  0.4260 -1.5731
 7604SOL    HW234449   2.296   1.524   8.631 -1.6344  0.3136 -1.8619
 7605SOL     OW34450   4.029   0.415   9.249 -0.0670 -0.1667  0.3715
 7605SOL    HW134451   4.109   0.463   9.272  1.3508 -1.6337 -1.5729
 7605SOL    HW234452   4.014   0.364   9.329  0.7653 -0.7470  0.1577
 7606SOL     OW34453   1.354   4.324   0.696 -0.2410 -0.3426  0.3216
 7606SOL    HW134454   1.339   4.418   0.686  0.9654 -0.2227 -0.4139
 7606SOL    HW234455   1.426   4.329   0.759  0.3226  1.3718 -0.4409
 7607SOL     OW34456   0.817   3.246   6.066 -0.2087 -0.5188 -0.1763
 7607SOL    HW134457   0.811   3.183   5.995  2.7323 -0.1197 -0.7610
 7607SOL    HW234458   0.885   3.304   6.032 -1.4840 -0.2894 -2.3480
 7608SOL     OW34459   0.613   4.547   7.441  0.0142  0.3566 -0.0251
 7608SOL    HW134460   0.563   4.483   7.391 -1.3546 -1.4049  3.5788
 7608SOL    HW234461   0.621   4.508   7.529  0.6130  1.4895  0.4262
 7609SOL     OW34462   1.142   2.183   6.526 -0.4175 -0.1657  0.0637
 7609SOL    HW134463   1.196   2.122   6.475  0.0500  1.1191 -0.9971
 7609SOL    HW234464   1.175   2.186   6.616 -2.2566  0.7515  0.7081
 7610SOL     OW34465   2.274   1.727   1.212 -0.0793  0.5413 -0.0083
 7610SOL    HW134466   2.180   1.726   1.228 -0.3743 -0.3795 -1.7278
 7610SOL    HW234467   2.274   1.649   1.155  1.4177  0.2335  0.4161
 7611SOL     OW34468   3.300   3.788  11.830 -0.1044 -0.6374  0.0359
 7611SOL    HW134469   3.355   3.768  11.755  0.5985 -1.8918  0.8829
 7611SOL    HW234470   3.238   3.716  11.823 -2.3826  1.5553 -2.0008
 7612SOL     OW34471   2.730   0.813   1.033 -0.9614 -0.0376  0.3578
 7612SOL    HW134472   2.805   0.836   0.979 -0.5932 -0.1405  0.8202
 7612SOL    HW234473   2.737   0.719   1.049  0.1880 -0.4522 -2.7677
 7613SOL     OW34474   2.981   3.462  17.007  0.1568  0.5584  0.5328
 7613SOL    HW134475   2.932   3.434  17.084  0.9333  1.9526  1.5299
 7613SOL    HW234476   3.069   3.428  17.022  0.5820  1.0850 -0.6707
 7614SOL     OW34477   1.700   2.017  15.507  1.3180  0.4731 -0.3805
 7614SOL    HW134478   1.770   1.979  15.559  0.8013  1.9915  1.4448
 7614SOL    HW234479   1.635   2.020  15.577  1.5065 -1.5127 -0.1282
 7615SOL     OW34480   4.356   1.247  16.897 -0.0678 -0.4082  0.2477
 7615SOL    HW134481   4.294   1.267  16.827 -2.1190 -0.3342  2.0561
 7615SOL    HW234482   4.318   1.298  16.968  1.5957  0.9515  0.1550
 7616SOL     OW34483   0.807   4.455  17.414 -0.7639 -0.3711  0.3637
 7616SOL    HW134484   0.811   4.374  17.364 -0.8386  0.2593 -0.6680
 7616SOL    HW234485   0.753   4.510  17.357 -0.6104 -1.3552 -0.7253
 7617SOL     OW34486   2.192   3.085   7.625 -0.4979 -0.5096  0.8020
 7617SOL    HW134487   2.220   3.002   7.664 -2.9325 -1.0511  1.3831
 7617SOL    HW234488   2.206   3.070   7.532  0.3845 -1.7156  1.1230
 7618SOL     OW34489   2.620   1.891   3.687 -0.1210 -0.8409  0.4203
 7618SOL    HW134490   2.706   1.929   3.671 -0.6383  0.2492  0.2330
 7618SOL    HW234491   2.558   1.949   3.732 -1.4185 -2.0151  0.1715
 7619SOL     OW34492   2.924   0.848   1.971 -0.1058 -0.3081  0.2202
 7619SOL    HW134493   3.003   0.797   1.954  0.3715  0.8292 -1.0071
 7619SOL    HW234494   2.923   0.848   2.067  0.5831 -1.8944  0.2196
 7620SOL     OW34495   4.285   2.364   4.198 -0.2538  0.2433  0.7350
 7620SOL    HW134496   4.262   2.275   4.172 -1.3232  1.1498 -1.3840
 7620SOL    HW234497   4.350   2.393   4.134 -0.6204 -0.9076 -0.1525
 7621SOL     OW34498   3.320   2.867   0.813 -0.1675  0.5725  0.2593
 7621SOL    HW134499   3.330   2.959   0.837 -0.6803  1.2377 -2.0416
 7621SOL    HW234500   3.297   2.825   0.896 -0.6767  1.4182  0.5604
 7622SOL     OW34501   3.440   0.175   1.553  0.3504 -0.3117  0.1518
 7622SOL    HW134502   3.361   0.122   1.564  2.2228 -2.5881  2.7470
 7622SOL    HW234503   3.476   0.157   1.640  1.5739 -1.1048 -0.5155
 7623SOL     OW34504   2.659   1.787   4.528 -0.0264 -0.2021 -0.3739
 7623SOL    HW134505   2.656   1.827   4.615 -1.0795 -1.8471  0.3461
 7623SOL    HW234506   2.735   1.835   4.493  0.5167 -1.0329 -0.3477
 7624SOL     OW34507   0.271   0.802   8.288 -0.3217 -0.2014 -0.4200
 7624SOL    HW134508   0.336   0.733   8.278 -1.0510 -0.8274 -0.8950
 7624SOL    HW234509   0.322   0.882   8.293  0.5419 -0.7133 -1.1379
 7625SOL     OW34510   0.272   2.066   6.481 -0.2643  0.3970 -0.4875
 7625SOL    HW134511   0.196   2.099   6.433 -0.8836  0.1964  0.3536
 7625SOL    HW234512   0.260   1.971   6.475 -2.0455  0.5837 -0.0754
 7626SOL     OW34513   3.746   1.481   2.442  0.0042 -0.1281 -0.4830
 7626SOL    HW134514   3.816   1.541   2.469 -1.5041  1.2638  0.3727
 7626SOL    HW234515   3.670   1.539   2.441  0.0521 -0.0819 -1.3347
 7627SOL     OW34516   3.450   0.295   2.735 -0.7522  0.0030  0.5468
 7627SOL    HW134517   3.468   0.328   2.647  0.5616 -0.9052  0.4767
 7627SOL    HW234518   3.533   0.321   2.774 -0.6531 -0.7727  0.8514
 7628SOL     OW34519   0.088   2.896   4.551 -0.4463 -0.3372 -0.0156
 7628SOL    HW134520   4.733   2.892   4.580 -0.5845 -1.2517 -0.5784
 7628SOL    HW234521   0.096   2.803   4.529 -0.9533 -0.3392 -0.1950
 7629SOL     OW34522   3.309   0.659   3.079  0.0728 -0.1147 -0.7220
 7629SOL    HW134523   3.214   0.661   3.072 -0.0056  0.2086  0.5204
 7629SOL    HW234524   3.330   0.687   2.989 -4.0999  2.4141 -0.9248
 7630SOL     OW34525   3.961   3.531   8.960 -0.3016  0.0785 -0.1837
 7630SOL    HW134526   4.032   3.474   8.932  0.7446  0.9241  0.7765
 7630SOL    HW234527   3.999   3.619   8.966  0.1587 -0.2614  1.8333
 7631SOL     OW34528   2.041   1.137   6.475  0.6855 -0.0930 -0.1754
 7631SOL    HW134529   2.104   1.103   6.538 -0.2794 -1.2366  0.1564
 7631SOL    HW234530   2.001   1.053   6.453  0.2506 -0.5298  2.4009
 7632SOL     OW34531   0.172   3.918  16.675 -0.0042 -0.5105 -0.6654
 7632SOL    HW134532   0.242   3.876  16.625  2.0770 -1.2193  2.8094
 7632SOL    HW234533   0.195   3.890  16.764 -0.4166 -1.0480 -0.7248
 7633SOL     OW34534   2.241   3.978   8.460 -0.1195  0.2678 -0.4576
 7633SOL    HW134535   2.184   3.955   8.533  1.2749 -0.7673  0.3211
 7633SOL    HW234536   2.191   3.945   8.385  0.6189 -0.6559 -0.5496
 7634SOL     OW34537   2.967   3.600  12.074  0.5292 -0.0904 -0.2914
 7634SOL    HW134538   3.022   3.572  12.001  0.4481 -0.9388 -0.0299
 7634SOL    HW234539   3.034   3.643  12.127  2.1250  0.2990 -2.6239
 7635SOL     OW34540   3.006   4.423  16.796 -0.2575 -0.5126 -0.1879
 7635SOL    HW134541   2.974   4.493  16.740  0.4646  0.3537  0.4878
 7635SOL    HW234542   2.935   4.360  16.812 -0.4926 -0.3049 -0.4200
 7636SOL     OW34543   1.387   0.906   8.947 -0.6195 -0.8857  0.2140
 7636SOL    HW134544   1.408   0.819   8.981 -1.5227 -1.2314 -0.0918
 7636SOL    HW234545   1.311   0.891   8.889  0.6227 -3.0918 -0.8599
 7637SOL     OW34546   4.403   2.873   7.520 -0.1177  0.1315 -0.8000
 7637SOL    HW134547   4.431   2.834   7.437  1.1465 -0.3686 -0.1351
 7637SOL    HW234548   4.442   2.808   7.578 -0.4579 -0.1093 -0.8382
 7638SOL     OW34549   4.506   0.642  11.741  0.2256 -0.1027 -0.0969
 7638SOL    HW134550   4.467   0.727  11.720  2.4411  0.6852 -1.0958
 7638SOL    HW234551   4.470   0.614  11.825  1.3079 -1.0391  0.0608
 7639SOL     OW34552   2.796   4.538  14.582  0.6214  0.4296  0.2288
 7639SOL    HW134553   2.844   4.490  14.650  1.0915  1.5384  0.6730
 7639SOL    HW234554   2.855   4.612  14.568  2.8179 -1.5241 -0.8942
 7640SOL     OW34555   3.981   1.728   6.269 -0.1586  0.8040  0.2950
 7640SOL    HW134556   4.045   1.667   6.306 -1.3215  0.2900  1.4773
 7640SOL    HW234557   4.040   1.801   6.250 -0.2987  0.4955 -1.3197
 7641SOL     OW34558   0.410   3.846   4.826  0.5610  0.1713 -0.2034
 7641SOL    HW134559   0.380   3.764   4.787 -2.1137  0.8735  0.3877
 7641SOL    HW234560   0.500   3.822   4.848  0.3128 -0.3042  0.2889
 7642SOL     OW34561   3.107   3.316  10.519 -0.4910 -0.3148  0.1245
 7642SOL    HW134562   3.094   3.248  10.586 -0.0954  0.3802  0.9190
 7642SOL    HW234563   3.027   3.292  10.473 -0.8753 -2.6017  1.9581
 7643SOL     OW34564   4.147   2.018  12.314  0.2850  0.4643  0.2569
 7643SOL    HW134565   4.058   1.986  12.300  0.6245 -0.4250  0.1460
 7643SOL    HW234566   4.184   2.028  12.226  0.8781  1.7488  0.6501
 7644SOL     OW34567   1.846   1.037  16.213 -0.0590  0.0298 -0.0343
 7644SOL    HW134568   1.872   1.029  16.305 -0.8687  2.4273  0.4158
 7644SOL    HW234569   1.922   0.993  16.175 -1.0208 -0.3391 -1.5258
 7645SOL     OW34570   3.834   1.626   8.346  0.0396 -0.1330  0.1301
 7645SOL    HW134571   3.888   1.547   8.334  1.0471 -0.0196  3.7465
 7645SOL    HW234572   3.790   1.608   8.429 -1.6492 -1.3007 -1.0187
 7646SOL     OW34573   3.101   3.718   2.536  0.1918  0.2584 -0.0576
 7646SOL    HW134574   3.081   3.765   2.617  1.3230 -0.1144  0.4469
 7646SOL    HW234575   3.058   3.636   2.559 -1.6738  1.4036  0.4590
 7647SOL     OW34576   4.125   3.700  17.722  0.3025 -0.1642  0.6759
 7647SOL    HW134577   4.134   3.645   0.057 -0.0379 -0.1040  0.7606
 7647SOL    HW234578   4.214   3.690  17.690 -0.4287 -0.0814 -1.3985
 7648SOL     OW34579   0.995   2.943   0.900 -0.0403  0.4138  0.8107
 7648SOL    HW134580   0.978   2.850   0.883 -1.4861  0.7532  0.4259
 7648SOL    HW234581   0.965   2.964   0.989 -1.1308 -0.1313  0.5664
 7649SOL     OW34582   1.776   0.634   6.213 -0.1131 -0.0420 -0.1570
 7649SOL    HW134583   1.714   0.644   6.285 -1.1406 -1.6008 -0.8410
 7649SOL    HW234584   1.779   0.717   6.166  1.3364 -0.8487 -1.5205
 7650SOL     OW34585   1.825   0.501  16.805  0.2484  0.0650  0.1095
 7650SOL    HW134586   1.853   0.415  16.836  2.8114  1.0299  0.5253
 7650SOL    HW234587   1.866   0.508  16.718 -1.5139  1.5391 -0.6089
 7651SOL     OW34588   0.646   3.319   4.316  0.0660 -0.2171 -0.2662
 7651SOL    HW134589   0.728   3.298   4.361 -0.1482  2.8768  1.5497
 7651SOL    HW234590   0.621   3.230   4.293  2.7770 -1.0216 -0.0952
 7652SOL     OW34591   4.327   2.258   0.687 -0.8109  0.0835  0.4338
 7652SOL    HW134592   4.292   2.200   0.755 -2.4027  0.9458  0.3556
 7652SOL    HW234593   4.373   2.204   0.622  0.8080 -0.0240  1.6863
 7653SOL     OW34594   3.978   0.861   7.189  1.2241 -0.2299  0.2733
 7653SOL    HW134595   3.990   0.906   7.105  1.6949 -0.1442  0.3903
 7653SOL    HW234596   4.026   0.917   7.250  0.2287 -0.0210  0.8695
 7654SOL     OW34597   1.980   3.278   7.393  0.0435 -0.2829 -0.1592
 7654SOL    HW134598   1.982   3.185   7.416  1.5275 -0.3668 -0.5819
 7654SOL    HW234599   1.893   3.286   7.355  0.0123 -2.3120 -0.4803
 7655SOL     OW34600   0.079   3.535  15.498 -0.1350  0.5583  0.2058
 7655SOL    HW134601   0.064   3.464  15.561  2.3004  0.7354  0.9605
 7655SOL    HW234602   4.722   3.561  15.494  0.6858  2.5520 -5.0084
 7656SOL     OW34603   0.624   0.216  14.446 -0.7782 -0.1213  0.0019
 7656SOL    HW134604   0.628   0.135  14.497  1.0125  0.4993  0.8552
 7656SOL    HW234605   0.530   0.225  14.460 -0.7874  0.6626 -0.5796
 7657SOL     OW34606   0.797   0.748   5.758 -0.0084  0.2754 -0.3056
 7657SOL    HW134607   0.831   0.686   5.823  1.8704  1.0844 -0.5219
 7657SOL    HW234608   0.760   0.686   5.694  0.4821 -2.1341  1.7584
 7658SOL     OW34609   2.323   1.589  11.443 -0.5685 -0.3060 -0.5482
 7658SOL    HW134610   2.348   1.624  11.529  0.4544  0.3894 -1.1431
 7658SOL    HW234611   2.409   1.580  11.403  0.0296  1.0020  0.4517
 7659SOL     OW34612   0.168   3.592   4.110  0.5542  0.1695 -0.1872
 7659SOL    HW134613   0.109   3.599   4.035  0.1535  0.8932  0.1989
 7659SOL    HW234614   0.104   3.606   4.180  0.8005 -1.2334  0.3204
 7660SOL     OW34615   2.430   0.083   2.619  0.3402  0.0343  0.1453
 7660SOL    HW134616   2.402   4.728   2.632 -1.8800  0.8499  0.8645
 7660SOL    HW234617   2.399   0.121   2.537  0.4655  1.0141  0.5524
 7661SOL     OW34618   0.850   2.863  13.263 -0.2445 -0.3858  0.6263
 7661SOL    HW134619   0.914   2.819  13.206  0.0503  2.0379 -0.9454
 7661SOL    HW234620   0.858   2.957  13.245  2.1387 -0.4638  1.2412
 7662SOL     OW34621   3.010   2.610   6.961 -0.8668  0.5710 -0.4480
 7662SOL    HW134622   3.078   2.543   6.964 -1.2303  0.2561  0.8345
 7662SOL    HW234623   2.967   2.582   7.042 -0.6130  2.2590  0.2736
 7663SOL     OW34624   2.015   3.467   6.714 -0.4675 -0.1544  0.7127
 7663SOL    HW134625   2.088   3.411   6.741  0.0151 -0.1788 -0.6440
 7663SOL    HW234626   1.945   3.405   6.734 -0.7323 -0.7285 -2.0743
 7664SOL     OW34627   2.957   4.166   9.786  0.7499 -0.3945  0.3977
 7664SOL    HW134628   2.966   4.255   9.821  1.3944  0.7407 -2.6428
 7664SOL    HW234629   2.892   4.138   9.850  0.8922  2.0685  1.5960
 7665SOL     OW34630   3.465   0.854   1.771  0.3238  0.2480 -0.3951
 7665SOL    HW134631   3.447   0.778   1.714 -0.8010  0.1714  0.0708
 7665SOL    HW234632   3.555   0.839   1.801  0.2094 -1.7940 -1.0310
 7666SOL     OW34633   4.103   4.029   3.455  0.6119 -0.3808  0.2216
 7666SOL    HW134634   4.066   3.941   3.459  1.8726 -0.8722  0.8746
 7666SOL    HW234635   4.153   4.025   3.536 -0.6891  1.1226  1.0905
 7667SOL     OW34636   0.098   0.651   0.268  0.6307 -0.3371 -0.7909
 7667SOL    HW134637   0.038   0.700   0.325  1.5850 -0.2159  0.1263
 7667SOL    HW234638   0.181   0.680   0.307  0.6647  0.0694 -1.1601
 7668SOL     OW34639   1.152   3.967  15.203  0.0365 -0.3197  0.1240
 7668SOL    HW134640   1.172   4.060  15.197 -0.0606 -0.5258 -3.5774
 7668SOL    HW234641   1.233   3.921  15.181  0.8621  0.5111  1.4411
 7669SOL     OW34642   3.925   2.153   7.755  0.3255 -0.3626 -0.2759
 7669SOL    HW134643   3.972   2.155   7.839  0.7647 -0.4946 -0.5161
 7669SOL    HW234644   3.953   2.072   7.712  3.1527  1.0029 -1.0435
 7670SOL     OW34645   2.440   1.114   8.169  0.0970  0.8884  0.4213
 7670SOL    HW134646   2.396   1.109   8.254 -1.0574 -0.5766 -0.2591
 7670SOL    HW234647   2.518   1.163   8.195  0.8290  0.1150 -0.2892
 7671SOL     OW34648   3.861   3.477   6.123  0.2021 -0.3628 -0.0970
 7671SOL    HW134649   3.896   3.519   6.202  0.9297  0.2979 -0.7732
 7671SOL    HW234650   3.925   3.506   6.059  1.6512 -2.0640  0.5881
 7672SOL     OW34651   4.397   4.663   7.727 -0.3539  0.1546  0.2972
 7672SOL    HW134652   4.439   4.638   7.645  1.2219 -0.5667  1.3277
 7672SOL    HW234653   4.422   4.596   7.790 -1.5549 -0.5552  0.0362
 7673SOL     OW34654   4.514   3.786   7.639 -0.1917 -0.5304  0.1498
 7673SOL    HW134655   4.441   3.788   7.578  1.2938  0.0976 -1.6221
 7673SOL    HW234656   4.547   3.696   7.636  0.0814 -0.3663 -2.3321
 7674SOL     OW34657   4.365   1.181   4.077 -0.5464 -0.0938  0.0348
 7674SOL    HW134658   4.372   1.098   4.125 -0.8981  0.3682  0.8895
 7674SOL    HW234659   4.424   1.242   4.121 -0.2073  0.1061 -0.6985
 7675SOL     OW34660   0.294   1.308   0.814 -0.2513 -0.1921  0.1848
 7675SOL    HW134661   0.275   1.359   0.735  0.8797  1.0732  0.7216
 7675SOL    HW234662   0.345   1.363   0.874 -0.0011  2.1109 -2.1307
 7676SOL     OW34663   2.359   2.299   8.971  0.5830 -0.5240  0.2406
 7676SOL    HW134664   2.352   2.304   9.066  1.6103  1.2082  0.2178
 7676SOL    HW234665   2.375   2.206   8.953 -1.0075 -1.0015  1.2288
 7677SOL     OW34666   2.769   1.072   6.249 -0.5493  0.4224 -0.5491
 7677SOL    HW134667   2.758   1.091   6.156 -1.6369 -0.6343 -0.6371
 7677SOL    HW234668   2.824   1.147   6.271 -0.6510  0.7927 -1.5616
 7678SOL     OW34669   1.856   1.864   7.335  0.0658 -0.1851 -0.8069
 7678SOL    HW134670   1.934   1.878   7.389  0.1103  1.6101 -1.3182
 7678SOL    HW234671   1.801   1.940   7.357 -0.0026 -0.8061  1.1506
 7679SOL     OW34672   2.846   3.738   3.191 -0.1962  0.3855  0.4196
 7679SOL    HW134673   2.769   3.707   3.237  0.1122 -0.5491  0.3199
 7679SOL    HW234674   2.892   3.656   3.174 -1.2983 -0.1802  0.1728
 7680SOL     OW34675   1.949   3.391   0.703  0.2495  0.2282 -0.3435
 7680SOL    HW134676   1.981   3.452   0.769 -1.0195  0.7809 -0.2408
 7680SOL    HW234677   2.006   3.315   0.716 -0.3769 -0.6933 -2.8412
 7681SOL     OW34678   1.716   0.139   4.748  0.0560 -0.2845  0.3031
 7681SOL    HW134679   1.674   0.216   4.709  2.5441  1.1115  0.3558
 7681SOL    HW234680   1.639   0.103   4.791  0.5241 -0.7372  0.7578
 7682SOL     OW34681   2.696   3.828   7.078  0.7811  0.3373  0.1607
 7682SOL    HW134682   2.734   3.823   7.166  3.1099  0.6647 -0.8052
 7682SOL    HW234683   2.627   3.893   7.093 -0.7584 -1.1828 -0.4239
 7683SOL     OW34684   3.855   0.517   8.810 -0.8530 -0.2545  0.1482
 7683SOL    HW134685   3.945   0.486   8.804 -1.0481 -1.5113  3.9413
 7683SOL    HW234686   3.833   0.504   8.902 -2.6185 -0.6392 -0.3259
 7684SOL     OW34687   4.531   4.619  13.108  0.2952 -0.7429  0.1085
 7684SOL    HW134688   4.478   4.584  13.036 -0.5516  0.2092  0.2742
 7684SOL    HW234689   4.463   4.660  13.161  1.4610 -0.2062  1.1918
 7685SOL     OW34690   4.704   4.016   2.220  0.1325  0.2792  0.4465
 7685SOL    HW134691   0.057   4.051   2.219  0.8921 -1.7086 -1.9385
 7685SOL    HW234692   4.720   3.922   2.213  0.9193  0.6708 -3.1181
 7686SOL     OW34693   0.005   2.238   3.564 -0.1497 -0.1774  0.5843
 7686SOL    HW134694   0.035   2.166   3.508 -0.3461  0.8778 -0.8537
 7686SOL    HW234695   4.693   2.190   3.631 -0.2735  0.2462  0.7930
 7687SOL     OW34696   3.401   4.566   3.934 -0.5070 -0.3472 -0.0451
 7687SOL    HW134697   3.314   4.599   3.954 -0.5964  0.0486 -1.0845
 7687SOL    HW234698   3.440   4.652   3.921  1.8932 -1.5355 -0.7342
 7688SOL     OW34699   2.026   0.747   9.269  0.3877 -0.0232 -0.0245
 7688SOL    HW134700   1.974   0.673   9.237  1.9511 -0.9191 -0.5111
 7688SOL    HW234701   2.081   0.770   9.194 -1.7773  1.1994 -1.2325
 7689SOL     OW34702   2.655   3.053  12.647 -0.2435  0.8423  0.2417
 7689SOL    HW134703   2.677   3.145  12.662 -0.0749  1.0436 -1.2692
 7689SOL    HW234704   2.740   3.024  12.681 -0.9696 -0.5440  0.8807
 7690SOL     OW34705   0.395   2.910   2.566 -0.2694  0.3587 -0.5207
 7690SOL    HW134706   0.379   3.004   2.557 -1.9336 -0.0283 -1.5612
 7690SOL    HW234707   0.310   2.896   2.608 -1.3544 -1.8005 -3.4187
 7691SOL     OW34708   2.338   3.120  12.124 -0.1220 -0.3048 -0.1548
 7691SOL    HW134709   2.293   3.161  12.199  1.6660  0.2957  0.5998
 7691SOL    HW234710   2.425   3.108  12.162 -0.2075 -1.5985 -0.3845
 7692SOL     OW34711   3.941   4.069  14.759 -0.3531 -0.9441 -0.5736
 7692SOL    HW134712   3.858   4.111  14.784 -0.1591 -0.4903 -0.6971
 7692SOL    HW234713   4.002   4.072  14.833 -0.4743 -1.5376 -0.4435
 7693SOL     OW34714   3.887   1.425   5.043  0.1041  0.4670 -0.3005
 7693SOL    HW134715   3.791   1.418   5.043  0.0799  0.7926 -0.5067
 7693SOL    HW234716   3.899   1.478   5.122  4.5628  0.2640 -0.8642
 7694SOL     OW34717   4.164   3.913  17.507  0.2333 -0.4297 -0.1268
 7694SOL    HW134718   4.254   3.883  17.495  0.6863  0.5450  0.8041
 7694SOL    HW234719   4.109   3.845  17.547  0.6851  0.7985  2.5840
 7695SOL     OW34720   1.378   1.127   2.732  0.1766  0.0025  0.2143
 7695SOL    HW134721   1.293   1.137   2.688 -0.2665 -2.0213  0.6272
 7695SOL    HW234722   1.398   1.213   2.770  0.8053 -0.2772  0.5131
 7696SOL     OW34723   1.432   0.294   1.869  0.5066 -0.3817  0.3604
 7696SOL    HW134724   1.526   0.298   1.884  0.3173 -1.5004  1.8087
 7696SOL    HW234725   1.414   0.373   1.920 -1.2516 -0.9091  0.5444
 7697SOL     OW34726   0.169   4.499   6.007  0.1689  0.0762  0.2992
 7697SOL    HW134727   0.259   4.503   5.974 -0.4518  0.7360 -1.3320
 7697SOL    HW234728   0.189   4.517   6.099  1.0316  1.4651 -0.1588
 7698SOL     OW34729   0.618   0.182   5.054  0.2145  0.5880  0.2593
 7698SOL    HW134730   0.655   0.257   5.102 -1.9765  0.9704  1.3414
 7698SOL    HW234731   0.655   0.104   5.095 -1.6665  0.8609  2.4848
 7699SOL     OW34732   1.243   3.682   3.714 -0.2892 -0.2315  0.0411
 7699SOL    HW134733   1.201   3.767   3.732  1.0342  0.3618  0.3370
 7699SOL    HW234734   1.337   3.696   3.714 -0.2611 -0.3785 -1.9622
 7700SOL     OW34735   0.207   2.757   5.430  0.0244 -0.0873 -0.3288
 7700SOL    HW134736   0.203   2.662   5.437  1.3119  0.0377  2.2759
 7700SOL    HW234737   0.235   2.768   5.339 -1.0373  1.9805 -0.3965
 7701SOL     OW34738   1.321   1.793   3.689  0.2577 -0.1538  0.1556
 7701SOL    HW134739   1.316   1.878   3.646 -2.3912 -0.5000 -0.2417
 7701SOL    HW234740   1.414   1.794   3.711 -0.0073 -2.3607  1.4111
 7702SOL     OW34741   4.599   0.748   7.566  0.0474 -0.2622 -0.2529
 7702SOL    HW134742   4.555   0.669   7.598 -1.5042 -0.0046 -1.7663
 7702SOL    HW234743   4.625   0.788   7.649  0.1419 -1.2111  0.1760
 7703SOL     OW34744   2.650   2.536   9.499  0.0204  0.3419  0.1366
 7703SOL    HW134745   2.732   2.524   9.452 -0.8797 -2.3830 -0.6871
 7703SOL    HW234746   2.686   2.574   9.580  0.6183  0.2537 -0.0906
 7704SOL     OW34747   2.303   2.919  15.218 -0.4122 -0.2217  0.3756
 7704SOL    HW134748   2.348   2.931  15.301 -0.6204  2.3731  0.1121
 7704SOL    HW234749   2.367   2.878  15.159 -0.5096 -2.0502  1.5306
 7705SOL     OW34750   2.999   1.049   8.560 -0.0147  0.0600 -0.4813
 7705SOL    HW134751   2.967   1.062   8.649  3.2170 -2.0052  0.9834
 7705SOL    HW234752   2.979   1.136   8.526 -0.1176  0.0770 -0.3732
 7706SOL     OW34753   2.711   2.585   7.867 -0.2738 -0.2622 -0.5792
 7706SOL    HW134754   2.702   2.532   7.946  2.1914  0.2412  0.0586
 7706SOL    HW234755   2.781   2.534   7.827  0.5098 -1.4733  2.2738
 7707SOL     OW34756   2.754   0.880   2.532 -0.4058 -0.5763 -0.3023
 7707SOL    HW134757   2.830   0.858   2.478  0.2104  0.6168  0.0715
 7707SOL    HW234758   2.788   0.964   2.562 -1.3088  0.2106 -1.4625
 7708SOL     OW34759   2.504   0.862   6.213  0.3835 -0.5776 -0.2185
 7708SOL    HW134760   2.512   0.808   6.291  0.3350 -1.4012 -0.7777
 7708SOL    HW234761   2.544   0.946   6.231  0.0200 -0.3504 -0.4639
 7709SOL     OW34762   2.492   3.948  17.018  0.0975 -0.0693 -0.2909
 7709SOL    HW134763   2.474   3.941  16.925  1.5063 -0.7719 -0.4971
 7709SOL    HW234764   2.405   3.972  17.051 -0.7285  0.4993 -2.8975
 7710SOL     OW34765   3.035   3.159   5.442  0.3941 -0.3763  1.0185
 7710SOL    HW134766   3.059   3.188   5.530 -0.0952  0.7324  0.7870
 7710SOL    HW234767   2.977   3.085   5.457 -1.5857  0.7685 -0.9962
 7711SOL     OW34768   0.057   1.918  17.192  0.6886 -0.0527  0.4609
 7711SOL    HW134769   0.110   1.855  17.241 -0.5977 -1.0964  0.5201
 7711SOL    HW234770   0.002   1.954  17.261 -0.5940 -0.2549 -0.4588
 7712SOL     OW34771   1.882   2.825   8.757  0.2354 -0.2756  0.2088
 7712SOL    HW134772   1.917   2.896   8.703 -0.2339  0.3801  0.7546
 7712SOL    HW234773   1.812   2.794   8.700  0.0131  0.2291  0.2040
 7713SOL     OW34774   1.513   4.044  15.076  0.2464 -0.1016 -0.0353
 7713SOL    HW134775   1.583   4.059  15.139 -0.6437  3.3617  0.1019
 7713SOL    HW234776   1.443   3.998  15.123  2.3139 -1.8670  1.2929
 7714SOL     OW34777   1.191   2.251   1.689 -0.1779  0.5167 -0.3234
 7714SOL    HW134778   1.261   2.280   1.630 -1.4143  0.2045 -1.9343
 7714SOL    HW234779   1.243   2.184   1.734  0.2069  1.1347  0.1486
 7715SOL     OW34780   2.585   1.170   2.361 -0.5471  0.3274 -0.0377
 7715SOL    HW134781   2.664   1.146   2.314  0.3445  1.1481  1.0627
 7715SOL    HW234782   2.618   1.186   2.449  0.6797  1.4088 -0.6933
 7716SOL     OW34783   2.676   1.971   0.779 -0.2305  0.1407  0.0214
 7716SOL    HW134784   2.745   2.027   0.816  0.3530  1.1617 -2.5982
 7716SOL    HW234785   2.603   2.022   0.815  0.4418  1.3936 -0.3901
 7717SOL     OW34786   4.322   1.640   4.511 -0.4942 -0.5974 -0.1934
 7717SOL    HW134787   4.241   1.615   4.555 -1.2418 -0.0256 -1.2423
 7717SOL    HW234788   4.291   1.693   4.438 -0.6253  0.6314  0.7453
 7718SOL     OW34789   2.077   2.769   7.488  0.1105  0.0911  0.3350
 7718SOL    HW134790   2.117   2.835   7.430 -0.5336 -0.1676 -0.4083
 7718SOL    HW234791   2.084   2.696   7.426 -0.8940  0.3644 -0.1034
 7719SOL     OW34792   4.417   3.091   5.309  0.2235 -0.7379 -0.2202
 7719SOL    HW134793   4.392   3.022   5.247 -0.6057 -0.7773  0.1631
 7719SOL    HW234794   4.330   3.098   5.348  0.7335 -0.6980  0.9061
 7720SOL     OW34795   0.090   0.117   1.109  0.8448 -0.2809 -1.2176
 7720SOL    HW134796   0.081   0.196   1.163  0.2736  0.1040 -1.8839
 7720SOL    HW234797   0.003   0.105   1.072  0.8705 -2.7189 -0.4739
 7721SOL     OW34798   3.001   3.957   6.894 -0.3344 -0.4271 -0.0895
 7721SOL    HW134799   2.931   3.911   6.848  0.6268 -0.6709 -1.3186
 7721SOL    HW234800   3.001   3.911   6.977 -3.3251 -1.0536 -0.4626
 7722SOL     OW34801   4.689   3.735   4.674  0.6326  0.3594 -0.3435
 7722SOL    HW134802   4.735   3.653   4.658 -0.6572 -0.3705 -0.2947
 7722SOL    HW234803   0.029   3.794   4.681  0.3371  1.0053 -2.7195
 7723SOL     OW34804   4.267   3.923   5.707  0.3660  0.9839  0.7529
 7723SOL    HW134805   4.305   3.996   5.659  1.3533 -0.3347 -0.4744
 7723SOL    HW234806   4.281   3.849   5.647  2.7781  1.0388  1.2459
 7724SOL     OW34807   0.290   4.626   5.543  0.2583  0.0836  0.1201
 7724SOL    HW134808   0.291   4.667   5.457  0.6136 -0.5061 -0.1564
 7724SOL    HW234809   0.364   4.676   5.579  0.3360  0.0454  0.0135
 7725SOL     OW34810   4.506   2.529  12.885  0.1820 -0.2209  0.7041
 7725SOL    HW134811   4.600   2.507  12.885  0.2150 -0.1244 -2.4499
 7725SOL    HW234812   4.471   2.472  12.953  0.8276  0.9813  2.0342
 7726SOL     OW34813   3.990   0.125  15.284  0.1475  0.0981  0.0167
 7726SOL    HW134814   3.981   0.105  15.191 -1.3763  1.9960 -0.2550
 7726SOL    HW234815   3.918   0.185  15.302 -0.7981 -0.7486 -1.0181
 7727SOL     OW34816   0.764   1.690   4.838 -0.2961  0.1990  0.1306
 7727SOL    HW134817   0.741   1.598   4.830  0.2034 -0.1307  2.7982
 7727SOL    HW234818   0.819   1.703   4.760 -2.2260 -0.2536 -1.3186
 7728SOL     OW34819   4.013   4.297   5.415  0.3994 -0.0069  0.8014
 7728SOL    HW134820   3.945   4.229   5.410 -0.2475  0.7923 -1.3286
 7728SOL    HW234821   4.076   4.247   5.364 -0.8031 -0.6717 -0.0340
 7729SOL     OW34822   1.172   0.792   3.024 -0.7665  0.3549  0.1057
 7729SOL    HW134823   1.141   0.882   3.037 -2.5839 -0.2982  0.3263
 7729SOL    HW234824   1.266   0.809   3.024 -0.7041  0.0501  0.9254
 7730SOL     OW34825   1.810   0.857   4.581  0.3884 -0.4645 -0.0298
 7730SOL    HW134826   1.882   0.857   4.644  0.3375  3.6233  0.0410
 7730SOL    HW234827   1.859   0.832   4.503 -2.2816 -2.5131 -1.0390
 7731SOL     OW34828   2.100   0.058   7.770  0.3831 -0.3255 -0.1172
 7731SOL    HW134829   2.041   4.722   7.794 -0.9304  1.2758  1.4676
 7731SOL    HW234830   2.125   0.096   7.854  0.5428  0.7188 -0.6440
 7732SOL     OW34831   2.942   0.303   7.778  0.3325 -0.5377  0.3720
 7732SOL    HW134832   2.942   0.335   7.688  0.2620  4.1687  2.0281
 7732SOL    HW234833   2.945   0.386   7.827 -0.7444  0.9033 -1.9816
 7733SOL     OW34834   0.742   1.392  16.929  0.0322 -0.4394 -0.1031
 7733SOL    HW134835   0.802   1.333  16.882  1.1256  0.4067  0.2310
 7733SOL    HW234836   0.802   1.439  16.986  1.1690 -2.5151  0.4307
 7734SOL     OW34837   1.218   2.453   9.268 -0.1158  0.0665  0.1259
 7734SOL    HW134838   1.265   2.475   9.188 -0.3645  0.2874  0.0420
 7734SOL    HW234839   1.286   2.473   9.332  2.5298 -3.2160 -1.6222
 7735SOL     OW34840   2.893   3.109  12.174 -0.5156 -0.1445 -0.5266
 7735SOL    HW134841   2.980   3.130  12.209  0.2564 -4.4884  0.1883
 7735SOL    HW234842   2.862   3.189  12.130  1.2410  0.2508 -1.0597
 7736SOL     OW34843   1.141   1.496  11.670 -0.0839 -0.4825  0.0719
 7736SOL    HW134844   1.053   1.522  11.699  0.3491  0.7566  0.2737
 7736SOL    HW234845   1.171   1.424  11.725  1.1127 -0.2239 -0.2486
 7737SOL     OW34846   1.538   2.955   6.660  0.2584 -0.0383  0.4655
 7737SOL    HW134847   1.490   2.872   6.663  1.6395 -0.8969 -1.0504
 7737SOL    HW234848   1.481   3.018   6.703 -1.4680 -0.6898 -0.8830
 7738SOL     OW34849   1.913   0.050   4.203  0.3157  0.2032 -0.3964
 7738SOL    HW134850   1.938   0.055   4.110  0.9715 -1.2059 -0.2917
 7738SOL    HW234851   1.819   0.064   4.199  0.6413  2.8172  1.0856
 7739SOL     OW34852   3.235   2.619  13.943 -0.1721 -0.1328 -0.3154
 7739SOL    HW134853   3.250   2.553  13.876  0.1791 -0.2484 -0.1240
 7739SOL    HW234854   3.320   2.664  13.937 -0.5528  0.7630  0.8676
 7740SOL     OW34855   4.053   3.835  13.977 -0.2729  0.1293 -0.1273
 7740SOL    HW134856   4.011   3.790  14.050 -0.4487 -1.0817 -0.9858
 7740SOL    HW234857   3.994   3.911  13.973  0.3251  0.5926 -0.1173
 7741SOL     OW34858   0.305   1.886   5.395  0.5307 -0.2916  0.0779
 7741SOL    HW134859   0.353   1.966   5.375 -0.7956  0.4652 -0.0419
 7741SOL    HW234860   0.334   1.866   5.484  1.6705  1.1270  0.0239
 7742SOL     OW34861   0.191   3.243   5.613 -0.3815 -0.0695 -0.0306
 7742SOL    HW134862   0.193   3.153   5.579 -0.6881  0.9548 -2.6889
 7742SOL    HW234863   0.229   3.236   5.701  2.4154  1.1142 -1.1496
 7743SOL     OW34864   1.225   0.204   3.587  0.0770 -0.0454  1.0234
 7743SOL    HW134865   1.254   0.291   3.615 -1.5940  1.0200 -0.5749
 7743SOL    HW234866   1.164   0.231   3.518 -2.2595 -1.7874  2.3927
 7744SOL     OW34867   3.364   0.408   2.278 -0.1260  0.1333 -0.4893
 7744SOL    HW134868   3.428   0.450   2.335  0.1459 -1.4632  0.3547
 7744SOL    HW234869   3.413   0.414   2.196  0.1863  0.1586 -0.2983
 7745SOL     OW34870   2.973   4.559   7.050  0.5553  0.2509 -0.3615
 7745SOL    HW134871   3.016   4.533   6.969 -0.1192  0.7501 -0.8780
 7745SOL    HW234872   2.896   4.605   7.015  0.7602 -0.6852 -2.0112
 7746SOL     OW34873   3.465   3.226  16.827  0.0139  0.1353 -0.1246
 7746SOL    HW134874   3.536   3.170  16.859 -1.0543 -2.6364 -2.5487
 7746SOL    HW234875   3.504   3.269  16.751 -1.4215  1.0672 -0.3294
 7747SOL     OW34876   2.820   4.156   6.013  0.2902 -0.1459  0.1734
 7747SOL    HW134877   2.834   4.062   6.028 -0.4968 -0.6935 -2.5607
 7747SOL    HW234878   2.862   4.169   5.928  0.4324 -1.3360  0.0545
 7748SOL     OW34879   4.072   3.604  15.304 -0.1092 -0.0917  0.3094
 7748SOL    HW134880   4.118   3.618  15.221 -2.4798  0.7402 -0.8841
 7748SOL    HW234881   4.038   3.690  15.331  3.5754  1.9501 -1.5543
 7749SOL     OW34882   1.185   2.501   4.668 -0.4924 -0.5066  0.7689
 7749SOL    HW134883   1.236   2.451   4.731 -0.9123 -3.6177 -1.3557
 7749SOL    HW234884   1.125   2.548   4.725  0.4677 -0.5439  1.8006
 7750SOL     OW34885   4.147   2.683  13.888 -0.5134  0.5141  0.0031
 7750SOL    HW134886   4.165   2.622  13.959  1.9291  1.8258  0.5223
 7750SOL    HW234887   4.054   2.668  13.870 -0.6458  1.5787 -0.2007
 7751SOL     OW34888   2.326   1.773  17.716 -0.2304  0.0624 -0.0007
 7751SOL    HW134889   2.343   1.861   0.008  1.2124 -1.1979  2.5938
 7751SOL    HW234890   2.416   1.748  17.694 -0.1773 -0.3122  0.6341
 7752SOL     OW34891   1.465   1.357   6.601 -0.1044  0.3421  0.2533
 7752SOL    HW134892   1.534   1.412   6.566 -0.4658 -0.0209 -1.0427
 7752SOL    HW234893   1.491   1.330   6.689 -1.2105 -0.6210  0.2829
 7753SOL     OW34894   3.296   0.048  15.399  0.6120 -1.0496 -0.1165
 7753SOL    HW134895   3.381   0.084  15.372  0.5630 -1.2290 -0.5110
 7753SOL    HW234896   3.327   4.717  15.460  0.1753 -0.3795  0.8368
 7754SOL     OW34897   0.449   2.404   4.506  0.1554 -0.4945  0.3220
 7754SOL    HW134898   0.506   2.328   4.509  1.0309  0.1319 -0.4534
 7754SOL    HW234899   0.514   2.466   4.472 -2.8586  2.2187 -0.5065
 7755SOL     OW34900   3.364   0.516   5.357  0.2036 -0.1902 -0.5352
 7755SOL    HW134901   3.297   0.535   5.422  0.0191  3.6975 -1.8609
 7755SOL    HW234902   3.417   0.595   5.366 -1.1406  0.9827 -2.8820
 7756SOL     OW34903   1.229   0.157   2.217  0.0354 -0.3927  0.2619
 7756SOL    HW134904   1.267   0.240   2.187 -2.3848  0.8789  0.7786
 7756SOL    HW234905   1.311   0.127   2.258  0.3293 -0.8360 -0.6294
 7757SOL     OW34906   4.433   2.329  15.110 -0.1286 -0.3702 -0.0198
 7757SOL    HW134907   4.499   2.397  15.126  0.1858 -0.7454  0.2546
 7757SOL    HW234908   4.371   2.382  15.060  0.0583 -0.1794 -0.0527
 7758SOL     OW34909   2.049   2.546  12.112  0.5969 -0.2918  0.7330
 7758SOL    HW134910   2.072   2.627  12.066 -2.8112  1.1360  1.5120
 7758SOL    HW234911   2.101   2.486  12.060 -1.1265 -1.4837  0.3818
 7759SOL     OW34912   0.445   4.648  13.587 -0.4746 -0.5902  0.0877
 7759SOL    HW134913   0.454   4.553  13.579  0.5371 -0.3646 -1.4928
 7759SOL    HW234914   0.364   4.657  13.536 -1.0971  1.1679  1.3867
 7760SOL     OW34915   1.842   1.532   8.980 -0.4209  0.3028 -0.2381
 7760SOL    HW134916   1.821   1.458   9.038 -0.3378  1.2506  1.0151
 7760SOL    HW234917   1.850   1.601   9.046 -3.0132  0.7074 -0.3400
 7761SOL     OW34918   4.184   0.420   8.714 -0.3486  0.6507 -0.0839
 7761SOL    HW134919   4.137   0.419   8.798 -0.9436 -1.3337 -0.4295
 7761SOL    HW234920   4.134   0.356   8.663 -0.4098  0.4615  0.2128
 7762SOL     OW34921   4.302   0.355   9.429 -0.0546  0.1268  0.5413
 7762SOL    HW134922   4.310   0.284   9.492  0.5284  0.4304  0.8066
 7762SOL    HW234923   4.307   0.431   9.486 -0.4988 -0.1635  0.9608
 7763SOL     OW34924   1.781   1.526  10.676 -0.6709  0.0421  0.7904
 7763SOL    HW134925   1.800   1.575  10.756 -1.9208  1.0119  0.4841
 7763SOL    HW234926   1.752   1.597  10.619 -2.9009 -1.9195 -0.5421
 7764SOL     OW34927   2.205   2.818   1.329 -0.3310  0.3226  0.2661
 7764SOL    HW134928   2.155   2.757   1.275 -0.8905  1.2769 -0.3057
 7764SOL    HW234929   2.192   2.780   1.416 -2.0068 -0.5727 -0.3788
 7765SOL     OW34930   0.046   1.821   4.616 -0.1760 -0.0860  0.0601
 7765SOL    HW134931   0.121   1.862   4.573  0.3857 -0.9818  0.1934
 7765SOL    HW234932   0.086   1.793   4.699 -0.4284 -0.8305 -0.0704
 7766SOL     OW34933   3.909   3.155   1.458  0.1105  0.2778 -0.3164
 7766SOL    HW134934   3.922   3.189   1.547  0.9736 -3.4622  0.9681
 7766SOL    HW234935   3.942   3.224   1.401  0.1236 -0.3931 -1.1092
 7767SOL     OW34936   4.305   3.569   1.548  0.0525 -0.6361  0.0930
 7767SOL    HW134937   4.233   3.512   1.519  1.1166 -0.7633 -2.3224
 7767SOL    HW234938   4.378   3.539   1.495 -0.1437 -2.6266  0.9441
 7768SOL     OW34939   2.328   1.069  10.721  0.0178 -0.1361 -0.1785
 7768SOL    HW134940   2.274   1.145  10.740  0.2654  0.5876 -2.4062
 7768SOL    HW234941   2.278   1.006  10.669  1.4233 -0.5921 -0.9835
 7769SOL     OW34942   4.503   2.655   2.762 -0.3539  0.1221  0.7748
 7769SOL    HW134943   4.420   2.673   2.806 -0.4073  0.2266  0.6290
 7769SOL    HW234944   4.518   2.560   2.770 -2.2144 -0.4108 -2.1288
 7770SOL     OW34945   2.514   0.661   9.454 -0.5025 -0.4054  0.8048
 7770SOL    HW134946   2.519   0.585   9.513 -0.5618 -1.4952 -0.5928
 7770SOL    HW234947   2.604   0.663   9.422 -0.9469 -0.4832 -0.4573
 7771SOL     OW34948   1.551   1.723   5.721 -0.4935  0.5973  0.6388
 7771SOL    HW134949   1.496   1.646   5.738  0.6297 -0.5492 -1.0297
 7771SOL    HW234950   1.627   1.716   5.779  0.1368 -0.0428 -0.2902
 7772SOL     OW34951   2.737   3.923  13.020 -0.3222 -0.4426 -0.0872
 7772SOL    HW134952   2.670   3.890  12.960 -0.0379 -0.0540 -0.6212
 7772SOL    HW234953   2.815   3.887  12.979  0.8699 -1.4473  3.0827
 7773SOL     OW34954   1.867   3.694  14.503 -0.2477 -0.5209  0.3998
 7773SOL    HW134955   1.793   3.648  14.462 -1.4755  3.6059 -2.0188
 7773SOL    HW234956   1.937   3.645  14.460 -1.0827 -0.7388 -0.7195
 7774SOL     OW34957   3.895   0.941   5.069  0.1320 -0.0108 -0.1034
 7774SOL    HW134958   3.845   0.936   5.150  1.4257 -0.4702  0.6559
 7774SOL    HW234959   3.836   0.923   4.995  1.3696 -2.0278 -0.6111
 7775SOL     OW34960   2.808   0.043   6.162  0.6363  0.9550 -0.5211
 7775SOL    HW134961   2.854   0.048   6.246 -0.4522 -0.1733  0.1433
 7775SOL    HW234962   2.874   0.085   6.107  1.6163  0.5353  0.3389
 7776SOL     OW34963   1.428   2.955   3.471  0.3295  0.3286  0.5524
 7776SOL    HW134964   1.369   2.990   3.537 -0.0809 -2.8493  1.8425
 7776SOL    HW234965   1.503   3.015   3.474 -1.0238  1.9749  1.3034
 7777SOL     OW34966   1.371   0.265   2.898 -0.1593 -0.0096 -0.0347
 7777SOL    HW134967   1.420   0.339   2.933  0.7566 -0.8280  0.4182
 7777SOL    HW234968   1.328   0.235   2.978 -0.6094  0.1585 -0.2172
 7778SOL     OW34969   3.633   0.256   8.804 -0.0589 -0.5749 -0.1984
 7778SOL    HW134970   3.695   0.218   8.742 -1.2316 -0.4692 -1.4398
 7778SOL    HW234971   3.693   0.261   8.878  0.4435  2.5931 -0.8493
 7779SOL     OW34972   2.680   4.306   3.723  0.6284  0.4870 -0.1768
 7779SOL    HW134973   2.626   4.382   3.746 -0.4086 -0.5765  0.9203
 7779SOL    HW234974   2.761   4.352   3.703  1.0030 -1.1996 -2.6038
 7780SOL     OW34975   3.456   0.851   7.062  0.2914  0.9143 -0.2419
 7780SOL    HW134976   3.552   0.848   7.057  0.3001  1.4820 -0.5293
 7780SOL    HW234977   3.431   0.832   7.152  0.3639 -1.5857 -0.7537
 7781SOL     OW34978   2.768   0.699  11.736 -0.1627  0.6233  0.1161
 7781SOL    HW134979   2.802   0.620  11.694 -0.9352 -0.7376  2.0341
 7781SOL    HW234980   2.770   0.761  11.663 -2.7368 -2.8834 -2.9263
 7782SOL     OW34981   0.676   4.082   5.702 -0.9117  0.1378  0.7830
 7782SOL    HW134982   0.676   4.068   5.608  0.3196  1.1149  0.6388
 7782SOL    HW234983   0.734   4.011   5.731 -0.9240  0.5095  1.7459
 7783SOL     OW34984   1.390   1.943   5.689  0.4653 -0.6114  0.3781
 7783SOL    HW134985   1.430   2.029   5.700  1.0766 -0.6744 -1.4066
 7783SOL    HW234986   1.464   1.882   5.695  0.7118 -0.5196 -1.9301
 7784SOL     OW34987   1.679   0.503   1.343 -0.1998  0.0472  0.0094
 7784SOL    HW134988   1.656   0.520   1.434 -0.5914  1.5912 -0.3693
 7784SOL    HW234989   1.595   0.512   1.298 -0.2355 -1.2356 -0.1898
 7785SOL     OW34990   4.407   2.406  13.102  0.0112  0.3255  0.8494
 7785SOL    HW134991   4.458   2.363  13.170 -1.4752  0.3865  1.9943
 7785SOL    HW234992   4.374   2.326  13.061 -3.0044  2.2239 -0.4822
 7786SOL     OW34993   4.281   1.067   2.928  0.2810 -0.1977 -0.4527
 7786SOL    HW134994   4.188   1.044   2.934  0.7418 -1.9332  0.1052
 7786SOL    HW234995   4.283   1.144   2.985 -0.8379 -0.2236 -0.3871
 7787SOL     OW34996   4.304   2.416   9.142  0.4850  0.0139  0.4389
 7787SOL    HW134997   4.246   2.343   9.166 -0.1351 -0.0407 -1.2203
 7787SOL    HW234998   4.355   2.438   9.221  0.9597  1.6623 -0.3308
 7788SOL     OW34999   2.001   4.465  13.494 -0.1906 -0.8884 -1.1928
 7788SOL    HW135000   1.957   4.389  13.455 -2.1186 -0.2485 -0.3021
 7788SOL    HW235001   1.988   4.448  13.588  1.3875  0.1099 -0.8054
 7789SOL     OW35002   4.360   2.239  13.543 -0.3484  0.5821  0.2569
 7789SOL    HW135003   4.310   2.223  13.463 -1.1425 -0.8417  1.0510
 7789SOL    HW235004   4.376   2.148  13.565  1.3816  0.3631 -1.8885
 7790SOL     OW35005   0.181   1.228  12.902 -0.0682 -1.0008 -0.6524
 7790SOL    HW135006   0.273   1.209  12.919 -0.1879 -1.0273 -0.0223
 7790SOL    HW235007   0.166   1.286  12.977  0.2547 -0.8096 -0.7330
 7791SOL     OW35008   2.790   0.060  16.757 -0.2567  0.2842  0.2171
 7791SOL    HW135009   2.733   0.079  16.683 -1.1180 -1.5257  0.4185
 7791SOL    HW235010   2.791   0.143  16.804  1.8992 -0.1933  0.9892
 7792SOL     OW35011   3.418   2.441  16.405  0.0851 -0.4467  0.9800
 7792SOL    HW135012   3.334   2.486  16.403  1.5862  2.2448 -0.7224
 7792SOL    HW235013   3.478   2.502  16.362 -1.2120 -0.0038 -0.2145
 7793SOL     OW35014   0.683   0.913   7.833  0.4506 -0.0001 -0.3987
 7793SOL    HW135015   0.672   1.004   7.807  0.7773 -0.0888 -0.8344
 7793SOL    HW235016   0.624   0.921   7.908  0.6552 -0.5997 -0.1694
 7794SOL     OW35017   3.052   0.653   3.009 -0.1723  0.6803  0.7128
 7794SOL    HW135018   2.963   0.688   3.003 -0.5368 -0.4390 -0.3040
 7794SOL    HW235019   3.047   0.557   3.002  1.2173  0.6340  0.2967
 7795SOL     OW35020   3.208   2.886   5.477 -0.2348 -0.1928  0.4040
 7795SOL    HW135021   3.267   2.817   5.446 -1.0448 -0.3588 -0.7581
 7795SOL    HW235022   3.141   2.882   5.409 -2.0105  0.1631  2.1139
 7796SOL     OW35023   1.462   4.657   1.266  0.1677  0.1321 -0.3664
 7796SOL    HW135024   1.553   4.644   1.293  0.5482  1.0411 -1.2246
 7796SOL    HW235025   1.450   4.599   1.190 -3.2990 -1.1033  1.1258
 7797SOL     OW35026   1.711   0.577  10.146  0.2434 -0.8001 -0.4383
 7797SOL    HW135027   1.729   0.653  10.091 -0.9856 -2.0522 -2.5783
 7797SOL    HW235028   1.761   0.597  10.226 -2.4989  2.0239  0.5742
 7798SOL     OW35029   2.591   2.068   2.182  0.1409 -0.6770  0.0562
 7798SOL    HW135030   2.619   2.066   2.091  0.0415  0.9211 -0.0222
 7798SOL    HW235031   2.625   2.148   2.224 -2.0073 -0.5257  1.5041
 7799SOL     OW35032   3.127   2.670  12.157  0.0954 -0.3335 -0.0094
 7799SOL    HW135033   3.201   2.666  12.097  0.6701 -0.1504  0.6830
 7799SOL    HW235034   3.100   2.579  12.170 -2.4124  0.0278 -2.7372
 7800SOL     OW35035   0.186   3.716   3.029 -0.1757  0.2680  1.0228
 7800SOL    HW135036   0.116   3.684   2.973  1.4712  0.2053 -0.9971
 7800SOL    HW235037   0.242   3.638   3.029 -1.0082 -0.3209 -0.0534
 7801SOL     OW35038   2.092   0.346   9.050 -0.6554  0.2099  0.0677
 7801SOL    HW135039   2.187   0.355   9.056 -0.6907  0.7982 -0.3215
 7801SOL    HW235040   2.081   0.265   9.101  0.7104  0.6744  1.0946
 7802SOL     OW35041   1.268   0.732   7.802 -0.7540 -0.1745  0.2230
 7802SOL    HW135042   1.187   0.687   7.778 -1.6780  0.4385  2.2670
 7802SOL    HW235043   1.304   0.671   7.866 -2.3217 -0.8857  0.4391
 7803SOL     OW35044   3.771   2.940   9.628  0.0834 -0.2279  0.4483
 7803SOL    HW135045   3.711   2.871   9.656 -1.3045  1.6192  2.0748
 7803SOL    HW235046   3.718   3.017   9.607 -0.2695 -0.1463  1.6353
 7804SOL     OW35047   2.046   2.988  10.771 -0.4758  0.3455 -0.1954
 7804SOL    HW135048   2.123   3.041  10.755 -1.5723  2.3262  1.1396
 7804SOL    HW235049   2.029   3.012  10.862 -1.2971  3.1457 -1.0871
 7805SOL     OW35050   2.116   0.491   1.173  0.0771 -0.2620  0.2728
 7805SOL    HW135051   2.167   0.572   1.166  1.1709 -0.9472  0.1731
 7805SOL    HW235052   2.055   0.518   1.241 -0.7608  1.6126 -1.2368
 7806SOL     OW35053   0.996   4.631   7.457 -0.9334 -0.0281 -0.0851
 7806SOL    HW135054   0.930   4.656   7.521 -0.8776 -1.5849  0.5853
 7806SOL    HW235055   1.033   4.552   7.497 -2.2715  1.3012  3.7295
 7807SOL     OW35056   0.149   4.190  16.684  0.2843 -0.4029  0.0380
 7807SOL    HW135057   0.054   4.185  16.686  0.3290 -1.6545 -0.6304
 7807SOL    HW235058   0.170   4.096  16.678  0.2854 -0.4871  1.2791
 7808SOL     OW35059   0.744   1.066   4.742  0.4985 -0.1732 -0.1172
 7808SOL    HW135060   0.697   1.125   4.683  0.1909 -0.4148 -0.1096
 7808SOL    HW235061   0.704   0.984   4.713 -0.1791 -0.4466  1.5771
 7809SOL     OW35062   4.307   4.567  11.836  0.1325 -0.7401 -0.1160
 7809SOL    HW135063   4.349   4.628  11.896 -0.7776 -0.8360  0.6130
 7809SOL    HW235064   4.277   4.504  11.901 -2.0138  0.4017 -0.0103
 7810SOL     OW35065   3.789   3.186   7.882  0.0879  0.4642 -0.1796
 7810SOL    HW135066   3.857   3.252   7.890  1.3955 -0.9060  0.0174
 7810SOL    HW235067   3.721   3.246   7.850  0.6453  1.3482  0.3007
 7811SOL     OW35068   3.796   2.527   6.519 -0.7345 -0.5680 -0.4007
 7811SOL    HW135069   3.725   2.581   6.483  0.8910  1.8654  0.0692
 7811SOL    HW235070   3.769   2.534   6.610  1.2302  0.3402  0.1086
 7812SOL     OW35071   0.127   1.384   3.494 -0.3276  0.0572  0.2342
 7812SOL    HW135072   0.106   1.411   3.405  0.1021  0.3464  0.2176
 7812SOL    HW235073   0.207   1.434   3.510 -0.1345  0.3879 -1.7340
 7813SOL     OW35074   3.107   2.369  13.995  0.7267  0.0452  0.0090
 7813SOL    HW135075   3.084   2.374  13.902 -2.1732  1.1094  0.7919
 7813SOL    HW235076   3.100   2.463  14.014  0.8385  0.4503 -1.9103
 7814SOL     OW35077   3.714   0.493  13.563  0.3363  0.2121  0.5011
 7814SOL    HW135078   3.668   0.456  13.488  3.3447  1.2277 -1.8544
 7814SOL    HW235079   3.698   0.427  13.630  1.2046  0.0694  0.5757
 7815SOL     OW35080   3.980   3.938   3.923  0.4693 -0.1401 -0.1229
 7815SOL    HW135081   4.002   4.021   3.965  0.8869 -0.4764  0.3284
 7815SOL    HW235082   3.934   3.898   3.997 -0.5662  1.5708  0.1494
 7816SOL     OW35083   4.046   3.661   7.218 -0.2613 -0.6749  0.1543
 7816SOL    HW135084   4.006   3.740   7.182  1.7743 -0.1852 -1.0186
 7816SOL    HW235085   3.967   3.619   7.254  0.2971 -1.7048  0.1889
 7817SOL     OW35086   2.387   3.299   3.370 -0.3286  0.4275  0.3999
 7817SOL    HW135087   2.341   3.315   3.452 -0.6647  0.3106  0.2323
 7817SOL    HW235088   2.476   3.280   3.402 -0.4035 -0.9778 -0.2067
 7818SOL     OW35089   2.129   4.310   9.116 -0.7622 -0.1787 -0.1438
 7818SOL    HW135090   2.127   4.227   9.070  2.1508 -0.0838 -0.4375
 7818SOL    HW235091   2.207   4.291   9.168 -1.7466 -0.1267  1.3570
 7819SOL     OW35092   3.274   2.156   8.134  0.1469  0.0930  0.3704
 7819SOL    HW135093   3.296   2.067   8.160 -3.0445 -0.7298  0.1914
 7819SOL    HW235094   3.285   2.154   8.039  0.1053 -3.2476  0.4201
 7820SOL     OW35095   2.909   0.548   8.350  0.5654  0.0293 -0.2750
 7820SOL    HW135096   2.908   0.458   8.384 -0.1853  0.6533  1.3813
 7820SOL    HW235097   2.898   0.597   8.432 -0.2491  0.4697 -0.6562
 7821SOL     OW35098   0.255   1.521  13.265 -0.2362 -0.0987 -0.1337
 7821SOL    HW135099   0.184   1.482  13.213  0.1158 -0.7450 -0.1274
 7821SOL    HW235100   0.338   1.486  13.232  0.2537  1.2698 -0.3361
 7822SOL     OW35101   0.367   0.165   2.209 -0.4889 -0.5098 -0.6939
 7822SOL    HW135102   0.424   0.240   2.228 -2.1466  0.9029 -1.2711
 7822SOL    HW235103   0.364   0.129   2.298 -0.9335 -2.8967 -1.6851
 7823SOL     OW35104   0.184   3.575   5.690  0.8184 -0.1772  0.3825
 7823SOL    HW135105   0.115   3.523   5.730  0.7395  0.5424  1.1806
 7823SOL    HW235106   0.176   3.537   5.603  1.0085 -1.2584  0.8350
 7824SOL     OW35107   0.855   1.380   3.261 -0.0792  0.0755 -0.3082
 7824SOL    HW135108   0.869   1.474   3.264 -1.1843  0.2559 -1.0358
 7824SOL    HW235109   0.776   1.381   3.206  0.2324  0.3801 -0.7480
 7825SOL     OW35110   3.570   4.618   8.415  0.7177  0.6042  0.2216
 7825SOL    HW135111   3.522   4.686   8.463 -1.9743 -3.1813  2.9164
 7825SOL    HW235112   3.507   4.587   8.350  1.6201 -1.2932  0.2592
 7826SOL     OW35113   2.344   0.261   0.662 -0.1917  0.2056 -0.0251
 7826SOL    HW135114   2.396   0.217   0.594 -0.9302 -1.6345  0.5856
 7826SOL    HW235115   2.387   0.345   0.647 -2.5378  1.7610  2.2246
 7827SOL     OW35116   4.171   3.362   0.046 -0.6624  0.2392  0.1974
 7827SOL    HW135117   4.084   3.324   0.036  0.2384 -2.2914  2.0444
 7827SOL    HW235118   4.162   3.428   0.114  2.2639 -1.0245  1.8036
 7828SOL     OW35119   4.414   1.084   5.875  0.3511 -0.3348  0.4454
 7828SOL    HW135120   4.505   1.057   5.862  1.2821  2.2664  1.6414
 7828SOL    HW235121   4.368   1.003   5.852  1.6625 -1.6369  2.3796
 7829SOL     OW35122   3.902   3.660   4.037  0.6707 -0.4890 -0.0177
 7829SOL    HW135123   3.899   3.612   3.954 -1.4467  0.5896 -0.5495
 7829SOL    HW235124   3.819   3.706   4.045  0.6433 -0.4537 -0.5465
 7830SOL     OW35125   1.329   2.469   5.231  0.2626 -0.4236  0.0368
 7830SOL    HW135126   1.291   2.556   5.224  1.3100  0.1325  1.3022
 7830SOL    HW235127   1.321   2.440   5.140  1.0465 -1.5199  0.3133
 7831SOL     OW35128   0.317   3.732   3.343 -0.4980  0.4925  0.3942
 7831SOL    HW135129   0.395   3.753   3.292  1.0796 -1.8411  1.8435
 7831SOL    HW235130   0.257   3.719   3.269  1.2663 -0.3881 -0.8994
 7832SOL     OW35131   1.241   4.059   0.679  0.1581  0.1959 -0.8400
 7832SOL    HW135132   1.231   4.044   0.774  1.2752  1.1276 -0.5808
 7832SOL    HW235133   1.290   4.140   0.690  0.1938  0.5434 -3.7948
 7833SOL     OW35134   4.491   1.081   8.860 -0.6784 -0.2714  0.3334
 7833SOL    HW135135   4.459   1.000   8.898 -1.1419 -0.9215 -1.4205
 7833SOL    HW235136   4.543   1.048   8.787  0.3263  1.4715  0.2631
 7834SOL     OW35137   1.547   0.076   0.936 -0.0432 -0.3799  0.2553
 7834SOL    HW135138   1.594   0.043   0.860  0.5389 -0.6086  0.7124
 7834SOL    HW235139   1.522   0.002   0.991  3.1235  0.0200  2.3075
 7835SOL     OW35140   1.801   3.791   3.666 -0.2611  0.2814 -0.0816
 7835SOL    HW135141   1.871   3.783   3.601 -1.1561  0.4246 -1.0525
 7835SOL    HW235142   1.731   3.821   3.608 -0.1327 -1.7469 -1.2800
 7836SOL     OW35143   3.622   1.785   7.073  0.1764  0.8342  0.3029
 7836SOL    HW135144   3.649   1.701   7.034 -1.6674  1.0054 -1.3484
 7836SOL    HW235145   3.620   1.837   6.993 -3.1126  0.0228 -0.1315
 7837SOL     OW35146   3.691   0.167   4.797  0.3713  0.1064 -0.2935
 7837SOL    HW135147   3.684   0.182   4.703  2.0170 -0.7047 -0.5393
 7837SOL    HW235148   3.669   0.254   4.832 -0.9782  0.5794 -2.3042
 7838SOL     OW35149   1.316   4.596   0.759 -0.1955 -0.5039 -0.3965
 7838SOL    HW135150   1.221   4.592   0.753 -0.0388 -2.9874 -1.5788
 7838SOL    HW235151   1.336   4.677   0.712  4.3953 -0.4943  1.5636
 7839SOL     OW35152   3.563   3.521   6.396 -0.1016 -0.2694  0.0687
 7839SOL    HW135153   3.650   3.503   6.361 -0.4625 -2.9472  0.5603
 7839SOL    HW235154   3.516   3.456   6.343 -1.0328  0.9548 -0.6029
 7840SOL     OW35155   1.014   4.060   2.134  0.1729 -0.5635 -0.1869
 7840SOL    HW135156   1.024   4.156   2.135  0.6775 -0.6100 -1.1358
 7840SOL    HW235157   0.950   4.041   2.202 -1.0949 -1.4898 -1.6553
 7841SOL     OW35158   3.299   1.059  14.819 -0.3096  0.1541  0.1077
 7841SOL    HW135159   3.226   1.081  14.762  0.7876  1.5770 -0.7534
 7841SOL    HW235160   3.373   1.044  14.760  0.1444  0.7822  0.5132
 7842SOL     OW35161   1.169   4.639   5.797 -0.0156  0.4639 -0.2762
 7842SOL    HW135162   1.209   4.705   5.853  0.9875 -0.1315 -0.2903
 7842SOL    HW235163   1.158   4.572   5.865  0.1466 -0.7742 -1.4501
 7843SOL     OW35164   1.471   0.610   2.348  0.1698  0.2143  0.5900
 7843SOL    HW135165   1.523   0.690   2.345  0.7714 -0.2086 -0.1680
 7843SOL    HW235166   1.519   0.553   2.408  0.4294  0.6989  0.8386
 7844SOL     OW35167   4.378   1.763   8.510  0.0421  0.5774  0.3999
 7844SOL    HW135168   4.406   1.804   8.593  1.8351 -0.0749  0.1230
 7844SOL    HW235169   4.285   1.744   8.521  0.5137 -2.3807 -1.0126
 7845SOL     OW35170   4.088   2.099   0.199 -0.4039 -0.3981  0.3869
 7845SOL    HW135171   4.148   2.055   0.139  0.1608  1.1504 -0.1674
 7845SOL    HW235172   4.021   2.029   0.200  0.5091 -1.3028 -1.5473
 7846SOL     OW35173   3.044   4.114  10.608  0.0815  0.5839 -0.7396
 7846SOL    HW135174   2.958   4.144  10.580 -0.8408 -0.6762  0.6878
 7846SOL    HW235175   3.027   4.084  10.698 -3.5843 -0.4094 -1.7531
 7847SOL     OW35176   2.846   3.958   9.324 -0.4936 -0.3384  0.2492
 7847SOL    HW135177   2.857   4.020   9.397  5.4952 -0.3021 -0.6902
 7847SOL    HW235178   2.878   4.028   9.266 -2.0735 -1.7755 -2.3614
 7848SOL     OW35179   1.967   4.033  12.389 -0.4273 -0.0522 -0.0142
 7848SOL    HW135180   2.044   3.982  12.415  0.5488  0.3499 -2.1205
 7848SOL    HW235181   1.943   3.988  12.308 -1.4471 -0.3819  0.4658
 7849SOL     OW35182   3.418   3.406   9.400  0.3259  0.0364  0.1397
 7849SOL    HW135183   3.491   3.458   9.366 -1.5785  2.7183  0.1828
 7849SOL    HW235184   3.418   3.436   9.491  2.7158  0.6047 -0.0447
 7850SOL     OW35185   2.603   2.539  12.432  0.3542  0.3996  0.2175
 7850SOL    HW135186   2.583   2.613  12.489 -1.7291 -0.1215  0.1534
 7850SOL    HW235187   2.699   2.531  12.441  0.1937 -0.0876  1.5480
 7851SOL     OW35188   3.901   0.412  14.463  0.1909 -0.0027  0.5085
 7851SOL    HW135189   3.891   0.354  14.388 -0.8548 -1.2803  1.6296
 7851SOL    HW235190   3.945   0.490  14.429  1.2525 -0.6959  0.3154
 7852SOL     OW35191   3.170   1.394   7.886  0.0057  0.2751  0.2149
 7852SOL    HW135192   3.228   1.397   7.961  0.6538  2.1903 -0.3652
 7852SOL    HW235193   3.100   1.347   7.931  0.2662 -0.7357 -0.4451
 7853SOL     OW35194   3.718   4.256   6.862  0.0246  0.4736  0.1039
 7853SOL    HW135195   3.724   4.212   6.947 -0.3902  0.7156  0.2607
 7853SOL    HW235196   3.690   4.345   6.882  0.6169  0.7283 -0.2065
 7854SOL     OW35197   1.008   2.862  16.514  0.4572 -0.4586  0.0037
 7854SOL    HW135198   0.968   2.840  16.430  1.0029 -4.7046  0.8946
 7854SOL    HW235199   1.019   2.780  16.562  2.8897  0.2741  0.7112
 7855SOL     OW35200   4.484   0.204   2.930  0.4425 -0.0973 -0.3845
 7855SOL    HW135201   4.507   0.210   2.838 -2.7810 -1.4548 -1.2880
 7855SOL    HW235202   4.548   0.263   2.970  0.3799 -1.1949  1.3519
 7856SOL     OW35203   2.517   0.743   0.833 -0.3957 -0.3951  0.3904
 7856SOL    HW135204   2.465   0.708   0.905 -0.3039  1.1362  1.2008
 7856SOL    HW235205   2.605   0.708   0.847  0.5278  1.9901  0.6545
 7857SOL     OW35206   0.491   3.175   2.988 -0.0542  0.1832 -0.2652
 7857SOL    HW135207   0.500   3.096   3.043 -1.1214  1.4430  1.7317
 7857SOL    HW235208   0.417   3.211   3.037 -1.2433 -0.0563 -1.8788
 7858SOL     OW35209   1.726   3.135   9.492  0.1005 -0.1840  0.0501
 7858SOL    HW135210   1.744   3.188   9.569  4.8153 -1.0018 -0.4656
 7858SOL    HW235211   1.770   3.053   9.514  0.7061 -0.5202 -2.3609
 7859SOL     OW35212   3.761   1.924   6.296 -0.0302  0.6169 -0.3760
 7859SOL    HW135213   3.822   1.889   6.231 -0.7504 -1.5279  0.0765
 7859SOL    HW235214   3.702   1.849   6.309 -0.0546  1.3050  3.5890
 7860SOL     OW35215   3.993   3.306   2.878  0.0907  0.2725 -0.1474
 7860SOL    HW135216   4.087   3.321   2.870 -0.1542  0.0891 -3.2982
 7860SOL    HW235217   3.992   3.231   2.937 -1.4977 -1.3948 -2.2683
 7861SOL     OW35218   1.826   0.593   8.546 -0.4805 -0.2590 -0.1654
 7861SOL    HW135219   1.835   0.498   8.558  2.7152  0.1388  0.6457
 7861SOL    HW235220   1.751   0.609   8.489  1.5667  0.9107 -2.5276
 7862SOL     OW35221   0.793   4.295  17.098  0.5343 -0.1956 -0.0801
 7862SOL    HW135222   0.825   4.380  17.067 -4.3582  1.8435  0.4785
 7862SOL    HW235223   0.699   4.308  17.113  0.6909  0.0710  0.6747
 7863SOL     OW35224   2.733   3.264   2.687  0.3558  0.0729 -0.5690
 7863SOL    HW135225   2.766   3.268   2.598  0.4291  2.0071 -0.4638
 7863SOL    HW235226   2.788   3.194   2.720 -2.4213 -2.5332 -1.4370
 7864SOL     OW35227   2.233   2.108   4.179  0.1389 -0.3039  0.8667
 7864SOL    HW135228   2.281   2.112   4.262  2.9208 -2.7691 -0.6031
 7864SOL    HW235229   2.181   2.029   4.195  1.1032 -0.4438  3.4098
 7865SOL     OW35230   1.314   1.078   3.020 -0.0848  0.4321 -0.4064
 7865SOL    HW135231   1.359   0.995   3.036  1.1928  1.0954 -0.6100
 7865SOL    HW235232   1.323   1.082   2.925  0.0752  0.2253 -0.3999
 7866SOL     OW35233   3.468   2.973   4.009 -0.2063 -0.1032  0.0583
 7866SOL    HW135234   3.375   2.988   3.993 -1.0162 -3.3358  1.7858
 7866SOL    HW235235   3.498   2.992   3.920 -1.4176  2.1143  0.1170
 7867SOL     OW35236   0.390   1.030   4.917 -0.0411  0.2742  0.1320
 7867SOL    HW135237   0.363   0.942   4.941 -1.0103  1.4155  3.2388
 7867SOL    HW235238   0.372   1.091   4.989 -0.6785 -2.2727  2.1249
 7868SOL     OW35239   1.251   0.870  17.487 -0.5532  0.1485  0.3463
 7868SOL    HW135240   1.328   0.837  17.535 -1.3164 -1.0903  0.7233
 7868SOL    HW235241   1.225   0.942  17.544 -1.1804 -0.6343  1.0467
 7869SOL     OW35242   2.803   3.891  12.097  0.5423  0.3417  0.1379
 7869SOL    HW135243   2.896   3.873  12.085 -0.0989 -2.5604 -0.3970
 7869SOL    HW235244   2.790   3.926  12.009 -0.1660  1.9588  0.8674
 7870SOL     OW35245   4.460   0.253  12.873  0.2132  0.0742  0.0353
 7870SOL    HW135246   4.424   0.286  12.955 -0.3895  1.8742 -0.9304
 7870SOL    HW235247   4.537   0.206  12.902 -0.6249 -1.2661  0.0906
 7871SOL     OW35248   3.070   3.077   9.429 -0.0957  0.4730 -0.1964
 7871SOL    HW135249   3.110   3.072   9.342 -0.5524  0.3710 -0.4022
 7871SOL    HW235250   3.020   2.995   9.431  0.6255  0.0022 -1.2520
 7872SOL     OW35251   0.882   2.537   5.503 -0.4629 -0.0310 -0.4561
 7872SOL    HW135252   0.893   2.452   5.545 -1.1797 -0.1511 -0.5097
 7872SOL    HW235253   0.838   2.510   5.422  0.6841  0.9845 -1.4092
 7873SOL     OW35254   2.365   2.866   2.284 -0.4376 -0.1218 -0.5899
 7873SOL    HW135255   2.373   2.889   2.376 -1.8587  0.2840 -0.5778
 7873SOL    HW235256   2.271   2.855   2.273 -0.0139 -3.6761 -0.8128
 7874SOL     OW35257   1.564   4.335   2.424  0.1493 -0.1402 -0.1693
 7874SOL    HW135258   1.564   4.430   2.439  0.4772  0.2106 -2.3089
 7874SOL    HW235259   1.605   4.336   2.337  2.7966  3.1045  1.0907
 7875SOL     OW35260   4.486   1.459  13.522  0.0939 -0.1162  0.3793
 7875SOL    HW135261   4.527   1.375  13.543 -0.1500 -0.1728  0.6402
 7875SOL    HW235262   4.439   1.436  13.442  0.2921 -3.3788  1.2293
 7876SOL     OW35263   3.072   4.536   1.298  0.2885 -0.3784  0.0632
 7876SOL    HW135264   3.015   4.556   1.372  1.8066  0.4175  1.0310
 7876SOL    HW235265   3.047   4.602   1.234  1.8579 -0.3161 -0.4805
 7877SOL     OW35266   0.485   4.411  12.535  0.6744  0.3068 -0.5039
 7877SOL    HW135267   0.415   4.435  12.474  0.4377  2.1135  0.5016
 7877SOL    HW235268   0.439   4.343  12.585 -1.5692  2.3397  0.1598
 7878SOL     OW35269   1.256   3.811  16.843 -0.5171  1.0014 -0.1301
 7878SOL    HW135270   1.279   3.814  16.750  0.6974 -1.7398  0.0794
 7878SOL    HW235271   1.191   3.881  16.846 -0.7381  0.9279 -3.2262
 7879SOL     OW35272   2.535   1.061  16.221 -0.2575 -0.2024 -0.0545
 7879SOL    HW135273   2.560   1.112  16.298  0.8854  0.8820 -1.1406
 7879SOL    HW235274   2.608   1.070  16.160  0.9800  1.3805  1.6540
 7880SOL     OW35275   3.875   1.330  12.651 -0.1263  0.2706  0.2994
 7880SOL    HW135276   3.835   1.349  12.736  0.3165 -1.1846  0.8404
 7880SOL    HW235277   3.822   1.261  12.610 -0.5504  0.9794 -0.3437
 7881SOL     OW35278   0.047   3.739   5.418 -0.1490  0.4388 -0.0667
 7881SOL    HW135279   0.142   3.754   5.416 -0.2388  1.1040  0.7620
 7881SOL    HW235280   0.035   3.650   5.385 -1.6388  1.2169 -1.6652
 7882SOL     OW35281   1.639   1.233   2.626  0.0568  0.1896 -0.5604
 7882SOL    HW135282   1.684   1.318   2.627  1.4976 -0.5660 -1.4883
 7882SOL    HW235283   1.547   1.260   2.626  0.2607  0.8687 -2.4466
 7883SOL     OW35284   2.916   2.359   2.041 -0.6529  0.3388 -0.3301
 7883SOL    HW135285   2.865   2.382   2.118  0.3204 -2.9140  1.2753
 7883SOL    HW235286   2.951   2.448   2.040  0.8291 -0.2313  0.1621
 7884SOL     OW35287   0.996   4.139  11.901 -0.3883  0.0336 -0.0519
 7884SOL    HW135288   0.910   4.136  11.943  0.7664  2.0225  2.4970
 7884SOL    HW235289   1.053   4.132  11.978  0.1093 -2.1772 -0.6387
 7885SOL     OW35290   1.762   3.942   7.062 -0.0012 -0.3497 -0.0013
 7885SOL    HW135291   1.716   3.953   6.979 -0.7684 -1.1723  0.3285
 7885SOL    HW235292   1.760   4.033   7.093 -1.3741  0.2299 -1.8034
 7886SOL     OW35293   4.247   3.312   2.841  0.0911 -0.5311 -0.1524
 7886SOL    HW135294   4.262   3.380   2.906  2.9367 -0.6525 -0.6833
 7886SOL    HW235295   4.329   3.324   2.792 -0.0849 -0.2499 -0.3782
 7887SOL     OW35296   2.359   3.695   5.525 -0.1446  0.4007 -0.1727
 7887SOL    HW135297   2.363   3.641   5.446 -0.9575  1.1360 -0.7127
 7887SOL    HW235298   2.366   3.785   5.493  0.1776  0.8493  1.1425
 7888SOL     OW35299   0.785   4.732   0.249  0.7645 -0.2089 -0.0184
 7888SOL    HW135300   0.731   4.724   0.171 -1.3635 -2.0131  1.6468
 7888SOL    HW235301   0.714   0.023   0.306 -0.4830 -0.9666 -1.2096
 7889SOL     OW35302   2.611   1.801  14.365  0.1189  0.0256  0.4253
 7889SOL    HW135303   2.524   1.763  14.367  0.1109  0.0374  0.2690
 7889SOL    HW235304   2.641   1.787  14.455 -1.0685 -0.2103  0.7804
 7890SOL     OW35305   0.864   2.974   2.219 -0.4597 -0.6871  0.0993
 7890SOL    HW135306   0.803   3.009   2.285 -0.2981 -0.7654  0.2915
 7890SOL    HW235307   0.893   3.060   2.190 -1.2849  0.3228  2.2664
 7891SOL     OW35308   1.006   2.725   9.884  0.0286  0.3302 -0.1346
 7891SOL    HW135309   1.088   2.676   9.876 -0.8350 -1.5292  2.2844
 7891SOL    HW235310   1.004   2.769   9.800 -2.2898  1.3935  0.4672
 7892SOL     OW35311   0.786   1.864  11.740 -0.2695  0.3224  0.8922
 7892SOL    HW135312   0.815   1.939  11.791 -1.4836  1.7668 -0.5499
 7892SOL    HW235313   0.761   1.800  11.807  0.1952 -0.4969  0.2908
 7893SOL     OW35314   3.410   4.300   8.356 -0.0528 -0.2717  0.0432
 7893SOL    HW135315   3.488   4.263   8.397 -0.4327  0.0305  1.0313
 7893SOL    HW235316   3.394   4.229   8.294 -0.6146 -1.3950  1.4654
 7894SOL     OW35317   3.803   0.881  14.653  0.0839 -0.2539  0.3322
 7894SOL    HW135318   3.735   0.814  14.664  1.0088 -0.9406  1.9331
 7894SOL    HW235319   3.883   0.830  14.669  0.9819  0.6755 -1.2138
 7895SOL     OW35320   3.648   0.637  15.792 -0.3569  0.4256  0.7231
 7895SOL    HW135321   3.635   0.732  15.793  1.9099  0.7394  1.0534
 7895SOL    HW235322   3.580   0.621  15.858 -0.9851  0.6244  0.1214
 7896SOL     OW35323   0.744   0.262   8.189  0.6586  0.4034  0.4551
 7896SOL    HW135324   0.715   0.310   8.112  4.5190  0.3710 -1.0243
 7896SOL    HW235325   0.834   0.293   8.196  0.7117  0.1955  0.6692
 7897SOL     OW35326   0.616   4.430  10.519 -0.5131 -0.3158 -0.3069
 7897SOL    HW135327   0.589   4.418  10.428  0.5177 -0.3659 -0.6077
 7897SOL    HW235328   0.645   4.344  10.551  0.8587 -0.1204 -1.0024
 7898SOL     OW35329   2.971   0.987  11.492  0.7053 -0.8632  0.4603
 7898SOL    HW135330   3.030   0.912  11.483  1.5457 -0.3925  2.1417
 7898SOL    HW235331   2.890   0.942  11.515 -0.4854  1.2096  0.3669
 7899SOL     OW35332   0.044   4.535  13.617 -0.7148 -1.0781 -0.5309
 7899SOL    HW135333   0.120   4.482  13.590 -1.0716 -1.8587 -0.0172
 7899SOL    HW235334   0.021   4.588  13.541  1.3848  1.9618  0.9572
 7900SOL     OW35335   3.817   4.482   7.397  0.3588 -0.3620 -0.0595
 7900SOL    HW135336   3.749   4.532   7.442  0.1087 -0.1430 -0.6864
 7900SOL    HW235337   3.893   4.491   7.455 -0.6269  0.0283  1.1539
 7901SOL     OW35338   1.914   4.309   7.035 -0.2696  0.4803 -0.1766
 7901SOL    HW135339   1.932   4.402   7.038 -1.3333  0.6757  0.3111
 7901SOL    HW235340   1.942   4.291   7.125  0.6349 -0.8507 -0.7198
 7902SOL     OW35341   2.919   1.854  11.294  0.9001 -0.2918 -0.6257
 7902SOL    HW135342   2.976   1.778  11.280  0.7167 -0.3418 -1.1071
 7902SOL    HW235343   2.876   1.839  11.379  4.7803 -1.2394  1.1839
 7903SOL     OW35344   0.509   4.031  16.703 -0.1422 -0.4471 -0.0932
 7903SOL    HW135345   0.598   4.007  16.680 -0.4974 -0.7621 -1.1469
 7903SOL    HW235346   0.462   4.000  16.626  1.1584  1.1828 -1.5341
 7904SOL     OW35347   0.760   3.573   4.891 -0.2592 -0.3099 -0.4649
 7904SOL    HW135348   0.716   3.491   4.915  0.2933 -1.2683 -2.7296
 7904SOL    HW235349   0.850   3.550   4.916 -0.2972 -1.1747 -1.1040
 7905SOL     OW35350   2.042   3.961   8.210  0.2434  0.3880 -0.3217
 7905SOL    HW135351   2.032   3.994   8.120 -0.5448 -1.7613 -1.0154
 7905SOL    HW235352   2.003   4.030   8.264  0.3518 -1.4937  2.1779
 7906SOL     OW35353   3.695   4.369   6.254 -0.3155  0.6217  0.2749
 7906SOL    HW135354   3.691   4.441   6.192  0.0498 -1.7236 -2.4772
 7906SOL    HW235355   3.738   4.301   6.203 -0.7362 -1.5698  2.8191
 7907SOL     OW35356   4.408   1.254  14.827  0.1123 -0.0441  0.1916
 7907SOL    HW135357   4.484   1.196  14.820 -0.8771 -1.1064 -1.5682
 7907SOL    HW235358   4.437   1.339  14.793 -0.9773 -0.4583 -1.7263
 7908SOL     OW35359   3.457   3.038   6.399 -0.2967 -0.4703 -0.2317
 7908SOL    HW135360   3.364   3.048   6.376 -0.2652  0.6047  0.1248
 7908SOL    HW235361   3.465   3.081   6.484 -1.6430 -2.5927  0.9960
 7909SOL     OW35362   4.393   2.032  15.201  0.4198  0.0058 -0.0233
 7909SOL    HW135363   4.325   2.089  15.166  1.2746 -0.2421 -2.0860
 7909SOL    HW235364   4.349   1.973  15.263 -0.8193 -0.0314 -0.9255
 7910SOL     OW35365   1.775   3.627   7.525 -0.8479 -0.4933  0.1778
 7910SOL    HW135366   1.696   3.681   7.517  0.8557  1.8160 -0.7908
 7910SOL    HW235367   1.786   3.602   7.433  0.5887  0.9307 -0.0322
 7911SOL     OW35368   0.046   3.167   9.572 -0.3262 -0.1758  0.2402
 7911SOL    HW135369   0.085   3.080   9.565  1.6235  0.6975  0.2390
 7911SOL    HW235370   0.091   3.203   9.648  0.3034 -0.2769 -0.0879
 7912SOL     OW35371   1.978   1.845   5.255  0.0812  0.4123 -0.2459
 7912SOL    HW135372   1.963   1.799   5.172  1.5233 -0.4482 -0.0152
 7912SOL    HW235373   1.905   1.807   5.304 -0.9302 -0.6677 -2.6096
 7913SOL     OW35374   3.129   4.016   1.658  0.2921 -0.5466 -0.0699
 7913SOL    HW135375   3.213   4.061   1.645  1.7788 -3.1462  0.4795
 7913SOL    HW235376   3.138   3.937   1.605  0.9025 -0.4751 -0.0733
 7914SOL     OW35377   2.411   1.895   8.059  0.1091 -0.7950 -0.2270
 7914SOL    HW135378   2.444   1.948   7.987  0.7509  1.0814  1.4418
 7914SOL    HW235379   2.491   1.873   8.107  0.1687  0.2454  0.1427
 7915SOL     OW35380   3.469   0.520  11.472 -0.1037  0.2243 -0.6473
 7915SOL    HW135381   3.480   0.438  11.519 -1.5755  1.0385  1.1691
 7915SOL    HW235382   3.541   0.572  11.508  1.4914 -0.9868 -2.1228
 7916SOL     OW35383   3.874   1.600   3.519  0.1544 -0.0847 -0.3998
 7916SOL    HW135384   3.888   1.512   3.554 -1.2837  1.4166  3.9338
 7916SOL    HW235385   3.939   1.599   3.449 -1.8482 -0.1907 -2.2940
 7917SOL     OW35386   4.100   2.730  15.317 -0.4780 -0.4454  0.1960
 7917SOL    HW135387   4.067   2.756  15.403 -0.0247 -1.0847  0.5631
 7917SOL    HW235388   4.190   2.708  15.341 -0.2938 -1.8628 -1.8496
 7918SOL     OW35389   2.223   0.462   8.626 -0.0518 -0.2262  0.3182
 7918SOL    HW135390   2.154   0.414   8.672  0.0601 -0.7036 -0.0111
 7918SOL    HW235391   2.286   0.396   8.597 -0.9574 -0.6340 -0.7167
 7919SOL     OW35392   1.308   0.856   0.883  0.0102 -0.2290 -0.3470
 7919SOL    HW135393   1.254   0.795   0.833  3.0110 -0.3147 -3.4863
 7919SOL    HW235394   1.398   0.833   0.861  0.0219 -0.8820  0.3982
 7920SOL     OW35395   0.270   3.406   4.261  0.3720  0.6478 -0.0958
 7920SOL    HW135396   0.232   3.488   4.230 -1.0148  0.2679  0.5851
 7920SOL    HW235397   0.300   3.362   4.182  1.8819 -0.1897  0.9373
 7921SOL     OW35398   3.407   0.154  10.859  0.4695 -0.5090  0.0550
 7921SOL    HW135399   3.494   0.113  10.864  1.1974  0.9095 -1.1970
 7921SOL    HW235400   3.362   0.087  10.807 -1.2622 -0.6446  1.7231
 7922SOL     OW35401   1.791   1.648   3.754 -0.5808 -0.1786 -0.1764
 7922SOL    HW135402   1.885   1.664   3.750 -0.3975 -0.9958  1.0165
 7922SOL    HW235403   1.770   1.603   3.672  1.6652 -0.5449 -0.5659
 7923SOL     OW35404   0.318   2.434   4.757 -0.2704 -0.1899  0.3089
 7923SOL    HW135405   0.224   2.422   4.747  0.0068  0.3332 -3.1618
 7923SOL    HW235406   0.353   2.444   4.668  1.0767  1.0985  0.9810
 7924SOL     OW35407   1.781   1.290  11.638  0.4796 -0.0021  0.2554
 7924SOL    HW135408   1.719   1.361  11.617  0.0370  0.0502  1.7689
 7924SOL    HW235409   1.721   1.242  11.694 -0.5717  0.3233 -0.5768
 7925SOL     OW35410   1.223   3.100   1.004  0.0802  0.1116  0.4209
 7925SOL    HW135411   1.137   3.074   0.972  0.2321  1.2847 -0.9411
 7925SOL    HW235412   1.238   3.177   0.948  1.2714 -1.5462 -1.5277
 7926SOL     OW35413   4.589   2.206   1.743  0.1702 -0.1806 -0.1954
 7926SOL    HW135414   4.595   2.250   1.659  3.3167  1.2818  0.7948
 7926SOL    HW235415   4.611   2.271   1.810 -1.1339 -0.4540  0.4929
 7927SOL     OW35416   2.095   0.995   6.997 -0.0407  0.0492 -0.4434
 7927SOL    HW135417   2.082   1.086   7.023  0.8582  0.1811 -0.4580
 7927SOL    HW235418   2.005   0.971   6.975 -0.8683  0.5247  2.3996
 7928SOL     OW35419   0.492   3.379   0.414 -0.1844 -0.0027  0.0052
 7928SOL    HW135420   0.530   3.454   0.368  4.4069 -2.2645  0.1047
 7928SOL    HW235421   0.473   3.326   0.337  1.2092  0.5733 -0.7507
 7929SOL     OW35422   0.612   1.601  10.534  0.5003 -0.1083  0.0266
 7929SOL    HW135423   0.621   1.665  10.464  1.0906  0.0030  0.2020
 7929SOL    HW235424   0.517   1.597  10.546  0.2382  2.3241 -1.2222
 7930SOL     OW35425   4.519   3.389   8.212 -0.0854 -0.0292  0.1148
 7930SOL    HW135426   4.488   3.376   8.301  2.0391  0.9331  0.9841
 7930SOL    HW235427   4.499   3.303   8.173  0.5026  1.3372 -3.2680
 7931SOL     OW35428   3.442   4.678   8.938 -0.2353  0.0259  0.3589
 7931SOL    HW135429   3.455   4.699   9.030 -0.4882  2.1328 -0.0979
 7931SOL    HW235430   3.359   4.718   8.911  0.0711 -0.9426 -2.0517
 7932SOL     OW35431   3.450   4.593  15.521 -0.1556  0.6920 -0.5980
 7932SOL    HW135432   3.541   4.583  15.496 -0.6698 -0.5832 -1.9244
 7932SOL    HW235433   3.431   4.502  15.543 -1.5650  1.5485  1.7837
 7933SOL     OW35434   1.344   2.699   3.400 -0.3708 -0.0845 -0.2444
 7933SOL    HW135435   1.365   2.785   3.435  0.2105 -0.9533  1.5540
 7933SOL    HW235436   1.252   2.714   3.375 -0.6361 -1.2817  0.0210
 7934SOL     OW35437   3.597   3.325   5.662  0.0549 -0.2569 -0.2662
 7934SOL    HW135438   3.523   3.367   5.705  1.9843  2.3897  0.4212
 7934SOL    HW235439   3.608   3.266   5.737  0.4608 -0.3829 -0.4256
 7935SOL     OW35440   0.201   0.853   3.859 -0.4798 -0.0028  0.4079
 7935SOL    HW135441   0.156   0.807   3.930 -0.5385 -0.9948 -0.2778
 7935SOL    HW235442   0.288   0.816   3.875  0.0581  1.5366  1.0551
 7936SOL     OW35443   3.223   3.033   7.785 -0.0194 -0.0972  0.2171
 7936SOL    HW135444   3.307   3.037   7.832 -0.2214  1.6818  0.4420
 7936SOL    HW235445   3.196   3.124   7.798 -1.2272 -0.5224  0.6911
 7937SOL     OW35446   0.106   2.891  11.351 -0.0990  0.3418 -0.0068
 7937SOL    HW135447   0.047   2.967  11.345 -2.7376 -1.7271 -0.4696
 7937SOL    HW235448   0.088   2.850  11.435  3.7095  0.3256  0.7710
 7938SOL     OW35449   1.442   1.912   2.245 -0.5742  0.3670 -0.0446
 7938SOL    HW135450   1.494   1.925   2.324 -1.0679 -0.7687  0.4676
 7938SOL    HW235451   1.516   1.914   2.185 -2.6008 -0.4112 -2.5595
 7939SOL     OW35452   0.308   1.058  13.366  0.2343  0.1035  0.4778
 7939SOL    HW135453   0.346   1.010  13.292 -0.2111 -0.7383  0.7986
 7939SOL    HW235454   0.384   1.077  13.421  0.1621  0.3863  0.4788
 7940SOL     OW35455   0.976   2.345   5.171  0.4883 -0.0929  0.1031
 7940SOL    HW135456   0.983   2.330   5.077 -0.3122  0.7409 -0.0949
 7940SOL    HW235457   0.882   2.341   5.188  0.7472 -2.3698  0.9889
 7941SOL     OW35458   4.291   4.035   5.998  0.3531  0.0401 -0.5252
 7941SOL    HW135459   4.377   4.011   6.034  0.9332 -0.6936 -2.3889
 7941SOL    HW235460   4.296   3.986   5.916 -0.9179  0.3766 -0.8014
 7942SOL     OW35461   2.057   2.585   6.807  0.0691 -0.5115 -0.0774
 7942SOL    HW135462   2.139   2.539   6.822  1.0735  0.8930 -1.2364
 7942SOL    HW235463   2.061   2.617   6.717 -1.2536  1.4778  0.5682
 7943SOL     OW35464   4.329   3.373   6.758  0.6683 -0.4068 -0.1147
 7943SOL    HW135465   4.291   3.290   6.788 -0.2192 -0.1655 -0.5593
 7943SOL    HW235466   4.261   3.402   6.697 -0.0293  0.0127  0.8682
 7944SOL     OW35467   1.346   1.736   7.393  0.0098 -0.0845  0.0257
 7944SOL    HW135468   1.299   1.786   7.327  1.0812  0.2045 -0.5301
 7944SOL    HW235469   1.420   1.797   7.397 -1.4148  1.8541 -3.1616
 7945SOL     OW35470   2.590   3.664   7.791  0.0691 -0.2173  0.1591
 7945SOL    HW135471   2.614   3.572   7.776 -1.6190 -0.4235 -1.2458
 7945SOL    HW235472   2.502   3.668   7.753 -0.0009 -0.6237  0.2759
 7946SOL     OW35473   2.343   2.516  14.439  0.2788 -0.0677  0.5309
 7946SOL    HW135474   2.379   2.428  14.424 -2.6823 -1.0199 -1.0463
 7946SOL    HW235475   2.296   2.491  14.519 -0.9394  2.4883  0.5955
 7947SOL     OW35476   1.584   3.625   6.318  0.4622  0.4014  0.0414
 7947SOL    HW135477   1.581   3.681   6.396  2.8673 -1.3462  1.3752
 7947SOL    HW235478   1.599   3.537   6.353 -1.1698 -0.2589 -0.9272
 7948SOL     OW35479   3.760   2.318   6.917  0.2488  0.0495  0.4652
 7948SOL    HW135480   3.678   2.299   6.871 -0.4364  2.6809  0.6113
 7948SOL    HW235481   3.780   2.227   6.937  2.7409  0.0473 -1.9491
 7949SOL     OW35482   4.331   3.530   9.270 -0.2481  0.0621  0.8425
 7949SOL    HW135483   4.243   3.492   9.261  0.8858 -2.3133 -0.0339
 7949SOL    HW235484   4.376   3.468   9.326  1.9762  0.8584 -0.0470
 7950SOL     OW35485   0.509   2.782   2.318 -0.0292  0.1773  0.2907
 7950SOL    HW135486   0.435   2.725   2.296 -0.4465  0.1408  1.7698
 7950SOL    HW235487   0.477   2.828   2.396  0.6872  0.4642  0.4136
 7951SOL     OW35488   2.794   0.617  11.999  0.9744  0.6659 -0.1161
 7951SOL    HW135489   2.755   0.642  11.916 -1.3745 -3.8434 -0.3849
 7951SOL    HW235490   2.861   0.559  11.961  1.0651  0.2100  0.7162
 7952SOL     OW35491   2.059   1.725   3.540  0.1107 -0.2376  0.3535
 7952SOL    HW135492   2.109   1.723   3.622 -1.2837 -1.4139  1.1919
 7952SOL    HW235493   2.120   1.682   3.481  1.8290  0.3209  1.7223
 7953SOL     OW35494   3.057   0.036  16.346  0.0363 -0.0862  0.1237
 7953SOL    HW135495   3.073   0.114  16.399  0.6455 -0.9505  1.1917
 7953SOL    HW235496   3.148   0.022  16.323 -0.8131 -3.4449 -1.1459
 7954SOL     OW35497   1.638   3.396   0.399  0.8186  0.1543 -0.2209
 7954SOL    HW135498   1.700   3.388   0.326  2.0234 -1.0131  0.9407
 7954SOL    HW235499   1.561   3.388   0.342 -0.5273 -1.4916  1.8449
 7955SOL     OW35500   4.370   1.961  13.602 -0.2855  0.1027 -0.2094
 7955SOL    HW135501   4.288   1.955  13.651  0.6264  1.9589  1.5436
 7955SOL    HW235502   4.407   1.879  13.636  1.3063  0.6322 -0.6863
 7956SOL     OW35503   3.417   2.801  11.656  0.1824  0.4386  0.8895
 7956SOL    HW135504   3.436   2.830  11.745  0.5571 -0.6882  1.1785
 7956SOL    HW235505   3.507   2.777  11.635 -0.0192  0.1261  0.3899
 7957SOL     OW35506   3.652   1.894   4.315  0.0250 -0.4380  0.5156
 7957SOL    HW135507   3.611   1.824   4.263  1.5988 -0.7421 -0.3092
 7957SOL    HW235508   3.617   1.971   4.270 -1.7940 -1.7704 -0.3862
 7958SOL     OW35509   4.629   0.212  12.326  0.0844 -0.4099 -0.7464
 7958SOL    HW135510   4.680   0.286  12.294 -2.4845  1.2462 -0.9659
 7958SOL    HW235511   4.629   0.225  12.420 -0.2124  1.5010 -1.0111
 7959SOL     OW35512   2.088   1.719  11.639  0.0502 -0.3514 -0.3478
 7959SOL    HW135513   2.006   1.753  11.675 -0.1440 -1.3597  0.1511
 7959SOL    HW235514   2.119   1.785  11.577 -1.2870 -1.8667 -2.6035
 7960SOL     OW35515   3.659   2.083  12.503  0.2168  0.6402  0.1541
 7960SOL    HW135516   3.704   2.134  12.571 -1.5227  0.9409  1.0778
 7960SOL    HW235517   3.577   2.057  12.544  0.9328 -1.2027  0.3929
 7961SOL     OW35518   2.473   4.566  12.704  0.1751 -0.5575  0.2800
 7961SOL    HW135519   2.559   4.607  12.708 -0.4006  0.8204 -1.3009
 7961SOL    HW235520   2.496   4.483  12.663  1.1947 -1.2055  2.1400
 7962SOL     OW35521   0.402   1.431   4.199  0.4583  0.1550  0.2795
 7962SOL    HW135522   0.486   1.391   4.174 -0.4741 -1.4773 -0.2752
 7962SOL    HW235523   0.435   1.509   4.243  0.4569  0.3098  0.0090
 7963SOL     OW35524   2.348   4.725   3.191 -0.1585 -0.8666  0.5593
 7963SOL    HW135525   2.295   4.660   3.237 -1.5671  0.3214  0.6190
 7963SOL    HW235526   2.409   4.665   3.149 -1.3657 -0.6173 -1.5434
 7964SOL     OW35527   1.236   1.429  10.872 -0.1899 -0.2198  0.0343
 7964SOL    HW135528   1.277   1.392  10.949 -1.3091 -1.7664 -0.1243
 7964SOL    HW235529   1.313   1.442  10.816 -0.0281 -1.0161  0.0781
 7965SOL     OW35530   4.329   1.372  17.284 -0.1368 -0.5578 -0.2519
 7965SOL    HW135531   4.277   1.293  17.266  0.7955 -1.2512  0.0617
 7965SOL    HW235532   4.338   1.418  17.201  1.4785 -0.4650 -0.0401
 7966SOL     OW35533   1.505   1.693   6.097  0.2214  0.0267  0.9723
 7966SOL    HW135534   1.473   1.648   6.019  2.2205  0.0827  0.1497
 7966SOL    HW235535   1.580   1.639   6.119  0.7764  0.6001  0.4664
 7967SOL     OW35536   1.106   0.065   7.271  0.2599  0.2300  0.0631
 7967SOL    HW135537   1.042   0.123   7.228 -1.5699 -2.6978 -1.1556
 7967SOL    HW235538   1.051   4.732   7.309 -0.5487  1.6784  1.5451
 7968SOL     OW35539   2.834   4.225   1.050  0.2119 -0.2234 -0.5613
 7968SOL    HW135540   2.791   4.309   1.064 -0.0918 -0.5641  0.5002
 7968SOL    HW235541   2.761   4.163   1.052  1.9551 -2.3006 -0.5227
 7969SOL     OW35542   3.787   4.727   2.523  0.0312 -0.2039  0.2193
 7969SOL    HW135543   3.772   4.635   2.544  2.1692 -0.6815 -0.3121
 7969SOL    HW235544   3.703   0.014   2.485 -0.1362 -2.8047 -1.0007
 7970SOL     OW35545   2.349   0.730   6.701  0.3669 -0.7010  0.2356
 7970SOL    HW135546   2.335   0.780   6.782 -0.3494 -0.3706 -0.0913
 7970SOL    HW235547   2.359   0.642   6.738 -1.4609 -1.4856 -1.1281
 7971SOL     OW35548   1.440   3.486   4.822  0.2666 -0.1468 -0.1031
 7971SOL    HW135549   1.355   3.530   4.823 -0.1841 -1.0080 -0.7161
 7971SOL    HW235550   1.485   3.549   4.879 -0.2042 -0.3319  0.4759
 7972SOL     OW35551   2.349   1.685   5.430  0.2228  0.0364 -0.0268
 7972SOL    HW135552   2.384   1.606   5.470  0.4644  0.6095  0.8990
 7972SOL    HW235553   2.257   1.660   5.425  0.1902 -0.1460  1.8051
 7973SOL     OW35554   1.861   0.445   4.164 -0.3366 -0.9303  0.7596
 7973SOL    HW135555   1.940   0.411   4.123 -1.2366 -2.1157  0.0162
 7973SOL    HW235556   1.885   0.435   4.257  2.6452  0.5134  0.1417
 7974SOL     OW35557   1.166   2.117   3.792 -0.1626  0.2724 -0.1498
 7974SOL    HW135558   1.158   2.077   3.706  1.8694 -0.4756  0.0177
 7974SOL    HW235559   1.078   2.154   3.800 -1.1079 -2.3430  1.5113
 7975SOL     OW35560   2.789   2.479   3.097  0.0610 -0.2488 -0.1573
 7975SOL    HW135561   2.873   2.504   3.137  0.4031 -0.7040 -0.5858
 7975SOL    HW235562   2.755   2.408   3.152 -0.0932 -1.3845 -1.7334
 7976SOL     OW35563   1.995   0.441   5.053 -0.1216 -0.1567  0.1918
 7976SOL    HW135564   1.948   0.369   5.095 -0.3135 -0.5818 -0.7703
 7976SOL    HW235565   2.008   0.500   5.128  0.0148 -0.5759  0.4985
 7977SOL     OW35566   2.798   0.724   1.486  0.3100  0.4938  0.5156
 7977SOL    HW135567   2.711   0.709   1.449  0.7177 -1.5567  0.4016
 7977SOL    HW235568   2.768   0.752   1.572 -4.1487  1.1421 -1.2866
 7978SOL     OW35569   0.852   3.555   3.975 -0.3567  0.2347 -0.2885
 7978SOL    HW135570   0.805   3.633   3.943 -2.1531 -0.4610  0.6455
 7978SOL    HW235571   0.939   3.594   3.967 -0.4044  0.3199 -0.3987
 7979SOL     OW35572   4.121   0.470   3.450 -0.6928 -0.6675  0.5277
 7979SOL    HW135573   4.163   0.434   3.372 -0.1931 -0.7555  0.8410
 7979SOL    HW235574   4.131   0.565   3.445 -2.0468 -0.5357  0.2410
 7980SOL     OW35575   0.894   1.532   5.320 -0.2860 -0.0710 -0.6430
 7980SOL    HW135576   0.965   1.564   5.264  0.4563  0.6244  0.6910
 7980SOL    HW235577   0.837   1.495   5.252  0.3121 -0.6239 -0.8375
 7981SOL     OW35578   4.653   4.297   7.138 -0.0979  0.1679 -0.3755
 7981SOL    HW135579   4.702   4.217   7.156 -1.9889 -0.3179  2.6453
 7981SOL    HW235580   4.576   4.253   7.101 -0.8306  0.1563  1.1334
 7982SOL     OW35581   2.537   1.341  15.984  0.3453  0.3231 -0.0586
 7982SOL    HW135582   2.517   1.417  16.040  0.2996  0.6707 -0.5438
 7982SOL    HW235583   2.611   1.305  16.034  0.1145 -0.2547 -0.1365
 7983SOL     OW35584   1.140   3.913   3.805  0.3470  0.3662 -0.2518
 7983SOL    HW135585   1.137   4.009   3.808 -2.0904  0.3417 -2.1131
 7983SOL    HW235586   1.078   3.896   3.876 -0.7920  1.3688 -0.9905
 7984SOL     OW35587   3.627   1.659   3.602  0.3192  0.3043 -0.1279
 7984SOL    HW135588   3.697   1.655   3.537  1.1151  0.0079  0.7321
 7984SOL    HW235589   3.567   1.610   3.547  0.5887 -2.1513  1.7200
 7985SOL     OW35590   1.675   3.526  14.361  0.1383  0.8102  0.1422
 7985SOL    HW135591   1.682   3.430  14.360 -2.1390  0.6572 -1.1795
 7985SOL    HW235592   1.676   3.545  14.267  0.4490  0.8405  0.1536
 7986SOL     OW35593   0.436   1.202   3.553 -0.3571 -0.1428  1.3806
 7986SOL    HW135594   0.404   1.292   3.564  0.1107 -0.0059  1.6091
 7986SOL    HW235595   0.527   1.201   3.583 -1.1072 -2.2614  3.5736
 7987SOL     OW35596   3.318   0.093   2.212 -0.4793  0.0646  0.5665
 7987SOL    HW135597   3.277   0.099   2.125  1.8237  1.4360 -0.4106
 7987SOL    HW235598   3.361   0.008   2.202 -0.0883  0.2357  0.8077
 7988SOL     OW35599   4.568   1.749  17.085 -0.3887  0.6279 -0.2110
 7988SOL    HW135600   4.617   1.831  17.095 -0.6661  0.7225  0.3713
 7988SOL    HW235601   4.582   1.692  17.161  1.7757  2.5851  0.8481
 7989SOL     OW35602   2.784   0.009   2.859  0.5660  0.3706 -0.1460
 7989SOL    HW135603   2.769   0.024   2.766  3.3527 -0.6626 -0.7719
 7989SOL    HW235604   2.877   0.027   2.876 -0.1101  0.3264  3.5823
 7990SOL     OW35605   2.310   2.683  13.831  0.6003  0.4083  0.5224
 7990SOL    HW135606   2.252   2.612  13.859  0.6930  0.0217 -0.2681
 7990SOL    HW235607   2.330   2.722  13.917  0.4209 -0.8470  1.1297
 7991SOL     OW35608   0.388   0.130  13.110  0.1620  0.0786 -0.5430
 7991SOL    HW135609   0.432   0.054  13.150  1.2496 -1.0836 -3.9562
 7991SOL    HW235610   0.457   0.196  13.106  0.2048  0.0212 -0.7510
 7992SOL     OW35611   3.988   2.892  17.389 -0.1267 -0.6314 -0.0864
 7992SOL    HW135612   4.073   2.860  17.421 -0.4846  0.4800  1.9658
 7992SOL    HW235613   3.944   2.897  17.473  1.3008 -0.2389  0.6488
 7993SOL     OW35614   1.605   0.643   7.460 -0.8205  0.0387  0.5844
 7993SOL    HW135615   1.607   0.562   7.509  1.2759 -0.3176 -0.0962
 7993SOL    HW235616   1.688   0.682   7.487  0.0030 -1.4693  0.1874
 7994SOL     OW35617   0.854   2.692   9.536  0.3822 -0.2489 -0.2261
 7994SOL    HW135618   0.892   2.646   9.461  1.7635  1.4778 -0.5635
 7994SOL    HW235619   0.841   2.783   9.511 -0.5377 -0.2185  0.3691
 7995SOL     OW35620   3.192   2.664  13.450 -0.0405 -0.0034 -0.3517
 7995SOL    HW135621   3.229   2.659  13.538 -0.1626 -1.5940 -0.3892
 7995SOL    HW235622   3.246   2.737  13.419 -0.9233  1.1758  0.8896
 7996SOL     OW35623   3.684   2.445  12.731 -0.3805 -0.0920  0.2287
 7996SOL    HW135624   3.659   2.421  12.820 -1.9616  0.1453 -0.1549
 7996SOL    HW235625   3.726   2.365  12.697 -0.7331 -0.7189  1.2657
 7997SOL     OW35626   2.090   3.657   2.684  0.0672  0.2735 -0.2700
 7997SOL    HW135627   2.129   3.621   2.763  0.3132 -2.2538 -1.5315
 7997SOL    HW235628   1.999   3.628   2.679 -0.0586  0.9885 -2.3704
 7998SOL     OW35629   4.018   1.226  10.874 -0.1045  0.1549 -0.1601
 7998SOL    HW135630   4.066   1.202  10.953  0.7773  1.7449 -0.2171
 7998SOL    HW235631   4.032   1.150  10.817  2.6870 -1.1794  2.3210
 7999SOL     OW35632   3.379   2.074   4.557 -0.5302 -0.6083  0.2720
 7999SOL    HW135633   3.348   1.997   4.509 -3.0389  0.5247  0.0642
 7999SOL    HW235634   3.354   2.058   4.648 -0.5301  0.6672  0.4942
 8000SOL     OW35635   3.896   4.108   6.437  0.3910  0.2194 -0.1447
 8000SOL    HW135636   3.885   4.015   6.416  0.0368  0.1106  0.5066
 8000SOL    HW235637   3.847   4.109   6.519 -2.2975  3.3034 -1.7772
 8001SOL     OW35638   4.194   0.417   2.193  0.3160  0.2663  0.6007
 8001SOL    HW135639   4.207   0.488   2.130 -3.0680  0.9599  0.7093
 8001SOL    HW235640   4.148   0.470   2.257 -1.6675 -1.9725  1.0261
 8002SOL     OW35641   3.934   4.479   3.828 -0.1262  0.6393 -0.3241
 8002SOL    HW135642   4.004   4.513   3.773  1.2672 -2.0577 -0.2478
 8002SOL    HW235643   3.863   4.541   3.812 -2.0950 -1.5816 -0.1565
 8003SOL     OW35644   4.257   4.355  12.004 -0.1263  0.0726 -0.2021
 8003SOL    HW135645   4.268   4.417  12.076  1.5102 -0.1524 -0.2678
 8003SOL    HW235646   4.191   4.299  12.046  1.0403 -0.2972  1.1311
 8004SOL     OW35647   3.903   4.031   2.580 -0.1522 -0.2224  0.5415
 8004SOL    HW135648   3.961   4.083   2.524  0.1358  0.6076  1.6189
 8004SOL    HW235649   3.839   4.091   2.617  0.8730  1.7665 -0.9202
 8005SOL     OW35650   3.979   2.464  13.011 -0.0548 -0.8233 -0.1895
 8005SOL    HW135651   4.024   2.505  13.085 -2.5972  0.3255  0.7187
 8005SOL    HW235652   3.993   2.536  12.950  3.9013  0.0826  1.7805
 8006SOL     OW35653   1.826   3.401   7.098  0.0974 -0.4137  0.8296
 8006SOL    HW135654   1.752   3.388   7.156 -0.2912  2.0362  0.8918
 8006SOL    HW235655   1.786   3.394   7.011 -0.0835  3.0562  0.6135
 8007SOL     OW35656   1.156   2.907   6.765  0.9171 -0.5733 -0.0115
 8007SOL    HW135657   1.172   2.902   6.859 -0.2865  6.6608  0.5795
 8007SOL    HW235658   1.181   2.999   6.750 -0.5982 -0.3507 -1.1296
 8008SOL     OW35659   1.415   3.485   1.437 -0.2491  0.1411  0.6442
 8008SOL    HW135660   1.503   3.522   1.444  0.1982 -0.6849 -0.6185
 8008SOL    HW235661   1.436   3.392   1.447  0.0287  0.4344  2.9275
 8009SOL     OW35662   4.360   2.896   2.153  0.1284 -0.0543 -0.5316
 8009SOL    HW135663   4.309   2.906   2.234  2.1760 -3.6602  1.2340
 8009SOL    HW235664   4.306   2.929   2.082 -0.4146  0.0886 -0.0477
 8010SOL     OW35665   0.248   1.367   3.976  0.0494  0.7166 -0.4232
 8010SOL    HW135666   0.263   1.277   3.945 -2.3908 -0.2231  1.0425
 8010SOL    HW235667   0.296   1.365   4.059  1.6926 -2.4756 -1.4243
 8011SOL     OW35668   2.870   2.827  11.784 -0.3237  0.2872  0.0837
 8011SOL    HW135669   2.776   2.817  11.767 -0.3407  1.7573 -0.6903
 8011SOL    HW235670   2.873   2.828  11.879 -0.0969  0.4180  0.0759
 8012SOL     OW35671   1.564   2.699   4.630  0.3325 -0.3457  0.2884
 8012SOL    HW135672   1.549   2.780   4.678 -2.2092 -1.3246  1.1214
 8012SOL    HW235673   1.500   2.653   4.684  1.5321  1.6159  3.4138
 8013SOL     OW35674   3.278   4.345   4.615  0.5834  0.3439 -0.4815
 8013SOL    HW135675   3.341   4.386   4.674 -1.0619  2.5199 -0.2407
 8013SOL    HW235676   3.338   4.343   4.540  2.4488  1.9582  0.9727
 8014SOL     OW35677   0.221   1.913   7.231  0.2763  0.1369 -0.0200
 8014SOL    HW135678   0.231   1.944   7.141  0.8239  2.3768  0.8014
 8014SOL    HW235679   0.271   1.832   7.226  0.0407 -0.1009  1.3194
 8015SOL     OW35680   4.590   4.564   7.155  0.2557  0.0551  0.7405
 8015SOL    HW135681   4.506   4.533   7.121 -0.4897 -1.2432  3.7486
 8015SOL    HW235682   4.644   4.486   7.150 -1.5913 -1.2328  0.9460
 8016SOL     OW35683   3.468   4.295   6.703 -0.5125 -0.2808  0.1048
 8016SOL    HW135684   3.555   4.328   6.724 -0.2412 -0.7791 -0.2232
 8016SOL    HW235685   3.483   4.265   6.613  0.7854  1.5470 -0.2788
 8017SOL     OW35686   2.848   2.357   6.740  0.0776 -0.4412 -0.1994
 8017SOL    HW135687   2.840   2.263   6.726  1.2218 -0.6430  0.5325
 8017SOL    HW235688   2.925   2.343   6.794  0.6476  0.5775 -0.7455
 8018SOL     OW35689   2.028   2.619   5.009  0.2294  0.7017 -0.0264
 8018SOL    HW135690   1.934   2.602   5.003  0.6908 -1.1743 -1.9087
 8018SOL    HW235691   2.030   2.657   5.096  0.6308 -0.7326  0.5813
 8019SOL     OW35692   1.347   3.176  16.282  0.6810  0.3882 -0.1724
 8019SOL    HW135693   1.281   3.116  16.317  0.6495  0.7643  0.4277
 8019SOL    HW235694   1.300   3.198  16.202  0.9095  1.7805  0.0613
 8020SOL     OW35695   0.442   4.101   4.073 -0.6164  0.3956 -0.0944
 8020SOL    HW135696   0.507   4.169   4.092  0.4529 -0.0484 -2.1412
 8020SOL    HW235697   0.488   4.029   4.115 -0.0141  0.8083 -0.0441
 8021SOL     OW35698   3.496   1.063   4.123  0.4452  0.2465  0.5355
 8021SOL    HW135699   3.454   1.135   4.170  0.1590  0.4650 -0.0606
 8021SOL    HW235700   3.569   1.118   4.094 -0.6146  1.0737 -0.5452
 8022SOL     OW35701   3.357   2.441   6.298  0.0528  0.0668  0.5472
 8022SOL    HW135702   3.358   2.461   6.205 -0.8365 -0.2958  0.4535
 8022SOL    HW235703   3.394   2.353   6.293  0.3268  0.3614 -2.4299
 8023SOL     OW35704   3.741   3.330  17.472  0.0535  0.2458 -0.0273
 8023SOL    HW135705   3.768   3.263  17.534  2.0698  1.4605  0.4015
 8023SOL    HW235706   3.716   3.273  17.399  0.6519 -2.9310  2.2986
 8024SOL     OW35707   0.981   4.350   2.503  1.1376  0.7803 -0.0716
 8024SOL    HW135708   0.932   4.365   2.422  2.4175  0.4976 -0.9021
 8024SOL    HW235709   0.968   4.436   2.543 -0.2171 -0.8820  2.9818
 8025SOL     OW35710   0.538   1.969   7.001  0.3467  0.0348  0.0159
 8025SOL    HW135711   0.602   1.916   6.954 -2.3849 -3.2492 -0.0153
 8025SOL    HW235712   0.565   2.053   6.966 -0.3718  0.2555 -0.0096
 8026SOL     OW35713   3.787   2.890  15.476  0.2635 -0.8605 -0.2964
 8026SOL    HW135714   3.807   2.962  15.415  0.6921  1.0422  2.1112
 8026SOL    HW235715   3.875   2.860  15.498  1.2883  1.4162 -1.2254
 8027SOL     OW35716   1.624   0.666  11.620 -0.0444  0.0704 -0.0883
 8027SOL    HW135717   1.623   0.573  11.641 -1.1387  0.7364  2.7797
 8027SOL    HW235718   1.539   0.684  11.580  0.0355 -0.9094 -0.7059
 8028SOL     OW35719   1.370   4.546   9.110  0.2175  0.5041  0.2213
 8028SOL    HW135720   1.308   4.617   9.127  0.3439  1.0410 -1.5424
 8028SOL    HW235721   1.305   4.478   9.089  1.1106 -0.6491  1.2009
 8029SOL     OW35722   0.469   0.039   4.228  0.0280 -0.0283 -0.2239
 8029SOL    HW135723   0.409   0.108   4.257 -0.6458 -0.7448  0.0930
 8029SOL    HW235724   0.406   4.717   4.183 -1.6323  0.5512  1.3354
 8030SOL     OW35725   1.377   2.773   5.346  0.3724  0.1940 -0.3701
 8030SOL    HW135726   1.315   2.801   5.278 -0.6870  2.6590  1.6366
 8030SOL    HW235727   1.316   2.730   5.405  0.3926  0.0460 -0.4567
 8031SOL     OW35728   4.193   2.374  11.736  0.5600 -0.1270  0.1490
 8031SOL    HW135729   4.103   2.385  11.769  0.2512 -0.0203 -0.7426
 8031SOL    HW235730   4.239   2.379  11.820 -1.1747  0.3439  1.0806
 8032SOL     OW35731   2.469   1.745  11.918 -0.8208  0.2603  0.2953
 8032SOL    HW135732   2.444   1.835  11.898 -1.2265 -0.4253 -2.4019
 8032SOL    HW235733   2.509   1.767  12.001 -0.8977  1.3964  0.0243
 8033SOL     OW35734   2.947   4.686  10.468  0.8228 -0.1783 -0.1547
 8033SOL    HW135735   2.927   0.024  10.525  0.9106 -0.5699  0.3836
 8033SOL    HW235736   2.891   4.698  10.391  1.6328  1.3031 -0.5170
 8034SOL     OW35737   3.967   2.907   2.864 -0.6383  0.7795  0.0583
 8034SOL    HW135738   3.970   2.973   2.934  1.1306  0.7076  0.0433
 8034SOL    HW235739   4.021   2.950   2.799 -1.5234 -0.3144 -1.3841
 8035SOL     OW35740   3.631   1.911   8.101 -0.6159 -0.2523 -0.5473
 8035SOL    HW135741   3.615   1.997   8.063  0.0851 -1.2371 -3.1424
 8035SOL    HW235742   3.635   1.859   8.020  0.5789  0.0803 -0.7057
 8036SOL     OW35743   1.129   0.353   6.448  0.0022  0.0040  0.0007
 8036SOL    HW135744   1.117   0.270   6.402  2.2071  0.0070 -0.5822
 8036SOL    HW235745   1.046   0.397   6.429 -0.4757  0.3933  3.0215
 8037SOL     OW35746   4.218   0.140  14.207 -0.0946 -0.2983 -0.5701
 8037SOL    HW135747   4.140   0.161  14.258  1.3241  2.4252  0.4683
 8037SOL    HW235748   4.198   0.065  14.150  1.9111 -0.4952 -1.0277
 8038SOL     OW35749   1.178   0.771   6.626  0.6948 -0.1301 -0.5301
 8038SOL    HW135750   1.087   0.764   6.598  0.2204  2.3168  0.4138
 8038SOL    HW235751   1.203   0.842   6.567  1.3119 -0.5936 -0.8307
 8039SOL     OW35752   1.252   1.199   9.375  0.1992  0.3515  0.1858
 8039SOL    HW135753   1.162   1.218   9.399  0.8580  1.4433  1.8103
 8039SOL    HW235754   1.299   1.283   9.379 -0.3086  0.8402 -3.9633
 8040SOL     OW35755   3.536   0.733   5.331  0.1976  0.3561 -0.3208
 8040SOL    HW135756   3.626   0.701   5.327  0.6122  1.2036  2.1406
 8040SOL    HW235757   3.539   0.809   5.388 -0.7993 -1.2335  1.8473
 8041SOL     OW35758   2.575   3.560   4.054  0.0691  0.3212  0.0467
 8041SOL    HW135759   2.571   3.606   4.138 -1.4903 -0.5663  0.4573
 8041SOL    HW235760   2.624   3.635   4.020 -0.1186  0.3856 -0.0851
 8042SOL     OW35761   1.636   3.488   8.412  0.2265  0.5350 -0.9720
 8042SOL    HW135762   1.666   3.420   8.352  0.2493  0.5962 -1.0295
 8042SOL    HW235763   1.712   3.521   8.459  1.3102 -1.9774 -0.9397
 8043SOL     OW35764   1.459   4.541   8.536 -0.6984 -0.1647  0.5906
 8043SOL    HW135765   1.480   4.598   8.462  0.0440 -2.0741 -0.6963
 8043SOL    HW235766   1.506   4.579   8.609  0.3622  3.2159 -1.8673
 8044SOL     OW35767   4.354   4.595  13.902 -1.3359  0.8991  0.1081
 8044SOL    HW135768   4.277   4.538  13.908 -1.5118  1.0586 -0.6106
 8044SOL    HW235769   4.347   4.631  13.813 -0.0720  1.1554  0.1124
 8045SOL     OW35770   0.696   3.367   8.568  0.2060  0.4366  0.3298
 8045SOL    HW135771   0.689   3.373   8.663 -1.5141  1.3309  0.1500
 8045SOL    HW235772   0.722   3.456   8.543  1.2111 -0.0297 -0.2634
 8046SOL     OW35773   1.385   0.398   7.768  0.1549 -0.4336  0.9597
 8046SOL    HW135774   1.328   0.401   7.692  0.6501 -1.1203  0.5581
 8046SOL    HW235775   1.470   0.406   7.724 -1.2441  1.8970 -1.3107
 8047SOL     OW35776   0.140   0.314   2.155  0.2697  0.0024  0.3446
 8047SOL    HW135777   0.223   0.275   2.184  1.6001  3.6834  1.5409
 8047SOL    HW235778   0.122   0.249   2.088  0.7025  0.1747  0.0633
 8048SOL     OW35779   3.158   3.107   1.915 -0.0552  1.1531 -0.2208
 8048SOL    HW135780   3.076   3.067   1.941 -0.2187  0.2913 -2.0344
 8048SOL    HW235781   3.123   3.192   1.887  0.6652  0.9298 -1.8551
 8049SOL     OW35782   0.261   4.140   7.030  0.2385 -0.1976 -0.2588
 8049SOL    HW135783   0.180   4.100   7.060  1.6092 -1.9858  1.0342
 8049SOL    HW235784   0.264   4.108   6.940 -0.5754 -2.9363  0.6988
 8050SOL     OW35785   1.849   2.664  12.932 -0.3274  0.0029 -0.8630
 8050SOL    HW135786   1.894   2.584  12.957 -0.7734  0.8760  2.7061
 8050SOL    HW235787   1.758   2.636  12.927 -0.0577 -1.1582  0.8587
 8051SOL     OW35788   4.640   3.931  11.803 -0.6449 -0.4035  0.2050
 8051SOL    HW135789   4.677   3.842  11.799 -1.9861 -1.0069  1.3036
 8051SOL    HW235790   4.643   3.954  11.710  0.4650  1.1887  0.6362
 8052SOL     OW35791   4.526   3.457   3.946  0.1754  0.3285  0.6115
 8052SOL    HW135792   4.497   3.494   3.863 -1.9634  0.3426  1.3541
 8052SOL    HW235793   4.586   3.528   3.972  0.1551  1.0795 -1.4159
 8053SOL     OW35794   3.521   3.413   2.016  0.5521  0.6284 -0.0243
 8053SOL    HW135795   3.596   3.408   2.075  0.8995  0.0007 -0.5221
 8053SOL    HW235796   3.577   3.407   1.938 -1.5692 -0.9449 -1.4176
 8054SOL     OW35797   3.681   3.808   2.774  0.0090  0.4688  0.2454
 8054SOL    HW135798   3.607   3.825   2.831  1.4015  0.0520  2.1939
 8054SOL    HW235799   3.751   3.844   2.829  0.9457 -0.1181 -0.5488
 8055SOL     OW35800   1.223   0.771   1.744  0.2705  0.6689 -0.2811
 8055SOL    HW135801   1.220   0.688   1.697 -0.6179 -0.4629  1.8037
 8055SOL    HW235802   1.174   0.827   1.685 -0.9320 -0.4232 -0.3139
 8056SOL     OW35803   3.459   3.555   1.395 -0.3948  0.3449 -0.4671
 8056SOL    HW135804   3.384   3.599   1.435 -0.1960  1.9791 -1.8639
 8056SOL    HW235805   3.521   3.615   1.436  2.2622 -0.1788 -3.6715
 8057SOL     OW35806   4.212   2.672   9.381 -0.3312  0.0154  0.0093
 8057SOL    HW135807   4.213   2.698   9.474  0.4569  0.8332 -0.2245
 8057SOL    HW235808   4.232   2.579   9.381  0.6770  0.2354 -0.6239
 8058SOL     OW35809   2.687   0.363  10.272 -0.4194  0.5762 -0.8626
 8058SOL    HW135810   2.708   0.428  10.339  1.1873 -0.8961  0.0882
 8058SOL    HW235811   2.693   0.415  10.192  1.2422  1.2890 -0.2695
 8059SOL     OW35812   4.101   0.112   8.277 -0.3952  0.6946 -0.3007
 8059SOL    HW135813   4.079   0.021   8.258  0.1455  0.4036  0.4668
 8059SOL    HW235814   4.029   0.155   8.230 -0.5491 -0.6112 -1.2753
 8060SOL     OW35815   3.695   2.026   1.542 -0.2455 -0.3806  0.2303
 8060SOL    HW135816   3.644   2.010   1.621  0.9786 -0.4250  1.0069
 8060SOL    HW235817   3.773   2.072   1.572 -0.8016  0.7663 -0.0758
 8061SOL     OW35818   0.076   3.727  17.564 -0.3136 -0.1580 -0.6327
 8061SOL    HW135819   0.076   3.779  17.644 -1.0336 -2.2287  0.7230
 8061SOL    HW235820   0.049   3.639  17.591  0.7113 -0.0579  0.7264
 8062SOL     OW35821   1.961   3.117  15.949 -0.4419  0.0720 -0.4569
 8062SOL    HW135822   1.926   3.030  15.968  1.3510 -0.5052  0.2279
 8062SOL    HW235823   1.889   3.176  15.927 -2.3522 -1.3750  2.0219
 8063SOL     OW35824   1.110   0.432   7.305  0.3482  0.4578  1.0533
 8063SOL    HW135825   1.022   0.397   7.293  1.1121  0.0020 -3.2114
 8063SOL    HW235826   1.145   0.405   7.221 -3.5165  0.5281 -0.5762
 8064SOL     OW35827   1.508   3.364   1.767 -0.2225 -0.3954 -0.0594
 8064SOL    HW135828   1.414   3.380   1.757  0.0338  0.7490 -0.6675
 8064SOL    HW235829   1.539   3.454   1.777  0.4291 -0.6806  0.4741
 8065SOL     OW35830   3.823   1.926  14.913  0.7163  0.2102  0.2637
 8065SOL    HW135831   3.767   1.866  14.864 -0.7394  2.5416 -0.8910
 8065SOL    HW235832   3.839   1.999  14.853 -0.9639 -0.9865 -1.6469
 8066SOL     OW35833   3.620   4.526   5.366  0.4039  0.5291 -0.6870
 8066SOL    HW135834   3.628   4.455   5.303 -0.7724  0.0594 -0.3043
 8066SOL    HW235835   3.544   4.579   5.341 -0.6619 -1.9748 -2.7659
 8067SOL     OW35836   2.373   1.734   6.887  0.0401  0.2842  0.2907
 8067SOL    HW135837   2.366   1.726   6.792 -0.0700 -0.7195  0.3882
 8067SOL    HW235838   2.288   1.699   6.915 -0.2268  0.1663 -0.6634
 8068SOL     OW35839   3.816   0.013   0.998 -0.0394  0.3854 -0.4150
 8068SOL    HW135840   3.809   0.051   1.085 -0.2442 -1.6165  0.4370
 8068SOL    HW235841   3.803   0.076   0.927  0.4122  0.6461 -0.2678
 8069SOL     OW35842   4.314   3.931   6.750  0.0252  0.4695 -0.5719
 8069SOL    HW135843   4.406   3.905   6.751 -0.3824 -0.8894  0.8848
 8069SOL    HW235844   4.284   3.883   6.673 -2.1005  2.2803 -0.8678
 8070SOL     OW35845   2.244   1.727   7.678 -0.8911 -0.2996  0.0208
 8070SOL    HW135846   2.242   1.732   7.774 -0.0314  2.3553 -0.0920
 8070SOL    HW235847   2.255   1.633   7.668 -0.1249 -0.1262 -0.7755
 8071SOL     OW35848   0.176   1.779  14.276 -0.2473  0.3782 -0.4563
 8071SOL    HW135849   0.112   1.847  14.300 -1.9804 -1.3803 -0.0878
 8071SOL    HW235850   0.125   1.698  14.269  0.8407 -0.4035  0.7669
 8072SOL     OW35851   4.341   1.178   4.915 -0.3033 -0.0217 -0.1520
 8072SOL    HW135852   4.329   1.268   4.887  0.3172  0.1413  0.1022
 8072SOL    HW235853   4.275   1.167   4.983 -0.1537 -0.3204 -0.0515
 8073SOL     OW35854   1.731   1.799   3.176 -0.2179  0.4354  0.7704
 8073SOL    HW135855   1.818   1.796   3.136  0.3415  2.3164  1.8184
 8073SOL    HW235856   1.761   1.753   3.255  1.1381  0.7366  0.4310
 8074SOL     OW35857   0.233   2.406  15.540 -0.0750 -0.5312 -0.1217
 8074SOL    HW135858   0.181   2.376  15.465 -2.4785 -1.2744  1.8593
 8074SOL    HW235859   0.288   2.476  15.504 -1.1176  1.0263  1.3120
 8075SOL     OW35860   1.528   0.160   2.678 -0.0570 -0.0391 -0.1288
 8075SOL    HW135861   1.476   0.187   2.754  2.1359 -0.3443  1.4532
 8075SOL    HW235862   1.606   0.205   2.709 -0.4314 -0.8079  1.9240
 8076SOL     OW35863   1.658   0.385  11.595  0.1224  0.6462 -0.7898
 8076SOL    HW135864   1.666   0.330  11.517  0.1611  1.0130 -1.0424
 8076SOL    HW235865   1.643   0.318  11.662 -1.0715 -0.9412 -2.6431
 8077SOL     OW35866   2.573   0.928  16.764 -0.7329  0.8471  0.5658
 8077SOL    HW135867   2.657   0.915  16.809 -0.1231 -0.3239 -0.9233
 8077SOL    HW235868   2.562   1.023  16.769 -0.3963  0.8713  0.8517
 8078SOL     OW35869   3.237   3.392   8.377  0.8285 -0.6512  0.7494
 8078SOL    HW135870   3.260   3.468   8.430  0.3887 -0.5229  0.7558
 8078SOL    HW235871   3.256   3.323   8.441 -1.2312 -0.5368  1.4946
 8079SOL     OW35872   3.859   3.994  14.508  0.1217 -0.0405  0.0635
 8079SOL    HW135873   3.923   3.969  14.574  1.4503 -2.0518 -1.9753
 8079SOL    HW235874   3.821   3.907  14.494  2.5095 -0.9214 -0.8854
 8080SOL     OW35875   0.515   2.087  10.740  0.7408  0.7695  0.1114
 8080SOL    HW135876   0.479   2.116  10.656 -0.2835 -1.4785 -0.2387
 8080SOL    HW235877   0.572   2.019  10.705  1.0488  0.3851  1.3444
 8081SOL     OW35878   3.788   3.141   7.242  0.3354  0.1032  0.3583
 8081SOL    HW135879   3.868   3.191   7.257  0.8273 -1.3740  2.6305
 8081SOL    HW235880   3.802   3.111   7.152 -1.0080  0.9773 -0.1398
 8082SOL     OW35881   4.272   1.821   2.482 -0.1811 -0.4258  0.1150
 8082SOL    HW135882   4.191   1.771   2.483 -0.5322  0.0868 -1.6772
 8082SOL    HW235883   4.283   1.845   2.574  1.4977 -3.4028  0.7037
 8083SOL     OW35884   4.661   2.719   6.412 -0.7633 -0.7066  0.4235
 8083SOL    HW135885   4.735   2.736   6.471 -1.9434  1.6961  1.1879
 8083SOL    HW235886   4.603   2.659   6.460 -0.6244 -0.6453  0.6716
 8084SOL     OW35887   2.892   3.404   8.038  0.1263  0.4250 -0.4827
 8084SOL    HW135888   2.907   3.317   8.077  1.0378  0.6828 -0.2595
 8084SOL    HW235889   2.974   3.450   8.054  0.0914 -0.9022  3.5483
 8085SOL     OW35890   3.376   1.207   9.131  0.0171 -0.3566  0.3871
 8085SOL    HW135891   3.290   1.243   9.150  0.4030 -0.0803  1.5784
 8085SOL    HW235892   3.400   1.264   9.058  0.5331  1.5783  2.1025
 8086SOL     OW35893   2.052   1.120   2.272 -0.0262  0.2838 -0.1126
 8086SOL    HW135894   2.116   1.155   2.335  1.2880 -1.6094 -0.4126
 8086SOL    HW235895   2.003   1.200   2.251  0.1079 -0.0057 -1.4846
 8087SOL     OW35896   2.609   4.026   9.592 -0.2748 -0.0343 -0.5004
 8087SOL    HW135897   2.547   4.023   9.665  0.0603 -1.2607 -0.2685
 8087SOL    HW235898   2.664   3.949   9.605  0.2997  0.1890 -1.6080
 8088SOL     OW35899   2.934   3.737   8.074  1.1609 -0.3602 -0.2112
 8088SOL    HW135900   2.845   3.708   8.093  0.4594  1.1868 -1.1080
 8088SOL    HW235901   2.977   3.734   8.159  0.0692  2.1525  0.4221
 8089SOL     OW35902   2.010   0.274  15.476 -0.4168  0.5037 -0.4832
 8089SOL    HW135903   1.937   0.331  15.498 -0.9667 -0.9811  1.5697
 8089SOL    HW235904   2.043   0.324  15.401  1.2145  0.7437  0.3785
 8090SOL     OW35905   4.399   1.453   0.111  0.0189 -0.3060 -0.2772
 8090SOL    HW135906   4.323   1.507   0.087 -1.0727 -1.4666  0.5781
 8090SOL    HW235907   4.472   1.513   0.100  0.4643 -0.7508  0.3221
 8091SOL     OW35908   0.739   0.824   5.120 -0.0809 -0.0400  0.1149
 8091SOL    HW135909   0.713   0.820   5.211  0.1503  1.1333  0.2239
 8091SOL    HW235910   0.683   0.758   5.078  0.5146  0.2834 -1.2077
 8092SOL     OW35911   3.922   3.970   4.981  0.0045 -0.6179 -0.3369
 8092SOL    HW135912   3.947   3.960   4.889  1.3975 -0.4947  0.0270
 8092SOL    HW235913   3.865   4.047   4.977  2.1780  0.9117 -1.8683
 8093SOL     OW35914   1.724   0.892   3.766  0.5580 -0.1051 -0.3439
 8093SOL    HW135915   1.694   0.983   3.759 -0.4112 -0.4410 -0.5840
 8093SOL    HW235916   1.669   0.854   3.835  0.1667  0.7279 -0.2020
 8094SOL     OW35917   2.779   2.233   0.596 -0.1352 -0.2331 -0.4482
 8094SOL    HW135918   2.842   2.302   0.577 -0.2684  0.4578  1.5656
 8094SOL    HW235919   2.841   2.167   0.628  0.7867  0.0938 -1.5834
 8095SOL     OW35920   1.306   1.067  17.233  0.1295  0.4479 -0.2300
 8095SOL    HW135921   1.250   1.107  17.299 -2.1459 -0.1503 -1.7656
 8095SOL    HW235922   1.362   1.008  17.284  1.0769  0.7694 -0.8980
 8096SOL     OW35923   1.152   0.969   3.539  0.0705  0.3487 -0.3882
 8096SOL    HW135924   1.122   0.885   3.573 -2.6466  0.7020 -1.9170
 8096SOL    HW235925   1.234   0.977   3.588 -0.5590  1.0632  0.5749
 8097SOL     OW35926   4.627   0.340  11.601 -0.0585  0.5066 -0.3319
 8097SOL    HW135927   4.672   0.283  11.538 -1.4687 -1.5379  0.5014
 8097SOL    HW235928   4.599   0.274  11.665  1.1888  0.8394  0.5694
 8098SOL     OW35929   2.206   2.289   6.688 -0.0108 -0.1995  0.5208
 8098SOL    HW135930   2.157   2.212   6.718 -2.1313  0.6175 -0.8439
 8098SOL    HW235931   2.144   2.325   6.625  0.0699 -0.6884  0.1671
 8099SOL     OW35932   1.363   0.933   6.238 -0.1868 -0.0968  0.3241
 8099SOL    HW135933   1.331   0.894   6.157 -0.4757  0.3685  0.2141
 8099SOL    HW235934   1.395   0.852   6.279  0.0299  0.3995  1.1366
 8100SOL     OW35935   1.093   0.771   8.553 -0.1711 -0.2182  0.1954
 8100SOL    HW135936   1.133   0.833   8.492 -0.6216 -1.2561 -1.1488
 8100SOL    HW235937   1.000   0.793   8.546 -0.0106  0.1249 -0.8868
 8101SOL     OW35938   4.440   2.629   3.288 -0.3243 -0.1714  0.2678
 8101SOL    HW135939   4.494   2.684   3.231 -1.6095  1.1886  0.3558
 8101SOL    HW235940   4.498   2.611   3.362 -0.2763  0.0135  0.2754
 8102SOL     OW35941   1.689   0.643  16.403  0.4902  0.2524 -0.3457
 8102SOL    HW135942   1.655   0.554  16.389  1.1734 -0.0837  0.1722
 8102SOL    HW235943   1.657   0.681  16.321  0.2596 -1.2274 -0.9388
 8103SOL     OW35944   3.369   3.239   9.062 -0.1625 -0.4216  0.1929
 8103SOL    HW135945   3.301   3.307   9.068  0.0422 -0.2468  0.5584
 8103SOL    HW235946   3.337   3.188   9.136  0.4431 -2.1133 -0.7083
 8104SOL     OW35947   2.308   1.587  10.984  0.2950 -0.3973  0.0785
 8104SOL    HW135948   2.368   1.546  11.046 -2.3994 -2.4754  1.3292
 8104SOL    HW235949   2.337   1.543  10.904  0.5425 -0.1822  0.0484
 8105SOL     OW35950   1.163   3.103   4.631  0.4479  0.0097  0.4154
 8105SOL    HW135951   1.197   3.114   4.543  0.5505  0.8756  0.5709
 8105SOL    HW235952   1.198   3.015   4.650  3.6144  1.5815  1.8473
 8106SOL     OW35953   1.740   1.388   4.744  0.7936  0.0689 -0.0276
 8106SOL    HW135954   1.797   1.313   4.727  0.5973  0.2133 -1.3135
 8106SOL    HW235955   1.787   1.455   4.695  0.0507  0.3281 -0.3944
 8107SOL     OW35956   1.388   3.809   5.059  0.7048 -0.4794  0.0549
 8107SOL    HW135957   1.309   3.837   5.014  0.8345 -0.3795 -0.1128
 8107SOL    HW235958   1.432   3.894   5.070 -0.6702  0.2096  0.2130
 8108SOL     OW35959   3.494   1.252  13.347  0.2130 -0.2324  0.9047
 8108SOL    HW135960   3.527   1.270  13.435  1.7226  2.7691 -0.2635
 8108SOL    HW235961   3.532   1.168  13.320 -1.2081  0.3495 -2.9272
 8109SOL     OW35962   4.415   2.440   6.804 -0.6406  0.5107 -0.5613
 8109SOL    HW135963   4.452   2.420   6.890 -2.0576  0.8702  0.1279
 8109SOL    HW235964   4.389   2.356   6.767 -0.7365  0.7955 -1.1509
 8110SOL     OW35965   2.256   0.860  14.953 -0.5884  0.0361  0.1915
 8110SOL    HW135966   2.267   0.878  14.859 -0.2537 -0.7167  0.0911
 8110SOL    HW235967   2.344   0.836  14.982 -0.7575 -0.3466  0.3751
 8111SOL     OW35968   0.306   2.472   2.298  0.3439  0.5575  0.5322
 8111SOL    HW135969   0.245   2.517   2.355 -0.4280  0.8983 -0.5607
 8111SOL    HW235970   0.374   2.441   2.358 -0.9679 -1.9350  0.7238
 8112SOL     OW35971   3.542   1.718   4.141 -0.3969  0.2555 -0.0226
 8112SOL    HW135972   3.469   1.656   4.147 -1.8701  1.6557 -3.2541
 8112SOL    HW235973   3.569   1.705   4.050  1.6165  0.8229  0.5042
 8113SOL     OW35974   2.069   1.792   3.905  0.3241 -0.2556 -0.0090
 8113SOL    HW135975   2.081   1.883   3.878  2.1625 -0.9794 -1.6185
 8113SOL    HW235976   1.982   1.789   3.946  0.1399 -1.8150 -0.5228
 8114SOL     OW35977   2.477   2.589   3.160 -0.1673  0.3903 -0.1040
 8114SOL    HW135978   2.528   2.624   3.233 -1.0798  0.6170  0.4209
 8114SOL    HW235979   2.484   2.494   3.174 -0.9784  0.2636 -0.5692
 8115SOL     OW35980   1.844   0.124   1.488  0.4301  0.6556  0.5131
 8115SOL    HW135981   1.788   0.176   1.546 -2.3790 -2.4037  0.5656
 8115SOL    HW235982   1.925   0.174   1.495  1.2900 -0.6763  0.0888
 8116SOL     OW35983   4.045   0.644   7.884 -0.0912 -1.0453  0.0991
 8116SOL    HW135984   4.051   0.590   7.805  2.0362 -1.9013  0.8473
 8116SOL    HW235985   3.950   0.650   7.893 -0.0957  1.4696 -1.5500
 8117SOL     OW35986   0.247   3.878   3.554  0.0253 -0.4413  0.1023
 8117SOL    HW135987   0.293   3.825   3.489  0.8159  1.8435 -1.1951
 8117SOL    HW235988   0.254   3.970   3.527  1.4967 -0.6966 -0.3625
 8118SOL     OW35989   1.184   4.629   8.773  0.1552  0.6229  0.3212
 8118SOL    HW135990   1.096   4.641   8.809  0.0480 -0.5988  0.4788
 8118SOL    HW235991   1.188   4.703   8.713 -0.7394  0.4129  0.0093
 8119SOL     OW35992   0.580   3.922  13.020 -0.5522 -0.5209 -0.1680
 8119SOL    HW135993   0.583   3.967  13.105 -1.3924 -0.1743 -0.3184
 8119SOL    HW235994   0.500   3.870  13.028 -1.1129  0.1940 -1.1430
 8120SOL     OW35995   4.487   0.699   6.333  1.0001  0.3072 -0.1432
 8120SOL    HW135996   4.447   0.692   6.246  0.1838  0.7982  0.2002
 8120SOL    HW235997   4.479   0.610   6.368 -0.9854  0.9554  0.9991
 8121SOL     OW35998   1.912   2.914   8.338 -0.4950 -0.5558  0.1731
 8121SOL    HW135999   1.987   2.862   8.364  0.0128  0.9412  1.7155
 8121SOL    HW236000   1.844   2.846   8.340  1.1697 -2.1139  3.6647
 8122SOL     OW36001   1.245   0.515  11.110 -0.3620  0.3103  0.2611
 8122SOL    HW136002   1.222   0.543  11.022  2.5093 -0.0033 -0.6140
 8122SOL    HW236003   1.173   0.548  11.163 -0.1097 -0.0290  0.8162
 8123SOL     OW36004   1.891   1.175   0.378 -0.4262 -0.3320  0.7639
 8123SOL    HW136005   1.806   1.141   0.351 -1.0065  0.2088  1.9378
 8123SOL    HW236006   1.905   1.212   0.290  0.5833 -2.1399  0.1598
 8124SOL     OW36007   4.093   1.590   7.256 -0.5423  0.2292 -0.0594
 8124SOL    HW136008   4.124   1.601   7.345 -1.9829 -0.1930  0.4946
 8124SOL    HW236009   4.127   1.671   7.218  0.0703  0.3554  0.7701
 8125SOL     OW36010   4.619   4.701   0.835  0.4969 -0.3569  0.0787
 8125SOL    HW136011   4.594   4.626   0.888 -1.6624 -1.1490 -2.0390
 8125SOL    HW236012   4.611   4.669   0.745  1.3051  2.1114 -0.8714
 8126SOL     OW36013   0.592   2.597  15.618 -0.4109 -0.2132 -0.8469
 8126SOL    HW136014   0.597   2.528  15.684 -0.2870  0.4445 -0.1835
 8126SOL    HW236015   0.589   2.542  15.539 -1.9454 -1.0659 -0.2009
 8127SOL     OW36016   1.779   1.698   0.856  0.1215  0.0629 -0.0829
 8127SOL    HW136017   1.695   1.740   0.839  0.7239  0.8495 -1.1065
 8127SOL    HW236018   1.758   1.617   0.810  1.3865  0.8731 -2.0884
 8128SOL     OW36019   1.168   4.325   4.855 -0.3383  0.0984  0.0183
 8128SOL    HW136020   1.097   4.284   4.905 -0.3827  0.3423  0.1541
 8128SOL    HW236021   1.121   4.364   4.782  2.4938  0.3439 -1.7057
 8129SOL     OW36022   1.699   3.830   4.612 -0.5168 -0.2324 -0.2543
 8129SOL    HW136023   1.674   3.738   4.612 -1.5667  0.0694  1.3909
 8129SOL    HW236024   1.662   3.859   4.695  0.1387  1.7348 -0.6381
 8130SOL     OW36025   1.996   3.341  14.635  0.0518 -0.3968  0.2414
 8130SOL    HW136026   2.089   3.352  14.617  0.8965 -2.6779  3.0664
 8130SOL    HW236027   2.006   3.301  14.722 -2.0637  0.2707  0.8088
 8131SOL     OW36028   1.271   1.512   0.424  0.4493 -0.4504  0.0865
 8131SOL    HW136029   1.196   1.453   0.425 -0.5011  0.7587 -1.4729
 8131SOL    HW236030   1.246   1.604   0.423  0.4983 -0.4646 -2.0892
 8132SOL     OW36031   2.388   2.008   2.366 -0.2394 -0.3736 -0.8343
 8132SOL    HW136032   2.406   2.088   2.415 -1.3086 -0.3162 -0.5192
 8132SOL    HW236033   2.443   2.004   2.288 -0.4832  1.1443 -1.0908
 8133SOL     OW36034   0.611   1.368   2.782  0.3418 -0.4180 -0.2467
 8133SOL    HW136035   0.555   1.439   2.749  2.6791  1.9246  0.8371
 8133SOL    HW236036   0.534   1.328   2.822  0.6303  1.1681  1.8780
 8134SOL     OW36037   2.958   1.619   4.759  0.5210 -0.3592 -0.7183
 8134SOL    HW136038   3.034   1.610   4.816 -0.5292  1.5209  0.9843
 8134SOL    HW236039   2.947   1.713   4.745  1.0489 -0.1704  0.1709
 8135SOL     OW36040   4.406   1.211   2.359 -0.4878 -0.3016  0.4235
 8135SOL    HW136041   4.347   1.286   2.349 -0.1252 -0.2562 -1.4522
 8135SOL    HW236042   4.372   1.169   2.438 -0.5639  2.2026  1.7225
 8136SOL     OW36043   4.584   1.963  10.562  0.1798 -0.6902  0.0726
 8136SOL    HW136044   4.523   2.009  10.504  0.8267  0.6445  0.4406
 8136SOL    HW236045   4.580   2.028  10.632 -0.6996 -0.3997 -0.2404
 8137SOL     OW36046   3.546   2.864   4.456 -0.5297  0.2770  0.0541
 8137SOL    HW136047   3.558   2.956   4.434 -0.0790  0.7291  2.1530
 8137SOL    HW236048   3.585   2.820   4.380  3.4000  0.0977  2.1651
 8138SOL     OW36049   1.514   1.328   2.286 -0.4791 -0.1484 -0.4047
 8138SOL    HW136050   1.602   1.367   2.290 -0.1452 -0.9187 -0.2433
 8138SOL    HW236051   1.488   1.338   2.194  1.2996 -3.1298 -1.2376
 8139SOL     OW36052   3.256   0.450   6.554  0.3099  0.4254 -0.8172
 8139SOL    HW136053   3.312   0.376   6.532 -0.3591 -0.4521  0.4518
 8139SOL    HW236054   3.221   0.482   6.471  0.4151 -0.9405 -1.3774
 8140SOL     OW36055   2.430   3.082   9.067  0.1488  0.2628  0.1461
 8140SOL    HW136056   2.395   3.048   8.984 -0.3689  1.3085 -0.0732
 8140SOL    HW236057   2.389   3.169   9.067 -1.3791 -0.4585 -0.1179
 8141SOL     OW36058   3.278   4.345  12.926  0.2140 -0.5079  0.3469
 8141SOL    HW136059   3.279   4.362  13.021 -4.3948  0.8921  0.1495
 8141SOL    HW236060   3.270   4.437  12.900  1.7418 -1.1699 -2.4516
 8142SOL     OW36061   0.649   2.378  15.780  0.7662  0.3849  0.5415
 8142SOL    HW136062   0.582   2.314  15.755  2.3957 -0.9292 -0.4889
 8142SOL    HW236063   0.718   2.324  15.818  0.7050 -1.4905 -2.0174
 8143SOL     OW36064   3.695   2.847   3.358  0.0988 -0.2222 -0.5773
 8143SOL    HW136065   3.785   2.875   3.375 -0.6469  1.3038  0.8756
 8143SOL    HW236066   3.702   2.835   3.263 -1.0647  2.3279 -0.9790
 8144SOL     OW36067   1.555   4.390   6.981  0.1442 -0.4878  0.4051
 8144SOL    HW136068   1.550   4.459   6.915  1.1440  0.8979  1.7669
 8144SOL    HW236069   1.583   4.316   6.927 -1.5241  1.4000 -3.0217
 8145SOL     OW36070   0.850   1.499   9.143  0.7739  0.0189 -0.2725
 8145SOL    HW136071   0.800   1.420   9.163 -1.6092  2.5297  3.7027
 8145SOL    HW236072   0.922   1.489   9.204 -2.1597  0.3643  3.2280
 8146SOL     OW36073   4.207   0.281   4.574 -0.0136  0.3335  0.3491
 8146SOL    HW136074   4.201   0.359   4.519  0.6429  0.0303 -0.1472
 8146SOL    HW236075   4.193   0.207   4.515 -0.5930  1.4567 -0.9062
 8147SOL     OW36076   0.404   0.297   3.516 -0.4573 -0.4674  0.4568
 8147SOL    HW136077   0.413   0.365   3.583  3.9711 -1.7760  1.2080
 8147SOL    HW236078   0.467   0.233   3.549  0.6396 -0.2943 -1.3142
 8148SOL     OW36079   2.633   2.767  12.011 -0.1177 -0.2779  0.0523
 8148SOL    HW136080   2.723   2.782  12.040  0.1607 -1.0958 -0.3870
 8148SOL    HW236081   2.640   2.809  11.925  0.9289  2.3648  1.4193
 8149SOL     OW36082   4.185   2.566  13.196  0.4649 -0.1167  0.2437
 8149SOL    HW136083   4.214   2.567  13.288  3.4428 -0.4720 -0.6987
 8149SOL    HW236084   4.267   2.554  13.148  0.1894  0.0786 -0.2617
 8150SOL     OW36085   0.329   4.186  12.580  0.2923 -0.1336 -0.6010
 8150SOL    HW136086   0.279   4.214  12.657  2.3503  2.7452 -0.2948
 8150SOL    HW236087   0.281   4.110  12.547 -1.1966  0.5535 -0.0148
 8151SOL     OW36088   1.432   3.568   6.938 -0.1919  0.2744 -0.4640
 8151SOL    HW136089   1.381   3.648   6.955  0.3394  0.3007  0.9598
 8151SOL    HW236090   1.509   3.603   6.893  0.3489  0.0769  0.3182
 8152SOL     OW36091   4.032   3.465  17.538  0.1814 -0.2904 -0.2184
 8152SOL    HW136092   3.951   3.499  17.576 -0.7499 -1.2582 -1.3219
 8152SOL    HW236093   4.060   3.419  17.617  2.3703  1.2735 -0.0949
 8153SOL     OW36094   2.850   2.279   6.356  0.5964  0.3996 -0.9692
 8153SOL    HW136095   2.826   2.261   6.447  0.9215 -0.2127 -1.0019
 8153SOL    HW236096   2.764   2.290   6.317  0.8434 -0.7290 -1.8217
 8154SOL     OW36097   3.738   2.993   1.593  0.0320 -0.7504  0.0515
 8154SOL    HW136098   3.805   2.963   1.655 -1.0091  0.0430  1.5616
 8154SOL    HW236099   3.800   3.036   1.534  0.2406  0.2199  0.9716
 8155SOL     OW36100   2.595   0.180   4.951 -0.0159  0.1716 -0.0366
 8155SOL    HW136101   2.618   0.088   4.961 -2.6264 -0.6899 -1.9171
 8155SOL    HW236102   2.523   0.186   4.887  0.0296 -0.6866 -0.1641
 8156SOL     OW36103   0.204   3.858   0.965  0.3126 -0.0731 -0.1769
 8156SOL    HW136104   0.209   3.775   1.012  0.4204 -0.0498 -0.1474
 8156SOL    HW236105   0.297   3.878   0.956  0.6860 -2.3750 -1.3943
 8157SOL     OW36106   2.310   3.453   0.549 -0.5207  0.6155 -0.2607
 8157SOL    HW136107   2.278   3.393   0.616 -0.9489 -0.3678 -1.3400
 8157SOL    HW236108   2.228   3.474   0.505  0.8046  1.1906 -2.4576
 8158SOL     OW36109   1.989   4.487   6.712  0.1780  0.7361 -0.1491
 8158SOL    HW136110   2.035   4.565   6.743  1.6893 -0.8116  1.5622
 8158SOL    HW236111   2.065   4.429   6.700 -1.5899 -1.5937 -0.1603
 8159SOL     OW36112   2.625   0.362   1.825  0.3562  0.9316 -0.3663
 8159SOL    HW136113   2.719   0.385   1.825  0.8413 -1.0864  0.3742
 8159SOL    HW236114   2.590   0.444   1.790  0.0992  0.4733 -1.1617
 8160SOL     OW36115   1.199   3.559   4.346 -0.3288  0.0897  0.5417
 8160SOL    HW136116   1.124   3.581   4.400 -1.2414 -0.0139 -0.6970
 8160SOL    HW236117   1.175   3.481   4.295  0.5137  1.2065 -1.5861
 8161SOL     OW36118   1.370   1.282   2.036 -0.6545 -0.2037 -0.3984
 8161SOL    HW136119   1.374   1.191   2.006  1.4623  0.3936 -1.9668
 8161SOL    HW236120   1.324   1.320   1.961 -2.1250 -2.7528 -0.7887
 8162SOL     OW36121   4.626   2.475   3.501 -0.2511 -0.0228 -0.1191
 8162SOL    HW136122   4.582   2.521   3.572  0.8043 -0.6077  0.9021
 8162SOL    HW236123   4.663   2.397   3.541  1.9134  1.7221  1.3022
 8163SOL     OW36124   3.848   1.148   8.845  0.1848 -0.4735  0.3105
 8163SOL    HW136125   3.910   1.103   8.788  2.7411  1.0127  1.9238
 8163SOL    HW236126   3.808   1.074   8.891  2.1318 -0.4553  2.0381
 8164SOL     OW36127   2.206   2.746   6.196 -0.2081 -0.3263  0.0561
 8164SOL    HW136128   2.257   2.758   6.115 -1.6284  2.5850 -0.3947
 8164SOL    HW236129   2.274   2.734   6.263  0.6179 -2.0118 -1.0543
 8165SOL     OW36130   2.511   3.035   1.217  1.0183  0.4492 -0.3662
 8165SOL    HW136131   2.415   3.029   1.211  0.9577  0.3217  0.7102
 8165SOL    HW236132   2.530   2.974   1.288 -0.4800  0.1160 -0.2478
 8166SOL     OW36133   4.434   0.926   4.460 -0.7235  0.6088  0.1739
 8166SOL    HW136134   4.426   0.964   4.548  2.5945  1.6215  0.0394
 8166SOL    HW236135   4.351   0.879   4.449  0.1565 -1.2145  1.2527
 8167SOL     OW36136   2.756   0.592  11.099 -0.5946 -0.3442 -0.3385
 8167SOL    HW136137   2.760   0.632  11.185 -0.3755  0.6625 -0.8149
 8167SOL    HW236138   2.755   0.666  11.039 -0.2404  0.8498  1.1400
 8168SOL     OW36139   3.381   3.167   1.263 -0.4088 -0.1036  0.0965
 8168SOL    HW136140   3.429   3.173   1.345  2.4973 -2.7468 -1.4316
 8168SOL    HW236141   3.359   3.259   1.248  0.7049  0.2040  0.3672
 8169SOL     OW36142   2.065   1.783   5.785  0.1445  0.1332  0.0021
 8169SOL    HW136143   2.126   1.752   5.851  0.7723  0.8447 -0.2496
 8169SOL    HW236144   2.059   1.876   5.806  0.1605  0.5588 -1.8461
 8170SOL     OW36145   1.653   1.147   3.730  0.5023  0.4336 -0.4384
 8170SOL    HW136146   1.698   1.191   3.658  0.1587  0.3431 -0.7103
 8170SOL    HW236147   1.569   1.180   3.697 -0.8554 -0.3940  2.2190
 8171SOL     OW36148   2.216   0.396  13.434  0.0613  0.2998 -0.1460
 8171SOL    HW136149   2.136   0.444  13.457  0.4157  0.4958  0.6969
 8171SOL    HW236150   2.189   0.361  13.349 -0.4880 -0.6040  0.4090
 8172SOL     OW36151   4.302   2.176   7.136  0.5579 -0.2664 -0.5227
 8172SOL    HW136152   4.210   2.193   7.116  0.5772 -0.2044 -0.5573
 8172SOL    HW236153   4.305   2.094   7.086  0.4931  1.1846 -2.9016
 8173SOL     OW36154   1.136   2.530   6.254 -0.4778 -0.5398  0.7691
 8173SOL    HW136155   1.053   2.574   6.240  0.4222  0.8247 -0.2930
 8173SOL    HW236156   1.109   2.444   6.286 -0.1224 -0.6226  0.8514
 8174SOL     OW36157   4.295   4.235   5.022 -0.1606 -0.7259  0.1845
 8174SOL    HW136158   4.321   4.167   5.084 -0.3795 -1.6078 -0.6985
 8174SOL    HW236159   4.244   4.291   5.081 -1.1764  1.6411 -2.9389
 8175SOL     OW36160   0.929   0.736   5.387  0.1843 -0.1914  0.0607
 8175SOL    HW136161   0.939   0.646   5.358 -2.2178 -0.6530  0.6561
 8175SOL    HW236162   0.834   0.739   5.374  0.1914  0.8428  0.2067
 8176SOL     OW36163   1.920   1.635  14.069  0.0659  0.4040  0.5553
 8176SOL    HW136164   1.984   1.658  14.136 -0.1674  1.6972  0.3460
 8176SOL    HW236165   1.844   1.683  14.103  2.2554  3.2807  1.4271
 8177SOL     OW36166   1.258   1.757   0.725  0.6296 -0.2827 -0.6531
 8177SOL    HW136167   1.165   1.738   0.731  0.9913 -2.5657 -2.1603
 8177SOL    HW236168   1.278   1.756   0.632 -0.4908 -1.7041 -0.8785
 8178SOL     OW36169   3.685   3.865   6.825  0.1251 -0.0370  0.1428
 8178SOL    HW136170   3.635   3.940   6.857 -1.0799 -0.4505 -0.7267
 8178SOL    HW236171   3.729   3.836   6.905 -1.2849  0.0567  0.9719
 8179SOL     OW36172   0.571   4.058   6.542  0.9003 -0.2224 -0.1579
 8179SOL    HW136173   0.654   4.010   6.534  1.3383  1.0865 -3.3388
 8179SOL    HW236174   0.608   4.144   6.564  0.8292 -0.1637 -0.2682
 8180SOL     OW36175   2.919   3.422   2.898  0.4540  0.5457 -0.6657
 8180SOL    HW136176   2.848   3.371   2.938 -0.6031  2.2881 -0.3241
 8180SOL    HW236177   2.874   3.504   2.881 -1.9341 -0.1952  1.9531
 8181SOL     OW36178   3.328   2.008   7.699  0.4570  0.6206  0.6939
 8181SOL    HW136179   3.363   1.932   7.652 -2.0538  0.3822 -0.7757
 8181SOL    HW236180   3.272   2.035   7.626 -0.9866 -0.4559  1.4095
 8182SOL     OW36181   0.644   1.667   2.488  0.2416  0.6345 -0.2602
 8182SOL    HW136182   0.734   1.682   2.516  0.0493  1.6382 -0.1614
 8182SOL    HW236183   0.658   1.594   2.428  0.5124 -0.9529  1.7324
 8183SOL     OW36184   0.841   1.162   4.405 -0.2469  0.2112 -0.5882
 8183SOL    HW136185   0.769   1.198   4.456 -1.6517 -3.0811 -0.2433
 8183SOL    HW236186   0.909   1.155   4.473  0.0124  0.1811 -0.8514
 8184SOL     OW36187   1.749   0.450   2.954  0.1563  0.1665  0.3070
 8184SOL    HW136188   1.685   0.419   3.019  1.1309  0.4476  1.4016
 8184SOL    HW236189   1.706   0.531   2.928  1.6972  0.6884 -0.5985
 8185SOL     OW36190   4.538   2.198   7.244  0.3153 -0.3562  0.7074
 8185SOL    HW136191   4.453   2.215   7.205  0.2382 -1.9830  0.1491
 8185SOL    HW236192   4.516   2.166   7.331  0.9218 -2.4634  0.1019
 8186SOL     OW36193   1.903   3.438   9.430 -0.4986 -0.0082  0.0871
 8186SOL    HW136194   1.814   3.465   9.408  0.2894  1.0010 -1.8631
 8186SOL    HW236195   1.909   3.349   9.396 -0.7827  1.0293 -2.6819
 8187SOL     OW36196   0.947   4.335  11.218  0.1740  0.1457 -0.2424
 8187SOL    HW136197   1.030   4.381  11.207 -1.5585  3.2678 -0.0436
 8187SOL    HW236198   0.959   4.298  11.306  0.0890 -0.5591 -0.5247
 8188SOL     OW36199   4.690   3.347  15.682  0.4663 -0.2008  0.2055
 8188SOL    HW136200   4.605   3.305  15.696  0.7939 -0.4594  1.4029
 8188SOL    HW236201   4.707   3.362  15.775  1.8868  0.9589 -0.2395
 8189SOL     OW36202   2.440   3.684   6.116  0.7151  0.9740 -0.3163
 8189SOL    HW136203   2.527   3.663   6.151 -0.2238 -1.3502  0.7019
 8189SOL    HW236204   2.397   3.701   6.201  1.1075  1.1085 -0.1477
 8190SOL     OW36205   2.266   1.690   1.913  0.4428 -0.7159 -0.6351
 8190SOL    HW136206   2.209   1.698   1.837  0.2443  2.7405 -0.1011
 8190SOL    HW236207   2.345   1.735   1.883  1.5134 -1.7005  0.6891
 8191SOL     OW36208   1.021   1.356   1.998  0.1923 -0.3472  0.1691
 8191SOL    HW136209   1.040   1.413   2.072  0.1379  0.7939 -0.7072
 8191SOL    HW236210   0.962   1.415   1.953  0.4029 -0.6391 -0.4953
 8192SOL     OW36211   2.570   0.900  14.658  0.0437 -0.1813  0.0709
 8192SOL    HW136212   2.476   0.918  14.664  0.1072  0.1467  0.0782
 8192SOL    HW236213   2.577   0.805  14.653 -0.2500 -0.2160  0.3359
 8193SOL     OW36214   0.213   3.659   0.744 -0.0069  0.3575  0.1171
 8193SOL    HW136215   0.295   3.705   0.762  1.4548 -1.7949 -1.0657
 8193SOL    HW236216   0.152   3.713   0.694  1.2697  1.2690 -0.4640
 8194SOL     OW36217   1.314   1.191   3.257 -0.0573  0.4704  0.1611
 8194SOL    HW136218   1.365   1.141   3.321 -0.7141 -1.0663 -0.5211
 8194SOL    HW236219   1.316   1.141   3.176  1.5394 -1.2780  1.2699
 8195SOL     OW36220   2.829   0.279   4.657  0.1090 -0.9587 -0.2761
 8195SOL    HW136221   2.771   0.335   4.606 -0.5231  0.9544  2.5485
 8195SOL    HW236222   2.784   0.194   4.650 -0.6246 -0.7374  1.6533
 8196SOL     OW36223   3.255   0.667   1.889  0.0213 -0.0852 -0.1507
 8196SOL    HW136224   3.281   0.636   1.802 -2.3649  0.9949 -1.2621
 8196SOL    HW236225   3.262   0.763   1.884 -0.4896 -0.0671 -0.5573
 8197SOL     OW36226   0.991   0.308   3.443  0.2801 -0.1325  0.0180
 8197SOL    HW136227   0.896   0.304   3.432  0.1747  1.1188  0.5386
 8197SOL    HW236228   1.001   0.390   3.491 -1.4313  1.1476 -1.8448
 8198SOL     OW36229   3.011   0.832   0.539 -0.2024 -0.2348 -0.0437
 8198SOL    HW136230   3.097   0.825   0.498 -0.5248 -0.3362 -0.7028
 8198SOL    HW236231   2.995   0.738   0.528  0.1254 -0.0541 -2.0652
 8199SOL     OW36232   4.728   3.098   3.526  0.5966  0.2786 -0.3467
 8199SOL    HW136233   0.070   3.118   3.473  1.9462 -1.6451  0.9160
 8199SOL    HW236234   4.723   3.152   3.605 -1.5535 -1.3754  0.6180
 8200SOL     OW36235   0.236   1.785   3.990 -0.2415  0.1448  0.4338
 8200SOL    HW136236   0.223   1.732   4.068 -0.4599 -0.4591 -0.0113
 8200SOL    HW236237   0.330   1.780   3.971 -0.1911 -1.4004  1.1139
 8201SOL     OW36238   3.447   1.222   5.185 -0.1865  0.1080 -0.3063
 8201SOL    HW136239   3.434   1.153   5.250 -2.1381  0.0472 -0.7843
 8201SOL    HW236240   3.391   1.289   5.224  1.3984  2.3346 -1.8330
 8202SOL     OW36241   1.354   1.930  14.150 -0.1986 -0.1574  0.1343
 8202SOL    HW136242   1.433   1.982  14.166 -0.3869 -0.7399  2.9240
 8202SOL    HW236243   1.328   1.980  14.073  1.5534 -0.7011 -0.8180
 8203SOL     OW36244   2.181   2.688   0.661 -0.2756 -0.3593  0.6359
 8203SOL    HW136245   2.109   2.630   0.689 -1.8127  1.1390 -0.1831
 8203SOL    HW236246   2.249   2.670   0.725  0.8048  3.5491  0.5366
 8204SOL     OW36247   2.873   3.132   6.321 -0.0381 -0.0901  0.0066
 8204SOL    HW136248   2.903   3.068   6.386  0.1732  0.7980  0.7765
 8204SOL    HW236249   2.922   3.102   6.244 -0.2154  0.9687 -0.5106
 8205SOL     OW36250   2.266   2.072  16.725 -0.0701  0.6734 -0.0988
 8205SOL    HW136251   2.352   2.075  16.683 -0.2445  0.4419 -0.4737
 8205SOL    HW236252   2.285   2.116  16.809  0.7034  2.4848 -1.2221
 8206SOL     OW36253   0.290   3.945   9.914 -0.7403 -0.0688  0.0952
 8206SOL    HW136254   0.269   3.858   9.880  0.3402 -0.4944  0.4876
 8206SOL    HW236255   0.205   3.988   9.917 -1.3476 -1.1670 -1.7640
 8207SOL     OW36256   0.620   2.284   2.672 -0.2606  0.0624  0.0830
 8207SOL    HW136257   0.624   2.188   2.681  1.6791  0.1447 -0.0914
 8207SOL    HW236258   0.613   2.309   2.764 -1.2345 -0.5868  0.1912
 8208SOL     OW36259   4.275   1.627   3.920  0.2818 -0.0586 -0.5656
 8208SOL    HW136260   4.330   1.585   3.854 -1.2811 -0.6821 -1.4736
 8208SOL    HW236261   4.281   1.567   3.994 -0.9541  0.2816 -0.1987
 8209SOL     OW36262   1.460   1.326  14.965 -0.2235 -0.4109  0.2350
 8209SOL    HW136263   1.532   1.373  15.008  0.0347 -0.2230 -0.3999
 8209SOL    HW236264   1.506   1.247  14.935  1.3059  0.4690  0.2638
 8210SOL     OW36265   3.752   0.058   8.656  0.0075  0.4860 -0.0141
 8210SOL    HW136266   3.716   4.719   8.609  1.1962  0.7802 -1.3680
 8210SOL    HW236267   3.813   0.012   8.715  2.9408  0.6494 -2.9500
 8211SOL     OW36268   3.213   4.000   0.337  0.5080 -0.3142  0.0882
 8211SOL    HW136269   3.141   3.997   0.274 -1.4268 -0.1380  2.2950
 8211SOL    HW236270   3.251   4.082   0.305 -0.5835 -0.1454 -0.8002
 8212SOL     OW36271   4.708   4.091   9.621 -0.3398 -0.2473 -0.1391
 8212SOL    HW136272   4.710   4.179   9.584 -0.2821  0.0345  0.5453
 8212SOL    HW236273   4.655   4.047   9.554  0.1667 -0.5138 -0.3651
 8213SOL     OW36274   3.406   0.605  17.243  0.3923 -0.2849  0.2898
 8213SOL    HW136275   3.481   0.577  17.189  1.2632  2.8231 -0.1071
 8213SOL    HW236276   3.379   0.680  17.190  2.1609 -1.2590 -2.0286
 8214SOL     OW36277   2.848   0.514   1.803 -0.4528 -0.3623 -0.1351
 8214SOL    HW136278   2.934   0.518   1.763 -0.8564  0.7840 -0.9035
 8214SOL    HW236279   2.826   0.607   1.807  0.7318 -0.1028  0.1172
 8215SOL     OW36280   4.271   1.375   8.549 -0.8189  0.2182  0.7744
 8215SOL    HW136281   4.286   1.449   8.608  4.4476 -0.5420  0.3527
 8215SOL    HW236282   4.251   1.298   8.602 -0.3449 -0.7287 -0.4171
 8216SOL     OW36283   2.295   2.115  17.005  0.2529 -0.4651 -0.3476
 8216SOL    HW136284   2.282   2.201  17.046  0.8896 -1.5792  2.2030
 8216SOL    HW236285   2.313   2.060  17.081  2.0264 -1.2639 -1.3491
 8217SOL     OW36286   2.142   4.026  11.360  0.0512  0.0255  0.1677
 8217SOL    HW136287   2.142   4.077  11.279 -3.2376 -0.4612 -0.1426
 8217SOL    HW236288   2.098   4.087  11.419  0.4201 -2.0887  2.6343
 8218SOL     OW36289   2.784   4.451   8.733  0.0132  0.6959 -0.1595
 8218SOL    HW136290   2.879   4.441   8.727 -0.2068 -0.8851 -1.1477
 8218SOL    HW236291   2.754   4.392   8.663 -1.4798 -0.1899  1.2230
 8219SOL     OW36292   2.083   1.696   6.369 -0.1817  0.1986  0.0378
 8219SOL    HW136293   2.091   1.705   6.464 -1.0334  0.0753  0.1197
 8219SOL    HW236294   2.027   1.618   6.377  0.1324 -0.1451 -1.1102
 8220SOL     OW36295   4.033   1.052  10.247  0.1059 -0.3598  0.2862
 8220SOL    HW136296   3.965   1.016  10.304  1.5371  0.4344  2.5028
 8220SOL    HW236297   4.101   1.074  10.311  1.9383 -3.1755 -0.7347
 8221SOL     OW36298   4.483   4.258   6.872  0.7787 -0.3247  0.1766
 8221SOL    HW136299   4.449   4.342   6.901  0.6022 -0.6745  0.9891
 8221SOL    HW236300   4.427   4.255   6.794  3.3058  1.9911 -1.7099
 8222SOL     OW36301   2.007   1.345   5.908  0.3451 -0.5997 -0.1935
 8222SOL    HW136302   2.055   1.286   5.850 -1.3117  0.3064 -2.4995
 8222SOL    HW236303   2.079   1.401   5.938 -0.7052  0.5909  0.1045
 8223SOL     OW36304   1.570   1.802   9.268  0.5669 -0.4986  0.2392
 8223SOL    HW136305   1.524   1.867   9.215  0.0514  1.7918  3.5033
 8223SOL    HW236306   1.656   1.794   9.225  0.6696  0.8121  0.1980
 8224SOL     OW36307   2.703   2.999  17.592 -0.6360 -0.8200 -0.2205
 8224SOL    HW136308   2.749   2.939  17.651 -0.6668 -0.9572 -0.3345
 8224SOL    HW236309   2.618   3.015  17.633 -0.2324 -2.2943  1.1854
 8225SOL     OW36310   2.652   2.902  13.967  0.1966 -0.2316 -0.1615
 8225SOL    HW136311   2.616   2.966  13.905 -1.9200 -1.5181 -0.2696
 8225SOL    HW236312   2.687   2.835  13.908  1.0240  0.2478 -0.2135
 8226SOL     OW36313   1.065   2.899  13.063 -0.8352  0.8531  0.2655
 8226SOL    HW136314   1.050   2.887  12.969  1.1067 -1.6280  0.3040
 8226SOL    HW236315   1.125   2.974  13.061 -0.1046  0.2880  1.1826
 8227SOL     OW36316   2.338   0.534   7.438  0.4604 -0.2063 -0.0444
 8227SOL    HW136317   2.262   0.584   7.469  1.2288  1.4715 -0.8593
 8227SOL    HW236318   2.298   0.486   7.366 -0.7222  0.4241  0.1890
 8228SOL     OW36319   3.633   0.884   4.537  0.4257 -0.1922  0.3828
 8228SOL    HW136320   3.556   0.890   4.595  0.3526  0.3458  0.2285
 8228SOL    HW236321   3.649   0.976   4.517 -2.5237  0.1899 -0.2426
 8229SOL     OW36322   0.446   0.214   4.834 -0.0738 -0.3194 -0.0139
 8229SOL    HW136323   0.497   0.228   4.914 -0.1250  0.4699 -0.1123
 8229SOL    HW236324   0.359   0.231   4.868  0.4310  3.5361 -0.6090
 8230SOL     OW36325   0.860   2.720  14.032 -0.0762  0.4679 -0.2888
 8230SOL    HW136326   0.881   2.628  14.050 -1.2867  0.1872 -0.3280
 8230SOL    HW236327   0.906   2.738  13.950  1.6876 -2.0493  0.1288
 8231SOL     OW36328   4.496   1.448  17.497  0.0229 -0.8272 -0.0247
 8231SOL    HW136329   4.457   1.423  17.413 -1.4654  2.4212 -0.2888
 8231SOL    HW236330   4.438   1.401  17.557 -0.7174  0.7776  0.5200
 8232SOL     OW36331   1.556   3.572   6.042 -0.1663 -0.4043  0.1701
 8232SOL    HW136332   1.558   3.594   6.135  1.4370 -0.9761  0.2703
 8232SOL    HW236333   1.474   3.606   6.006 -0.4430  0.7934  1.9701
 8233SOL     OW36334   1.749   2.622   5.008 -0.1265 -0.6481  0.3435
 8233SOL    HW136335   1.760   2.539   5.054 -1.7356 -1.6920 -1.1530
 8233SOL    HW236336   1.718   2.676   5.081 -1.5126 -0.6486 -0.2441
 8234SOL     OW36337   2.066   1.668  15.501  0.2739 -0.1354  0.5156
 8234SOL    HW136338   2.133   1.622  15.552  0.2571  0.4832  1.1010
 8234SOL    HW236339   2.035   1.593  15.450 -1.9131 -0.0916  1.7828
 8235SOL     OW36340   1.939   1.901  15.586 -0.5767 -0.0429  0.2976
 8235SOL    HW136341   1.985   1.833  15.536  0.5978 -0.1890  1.5917
 8235SOL    HW236342   1.965   1.876  15.674 -1.1570  2.3864  1.1620
 8236SOL     OW36343   0.746   4.525   5.374  0.1031  0.4883  0.3043
 8236SOL    HW136344   0.715   4.469   5.445 -1.1968  0.2221 -0.4721
 8236SOL    HW236345   0.824   4.475   5.351  0.0222  0.3962  0.2301
 8237SOL     OW36346   3.993   3.038   5.920  0.0153 -0.1902 -0.6025
 8237SOL    HW136347   3.914   2.986   5.909  0.1595 -1.0707  2.4538
 8237SOL    HW236348   3.982   3.112   5.861 -0.8677  1.0033  1.0749
 8238SOL     OW36349   0.412   1.469   3.778  0.8589 -0.1776  0.7062
 8238SOL    HW136350   0.418   1.560   3.804 -0.9434 -0.2080  1.2294
 8238SOL    HW236351   0.346   1.432   3.838 -0.7141  2.6205  0.7047
 8239SOL     OW36352   0.437   3.013   7.266 -0.6169 -0.4943 -0.3829
 8239SOL    HW136353   0.448   3.024   7.172 -0.4329 -0.3167 -0.3404
 8239SOL    HW236354   0.494   3.084   7.296 -0.5663 -0.8314  0.3266
 8240SOL     OW36355   3.585   2.798   5.653  0.1246  0.0642 -0.1338
 8240SOL    HW136356   3.516   2.851   5.611 -0.0021 -2.2704 -2.8588
 8240SOL    HW236357   3.656   2.858   5.675  0.5966 -0.2657 -0.7716
 8241SOL     OW36358   4.266   1.117   2.018  0.3865  0.2433  0.6637
 8241SOL    HW136359   4.254   1.085   1.928 -3.3079  0.5090  1.0509
 8241SOL    HW236360   4.309   1.042   2.059  0.8804  0.3889  0.4130
 8242SOL     OW36361   1.310   3.394   6.748 -0.7496 -0.4503  0.3467
 8242SOL    HW136362   1.359   3.427   6.824 -2.2727  0.4244  0.9529
 8242SOL    HW236363   1.271   3.478   6.727 -0.4490 -0.2827  0.4506
 8243SOL     OW36364   0.170   3.280  15.186 -0.5583  0.0103  0.0813
 8243SOL    HW136365   0.099   3.274  15.249 -1.5644 -0.1714 -1.0828
 8243SOL    HW236366   0.141   3.361  15.145 -0.8799 -1.0151 -1.6867
 8244SOL     OW36367   3.032   0.608   4.194  0.0754  0.4831  0.2787
 8244SOL    HW136368   3.088   0.587   4.268 -0.1933 -2.2395 -0.2996
 8244SOL    HW236369   3.032   0.704   4.203  1.5770  0.3635  1.5628
 8245SOL     OW36370   2.330   3.842  11.626  0.2977  0.0766  0.1460
 8245SOL    HW136371   2.386   3.910  11.588  0.5333 -1.1978 -1.7333
 8245SOL    HW236372   2.341   3.765  11.571 -2.9200  0.4337 -1.0412
 8246SOL     OW36373   4.049   2.677  15.594  0.4004  0.4170  0.4098
 8246SOL    HW136374   4.052   2.598  15.540 -3.2182 -0.3518  1.3655
 8246SOL    HW236375   3.996   2.639  15.664 -1.6811  0.2831 -1.2541
 8247SOL     OW36376   0.330   3.286   7.723 -0.5325 -0.2048 -0.2751
 8247SOL    HW136377   0.336   3.288   7.628 -0.4353  0.9729 -0.2446
 8247SOL    HW236378   0.235   3.286   7.727 -0.4418  1.6566  2.6022
 8248SOL     OW36379   3.570   2.080  13.114 -0.1553 -0.0211  0.6773
 8248SOL    HW136380   3.546   2.056  13.203 -1.4563 -0.3568  0.2223
 8248SOL    HW236381   3.637   2.143  13.142 -1.2305  0.2979  2.4959
 8249SOL     OW36382   4.605   1.316   7.560  0.3620 -0.0641 -0.0121
 8249SOL    HW136383   4.590   1.226   7.531 -2.0051  0.1370  0.5915
 8249SOL    HW236384   4.557   1.316   7.643  0.6502 -0.1498  0.1536
 8250SOL     OW36385   0.896   3.146  14.369  0.0822 -0.0091 -0.0419
 8250SOL    HW136386   0.979   3.158  14.323  1.0987 -0.5668  1.6480
 8250SOL    HW236387   0.865   3.236  14.378 -0.9130 -0.3451 -0.0906
 8251SOL     OW36388   2.711   2.681   2.050  0.4000 -0.5873  0.5574
 8251SOL    HW136389   2.715   2.664   2.144 -1.3871 -1.6984  0.4354
 8251SOL    HW236390   2.803   2.694   2.026 -0.0166 -0.9918 -1.2670
 8252SOL     OW36391   2.613   1.808   5.535 -0.1254 -0.0366  0.1078
 8252SOL    HW136392   2.546   1.827   5.469  0.6724 -1.2867 -1.0839
 8252SOL    HW236393   2.576   1.866   5.601  0.2148 -0.6618  0.8535
 8253SOL     OW36394   2.940   4.510   1.565 -0.0913  0.1373 -0.5043
 8253SOL    HW136395   3.022   4.554   1.587  0.0111  0.1868 -0.9809
 8253SOL    HW236396   2.877   4.541   1.630 -0.0651  0.4569 -0.6297
 8254SOL     OW36397   2.676   0.011   8.818  0.1929 -0.5080  0.3998
 8254SOL    HW136398   2.750   0.036   8.762  1.7921  0.5969  3.0173
 8254SOL    HW236399   2.640   4.673   8.770  0.3370  0.5284 -1.3339
 8255SOL     OW36400   1.404   2.507   4.169 -0.4768  0.8040 -0.2596
 8255SOL    HW136401   1.458   2.448   4.116 -1.6705 -1.6204  1.2264
 8255SOL    HW236402   1.320   2.481   4.131 -1.2672  4.1518 -0.7536
 8256SOL     OW36403   1.185   1.912   5.891  0.1809  0.2198  0.1949
 8256SOL    HW136404   1.248   1.897   5.820 -0.7614 -0.5773 -0.5010
 8256SOL    HW236405   1.196   1.831   5.940 -0.6248  0.9934  1.6395
 8257SOL     OW36406   4.242   4.002  16.906  0.4315 -0.2962 -0.4786
 8257SOL    HW136407   4.246   3.940  16.979  0.1242  0.6883  0.3699
 8257SOL    HW236408   4.331   4.037  16.902  0.8018 -1.4379 -2.2290
 8258SOL     OW36409   1.821   1.459   8.154 -0.1357  0.1905 -0.1817
 8258SOL    HW136410   1.870   1.538   8.130  1.2131 -0.8379 -0.8675
 8258SOL    HW236411   1.888   1.393   8.137  0.3440  0.2757  1.4103
 8259SOL     OW36412   3.793   2.316   4.471  0.3065  0.0316  0.1884
 8259SOL    HW136413   3.730   2.255   4.509 -0.9192  1.3420  0.2814
 8259SOL    HW236414   3.727   2.381   4.446  1.6237  0.8547 -1.1140
 8260SOL     OW36415   3.518   1.114   6.744  0.7126  0.0750 -0.1220
 8260SOL    HW136416   3.522   1.061   6.824  2.4264  0.9898  0.4014
 8260SOL    HW236417   3.430   1.089   6.719  0.2568 -1.1864  2.6763
 8261SOL     OW36418   4.611   1.194   2.175 -0.7777  0.2184 -0.2316
 8261SOL    HW136419   4.518   1.174   2.164 -0.6748 -1.2801  1.5909
 8261SOL    HW236420   4.601   1.276   2.224 -0.5899 -0.1639  0.4483
 8262SOL     OW36421   4.457   1.416   7.336 -0.2917 -0.0327 -0.5131
 8262SOL    HW136422   4.533   1.412   7.395 -1.8415 -2.3038  1.3118
 8262SOL    HW236423   4.494   1.482   7.277  2.9161 -1.3352  0.0188
 8263SOL     OW36424   4.239   2.814   8.921 -0.4586  0.1424 -0.0791
 8263SOL    HW136425   4.301   2.742   8.906  0.0243  0.6135 -0.3608
 8263SOL    HW236426   4.245   2.821   9.017 -1.9004  0.8224 -0.0530
 8264SOL     OW36427   1.188   2.610   8.200 -0.4103 -0.0941  0.5238
 8264SOL    HW136428   1.124   2.557   8.153  1.1430 -0.2119 -1.4388
 8264SOL    HW236429   1.140   2.690   8.223 -0.8711 -0.4879  0.9556
 8265SOL     OW36430   4.263   1.509   1.445  0.4150  0.0969 -0.6737
 8265SOL    HW136431   4.180   1.553   1.465  0.0686 -1.1343  0.6066
 8265SOL    HW236432   4.322   1.584   1.445  0.7116 -0.1246  2.2890
 8266SOL     OW36433   0.094   0.820   0.914 -0.0823  0.0970 -0.5633
 8266SOL    HW136434   0.169   0.877   0.935 -0.0860 -0.1309  0.0821
 8266SOL    HW236435   0.031   0.838   0.984 -1.8801 -2.3948 -1.5786
 8267SOL     OW36436   2.186   0.660   2.198 -0.1052  0.0380  0.0614
 8267SOL    HW136437   2.174   0.754   2.186 -1.8590 -0.2658 -0.6435
 8267SOL    HW236438   2.262   0.645   2.142  1.1660  0.0169  1.7932
 8268SOL     OW36439   2.401   4.618   8.563  0.2654 -0.5497  0.2011
 8268SOL    HW136440   2.450   4.575   8.493  0.9805 -0.8571  0.8908
 8268SOL    HW236441   2.317   4.636   8.521 -0.9609  1.3774  3.4450
 8269SOL     OW36442   3.672   2.265   8.942  0.1538  0.6163 -0.7637
 8269SOL    HW136443   3.738   2.305   8.886 -0.4855 -0.3187 -2.1886
 8269SOL    HW236444   3.702   2.188   8.988 -2.2060 -0.1466 -0.4754
 8270SOL     OW36445   0.203   4.162   3.481 -0.1150  0.0072 -0.0493
 8270SOL    HW136446   0.175   4.229   3.544 -0.0870 -0.8001  0.8265
 8270SOL    HW236447   0.129   4.150   3.422 -0.6515  1.6577  0.2905
 8271SOL     OW36448   3.995   0.758   4.328 -0.2804 -0.0260 -0.0452
 8271SOL    HW136449   3.940   0.836   4.321  2.6578  2.0617  0.0746
 8271SOL    HW236450   4.033   0.762   4.240 -0.9974  0.7595 -0.3089
 8272SOL     OW36451   4.422   2.043   6.578  0.2256 -0.5266  1.0392
 8272SOL    HW136452   4.473   2.119   6.548  0.2253 -1.2553 -0.8028
 8272SOL    HW236453   4.346   2.093   6.607  1.1473 -0.1238  2.7572
 8273SOL     OW36454   1.587   3.776   3.272 -0.6701  0.3753 -0.3392
 8273SOL    HW136455   1.675   3.741   3.257 -1.4102 -1.7926  0.4151
 8273SOL    HW236456   1.543   3.755   3.190 -0.0448 -0.7910 -0.3773
 8274SOL     OW36457   2.257   3.341   7.608  0.0756 -0.2421  0.0175
 8274SOL    HW136458   2.336   3.333   7.555 -1.1084  0.9200 -1.9061
 8274SOL    HW236459   2.224   3.252   7.624  0.4155 -0.4275 -0.3121
 8275SOL     OW36460   2.059   2.931  16.911 -0.3619  0.2064 -0.5286
 8275SOL    HW136461   2.015   2.984  16.845 -0.8825 -0.6811 -0.8934
 8275SOL    HW236462   2.090   3.001  16.969  0.9082 -0.6115 -0.2346
 8276SOL     OW36463   3.130   1.219   3.703 -0.0897 -0.6674 -0.1573
 8276SOL    HW136464   3.216   1.210   3.744  0.0469  0.1772 -0.2704
 8276SOL    HW236465   3.079   1.159   3.758 -0.5022 -1.2073 -1.1364
 8277SOL     OW36466   0.064   2.625  14.870  0.3516 -0.2643  0.3602
 8277SOL    HW136467   0.101   2.560  14.810 -1.8947 -0.9184 -0.3274
 8277SOL    HW236468   4.726   2.649  14.814 -0.1866  1.0464  1.6488
 8278SOL     OW36469   3.131   4.559   5.713  0.0218 -0.0412 -0.0499
 8278SOL    HW136470   3.153   4.466   5.710  1.0077  0.1836  0.2232
 8278SOL    HW236471   3.150   4.578   5.805 -2.5288  0.1433  0.4396
 8279SOL     OW36472   0.164   4.616   2.659  0.0255 -0.0550 -0.5458
 8279SOL    HW136473   0.127   4.534   2.628  0.2475 -0.9818  1.6323
 8279SOL    HW236474   0.152   4.621   2.754  0.2905 -0.7444 -0.4794
 8280SOL     OW36475   0.585   3.548  12.543  0.3264 -0.1515 -0.5653
 8280SOL    HW136476   0.649   3.495  12.496  1.2877  1.3480 -0.9845
 8280SOL    HW236477   0.525   3.479  12.570 -1.7187  2.1915  0.9179
 8281SOL     OW36478   1.097   3.401  17.315  0.2449 -0.2590 -0.3656
 8281SOL    HW136479   1.163   3.466  17.294 -1.1716  0.9702 -1.0211
 8281SOL    HW236480   1.137   3.318  17.289  1.0080 -0.1189  0.3678
 8282SOL     OW36481   2.845   2.457  11.982 -0.6315  0.1060  0.0598
 8282SOL    HW136482   2.781   2.441  12.051 -3.1087 -1.3546 -2.5757
 8282SOL    HW236483   2.918   2.443  12.042 -1.0200 -0.2356  0.4531
 8283SOL     OW36484   3.380   0.160  14.495 -1.0101 -0.1482  1.0535
 8283SOL    HW136485   3.467   0.183  14.526  0.1124  0.0872 -2.2268
 8283SOL    HW236486   3.325   0.201  14.562 -1.8404 -3.5836  2.4822
 8284SOL     OW36487   2.425   4.089   9.989  0.0856  0.6582  0.3557
 8284SOL    HW136488   2.451   4.005   9.952 -0.0066  0.7541  0.0744
 8284SOL    HW236489   2.408   4.133   9.906 -2.0586 -0.6760  0.0758
 8285SOL     OW36490   4.392   1.020   4.710  0.1744  0.2467  0.0964
 8285SOL    HW136491   4.357   1.063   4.788 -0.8314  0.7044 -0.5966
 8285SOL    HW236492   4.406   0.932   4.744  0.7730  0.1635 -0.3696
 8286SOL     OW36493   2.801   0.749  11.299  0.2057 -0.1858  0.1176
 8286SOL    HW136494   2.747   0.781  11.371  1.8772 -1.0113  1.7618
 8286SOL    HW236495   2.887   0.784  11.323 -0.2776  0.2651  1.2092
 8287SOL     OW36496   4.107   0.010  11.272 -0.3171 -0.2823  0.0374
 8287SOL    HW136497   4.141   4.657  11.263  1.4047  0.5555 -1.6314
 8287SOL    HW236498   4.109   0.046  11.183 -1.6284  0.6264  0.3823
 8288SOL     OW36499   1.680   4.323   3.165  0.4463 -0.5309 -0.2497
 8288SOL    HW136500   1.600   4.326   3.217  0.3873  0.3489 -0.3863
 8288SOL    HW236501   1.749   4.302   3.229 -0.6173  1.7110  1.6378
 8289SOL     OW36502   4.277   2.532   7.172 -0.7146  0.2716  0.4667
 8289SOL    HW136503   4.228   2.492   7.243 -1.4803 -0.9572 -0.7467
 8289SOL    HW236504   4.219   2.511   7.099 -0.9250 -1.4590  1.1504
 8290SOL     OW36505   3.606   0.612   4.536 -0.4022  0.2132 -0.3256
 8290SOL    HW136506   3.667   0.596   4.608  0.1523 -1.4077 -1.1391
 8290SOL    HW236507   3.619   0.707   4.538 -0.6191  0.2229  0.7996
 8291SOL     OW36508   0.407   3.041   4.048 -0.6374 -0.3678 -0.4152
 8291SOL    HW136509   0.358   3.122   4.034  2.1267  1.4467  0.5292
 8291SOL    HW236510   0.444   3.031   3.961  2.1452  3.4790  0.3432
 8292SOL     OW36511   0.749   4.344   1.784  0.3822 -0.3408 -0.1483
 8292SOL    HW136512   0.653   4.338   1.783  0.1940  2.0495  2.7751
 8292SOL    HW236513   0.758   4.393   1.702 -0.1609  2.2999  1.3650
 8293SOL     OW36514   3.892   4.278   2.790 -0.3860 -0.6598 -0.0619
 8293SOL    HW136515   3.883   4.373   2.802  1.7272 -0.6652  1.5145
 8293SOL    HW236516   3.975   4.270   2.743  0.8816  2.7042  1.6395
 8294SOL     OW36517   4.036   4.628   5.854  0.4401 -0.0073 -0.3216
 8294SOL    HW136518   4.089   4.683   5.797  0.0295  0.0831 -0.6183
 8294SOL    HW236519   3.952   4.674   5.849  0.3948  0.1691  2.2030
 8295SOL     OW36520   3.886   1.973   1.836  0.1655  0.0616 -0.0476
 8295SOL    HW136521   3.950   2.019   1.890  1.3654  1.2564 -2.5023
 8295SOL    HW236522   3.897   1.881   1.861 -0.6487 -0.7043 -2.5362
 8296SOL     OW36523   4.302   3.765   2.965  0.1791 -0.3005  0.6324
 8296SOL    HW136524   4.309   3.784   2.871  0.1721 -0.6433  0.5630
 8296SOL    HW236525   4.242   3.834   2.997 -0.9817  0.0982 -2.3934
 8297SOL     OW36526   1.738   3.421   8.720  0.0467 -0.2464 -0.3024
 8297SOL    HW136527   1.832   3.418   8.705  0.1545  1.0373  0.0692
 8297SOL    HW236528   1.727   3.508   8.759  0.1842 -0.3446 -0.0458
 8298SOL     OW36529   2.461   1.740   2.524  0.7166  0.2678  0.3009
 8298SOL    HW136530   2.369   1.723   2.544 -0.4079  2.3334 -2.9574
 8298SOL    HW236531   2.508   1.733   2.607  1.4079 -1.6521 -0.2619
 8299SOL     OW36532   3.616   2.495   2.355  0.3045  0.1340 -0.0456
 8299SOL    HW136533   3.629   2.576   2.304  1.5532  0.0803  0.1807
 8299SOL    HW236534   3.706   2.466   2.370  1.1706  1.7449 -2.0646
 8300SOL     OW36535   2.874   3.894  17.731 -0.1600 -0.7331  0.5186
 8300SOL    HW136536   2.879   3.799  17.739  1.0595 -0.7471 -0.4906
 8300SOL    HW236537   2.779   3.907  17.733 -0.4712 -3.1763  1.4960
 8301SOL     OW36538   2.141   0.171  10.586 -0.5285  0.4828  0.4268
 8301SOL    HW136539   2.214   0.134  10.635 -0.7251  0.3846  0.6456
 8301SOL    HW236540   2.163   0.264  10.584 -1.7624  0.8173  2.2533
 8302SOL     OW36541   2.099   2.199  11.848 -0.4639  0.0600 -0.3449
 8302SOL    HW136542   2.145   2.273  11.887 -0.3630 -0.8893  1.3617
 8302SOL    HW236543   2.021   2.185  11.901  0.1594 -1.4965  0.1685
 8303SOL     OW36544   1.116   2.357   3.445  0.1680  0.1710  0.0262
 8303SOL    HW136545   1.029   2.398   3.449 -0.4337 -0.9155 -1.7648
 8303SOL    HW236546   1.134   2.371   3.352  2.1657 -0.5453  0.3125
 8304SOL     OW36547   0.192   3.189  12.975 -0.5741 -0.8112  0.3090
 8304SOL    HW136548   0.228   3.197  13.063 -0.1505  1.7585 -0.0993
 8304SOL    HW236549   0.143   3.107  12.980  0.6470 -1.6081 -0.5753
 8305SOL     OW36550   1.137   0.633   9.851  0.0298 -0.1205 -0.1247
 8305SOL    HW136551   1.212   0.669   9.803  1.0491 -0.7231  1.0096
 8305SOL    HW236552   1.152   0.683   9.931 -1.1417  1.8768 -1.1474
 8306SOL     OW36553   2.251   0.941  11.695  0.7405 -0.4073 -0.1059
 8306SOL    HW136554   2.199   1.021  11.689 -2.2029 -2.1764  1.7391
 8306SOL    HW236555   2.198   0.884  11.751 -1.1459 -0.9795 -2.4691
 8307SOL     OW36556   4.419   2.728   4.394 -0.0378 -0.5898 -0.7754
 8307SOL    HW136557   4.421   2.688   4.481  1.7083 -0.6936 -0.8554
 8307SOL    HW236558   4.471   2.660   4.351 -2.3253 -0.6408 -3.4447
 8308SOL     OW36559   1.324   4.296   2.829 -0.0367 -0.1055 -0.0502
 8308SOL    HW136560   1.315   4.251   2.912  0.9057  3.7678  2.1714
 8308SOL    HW236561   1.243   4.348   2.837  0.6162  0.4892  2.4900
 8309SOL     OW36562   1.322   0.308  10.120  0.0920  0.5554  0.6767
 8309SOL    HW136563   1.360   0.232  10.077  2.2053  0.9265  1.8890
 8309SOL    HW236564   1.320   0.284  10.213  1.4732 -0.6700  0.3875
 8310SOL     OW36565   3.896   0.007   3.320  0.4304  0.1764  0.7101
 8310SOL    HW136566   3.806   0.039   3.324  0.6959  1.2550 -1.8403
 8310SOL    HW236567   3.886   4.676   3.252 -0.1887  0.4334  0.5469
 8311SOL     OW36568   4.067   1.862   8.186 -0.1766  0.5118  0.7543
 8311SOL    HW136569   4.126   1.799   8.227  2.4910  1.8139 -1.1485
 8311SOL    HW236570   4.023   1.807   8.122  0.1351  1.2633 -0.0984
 8312SOL     OW36571   1.706   4.358   5.729  0.1460 -0.6103 -0.8126
 8312SOL    HW136572   1.756   4.402   5.660  1.0631 -0.2958  0.0537
 8312SOL    HW236573   1.765   4.370   5.804 -1.2590 -0.6299  0.3084
 8313SOL     OW36574   0.569   2.291   3.492  1.0924 -0.3447  0.1005
 8313SOL    HW136575   0.488   2.285   3.441 -0.8854  1.3786  3.0839
 8313SOL    HW236576   0.548   2.341   3.570 -0.7150  0.2748 -0.7897
 8314SOL     OW36577   4.335   0.362   2.676 -0.1164  0.1658  0.1847
 8314SOL    HW136578   4.391   0.424   2.630 -0.0486 -0.4760 -0.5950
 8314SOL    HW236579   4.343   0.406   2.761 -0.6095  0.3600  0.1318
 8315SOL     OW36580   4.116   2.478   6.968 -0.3858 -0.1681 -0.1323
 8315SOL    HW136581   4.120   2.408   6.903  3.1648  0.7166 -0.8810
 8315SOL    HW236582   4.074   2.543   6.913  2.3439  0.4888 -1.4650
 8316SOL     OW36583   4.270   3.929   0.355  0.0191  0.4644 -0.1333
 8316SOL    HW136584   4.267   3.992   0.283 -1.5029 -2.9225 -3.0267
 8316SOL    HW236585   4.199   3.954   0.414  0.6378 -0.3728  0.9813
 8317SOL     OW36586   1.127   3.778   8.135  0.3661 -0.0705 -0.1782
 8317SOL    HW136587   1.217   3.765   8.163  0.5120  1.8937  0.2558
 8317SOL    HW236588   1.134   3.777   8.039 -1.6201 -0.7845 -0.3317
 8318SOL     OW36589   3.088   2.989  10.064 -0.0644  0.2764 -0.6115
 8318SOL    HW136590   3.050   2.913  10.019  2.1272 -3.5258  3.9032
 8318SOL    HW236591   3.109   3.039   9.986 -1.2764  0.0876 -1.0524
 8319SOL     OW36592   3.116   3.437  17.660  0.0677  0.2857  0.2472
 8319SOL    HW136593   3.060   3.360  17.673  1.4493 -0.7325  0.1225
 8319SOL    HW236594   3.183   3.418  17.726  0.7380  1.2016 -0.1882
 8320SOL     OW36595   3.586   3.796   1.894 -0.2739  0.0303 -0.6549
 8320SOL    HW136596   3.559   3.849   1.969  2.5875  1.8434 -0.8713
 8320SOL    HW236597   3.678   3.804   1.919  0.2250 -1.2126 -2.1104
 8321SOL     OW36598   0.928   1.117   0.289  0.7965 -0.4491  0.3730
 8321SOL    HW136599   0.846   1.122   0.340  1.0013 -0.1427  0.6734
 8321SOL    HW236600   0.968   1.037   0.323 -2.0890 -1.4997  1.3004
 8322SOL     OW36601   4.711   3.443   2.057  0.3602 -0.2537 -0.2858
 8322SOL    HW136602   4.678   3.397   1.980  0.3493 -2.7715  1.2046
 8322SOL    HW236603   0.057   3.395   2.061 -0.0457 -0.8984  0.4044
 8323SOL     OW36604   4.705   3.184   6.094 -0.2226 -0.2548  0.1414
 8323SOL    HW136605   4.647   3.125   6.046 -1.4065  0.1291  1.1028
 8323SOL    HW236606   0.016   3.128   6.156 -0.8116 -0.3139  0.5223
 8324SOL     OW36607   4.251   4.721  16.468 -0.2520 -0.5548  0.0328
 8324SOL    HW136608   4.250   0.075  16.501 -2.3111 -0.7434  0.4679
 8324SOL    HW236609   4.165   4.687  16.491  0.8264 -2.5453  1.0716
 8325SOL     OW36610   4.697   2.842   5.540 -0.1291  0.4396  0.3451
 8325SOL    HW136611   0.043   2.833   5.492  0.4097  2.1701  0.9094
 8325SOL    HW236612   4.688   2.754   5.577  1.8458 -0.5171 -1.4149
 8326SOL     OW36613   4.301   3.583   1.949 -0.2192  0.5129  0.1901
 8326SOL    HW136614   4.231   3.593   1.884 -1.8048  2.2055  2.1484
 8326SOL    HW236615   4.269   3.620   2.031  0.0562  1.8692 -0.3003
 8327SOL     OW36616   0.755   1.869   5.136  0.2454  0.1891 -0.5298
 8327SOL    HW136617   0.675   1.843   5.091  0.0425 -0.3029  0.1069
 8327SOL    HW236618   0.742   1.849   5.229  0.5025  0.7869 -0.3593
 8328SOL     OW36619   4.215   3.717   8.202 -0.0311  0.7230  0.7101
 8328SOL    HW136620   4.262   3.646   8.159 -0.8330 -0.1016  1.1911
 8328SOL    HW236621   4.162   3.756   8.132 -1.4507  0.6321  1.7343
 8329SOL     OW36622   0.237   0.543   3.571 -0.2182 -0.2344 -0.0487
 8329SOL    HW136623   0.176   0.616   3.564 -0.1925 -0.0716  1.4947
 8329SOL    HW236624   0.180   0.476   3.534  0.5744 -1.7078  1.4059
 8330SOL     OW36625   0.145   1.766  14.594  0.0782 -0.9744 -0.2251
 8330SOL    HW136626   0.157   1.772  14.499  0.9424 -0.0347 -0.0538
 8330SOL    HW236627   0.234   1.772  14.630 -0.3455 -2.1811  1.0204
 8331SOL     OW36628   1.793   1.640  10.228  0.5227 -0.2730  0.3163
 8331SOL    HW136629   1.732   1.651  10.301 -0.5115 -2.2219 -0.2458
 8331SOL    HW236630   1.744   1.570  10.185  0.5777 -0.4875  0.6070
 8332SOL     OW36631   1.778   3.085  11.742  0.4508 -0.3030  0.3299
 8332SOL    HW136632   1.870   3.108  11.725  0.4318  0.1353  0.8350
 8332SOL    HW236633   1.747   3.055  11.657  1.3815 -0.5720  0.0799
 8333SOL     OW36634   3.798   0.795   8.742  0.7524  0.1388  0.2147
 8333SOL    HW136635   3.820   0.705   8.767 -1.1046 -1.2013 -2.8884
 8333SOL    HW236636   3.771   0.827   8.828 -1.0163 -5.6217  1.7958
 8334SOL     OW36637   3.886   4.700   4.833  0.0854 -0.2591 -0.1652
 8334SOL    HW136638   3.913   4.707   4.924  0.1718 -5.0120  0.1735
 8334SOL    HW236639   3.819   0.032   4.823  0.9070  0.4862 -0.5687
 8335SOL     OW36640   3.694   3.205  17.176 -0.4545 -0.1855 -0.2293
 8335SOL    HW136641   3.659   3.249  17.099 -0.5093 -0.6057 -0.4420
 8335SOL    HW236642   3.729   3.126  17.134  0.5179  0.2041 -0.1526
 8336SOL     OW36643   2.616   2.026   0.509  0.3429 -0.0281  0.2433
 8336SOL    HW136644   2.617   2.030   0.605  0.1560  0.7089  0.2147
 8336SOL    HW236645   2.690   2.082   0.487 -0.8114 -0.1147 -3.7967
 8337SOL     OW36646   3.221   0.535   4.395  0.2620  0.4813 -0.0429
 8337SOL    HW136647   3.303   0.505   4.435 -2.2200 -3.9060  1.7068
 8337SOL    HW236648   3.158   0.465   4.412  0.9108  0.5014  2.4669
 8338SOL     OW36649   4.446   3.401  15.294 -0.8462 -0.1344 -0.6649
 8338SOL    HW136650   4.423   3.491  15.273  2.9255  0.8345 -0.5766
 8338SOL    HW236651   4.388   3.355  15.233 -0.4945 -1.2329 -0.1817
 8339SOL     OW36652   3.726   3.390   4.749 -0.7315  0.2983  0.0265
 8339SOL    HW136653   3.811   3.351   4.731 -1.3432 -1.9333  1.9967
 8339SOL    HW236654   3.741   3.472   4.701  2.9262 -0.5835 -0.2898
 8340SOL     OW36655   2.247   1.906   7.213 -0.1607  0.4190  0.1354
 8340SOL    HW136656   2.167   1.855   7.213  0.7679 -1.0612 -0.5722
 8340SOL    HW236657   2.295   1.863   7.284  2.2476  1.2150 -0.9982
 8341SOL     OW36658   2.785   1.119   2.187  0.1796 -0.2074  0.2576
 8341SOL    HW136659   2.808   1.209   2.165  0.6298 -1.0913 -2.8702
 8341SOL    HW236660   2.869   1.090   2.222  0.8600  3.3845  1.6331
 8342SOL     OW36661   3.326   3.452  16.983  0.2923  0.0410  0.0071
 8342SOL    HW136662   3.312   3.375  16.928  0.0945 -0.6682  1.0653
 8342SOL    HW236663   3.394   3.498  16.933  0.6294 -0.9234 -0.4258
 8343SOL     OW36664   3.187   0.422   3.286  0.1005  0.1850 -0.3441
 8343SOL    HW136665   3.105   0.472   3.286  1.0751  1.7533 -0.1093
 8343SOL    HW236666   3.247   0.488   3.252 -0.0396 -0.5632 -2.0460
 8344SOL     OW36667   0.848   0.952  16.823  0.1261 -0.2888  0.6085
 8344SOL    HW136668   0.791   0.879  16.847  2.2486 -1.5577  1.8444
 8344SOL    HW236669   0.934   0.910  16.822 -0.6376 -1.8903  1.7330
 8345SOL     OW36670   3.719   1.219   2.595 -0.1922 -0.0153 -0.2494
 8345SOL    HW136671   3.783   1.219   2.667 -0.8420 -0.8056  0.3148
 8345SOL    HW236672   3.746   1.300   2.552  0.9571  0.9310  2.2319
 8346SOL     OW36673   1.216   1.380  17.388 -0.0502  0.0090 -0.1125
 8346SOL    HW136674   1.219   1.320  17.463  1.5093  1.1582  0.7403
 8346SOL    HW236675   1.130   1.349  17.361 -0.0012 -0.1025 -0.1419
 8347SOL     OW36676   3.403   1.342  17.508  0.1904 -0.1585  0.0394
 8347SOL    HW136677   3.393   1.434  17.484  1.5975 -0.3778 -1.4169
 8347SOL    HW236678   3.485   1.331  17.461 -0.9698 -1.3379 -1.7304
 8348SOL     OW36679   2.159   4.478  12.959 -0.4139 -0.7003 -0.0841
 8348SOL    HW136680   2.200   4.408  13.009 -0.3652  0.0782  0.9469
 8348SOL    HW236681   2.228   4.544  12.958  0.3054 -1.4350  0.8492
 8349SOL     OW36682   2.534   2.449   4.641  0.7218  0.2685  0.3625
 8349SOL    HW136683   2.508   2.463   4.732  3.3607 -2.0961  1.4741
 8349SOL    HW236684   2.453   2.468   4.593  1.1826  0.7931 -0.2068
 8350SOL     OW36685   0.651   2.408   4.836 -0.0579  0.4972 -0.0450
 8350SOL    HW136686   0.589   2.472   4.872 -1.6991 -0.3994 -1.3209
 8350SOL    HW236687   0.587   2.338   4.823  0.9524 -0.2556 -0.9637
 8351SOL     OW36688   4.261   0.586   9.264 -0.7819 -0.3552  0.6506
 8351SOL    HW136689   4.341   0.611   9.217 -1.2756 -1.0120 -0.5531
 8351SOL    HW236690   4.290   0.518   9.325  0.0813  0.2265  0.8991
 8352SOL     OW36691   2.672   2.815   8.056 -0.0508  0.0417 -0.1273
 8352SOL    HW136692   2.731   2.773   7.993 -0.4821 -0.7579 -0.0015
 8352SOL    HW236693   2.725   2.796   8.134 -0.9104  1.9847  0.9319
 8353SOL     OW36694   3.682   2.131   2.407  0.1821 -0.1490  0.5641
 8353SOL    HW136695   3.651   2.054   2.454 -1.0197 -0.5835 -0.9555
 8353SOL    HW236696   3.613   2.145   2.342  0.4030  2.3841  0.8644
 8354SOL     OW36697   1.824   0.307   6.251  0.1070 -0.8553 -0.3238
 8354SOL    HW136698   1.882   0.272   6.184  0.5331 -2.5877  0.9648
 8354SOL    HW236699   1.867   0.390   6.272 -0.2131 -0.8279  0.2210
 8355SOL     OW36700   3.947   1.678   8.964 -0.2918 -0.0983 -0.1087
 8355SOL    HW136701   3.977   1.741   8.898 -0.2737  0.8514  0.8096
 8355SOL    HW236702   4.006   1.688   9.039  0.4826  0.7810 -0.8330
 8356SOL     OW36703   0.758   0.604   6.607 -0.0061  0.3597 -0.0980
 8356SOL    HW136704   0.818   0.677   6.590 -2.4699  2.3764  0.0009
 8356SOL    HW236705   0.797   0.542   6.545 -1.7072  0.3240 -1.1271
 8357SOL     OW36706   2.963   3.931   1.890  0.5584  0.6578  0.0808
 8357SOL    HW136707   3.013   3.938   1.809 -0.2260  2.4184 -0.2591
 8357SOL    HW236708   3.008   3.862   1.938 -1.6142 -0.9107 -0.1488
 8358SOL     OW36709   0.580   0.241   7.483  0.0882 -0.8635  0.0052
 8358SOL    HW136710   0.675   0.241   7.473  0.2216  1.8151  1.1344
 8358SOL    HW236711   0.556   0.219   7.394 -0.1193  0.1697 -0.1964
 8359SOL     OW36712   2.775   3.604   8.444 -0.1733  0.9062 -0.2716
 8359SOL    HW136713   2.766   3.527   8.499  3.2101 -0.6029 -1.8496
 8359SOL    HW236714   2.713   3.587   8.373 -1.2006  2.2139  0.3044
 8360SOL     OW36715   3.208   0.033   7.064 -0.0728  0.0762 -0.2548
 8360SOL    HW136716   3.177   4.681   7.084 -2.1198  1.1281  1.1970
 8360SOL    HW236717   3.301   0.021   7.083 -0.1010  0.0816 -0.1136
 8361SOL     OW36718   1.137   1.510  16.301  0.1111  0.0301 -0.1661
 8361SOL    HW136719   1.177   1.427  16.274 -1.5105 -0.2212 -1.8037
 8361SOL    HW236720   1.136   1.505  16.397  1.2242  2.8332  0.0128
 8362SOL     OW36721   3.797   3.282   3.743 -0.2336  0.2727  0.1325
 8362SOL    HW136722   3.847   3.362   3.734 -0.6675  0.8051  2.5907
 8362SOL    HW236723   3.779   3.262   3.835  1.0219 -2.2351 -0.1729
 8363SOL     OW36724   0.421   1.993   1.023  0.0679  0.2963  0.3845
 8363SOL    HW136725   0.330   1.968   1.039 -0.3092 -0.4400 -2.8625
 8363SOL    HW236726   0.425   2.039   0.939  2.7799  0.5073  0.6181
 8364SOL     OW36727   0.288   0.732   1.629  0.2023 -0.3105  0.2226
 8364SOL    HW136728   0.363   0.681   1.658  0.2940 -1.6384 -2.3689
 8364SOL    HW236729   0.296   0.803   1.693  0.2696 -0.0795 -0.0472
 8365SOL     OW36730   3.945   2.299  13.384  0.1496 -0.4368 -0.2470
 8365SOL    HW136731   4.026   2.250  13.374  0.7879  0.2320  1.4998
 8365SOL    HW236732   3.923   2.292  13.477  0.7349 -0.1568 -0.0861
 8366SOL     OW36733   3.799   1.144   3.418  0.1518  0.1387  0.3588
 8366SOL    HW136734   3.885   1.173   3.448 -0.3198  1.5592  0.3163
 8366SOL    HW236735   3.832   1.083   3.351  0.3967  1.6455 -0.8997
 8367SOL     OW36736   1.769   1.335   4.276 -0.4493 -0.4042  0.3378
 8367SOL    HW136737   1.744   1.288   4.197 -0.5731 -0.6615  0.5289
 8367SOL    HW236738   1.849   1.284   4.291 -0.7072 -1.6613 -2.6948
 8368SOL     OW36739   4.253   3.648  12.506 -0.0616  0.3798  0.1096
 8368SOL    HW136740   4.294   3.727  12.543 -2.2582  1.1306  0.8879
 8368SOL    HW236741   4.161   3.673  12.508 -0.3897 -0.6449 -2.1604
 8369SOL     OW36742   0.095   2.303  15.356 -0.1041  0.2644 -0.3983
 8369SOL    HW136743   0.140   2.320  15.273 -1.2082  0.4452 -0.9564
 8369SOL    HW236744   0.030   2.237  15.332  1.7820 -1.5348 -0.5249
 8370SOL     OW36745   4.694   0.057   1.987  0.2833  0.0172  0.1069
 8370SOL    HW136746   0.052   0.039   1.997 -0.4089 -2.5788  1.7464
 8370SOL    HW236747   4.697   0.113   1.909 -0.3100  0.0641  0.1171
 8371SOL     OW36748   1.365   4.170   2.553  0.1267 -0.1030  0.4770
 8371SOL    HW136749   1.327   4.213   2.630 -0.2934  0.6532 -0.1529
 8371SOL    HW236750   1.421   4.240   2.521  1.8564 -0.5468  2.5500
 8372SOL     OW36751   0.098   0.692   2.818  0.5131 -0.2451 -0.7288
 8372SOL    HW136752   0.185   0.687   2.857  0.1475 -0.6567  0.0452
 8372SOL    HW236753   0.049   0.657   2.894 -0.3015  1.2670 -0.5640
 8373SOL     OW36754   1.245   1.024  15.226  0.4992 -0.5227  0.4200
 8373SOL    HW136755   1.331   0.988  15.203  0.2373 -1.7946  1.3831
 8373SOL    HW236756   1.200   0.955  15.276 -0.4329  0.1348  0.4857
 8374SOL     OW36757   2.806   0.360   8.101 -0.1698 -0.1270  0.4460
 8374SOL    HW136758   2.845   0.279   8.133 -1.7300 -1.6018 -1.3508
 8374SOL    HW236759   2.869   0.389   8.036 -1.3298  0.6958 -0.2980
 8375SOL     OW36760   1.061   0.759  16.050  0.0929 -1.0438  0.4462
 8375SOL    HW136761   1.111   0.740  15.971  1.3478  0.6173  0.8531
 8375SOL    HW236762   0.971   0.755  16.016 -0.4613 -2.4508  2.0198
 8376SOL     OW36763   1.234   3.198   8.539 -0.3828  0.1914 -0.0309
 8376SOL    HW136764   1.256   3.216   8.631  1.6387  2.4675 -0.9593
 8376SOL    HW236765   1.159   3.257   8.534 -1.6748 -1.3764  0.7191
 8377SOL     OW36766   4.672   0.027  17.469  0.0431  0.0460 -0.0453
 8377SOL    HW136767   4.711   0.112  17.449 -2.1930  0.9669 -0.4993
 8377SOL    HW236768   4.581   0.054  17.453  0.8649  3.1030  0.4994
 8378SOL     OW36769   1.009   4.711   6.551 -0.0764 -0.0003 -0.4576
 8378SOL    HW136770   0.942   0.018   6.604 -0.5463 -0.1157 -0.9552
 8378SOL    HW236771   1.079   4.708   6.616 -0.3207  0.4794 -0.1818
 8379SOL     OW36772   1.173   2.252   5.366  0.0358  0.3976 -0.0981
 8379SOL    HW136773   1.089   2.280   5.330 -0.0399 -2.2290 -2.0016
 8379SOL    HW236774   1.223   2.317   5.317 -1.5115  0.3954 -1.6843
 8380SOL     OW36775   4.604   4.526   3.361  0.6921  0.4417  0.0827
 8380SOL    HW136776   4.683   4.473   3.349  0.3571 -0.1224  0.3657
 8380SOL    HW236777   4.535   4.476   3.318 -0.1602 -0.0803  2.0415
 8381SOL     OW36778   2.230   4.572   5.559  0.1381  0.0765  0.3179
 8381SOL    HW136779   2.304   4.514   5.578  0.8176  0.4804 -1.1438
 8381SOL    HW236780   2.201   4.571   5.651  1.3651  1.1819  0.7141
 8382SOL     OW36781   1.876   4.200   6.596  0.4676  0.0745 -0.0159
 8382SOL    HW136782   1.884   4.284   6.552  0.5726 -0.1321 -0.3842
 8382SOL    HW236783   1.893   4.138   6.525 -0.7988 -2.5330  1.9392
 8383SOL     OW36784   2.382   1.158   6.551  0.6584  0.0637 -0.3853
 8383SOL    HW136785   2.342   1.072   6.537  1.9620 -0.5521 -0.3060
 8383SOL    HW236786   2.472   1.129   6.538  0.7556 -0.1195  0.6872
 8384SOL     OW36787   0.344   3.085  11.530 -0.0061  0.0406 -0.0436
 8384SOL    HW136788   0.368   3.089  11.437 -1.4164  1.3642 -0.3393
 8384SOL    HW236789   0.328   2.992  11.547 -2.0090  0.4598  0.2900
 8385SOL     OW36790   0.257   0.489   0.510 -0.3008  0.0368  0.4778
 8385SOL    HW136791   0.175   0.477   0.558 -0.8686  0.9367 -0.2604
 8385SOL    HW236792   0.275   0.580   0.531  0.8442 -0.1237  0.2004
 8386SOL     OW36793   4.029   3.144  16.572  0.0728  0.2589  0.1737
 8386SOL    HW136794   4.101   3.157  16.633  0.9243 -1.6029 -0.4357
 8386SOL    HW236795   3.989   3.230  16.582 -0.2047  0.3561 -1.6511
 8387SOL     OW36796   0.613   0.103  17.102 -0.0723  0.0285  0.2124
 8387SOL    HW136797   0.581   0.177  17.154  0.1096  0.2329  0.0275
 8387SOL    HW236798   0.649   0.151  17.028  3.5339  0.3226  2.1825
 8388SOL     OW36799   3.398   4.280  14.276 -0.3330  0.3167 -0.0750
 8388SOL    HW136800   3.391   4.356  14.218 -0.1982 -0.5389 -1.2110
 8388SOL    HW236801   3.463   4.220  14.241 -1.8935  0.5679 -3.3741
 8389SOL     OW36802   2.770   1.870   6.993 -0.2173 -0.0122  0.2528
 8389SOL    HW136803   2.801   1.831   6.911 -0.2158  0.8351 -0.1516
 8389SOL    HW236804   2.679   1.885   6.968 -0.3517 -1.7314 -0.2759
 8390SOL     OW36805   0.726   2.843   8.413  0.1545 -0.3035  0.4848
 8390SOL    HW136806   0.787   2.779   8.378  1.3860  2.0150 -1.6052
 8390SOL    HW236807   0.653   2.781   8.416 -0.0260 -0.1315 -0.3016
 8391SOL     OW36808   1.500   4.211   8.673 -0.2661 -0.3983 -0.4494
 8391SOL    HW136809   1.594   4.225   8.664  0.0637 -1.6530  1.0288
 8391SOL    HW236810   1.478   4.291   8.720  0.7299  0.1702 -0.9441
 8392SOL     OW36811   1.221   3.705   8.818 -0.1714  0.0167 -0.5419
 8392SOL    HW136812   1.134   3.665   8.824 -0.1856  0.1991  0.4085
 8392SOL    HW236813   1.244   3.726   8.909 -0.0660  0.1482 -0.5996
 8393SOL     OW36814   2.308   1.261  15.110  0.2336 -0.3675  0.7656
 8393SOL    HW136815   2.356   1.254  15.028 -2.0388 -0.2493 -0.5922
 8393SOL    HW236816   2.222   1.220  15.093  0.0423  0.7265 -0.8844
 8394SOL     OW36817   2.175   1.204   5.761 -0.7693  0.3195 -0.1059
 8394SOL    HW136818   2.192   1.267   5.691 -0.3415  0.6005  0.2459
 8394SOL    HW236819   2.149   1.132   5.704  0.0122  0.6648 -0.8993
 8395SOL     OW36820   4.498   3.199  15.806  0.3684  0.4489  0.2341
 8395SOL    HW136821   4.425   3.202  15.743  1.4692 -0.8522 -1.1249
 8395SOL    HW236822   4.484   3.117  15.853 -0.1396  0.7357  0.5808
 8396SOL     OW36823   1.931   2.063   8.514 -0.9590 -0.0325 -0.0246
 8396SOL    HW136824   1.950   2.091   8.425  0.2089  1.9628  0.8400
 8396SOL    HW236825   2.023   2.068   8.540 -0.9439  0.8967 -0.2444
 8397SOL     OW36826   0.966   3.811  15.316  0.2816 -0.2448 -0.3018
 8397SOL    HW136827   1.027   3.873  15.276  2.3703 -2.6213 -0.7766
 8397SOL    HW236828   1.014   3.742  15.361  0.4873 -1.1704 -1.9527
 8398SOL     OW36829   3.837   4.558   2.947 -0.0946 -0.0535  0.1523
 8398SOL    HW136830   3.752   4.592   2.921 -0.9831 -1.6901  0.8917
 8398SOL    HW236831   3.814   4.546   3.039 -0.3945 -0.4446  0.0279
 8399SOL     OW36832   1.937   0.721  17.000 -1.0783  0.2657  0.0823
 8399SOL    HW136833   1.958   0.635  16.964  0.6582  1.4962 -1.8571
 8399SOL    HW236834   1.910   0.760  16.916 -0.5608 -0.9675 -0.6577
 8400SOL     OW36835   4.173   3.643  11.816  0.2802  0.4414 -0.2745
 8400SOL    HW136836   4.254   3.592  11.816  0.7062  1.1035 -1.5531
 8400SOL    HW236837   4.206   3.733  11.807  0.9225  0.1163 -1.1500
 8401SOL     OW36838   4.493   1.633   4.785 -0.4757  0.3172 -0.0585
 8401SOL    HW136839   4.482   1.640   4.690  3.7289 -0.7579 -0.5946
 8401SOL    HW236840   4.519   1.542   4.801  3.6891  1.2193 -1.7359
 8402SOL     OW36841   1.604   1.829   1.869  0.2340 -0.4628  0.5124
 8402SOL    HW136842   1.610   1.920   1.896 -1.5960 -0.4525  0.8881
 8402SOL    HW236843   1.518   1.829   1.826  0.8642  0.3272 -0.7662
 8403SOL     OW36844   3.886   3.695   2.951 -0.3526 -0.0014 -0.0414
 8403SOL    HW136845   3.954   3.664   3.011 -0.1742 -0.7049 -0.6039
 8403SOL    HW236846   3.815   3.691   3.015  0.6351  0.4334  1.0798
 8404SOL     OW36847   3.052   3.596   6.142  0.1975  0.2398  0.0858
 8404SOL    HW136848   3.026   3.688   6.129  1.1598  0.6882  1.3359
 8404SOL    HW236849   2.972   3.568   6.188 -0.4995  1.3022 -0.4597
 8405SOL     OW36850   2.970   2.050  16.347 -0.3133  0.3112 -0.3561
 8405SOL    HW136851   2.924   2.027  16.266 -3.3420  0.3777  1.3639
 8405SOL    HW236852   3.012   1.966  16.364  0.1459  0.1743 -2.1837
 8406SOL     OW36853   4.619   1.916  11.002 -0.6758 -0.1261  0.7515
 8406SOL    HW136854   4.578   1.888  11.084 -0.1160 -0.2368  0.9967
 8406SOL    HW236855   4.551   1.902  10.936  0.2263 -2.0315  0.2251
 8407SOL     OW36856   3.105   0.085   7.833  0.5607 -0.2075 -0.0322
 8407SOL    HW136857   3.066   0.163   7.794 -0.9295 -0.2580  1.3447
 8407SOL    HW236858   3.097   0.026   7.758  1.5734  0.6270 -0.7869
 8408SOL     OW36859   4.033   2.715  12.869 -0.6709  0.1840 -0.0855
 8408SOL    HW136860   4.116   2.748  12.834  0.1573 -1.5303  0.2516
 8408SOL    HW236861   3.974   2.771  12.819 -1.1517 -0.2135  0.0373
 8409SOL     OW36862   3.992   1.093   4.704  0.5958 -0.1192  0.5636
 8409SOL    HW136863   4.001   1.117   4.796  4.3652  2.4596 -0.5031
 8409SOL    HW236864   3.940   1.013   4.718  0.0069  0.2865  0.6823
 8410SOL     OW36865   3.375   3.442   1.149  0.6161 -0.0970 -0.3210
 8410SOL    HW136866   3.450   3.407   1.100  0.5888  0.5196 -0.8071
 8410SOL    HW236867   3.417   3.478   1.227  0.1002 -0.6408  0.2070
 8411SOL     OW36868   2.522   3.126   4.150 -0.1974 -0.7333  0.1058
 8411SOL    HW136869   2.437   3.133   4.195  0.8449 -1.2775  2.1384
 8411SOL    HW236870   2.575   3.068   4.204  0.8904  0.3099  0.1457
 8412SOL     OW36871   3.593   0.779   2.105 -0.4337  0.0631 -0.0415
 8412SOL    HW136872   3.548   0.862   2.122 -0.9542 -0.0728 -0.7481
 8412SOL    HW236873   3.638   0.803   2.024  0.3927  0.7673  0.6233
 8413SOL     OW36874   1.159   4.512   3.318 -0.2570  0.2434 -0.3112
 8413SOL    HW136875   1.244   4.540   3.351 -1.0204  0.9526  1.0753
 8413SOL    HW236876   1.135   4.601   3.291 -1.9622  0.4061  1.7562
 8414SOL     OW36877   1.586   1.155   7.361 -0.5583  0.4261  0.1312
 8414SOL    HW136878   1.535   1.227   7.397  0.3389  1.5206 -0.7726
 8414SOL    HW236879   1.538   1.092   7.414 -1.2758  1.3541  0.5778
 8415SOL     OW36880   0.684   0.924  11.074 -0.1865  0.1843 -0.1420
 8415SOL    HW136881   0.709   0.968  10.992  2.7822 -2.5403 -0.7122
 8415SOL    HW236882   0.627   0.996  11.102  0.3703  0.8285 -0.6377
 8416SOL     OW36883   1.590   1.085  10.392  0.1708 -0.2995  0.0050
 8416SOL    HW136884   1.647   1.063  10.467  2.3169 -2.8875 -2.3984
 8416SOL    HW236885   1.506   1.077  10.437  0.3787  1.1509  0.6788
 8417SOL     OW36886   1.834   2.461   7.245 -0.1536 -0.0312  0.3297
 8417SOL    HW136887   1.861   2.552   7.257 -2.7189  0.8394 -0.5615
 8417SOL    HW236888   1.847   2.452   7.150 -2.4099 -1.7603  0.1982
 8418SOL     OW36889   2.962   3.255   4.539 -0.0834 -0.2890  0.3974
 8418SOL    HW136890   2.878   3.265   4.494  0.8471  0.1733 -1.1988
 8418SOL    HW236891   3.020   3.319   4.499 -0.9353 -0.2158 -0.7017
 8419SOL     OW36892   1.855   0.452   8.069 -0.1514  0.1676 -0.9065
 8419SOL    HW136893   1.905   0.515   8.122 -0.1139 -0.5312 -0.1241
 8419SOL    HW236894   1.766   0.489   8.072 -0.1169  0.1724 -0.0008
 8420SOL     OW36895   0.332   2.534   7.650  0.0135 -0.0539 -0.6541
 8420SOL    HW136896   0.307   2.448   7.616  1.3050 -1.0189  0.8520
 8420SOL    HW236897   0.258   2.551   7.709 -0.5808 -0.1559 -1.3656
 8421SOL     OW36898   2.157   1.918   8.175  0.4639  0.2042  0.2474
 8421SOL    HW136899   2.162   1.875   8.260  0.2453 -0.7482 -0.2214
 8421SOL    HW236900   2.234   1.888   8.128 -0.8201 -1.3053 -0.8990
 8422SOL     OW36901   4.622   3.982   3.776 -0.0617  0.0590  0.0361
 8422SOL    HW136902   4.585   4.048   3.719  0.3264  0.9958  0.8709
 8422SOL    HW236903   4.715   4.001   3.788 -0.2559  1.2287 -0.2977
 8423SOL     OW36904   4.531   0.884   5.173  0.1847  0.2542  0.2094
 8423SOL    HW136905   4.532   0.854   5.264 -1.6704 -0.8510 -0.1129
 8423SOL    HW236906   4.437   0.890   5.152  0.0183 -0.1799  0.8354
 8424SOL     OW36907   3.584   1.425  11.987 -0.1656  0.1769 -0.0409
 8424SOL    HW136908   3.497   1.452  12.018 -0.1314 -0.0265  0.2362
 8424SOL    HW236909   3.563   1.436  11.895  1.1461  1.3639 -0.1831
 8425SOL     OW36910   3.352   1.204   1.576  0.0722  0.0477  0.2971
 8425SOL    HW136911   3.388   1.200   1.487  0.9177 -1.4239  0.6934
 8425SOL    HW236912   3.367   1.115   1.609  1.5463 -0.2595 -1.2033
 8426SOL     OW36913   3.328   0.567   7.506  0.2661 -0.0166  0.3068
 8426SOL    HW136914   3.384   0.603   7.575 -0.5324  0.9645  0.4544
 8426SOL    HW236915   3.319   0.474   7.525  1.7734  0.0598  1.4338
 8427SOL     OW36916   0.926   3.090   4.759 -0.0449  0.6125  0.1623
 8427SOL    HW136917   0.998   3.117   4.703 -0.5949 -2.1662 -1.8955
 8427SOL    HW236918   0.897   3.008   4.719 -0.4670  1.1339 -0.5894
 8428SOL     OW36919   4.016   1.132   4.284  0.6259  0.9782 -0.3307
 8428SOL    HW136920   4.082   1.098   4.344  0.9985  2.1835 -0.0660
 8428SOL    HW236921   4.041   1.224   4.286 -2.2883  1.8202 -2.4629
 8429SOL     OW36922   0.261   0.348  13.852  0.2861 -0.1685 -0.1429
 8429SOL    HW136923   0.345   0.313  13.821 -0.0648 -2.7742  1.9077
 8429SOL    HW236924   0.210   0.278  13.810 -0.8516  0.0755  0.8282
 8430SOL     OW36925   0.990   0.309   6.866  0.3678 -0.4716  0.0534
 8430SOL    HW136926   1.080   0.338   6.851 -0.5641  1.1913 -2.2892
 8430SOL    HW236927   0.945   0.393   6.878  1.3457  0.2308 -1.2266
 8431SOL     OW36928   2.307   1.189  17.001  0.0377 -0.1371  0.3887
 8431SOL    HW136929   2.251   1.124  17.045  1.3174  0.1067  2.3963
 8431SOL    HW236930   2.388   1.171  17.049 -1.2937 -0.0138  2.7086
 8432SOL     OW36931   2.149   4.567   5.291 -0.0108 -0.0190 -0.0434
 8432SOL    HW136932   2.174   4.641   5.348  0.9242 -1.6724  1.6849
 8432SOL    HW236933   2.107   4.509   5.355  1.2347  0.3056  1.0739
 8433SOL     OW36934   2.081   0.251   1.524 -0.2167  0.5103  0.0898
 8433SOL    HW136935   2.160   0.281   1.479  0.1731  3.0401  2.4598
 8433SOL    HW236936   2.061   0.323   1.584 -1.5672 -0.6914  1.0960
 8434SOL     OW36937   4.545   2.792   7.957 -0.0645  0.0790  0.3240
 8434SOL    HW136938   4.469   2.843   7.983 -0.6274 -1.0769  0.9356
 8434SOL    HW236939   4.595   2.847   7.896  1.3226 -0.4277  1.0033
 8435SOL     OW36940   0.457   2.831   6.938 -0.4400  0.5899 -0.2005
 8435SOL    HW136941   0.366   2.855   6.919 -0.8650 -1.6346 -0.9961
 8435SOL    HW236942   0.502   2.915   6.939  0.6906 -0.0707  2.2918
 8436SOL     OW36943   2.691   3.577   8.179 -0.0695  0.1742  0.0497
 8436SOL    HW136944   2.756   3.527   8.130  0.0000 -1.6065  1.9475
 8436SOL    HW236945   2.610   3.563   8.129  0.0207 -0.8663  0.1994
 8437SOL     OW36946   4.394   3.525  11.884 -0.2226 -0.2275  0.2250
 8437SOL    HW136947   4.411   3.591  11.951  2.4830 -0.5740 -0.1106
 8437SOL    HW236948   4.486   3.498  11.880 -0.6574 -1.8291  1.1282
 8438SOL     OW36949   1.539   0.848  12.484 -0.2090  0.0880 -0.1155
 8438SOL    HW136950   1.447   0.824  12.491 -0.3207  0.8870  1.0957
 8438SOL    HW236951   1.566   0.812  12.568 -0.6328 -1.1496 -0.5089
 8439SOL     OW36952   3.402   1.402   7.063 -0.1311  0.6984  0.2558
 8439SOL    HW136953   3.473   1.393   7.127 -0.4212  4.0830  1.0368
 8439SOL    HW236954   3.438   1.358   6.986  1.5736  0.0032  1.4475
 8440SOL     OW36955   2.728   4.629  11.668  0.6570  0.7185  0.0266
 8440SOL    HW136956   2.788   4.704  11.674  1.9971 -0.3856  0.2364
 8440SOL    HW236957   2.676   4.639  11.588  1.1985 -2.9404 -0.7563
 8441SOL     OW36958   2.151   1.439   9.408 -0.0857  0.4249  0.2209
 8441SOL    HW136959   2.066   1.470   9.442 -0.0243  0.1041  0.6809
 8441SOL    HW236960   2.138   1.353   9.368 -0.9774  1.0818 -0.9053
 8442SOL     OW36961   2.983   1.479  10.951 -1.0594  0.4326 -0.2365
 8442SOL    HW136962   2.937   1.523  11.023  0.0009 -0.1800  0.8030
 8442SOL    HW236963   3.072   1.475  10.984 -0.1436  0.7252 -2.6896
 8443SOL     OW36964   1.200   3.883   6.755  0.2227  0.3905  0.2676
 8443SOL    HW136965   1.129   3.947   6.754  0.4840  0.6577 -1.2129
 8443SOL    HW236966   1.269   3.920   6.700  1.4121 -2.2245  0.0589
 8444SOL     OW36967   3.302   4.403   1.408  0.2598 -0.2867 -0.5406
 8444SOL    HW136968   3.225   4.418   1.353  0.8742  0.8264 -1.1107
 8444SOL    HW236969   3.350   4.486   1.420  1.7957 -1.1814 -0.4817
 8445SOL     OW36970   2.260   3.513   8.407  0.1740  0.3012 -0.2721
 8445SOL    HW136971   2.222   3.587   8.359 -0.0992  0.3077 -0.0467
 8445SOL    HW236972   2.315   3.470   8.342  0.6929  1.1449 -0.3908
 8446SOL     OW36973   1.205   1.288   6.839  0.2064 -0.4018  0.6258
 8446SOL    HW136974   1.121   1.334   6.827  1.1692  0.3933 -3.2098
 8446SOL    HW236975   1.189   1.230   6.913  0.5527 -2.4864 -0.9238
 8447SOL     OW36976   0.157   1.751   4.851 -0.7131  0.0546 -0.2265
 8447SOL    HW136977   0.248   1.723   4.863 -1.0451 -0.9372 -0.0180
 8447SOL    HW236978   0.111   1.678   4.892 -1.5549  0.4082 -0.5378
 8448SOL     OW36979   2.733   0.212   4.109  0.3149 -0.4571  0.0047
 8448SOL    HW136980   2.756   0.131   4.063  0.3276 -0.1411 -0.5507
 8448SOL    HW236981   2.661   0.249   4.057 -1.0787 -1.1403  1.4492
 8449SOL     OW36982   3.545   4.201  10.432 -0.5603 -0.4282  0.5480
 8449SOL    HW136983   3.585   4.288  10.441 -0.5202 -0.4950  1.0003
 8449SOL    HW236984   3.486   4.212  10.506 -0.3860  0.6956  0.5177
 8450SOL     OW36985   4.276   2.010   5.508  0.5603  0.0252 -0.7126
 8450SOL    HW136986   4.337   1.937   5.492  1.1023  0.3304 -0.0144
 8450SOL    HW236987   4.270   2.038   5.416  0.4396  1.0880 -0.3815
 8451SOL     OW36988   0.864   1.108   3.101  0.3160  0.2021  0.0833
 8451SOL    HW136989   0.837   1.200   3.095 -0.0396  0.1010  0.1461
 8451SOL    HW236990   0.937   1.115   3.162  1.8338  1.8260 -1.8775
 8452SOL     OW36991   1.672   0.469   0.042 -0.1399  0.7508  0.0605
 8452SOL    HW136992   1.664   0.565   0.044  2.0242  0.9386 -0.1888
 8452SOL    HW236993   1.615   0.441  17.713  0.3957 -0.9857  0.3152
 8453SOL     OW36994   0.053   0.307   5.837 -0.6518  0.0207  0.0365
 8453SOL    HW136995   0.056   0.281   5.745  1.5004  0.5832 -0.0500
 8453SOL    HW236996   0.056   0.221   5.878 -0.8392 -0.8509 -1.7707
 8454SOL     OW36997   1.191   2.856  10.620 -0.0722 -0.1648 -0.0042
 8454SOL    HW136998   1.149   2.905  10.549 -2.3334 -3.3270 -0.8425
 8454SOL    HW236999   1.251   2.805  10.565 -1.7290 -1.8605 -0.2537
 8455SOL     OW37000   1.327   0.474   5.459 -0.2899  0.0995 -0.2183
 8455SOL    HW137001   1.327   0.379   5.442 -2.9924  0.1498 -0.5423
 8455SOL    HW237002   1.283   0.485   5.543  2.0444  1.4265  0.7962
 8456SOL     OW37003   3.647   2.736   6.937 -1.1937 -0.0266  0.3893
 8456SOL    HW137004   3.621   2.828   6.934 -0.2778  0.1851 -1.0848
 8456SOL    HW237005   3.576   2.694   6.985 -1.2438  1.4542  1.6153
 8457SOL     OW37006   2.908   4.530   3.880  0.0509 -0.4235  0.3781
 8457SOL    HW137007   2.905   4.484   3.796  0.8539 -1.8444  1.1289
 8457SOL    HW237008   2.963   4.475   3.936 -0.7335  0.0319  1.6007
 8458SOL     OW37009   2.805   4.256  16.147 -0.0497 -0.2932 -0.4098
 8458SOL    HW137010   2.852   4.299  16.076 -0.7284 -2.6826 -2.2954
 8458SOL    HW237011   2.800   4.169  16.108  2.0158  0.0268 -1.3960
 8459SOL     OW37012   2.397   1.343   6.294  0.4561  0.1040 -0.1887
 8459SOL    HW137013   2.367   1.354   6.384 -2.0256 -0.5350 -0.9440
 8459SOL    HW237014   2.488   1.373   6.299  0.8312 -1.0737  0.1052
 8460SOL     OW37015   3.176   1.884   5.031 -0.2924  0.1364 -0.0446
 8460SOL    HW137016   3.175   1.974   4.998  0.2167 -0.1720 -0.8808
 8460SOL    HW237017   3.139   1.884   5.120 -0.9460  1.9187 -0.3275
 8461SOL     OW37018   0.677   0.232   2.078 -0.5512  0.1898 -0.2997
 8461SOL    HW137019   0.631   0.311   2.050 -0.5147  0.7480  1.1972
 8461SOL    HW237020   0.763   0.262   2.049 -0.6588 -0.2944 -1.1250
 8462SOL     OW37021   1.932   4.729  10.653 -0.7204  0.2505  0.1348
 8462SOL    HW137022   2.000   0.046  10.611  0.7459 -1.1064  0.8144
 8462SOL    HW237023   1.896   0.060  10.711 -1.7596  0.5495 -0.8454
 8463SOL     OW37024   0.884   1.410   2.381  1.0038  0.0484 -0.1167
 8463SOL    HW137025   0.875   1.389   2.474 -0.7742 -1.9233 -0.7261
 8463SOL    HW237026   0.794   1.408   2.348 -0.4931  0.4654  3.9452
 8464SOL     OW37027   0.977   2.317   6.338  0.3266  0.0703  0.4358
 8464SOL    HW137028   1.025   2.251   6.389 -0.2840 -0.0785  0.8156
 8464SOL    HW237029   0.917   2.344   6.408  0.0491 -1.1448  0.6628
 8465SOL     OW37030   1.847   0.905  16.760 -0.2346 -0.1795  0.0296
 8465SOL    HW137031   1.768   0.851  16.747  0.2453 -0.4787 -1.6028
 8465SOL    HW237032   1.799   0.968  16.814  0.1825  3.4481 -3.9211
 8466SOL     OW37033   0.387   1.487   8.885  0.7600  0.1577 -0.4570
 8466SOL    HW137034   0.437   1.535   8.951 -0.5576  0.3159  0.4331
 8466SOL    HW237035   0.344   1.431   8.949  1.4645  0.5403  0.3496
 8467SOL     OW37036   1.701   1.323   1.400 -0.1724 -0.3351  0.0697
 8467SOL    HW137037   1.671   1.413   1.410 -0.2084 -0.5444  1.7477
 8467SOL    HW237038   1.646   1.280   1.335  0.0559 -0.5783  0.0375
 8468SOL     OW37039   0.772   4.085   7.965 -0.3361 -0.2198  0.1381
 8468SOL    HW137040   0.760   4.082   8.059  0.8548 -2.9227  0.1930
 8468SOL    HW237041   0.793   3.996   7.938  1.9818  0.7897 -1.3891
 8469SOL     OW37042   4.135   1.936  13.736  0.0839 -0.2220  0.0094
 8469SOL    HW137043   4.084   1.879  13.794  0.2813 -0.8006 -0.3946
 8469SOL    HW237044   4.105   2.020  13.771  0.5362 -0.2856  0.5494
 8470SOL     OW37045   3.481   2.881   7.503  0.8112 -0.6280 -0.2606
 8470SOL    HW137046   3.555   2.871   7.563  1.1814  0.3306 -0.5695
 8470SOL    HW237047   3.500   2.969   7.470  0.5099 -1.0642 -1.5938
 8471SOL     OW37048   2.189   3.729   8.232 -0.1846 -0.3071  0.0414
 8471SOL    HW137049   2.145   3.814   8.232 -0.0266 -0.2196  2.8321
 8471SOL    HW237050   2.112   3.675   8.216 -1.6466  1.7301  0.1472
 8472SOL     OW37051   1.732   3.638   5.456 -0.1836  0.0579  0.3973
 8472SOL    HW137052   1.647   3.626   5.499 -1.5615 -0.9907 -2.5813
 8472SOL    HW237053   1.720   3.728   5.427  2.4446 -0.1124 -1.1909
 8473SOL     OW37054   0.074   2.536   2.129  0.2111  0.5362 -0.5641
 8473SOL    HW137055   0.160   2.516   2.166  0.1527  1.6293  0.1729
 8473SOL    HW237056   0.102   2.622   2.096  0.3007  1.9249  3.1500
 8474SOL     OW37057   2.188   3.801  17.377  0.2006 -0.0278 -0.2480
 8474SOL    HW137058   2.155   3.725  17.328 -2.4854  1.6216 -0.9736
 8474SOL    HW237059   2.128   3.795  17.451  0.7472 -2.7646 -0.0196
 8475SOL     OW37060   1.200   3.843  13.763 -0.2316 -0.0365  0.5579
 8475SOL    HW137061   1.244   3.851  13.847  1.6521  1.3345 -0.5425
 8475SOL    HW237062   1.210   3.749  13.748 -0.2833 -0.0638  0.7033
 8476SOL     OW37063   1.660   3.120   5.577  0.2994 -0.1233 -0.4475
 8476SOL    HW137064   1.646   3.035   5.534 -0.1906 -0.3366  0.1346
 8476SOL    HW237065   1.692   3.092   5.663  0.9858 -2.6867 -1.5455
 8477SOL     OW37066   1.294   1.982   0.909  0.5445  0.1126  0.5462
 8477SOL    HW137067   1.276   1.917   0.841  0.4808  0.6770  0.0262
 8477SOL    HW237068   1.313   1.919   0.979  3.5947  0.9994  0.5343
 8478SOL     OW37069   3.050   3.710  16.879  1.2586 -0.0226 -0.6360
 8478SOL    HW137070   3.058   3.706  16.784 -1.4910 -0.4468 -0.8515
 8478SOL    HW237071   3.017   3.624  16.906  0.4387  0.7705  0.9166
 8479SOL     OW37072   3.026   4.339   8.575  0.0819  0.2179  0.2331
 8479SOL    HW137073   3.113   4.317   8.540  0.8719  1.0551  1.6506
 8479SOL    HW237074   3.001   4.259   8.623 -1.8205  1.7092  1.7353
 8480SOL     OW37075   4.118   3.350   3.758  0.0423  0.9805  0.0478
 8480SOL    HW137076   4.168   3.427   3.732  1.6709 -0.4888 -1.1803
 8480SOL    HW237077   4.148   3.327   3.847  1.7284  0.7687 -0.5791
 8481SOL     OW37078   3.533   3.225  10.197 -0.5934  0.5382  0.4994
 8481SOL    HW137079   3.443   3.195  10.184  0.2937 -2.1315  0.5616
 8481SOL    HW237080   3.578   3.172  10.131 -3.7760 -0.9004 -0.4643
 8482SOL     OW37081   0.602   0.450   6.343  0.9514 -0.7503 -0.4259
 8482SOL    HW137082   0.621   0.520   6.280  1.0802  0.7647  1.3022
 8482SOL    HW237083   0.515   0.418   6.319 -0.6515  3.6904 -0.4052
 8483SOL     OW37084   1.089   0.992   7.506  0.3626 -0.0300  0.3966
 8483SOL    HW137085   1.083   1.084   7.480  0.0850 -0.4471 -1.0577
 8483SOL    HW237086   1.005   0.953   7.483  1.3909 -1.4094 -1.0516
 8484SOL     OW37087   4.205   2.553   3.121  0.1709  0.3940  0.3767
 8484SOL    HW137088   4.177   2.468   3.156  1.4866  1.0310  2.9412
 8484SOL    HW237089   4.292   2.562   3.160  1.0047 -0.6862 -1.2334
 8485SOL     OW37090   3.284   4.239   1.624  0.3874  0.1577 -0.3555
 8485SOL    HW137091   3.274   4.303   1.553  0.1714 -1.0857 -1.4607
 8485SOL    HW237092   3.259   4.299   1.694  1.6677  1.2544 -0.8208
 8486SOL     OW37093   2.071   1.665   6.871  0.0026  0.3725  0.2189
 8486SOL    HW137094   2.091   1.644   6.962  0.1452  0.6057  0.2424
 8486SOL    HW237095   1.998   1.608   6.846 -0.1620  1.0801 -0.9106
 8487SOL     OW37096   1.473   1.675  13.006 -0.2496  0.4036 -0.2153
 8487SOL    HW137097   1.493   1.748  13.065  0.3896  1.5227 -1.8308
 8487SOL    HW237098   1.399   1.641  13.057  1.2013 -1.4627  0.6641
 8488SOL     OW37099   3.562   2.165   7.993  0.2879  0.8130  0.1528
 8488SOL    HW137100   3.585   2.163   7.900  0.3037  1.5134  0.1404
 8488SOL    HW237101   3.474   2.198   7.975 -1.1307 -2.8246  0.5780
 8489SOL     OW37102   0.181   1.222  10.809  0.0826  0.2776 -0.2588
 8489SOL    HW137103   0.213   1.256  10.893 -0.1812  1.5918 -0.6933
 8489SOL    HW237104   0.264   1.178  10.789  1.0894  2.4995 -0.8926
 8490SOL     OW37105   3.659   1.603   4.548  0.0831 -0.5182 -0.3060
 8490SOL    HW137106   3.718   1.655   4.603  2.4143 -1.4793 -1.9208
 8490SOL    HW237107   3.622   1.545   4.615  0.8811  0.1313  0.6957
 8491SOL     OW37108   4.254   2.081   8.621 -0.3617  0.2721  0.3573
 8491SOL    HW137109   4.326   2.085   8.558  0.1897  0.1293  0.9836
 8491SOL    HW237110   4.182   2.067   8.560 -0.4111  0.0434  0.4688
 8492SOL     OW37111   2.678   3.813   2.016 -0.6986  0.6627  0.6175
 8492SOL    HW137112   2.705   3.721   2.017 -1.1049  0.5324 -0.3394
 8492SOL    HW237113   2.766   3.851   2.004 -0.8430  1.1045  0.9633
 8493SOL     OW37114   2.074   1.256   5.366  0.4308 -0.2287  0.4246
 8493SOL    HW137115   1.988   1.224   5.394 -0.0148  0.5951  0.0140
 8493SOL    HW237116   2.113   1.270   5.452  1.2034  0.6081 -0.0611
 8494SOL     OW37117   0.774   2.343   3.176 -0.6915  0.2573  0.9655
 8494SOL    HW137118   0.771   2.377   3.266 -0.0974 -1.8273  1.7819
 8494SOL    HW237119   0.833   2.409   3.140 -0.1577 -1.3130 -1.0780
 8495SOL     OW37120   2.502   0.763   6.480 -0.1494  0.1724 -0.8388
 8495SOL    HW137121   2.424   0.773   6.534  1.4568  1.0840  1.3051
 8495SOL    HW237122   2.562   0.704   6.525 -0.2547  0.8379  0.1725
 8496SOL     OW37123   1.279   2.741   9.801 -0.1212 -0.6293  0.5202
 8496SOL    HW137124   1.269   2.649   9.824  0.3529 -1.8503 -4.0398
 8496SOL    HW237125   1.326   2.739   9.717  0.6686  0.1971  0.9465
 8497SOL     OW37126   3.643   3.979   7.502  0.3732  0.5238  0.1065
 8497SOL    HW137127   3.597   4.056   7.535 -2.4254 -1.0375 -0.1448
 8497SOL    HW237128   3.593   3.903   7.532  2.0384 -0.8195 -0.5140
 8498SOL     OW37129   2.619   0.450   9.700  0.5092 -0.2942 -0.0005
 8498SOL    HW137130   2.547   0.388   9.695  2.2242 -2.4321  1.7731
 8498SOL    HW237131   2.692   0.397   9.668 -1.3566 -2.0375 -1.3757
 8499SOL     OW37132   0.574   1.165   5.722 -0.1811 -0.6939  0.8355
 8499SOL    HW137133   0.508   1.184   5.788  0.3213  2.2179  0.5135
 8499SOL    HW237134   0.630   1.110   5.776  2.6545  2.2432  0.9327
 8500SOL     OW37135   1.474   0.609   2.722  0.0562 -0.4248 -0.4290
 8500SOL    HW137136   1.392   0.572   2.756 -0.0641 -1.2761 -1.6256
 8500SOL    HW237137   1.442   0.698   2.708  1.3812  0.0834 -0.1850
 8501SOL     OW37138   4.006   1.731   7.868  0.6031 -0.1809  0.1641
 8501SOL    HW137139   3.998   1.684   7.951 -2.1672  0.5494  0.2957
 8501SOL    HW237140   4.086   1.697   7.827 -1.4738  0.4584 -4.4933
 8502SOL     OW37141   0.613   3.212   3.809  0.1624  0.1935 -0.2116
 8502SOL    HW137142   0.632   3.256   3.892  1.7028 -0.7828 -0.0604
 8502SOL    HW237143   0.667   3.260   3.747  0.7778 -1.7735 -1.2164
 8503SOL     OW37144   2.047   1.021   8.239 -0.4813  0.6630 -0.4290
 8503SOL    HW137145   2.129   1.003   8.286 -0.2349 -0.6980 -1.3932
 8503SOL    HW237146   2.048   0.941   8.187  0.1069  2.2098 -2.8048
 8504SOL     OW37147   0.040   4.145  15.173  0.0020 -0.4438 -0.3319
 8504SOL    HW137148   0.125   4.101  15.176 -1.2480 -2.9290 -1.1656
 8504SOL    HW237149   0.057   4.224  15.225  0.7041 -0.3630 -0.6802
 8505SOL     OW37150   2.130   0.108   9.181  0.4818 -0.1552 -0.7702
 8505SOL    HW137151   2.084   0.093   9.264  0.4940  0.8708 -0.5735
 8505SOL    HW237152   2.140   0.022   9.141  3.6580 -1.2133  2.2917
 8506SOL     OW37153   4.003   1.959   2.656  0.1416  0.1315  0.7822
 8506SOL    HW137154   3.957   1.979   2.738  1.3464  1.2071  1.1984
 8506SOL    HW237155   4.085   1.944   2.703  1.0178 -0.0460 -0.8347
 8507SOL     OW37156   1.742   4.102   5.862  0.0037 -1.0077 -0.2595
 8507SOL    HW137157   1.717   4.146   5.781  0.4009 -0.2546  0.0238
 8507SOL    HW237158   1.820   4.055   5.836  0.3604 -0.1351 -0.7608
 8508SOL     OW37159   0.880   0.333   7.504 -0.1658  0.0736 -0.0154
 8508SOL    HW137160   0.872   0.353   7.597  0.2092  2.0991 -0.4409
 8508SOL    HW237161   0.967   0.363   7.481 -0.1940 -0.6415 -1.0736
 8509SOL     OW37162   0.362   2.807   7.607  0.2682 -0.3594 -0.0323
 8509SOL    HW137163   0.361   2.717   7.641  3.4351 -0.4710 -0.2841
 8509SOL    HW237164   0.314   2.844   7.681 -0.0642  0.0017 -0.4336
 8510SOL     OW37165   2.449   3.209   7.181  0.4820  0.1855 -0.0708
 8510SOL    HW137166   2.414   3.127   7.147  1.0594  0.3763 -1.1360
 8510SOL    HW237167   2.521   3.225   7.120 -0.0696 -2.1886 -1.3331
 8511SOL     OW37168   2.825   0.545  16.890  0.4118 -0.5422 -0.4599
 8511SOL    HW137169   2.847   0.584  16.974 -3.1436 -0.9068  0.6251
 8511SOL    HW237170   2.730   0.554  16.885  0.6380  0.9628 -2.3940
 8512SOL     OW37171   4.571   2.767   3.101 -0.4190  0.0269  0.6893
 8512SOL    HW137172   4.523   2.829   3.045  0.0788  1.2456  1.6225
 8512SOL    HW237173   4.652   2.755   3.052 -0.8131 -2.1589  0.5384
 8513SOL     OW37174   4.068   4.553   7.823  0.3215 -0.3613  0.4805
 8513SOL    HW137175   4.016   4.475   7.808  0.4467 -0.2463 -0.5549
 8513SOL    HW237176   4.008   4.619   7.789  0.7400  0.0998  0.6219
 8514SOL     OW37177   2.837   1.190   4.245  0.0382 -0.1535 -0.3594
 8514SOL    HW137178   2.836   1.189   4.341 -0.8757 -0.0911 -0.3716
 8514SOL    HW237179   2.821   1.097   4.226 -0.3499 -0.5669  1.9102
 8515SOL     OW37180   2.139   0.685   7.528  0.1357 -0.1418  0.1656
 8515SOL    HW137181   2.206   0.753   7.538  0.1571 -0.6927  3.5237
 8515SOL    HW237182   2.120   0.660   7.618 -0.1930 -0.9747 -0.1342
 8516SOL     OW37183   3.438   2.842  10.306  0.2767  0.1939 -0.1614
 8516SOL    HW137184   3.482   2.757  10.312 -1.9516 -0.9132  0.2954
 8516SOL    HW237185   3.518   2.894  10.316  0.9236 -0.8395  0.1278
 8517SOL     OW37186   4.104   2.066   8.382  0.6969 -0.8289  0.3004
 8517SOL    HW137187   4.149   2.070   8.298 -1.8509  0.6871 -0.9929
 8517SOL    HW237188   4.048   1.991   8.366 -1.6976  0.6663  1.6155
 8518SOL     OW37189   3.081   1.682   7.879  0.0943 -0.1962  0.1318
 8518SOL    HW137190   3.142   1.612   7.855 -0.1788 -0.5060  0.3526
 8518SOL    HW237191   3.142   1.751   7.905 -0.7732  0.6227 -0.0375
 8519SOL     OW37192   2.880   3.549   6.727 -0.0526  0.3773 -0.2726
 8519SOL    HW137193   2.901   3.542   6.820  2.6500 -2.9665 -1.1249
 8519SOL    HW237194   2.835   3.633   6.727  0.3216  0.5758  1.0363
 8520SOL     OW37195   3.843   2.176   6.330  0.0486  0.2770  0.1311
 8520SOL    HW137196   3.790   2.217   6.261  1.4402  1.6178 -0.1415
 8520SOL    HW237197   3.811   2.086   6.330 -1.7048  0.8933 -1.2076
 8521SOL     OW37198   0.682   4.734   8.162  0.4985 -0.1409  0.7283
 8521SOL    HW137199   0.724   4.735   8.075 -1.6139  2.0205 -0.2706
 8521SOL    HW237200   0.682   0.089   8.193  0.2017  0.1385 -0.0659
 8522SOL     OW37201   3.918   3.010  16.774 -0.0913 -0.3438  0.0104
 8522SOL    HW137202   3.972   3.020  16.852 -0.6016  0.0699  0.3083
 8522SOL    HW237203   3.974   3.034  16.701  1.5046 -1.1999  0.9505
 8523SOL     OW37204   0.465   2.182   4.774  0.1577  0.3110  0.3960
 8523SOL    HW137205   0.486   2.195   4.866  0.9445  2.7907 -0.1345
 8523SOL    HW237206   0.538   2.132   4.739  0.8649  1.2618  0.5202
 8524SOL     OW37207   0.486   2.164  15.655  0.1399  0.7412  0.4454
 8524SOL    HW137208   0.474   2.127  15.742  2.2136 -0.2455  0.3174
 8524SOL    HW237209   0.436   2.119  15.587 -1.3442  1.2725  1.1896
 8525SOL     OW37210   4.093   3.085  11.285  0.1078  0.6697 -0.1725
 8525SOL    HW137211   4.062   2.999  11.260 -1.0216  0.7121  1.1205
 8525SOL    HW237212   4.021   3.142  11.257 -0.7792  0.3270  1.4406
 8526SOL     OW37213   2.495   1.483   5.549 -0.5185  0.0524 -0.4719
 8526SOL    HW137214   2.552   1.407   5.537 -1.1524 -0.4495 -0.3323
 8526SOL    HW237215   2.563   1.550   5.545 -0.6686  0.2408  0.1837
 8527SOL     OW37216   0.270   4.378   6.525 -0.2258  0.3994 -0.6328
 8527SOL    HW137217   0.202   4.385   6.591 -0.5764 -1.7314 -0.7634
 8527SOL    HW237218   0.287   4.284   6.530 -0.3681  0.4334  0.4694
 8528SOL     OW37219   0.734   0.172   1.201  0.4572  0.1603 -0.2897
 8528SOL    HW137220   0.758   0.206   1.288  1.8426 -2.8138  0.4990
 8528SOL    HW237221   0.817   0.144   1.163 -0.1169 -1.0254 -0.6720
 8529SOL     OW37222   0.113   3.454   0.947  0.2419 -0.3923  0.0116
 8529SOL    HW137223   0.182   3.397   0.914  2.0771  2.5756 -1.2629
 8529SOL    HW237224   0.167   3.533   0.941 -2.4768  1.7765  3.9358
 8530SOL     OW37225   0.284   1.128   5.149  0.5688 -0.0210  0.0709
 8530SOL    HW137226   0.275   1.174   5.232 -0.4778 -0.5206  0.2347
 8530SOL    HW237227   0.195   1.110   5.116  0.9156 -3.2681  0.9482
 8531SOL     OW37228   2.470   0.470   6.230  0.2409  0.2124  0.0896
 8531SOL    HW137229   2.432   0.488   6.317 -0.3975 -0.7852  0.0091
 8531SOL    HW237230   2.513   0.387   6.247  0.0554  0.3902  1.4330
 8532SOL     OW37231   0.668   1.434   1.623  0.1284 -0.0084 -0.6122
 8532SOL    HW137232   0.623   1.518   1.610 -3.5447 -1.7383  0.9381
 8532SOL    HW237233   0.725   1.419   1.547 -1.1881 -3.1690 -0.9868
 8533SOL     OW37234   3.467   3.871  17.548  0.1639  0.0666  0.1224
 8533SOL    HW137235   3.416   3.940  17.506  1.5725  0.9290 -0.1648
 8533SOL    HW237236   3.402   3.802  17.532 -1.2689  1.6991 -1.0319
 8534SOL     OW37237   4.023   4.195  12.860  0.5596 -0.1325  0.3428
 8534SOL    HW137238   4.054   4.184  12.950 -0.5176  0.5771  0.7997
 8534SOL    HW237239   3.987   4.109  12.836 -0.7073  1.0515 -2.0229
 8535SOL     OW37240   4.344   2.813   3.685  0.4342  0.0901 -0.5015
 8535SOL    HW137241   4.426   2.764   3.677 -0.9496 -2.5839  1.4171
 8535SOL    HW237242   4.288   2.776   3.617  0.5663  1.6200 -1.4258
 8536SOL     OW37243   4.174   3.447   3.335  0.2116 -0.1125 -0.3808
 8536SOL    HW137244   4.112   3.421   3.403  0.1689  2.0811  0.4363
 8536SOL    HW237245   4.124   3.425   3.257  1.3937  2.6966 -1.9544
 8537SOL     OW37246   3.956   3.085   2.272 -0.5045  0.6020  0.2111
 8537SOL    HW137247   3.886   3.141   2.306 -1.8344  0.5664 -2.4376
 8537SOL    HW237248   3.955   3.007   2.328 -0.0767  0.8667  0.5793
 8538SOL     OW37249   2.140   1.870   4.638  0.4107 -0.1021 -0.6714
 8538SOL    HW137250   2.215   1.929   4.648  0.0080  0.5107 -1.3332
 8538SOL    HW237251   2.176   1.797   4.689 -0.0590 -0.7282 -1.2429
 8539SOL     OW37252   2.410   4.554   7.568  0.2696 -0.2241 -0.3285
 8539SOL    HW137253   2.437   4.485   7.629 -0.0489  0.3892  0.5096
 8539SOL    HW237254   2.315   4.540   7.576 -0.0270  2.8914  1.4843
 8540SOL     OW37255   1.636   0.026   3.228  0.4136  0.0415  0.0601
 8540SOL    HW137256   1.655   0.092   3.161  0.9242  0.0202  0.1824
 8540SOL    HW237257   1.724   0.001   3.255 -0.0016 -1.0240  0.4024
 8541SOL     OW37258   0.848   2.910   3.685  0.1933 -0.6947 -0.2099
 8541SOL    HW137259   0.902   2.985   3.661  1.4920 -1.4190  0.4826
 8541SOL    HW237260   0.826   2.931   3.776  1.4755 -0.7795  0.1169
 8542SOL     OW37261   1.213   3.231  11.390  0.1932  0.6430 -0.3619
 8542SOL    HW137262   1.211   3.228  11.294  0.5033 -0.5459 -0.3243
 8542SOL    HW237263   1.248   3.320  11.396  1.8503  0.0850 -1.6540
 8543SOL     OW37264   2.805   3.850   8.620  0.0623  0.1837 -0.3162
 8543SOL    HW137265   2.764   3.824   8.538 -1.0578  3.2292 -0.7140
 8543SOL    HW237266   2.890   3.806   8.615  0.1893  0.0227  2.8937
 8544SOL     OW37267   2.193   0.440  10.652 -0.3185 -0.2288 -0.4324
 8544SOL    HW137268   2.289   0.442  10.660 -0.5579  1.8136  2.1118
 8544SOL    HW237269   2.157   0.479  10.732  1.7267  0.4945  0.1587
 8545SOL     OW37270   0.187   4.067   8.522 -0.1891  0.2014  0.5349
 8545SOL    HW137271   0.165   4.153   8.487  2.2897  0.4673 -0.4436
 8545SOL    HW237272   0.283   4.065   8.513 -0.2431  1.0814 -0.1752
 8546SOL     OW37273   0.113   2.557  16.815  0.3697 -0.3122 -0.3249
 8546SOL    HW137274   0.134   2.467  16.842 -1.6450 -0.9154 -0.7091
 8546SOL    HW237275   0.186   2.569  16.754 -0.7664  1.6452 -1.3114
 8547SOL     OW37276   2.945   3.528   3.585 -0.1625 -0.0461 -0.1537
 8547SOL    HW137277   2.896   3.595   3.632 -1.1555 -0.0358 -1.1958
 8547SOL    HW237278   2.878   3.460   3.590  0.1414 -0.2148  1.6217
 8548SOL     OW37279   3.161   0.131   9.429  0.0509 -0.2397 -0.1090
 8548SOL    HW137280   3.175   0.147   9.336  0.5507  0.7531  0.1376
 8548SOL    HW237281   3.228   0.193   9.457 -0.6745  0.0063  1.0776
 8549SOL     OW37282   2.706   0.566   6.904  0.2475  0.3320 -0.2762
 8549SOL    HW137283   2.760   0.489   6.920 -1.6470 -1.1399 -1.0204
 8549SOL    HW237284   2.746   0.634   6.959  0.5739 -2.2556  2.7309
 8550SOL     OW37285   1.511   3.477   7.896 -0.0292  0.0612 -0.2582
 8550SOL    HW137286   1.487   3.462   7.987 -0.2932  0.1119 -0.3206
 8550SOL    HW237287   1.606   3.481   7.910  0.3413 -1.1232 -2.4266
 8551SOL     OW37288   2.621   2.346   5.290  0.4931 -0.3063 -0.1220
 8551SOL    HW137289   2.555   2.278   5.275  0.9586 -0.9859  0.8957
 8551SOL    HW237290   2.656   2.321   5.376 -0.8596 -0.3064  0.4346
 8552SOL     OW37291   2.385   0.878   4.988 -0.5175 -0.1843 -0.1237
 8552SOL    HW137292   2.456   0.911   5.043  0.3554 -1.4771 -0.4985
 8552SOL    HW237293   2.317   0.880   5.055 -0.1507 -3.6782  0.3523
 8553SOL     OW37294   1.343   0.511  14.636  0.0466 -0.1561 -0.0285
 8553SOL    HW137295   1.259   0.553  14.656 -0.1717 -0.9342  0.6932
 8553SOL    HW237296   1.368   0.557  14.556  0.5920 -1.3007 -0.5215
 8554SOL     OW37297   2.559   3.472   6.421 -0.1583  0.7746 -0.0275
 8554SOL    HW137298   2.648   3.489   6.388  0.8454  0.5032  2.5568
 8554SOL    HW237299   2.533   3.549   6.471 -0.3712 -0.4971  1.8447
 8555SOL     OW37300   1.900   3.722   9.060 -0.2545 -0.1730 -0.5463
 8555SOL    HW137301   1.824   3.717   9.117  0.5270 -0.9387  0.4365
 8555SOL    HW237302   1.852   3.769   8.992 -0.5785 -1.1226 -0.9746
 8556SOL     OW37303   3.368   3.132   9.320  0.1097 -0.3202 -0.3672
 8556SOL    HW137304   3.412   3.217   9.327 -0.0851 -0.2536  0.0206
 8556SOL    HW237305   3.365   3.108   9.413  1.6215 -3.2387 -1.0956
 8557SOL     OW37306   2.953   4.056   4.215 -0.7497  0.2873 -0.0690
 8557SOL    HW137307   2.964   3.972   4.259 -0.7068  0.9397  1.1616
 8557SOL    HW237308   2.893   4.100   4.275 -1.2522 -0.6004  0.0885
 8558SOL     OW37309   0.090   4.006   0.761  0.1631  0.1513  0.3023
 8558SOL    HW137310   0.151   4.080   0.764 -0.7499  0.9768 -1.2202
 8558SOL    HW237311   0.137   3.952   0.824 -1.0065 -0.0910  0.9547
 8559SOL     OW37312   0.023   1.646   7.488 -0.4178 -0.5013 -0.0322
 8559SOL    HW137313   0.084   1.581   7.522  1.2804 -0.8497 -3.7983
 8559SOL    HW237314   0.003   1.599   7.408 -3.0422  1.9636 -0.8376
 8560SOL     OW37315   3.909   0.841  13.859 -0.0583 -0.1010 -0.1298
 8560SOL    HW137316   3.957   0.864  13.780  1.9791  2.2397  1.7967
 8560SOL    HW237317   3.900   0.927  13.899  0.7785  0.3043 -0.8115
 8561SOL     OW37318   4.307   0.952  16.800  0.2433  0.4274 -0.4098
 8561SOL    HW137319   4.395   0.959  16.837 -0.0910  2.6194 -0.0424
 8561SOL    HW237320   4.292   1.040  16.764  1.9187 -0.3443 -2.9719
 8562SOL     OW37321   2.946   1.236   6.361  0.1235 -0.9082  0.4023
 8562SOL    HW137322   3.012   1.304   6.342 -0.0395 -0.4844  1.3814
 8562SOL    HW237323   2.958   1.230   6.455  0.8911  0.0410  0.3631
 8563SOL     OW37324   3.859   0.929   3.273  0.7765 -0.4276  0.7431
 8563SOL    HW137325   3.944   0.917   3.230  0.3580  0.6607 -0.3643
 8563SOL    HW237326   3.800   0.886   3.211  0.6646 -0.2273  0.7090
 8564SOL     OW37327   1.593   0.800  15.687 -0.7979 -0.4247 -0.1778
 8564SOL    HW137328   1.685   0.781  15.670 -0.0804  1.1816  1.8581
 8564SOL    HW237329   1.595   0.851  15.768  1.3013  1.3471 -1.3655
 8565SOL     OW37330   2.936   2.126   5.834  0.5284 -0.1053 -0.9878
 8565SOL    HW137331   2.995   2.177   5.779 -1.4400  2.2054 -0.9361
 8565SOL    HW237332   2.905   2.198   5.889  0.3392 -0.1437 -1.0465
 8566SOL     OW37333   1.928   0.238   5.963 -0.0841 -0.6047  0.5404
 8566SOL    HW137334   2.002   0.229   6.023  2.6866  2.0197 -2.5014
 8566SOL    HW237335   1.899   0.330   5.967  2.0564  0.2302 -2.7945
 8567SOL     OW37336   2.902   4.135   4.605 -0.3691 -0.0527  0.1542
 8567SOL    HW137337   2.850   4.137   4.524  0.3637 -0.3225 -0.3219
 8567SOL    HW237338   2.955   4.058   4.584 -0.8807 -0.1692 -0.7416
 8568SOL     OW37339   3.086   4.539   3.050 -0.0816 -0.0970  0.2134
 8568SOL    HW137340   3.086   4.625   3.009  3.1463 -0.8014 -1.2876
 8568SOL    HW237341   3.020   4.494   2.998 -0.7787  1.4366 -0.2189
 8569SOL     OW37342   2.802   1.478   5.070  0.8915  0.4815 -0.1633
 8569SOL    HW137343   2.739   1.488   4.998  0.4207  1.9876  0.4549
 8569SOL    HW237344   2.881   1.449   5.025  0.9538  0.2485  0.0985
 8570SOL     OW37345   0.895   0.149   3.136  0.0996  0.2151  0.1666
 8570SOL    HW137346   0.922   0.239   3.119  0.4805  0.6606  3.1119
 8570SOL    HW237347   0.803   0.158   3.159  0.9374  1.2949  3.1684
 8571SOL     OW37348   1.920   4.566   7.739 -0.8955 -0.1207  0.1390
 8571SOL    HW137349   1.888   4.608   7.818  0.5436  0.1536  0.5772
 8571SOL    HW237350   1.899   4.628   7.669  0.4641  1.3287  1.0042
 8572SOL     OW37351   4.108   2.419   6.071  0.3607  0.0760 -0.3581
 8572SOL    HW137352   4.079   2.471   5.996  0.6603  1.0892  0.2198
 8572SOL    HW237353   4.204   2.427   6.066  0.6535 -1.6737  2.3947
 8573SOL     OW37354   0.952   3.478   8.830 -0.5205 -0.0727  0.5498
 8573SOL    HW137355   0.945   3.383   8.831 -0.4621 -0.0694  1.8193
 8573SOL    HW237356   0.892   3.516   8.767 -0.0007 -1.5062 -0.8114
 8574SOL     OW37357   4.038   0.556   3.953 -0.0822 -0.0134 -0.0235
 8574SOL    HW137358   3.972   0.602   3.902  1.5332  0.8025 -1.3941
 8574SOL    HW237359   4.105   0.539   3.886  1.3519  0.4494  1.2895
 8575SOL     OW37360   3.198   2.786   9.691 -0.4239 -0.0235  0.7901
 8575SOL    HW137361   3.172   2.803   9.782 -1.0396 -2.1923  1.0260
 8575SOL    HW237362   3.141   2.711   9.677 -1.0615  0.6793 -0.4670
 8576SOL     OW37363   2.405   4.397   5.680  0.9708 -0.0900  0.4481
 8576SOL    HW137364   2.494   4.362   5.688  1.4657  1.1123  0.3091
 8576SOL    HW237365   2.412   4.445   5.762  1.3639 -0.8671  0.8691
 8577SOL     OW37366   3.470   0.032   9.197  0.3899 -0.2021 -0.3145
 8577SOL    HW137367   3.452   0.115   9.241  0.8541 -0.6177  0.6526
 8577SOL    HW237368   3.482   4.716   9.276 -1.4533  0.0022  0.1087
 8578SOL     OW37369   4.130   3.891   5.441 -0.2499 -0.2412 -0.5087
 8578SOL    HW137370   4.197   3.822   5.439 -0.4467 -0.5430  2.2009
 8578SOL    HW237371   4.114   3.899   5.347 -0.5641  0.8069 -0.3665
 8579SOL     OW37372   0.347   0.747   0.353 -0.2660  0.1347  0.4880
 8579SOL    HW137373   0.436   0.736   0.385  0.0658 -0.2124 -0.5715
 8579SOL    HW237374   0.327   0.828   0.402 -1.2574  2.5023 -3.8543
 8580SOL     OW37375   4.041   0.823   6.035 -0.1211  0.0783  0.2894
 8580SOL    HW137376   4.115   0.842   6.093 -2.0614  1.8264  2.1614
 8580SOL    HW237377   4.023   0.917   6.025  1.2239  0.0871 -2.1777
 8581SOL     OW37378   4.066   0.397  17.300 -0.1486 -0.7036  0.4152
 8581SOL    HW137379   4.070   0.400  17.204  0.6473  0.7925  0.4914
 8581SOL    HW237380   4.148   0.444  17.311 -0.6019 -0.1745  1.6100
 8582SOL     OW37381   3.109   0.355  17.495 -0.0702 -0.1609 -0.0886
 8582SOL    HW137382   3.158   0.302  17.432  1.3969 -1.2554  1.9444
 8582SOL    HW237383   3.172   0.426  17.508  0.5399 -0.9800  1.4611
 8583SOL     OW37384   3.712   0.526  17.566 -0.2434 -0.0099 -0.6168
 8583SOL    HW137385   3.746   0.554  17.481 -0.3430 -0.8834 -0.9442
 8583SOL    HW237386   3.717   0.612  17.608 -2.3771  0.3523 -1.0837
 8584SOL     OW37387   2.147   1.366  11.054  0.3963  0.9346  0.0686
 8584SOL    HW137388   2.082   1.380  11.124 -0.0555 -0.5969 -0.0450
 8584SOL    HW237389   2.170   1.455  11.027 -1.1690  2.2847  3.0470
 8585SOL     OW37390   0.455   4.523   3.112  0.4561 -0.0642  0.3943
 8585SOL    HW137391   0.519   4.481   3.170  1.4056 -1.8089 -1.8784
 8585SOL    HW237392   0.384   4.546   3.172 -0.5023 -4.3492  0.8622
 8586SOL     OW37393   2.503   1.163  17.515 -0.3992 -0.0879  0.0501
 8586SOL    HW137394   2.581   1.108  17.508  0.8453  1.3486  2.5008
 8586SOL    HW237395   2.486   1.188  17.424  1.6112  0.4168 -0.1776
 8587SOL     OW37396   1.617   3.693   1.694 -0.0362 -0.4678  0.5041
 8587SOL    HW137397   1.687   3.628   1.693  1.7008  1.4664 -3.5783
 8587SOL    HW237398   1.658   3.777   1.716 -0.3643 -0.0564 -0.4687
 8588SOL     OW37399   2.516   0.006   8.012 -0.1182  0.1966  0.2489
 8588SOL    HW137400   2.565   4.680   8.066 -0.1808  0.0561  0.1454
 8588SOL    HW237401   2.531   0.087   8.062  2.1468 -0.2647  0.3006
 8589SOL     OW37402   2.821   4.394   9.348 -0.2344  0.3275  0.1710
 8589SOL    HW137403   2.727   4.382   9.337  0.0762  0.8248 -2.8074
 8589SOL    HW237404   2.847   4.422   9.261 -0.1268  0.6869  0.3169
 8590SOL     OW37405   3.035   0.260   8.889  0.2902  0.4594 -0.2147
 8590SOL    HW137406   2.946   0.249   8.856 -0.1432 -2.0646  1.8326
 8590SOL    HW237407   3.050   0.351   8.860  2.4428 -0.6822 -2.6662
 8591SOL     OW37408   2.497   2.000   5.741  0.0437  0.9876  0.1234
 8591SOL    HW137409   2.592   2.014   5.743  0.0505  0.9189  0.3903
 8591SOL    HW237410   2.461   2.088   5.731  0.1612  0.9764 -0.3994
 8592SOL     OW37411   4.709   2.869   2.469 -0.0928  0.4425  0.3686
 8592SOL    HW137412   4.649   2.929   2.425  0.9800 -1.7296 -4.0730
 8592SOL    HW237413   4.665   2.785   2.458 -1.8844  1.4566 -0.1278
 8593SOL     OW37414   1.079   0.457   8.679  0.5773 -0.1652  0.5001
 8593SOL    HW137415   1.017   0.508   8.731 -1.7292 -0.4158 -2.0206
 8593SOL    HW237416   1.082   0.507   8.598 -0.9733 -0.6093  0.1794
 8594SOL     OW37417   3.082   0.532   9.667  0.4272 -0.1487 -0.3398
 8594SOL    HW137418   3.128   0.524   9.751  0.5411 -3.9965 -0.7743
 8594SOL    HW237419   3.040   0.447   9.659 -1.0647  0.4403  1.1510
 8595SOL     OW37420   4.366   1.394   6.989 -0.0299 -0.2816  0.1723
 8595SOL    HW137421   4.293   1.453   6.971 -0.0375 -0.3108  0.1063
 8595SOL    HW237422   4.436   1.460   6.985 -1.8847  1.7222  0.5379
 8596SOL     OW37423   1.627   0.515   8.274 -0.2101  0.6901 -0.0630
 8596SOL    HW137424   1.614   0.431   8.230 -1.3248  0.6692  0.2954
 8596SOL    HW237425   1.709   0.494   8.319 -0.7334 -0.0936  0.5226
 8597SOL     OW37426   1.897   1.768  16.302  0.2847 -0.1466  0.4438
 8597SOL    HW137427   1.830   1.835  16.315  0.2780 -0.0667 -0.0191
 8597SOL    HW237428   1.867   1.698  16.360 -1.1801  1.5460  1.7257
 8598SOL     OW37429   2.248   4.679   5.060 -0.6324  0.1873 -0.6927
 8598SOL    HW137430   2.272   0.034   5.079 -0.2408 -0.2981  1.0945
 8598SOL    HW237431   2.228   4.647   5.148 -0.6133 -1.4654 -1.3030
 8599SOL     OW37432   0.729   3.799   0.274  0.5899 -0.3830 -0.0176
 8599SOL    HW137433   0.820   3.825   0.289  0.4692  0.1522 -0.2156
 8599SOL    HW237434   0.690   3.874   0.227  1.3283  0.4269  0.6691
 8600SOL     OW37435   3.315   3.612   7.957  0.7131  0.0417  0.0940
 8600SOL    HW137436   3.385   3.673   7.978  1.7243 -1.7870  2.0231
 8600SOL    HW237437   3.267   3.661   7.890 -0.1410 -0.4818  0.3138
 8601SOL     OW37438   1.568   4.286   4.886  0.0389 -0.4408 -0.0927
 8601SOL    HW137439   1.646   4.320   4.843  0.9522 -1.4110  0.7740
 8601SOL    HW237440   1.630   4.247   4.948  0.2128 -1.8949 -1.1801
 8602SOL     OW37441   0.045   3.324   7.729 -0.1771 -0.1212  0.1448
 8602SOL    HW137442   0.025   3.278   7.811  0.2672 -1.1934 -0.3516
 8602SOL    HW237443   4.704   3.301   7.677 -1.0106  1.9260  0.4358
 8603SOL     OW37444   4.193   4.451  15.941 -0.0131  0.1877 -0.0085
 8603SOL    HW137445   4.230   4.424  15.857  0.4409  1.6424 -0.2750
 8603SOL    HW237446   4.273   4.490  15.976 -0.8916  2.0773 -0.1552
 8604SOL     OW37447   4.128   0.711   8.679  0.2960  0.1365  0.4682
 8604SOL    HW137448   4.113   0.683   8.769  2.0960 -0.0903  0.6933
 8604SOL    HW237449   4.219   0.682   8.671  0.9484  1.3432  3.5407
 8605SOL     OW37450   3.937   4.180   4.556 -0.0074 -0.0259  0.1817
 8605SOL    HW137451   3.944   4.273   4.533 -1.6302  0.5868  2.1613
 8605SOL    HW237452   3.841   4.179   4.562 -0.0522 -0.0569 -0.5637
 8606SOL     OW37453   0.502   1.848   8.688 -0.0529  0.0260  0.0525
 8606SOL    HW137454   0.540   1.783   8.629 -0.5318  0.6984 -0.9808
 8606SOL    HW237455   0.509   1.921   8.627 -1.3541 -0.5340 -0.7815
 8607SOL     OW37456   0.012   3.290   3.702  0.3180  0.1082 -0.1669
 8607SOL    HW137457   4.654   3.295   3.720  0.2886 -0.1357 -0.2531
 8607SOL    HW237458   0.029   3.369   3.650  0.1213  0.6373  0.5680
 8608SOL     OW37459   4.718   1.516   9.171 -0.1179  0.3348  0.1958
 8608SOL    HW137460   4.663   1.581   9.214 -0.2659  0.2833  0.0860
 8608SOL    HW237461   0.029   1.567   9.105  0.6650  1.5821  1.7084
 8609SOL     OW37462   3.122   1.964   5.332  0.2066 -0.2813 -0.0891
 8609SOL    HW137463   3.028   1.951   5.345 -0.3559  1.0208 -2.9107
 8609SOL    HW237464   3.121   2.053   5.298 -0.3705 -0.4555 -0.5141
 8610SOL     OW37465   4.389   4.680   9.714 -0.2889 -0.2359 -0.0202
 8610SOL    HW137466   4.369   4.587   9.718 -2.1509  0.1433 -0.5597
 8610SOL    HW237467   4.369   4.706   9.804  0.4313 -1.0783  0.3736
 8611SOL     OW37468   4.065   0.022   2.529 -0.4533  0.0585 -0.0049
 8611SOL    HW137469   4.070   0.111   2.564 -1.4075 -0.1375  0.6184
 8611SOL    HW237470   3.971   0.013   2.512 -0.1057 -1.1910 -1.2399
 8612SOL     OW37471   1.827   1.904   3.972 -0.1932 -0.2909  0.3954
 8612SOL    HW137472   1.748   1.934   4.017 -0.5752 -0.4065 -0.2014
 8612SOL    HW237473   1.848   1.823   4.020  1.2429 -0.2557 -0.1754
 8613SOL     OW37474   0.063   1.443   2.840  0.0966 -0.4689 -0.1263
 8613SOL    HW137475   0.098   1.354   2.836  1.7189  0.2098 -1.1289
 8613SOL    HW237476   0.147   1.485   2.863  1.6637 -3.1173 -1.0465
 8614SOL     OW37477   1.355   3.299  17.439 -0.4024 -0.1685  0.1256
 8614SOL    HW137478   1.335   3.365  17.372 -1.5432 -2.0498 -1.3799
 8614SOL    HW237479   1.267   3.270  17.465  0.8585 -3.3943  0.7152
 8615SOL     OW37480   0.408   2.581  12.591  0.0280 -0.1791  0.3677
 8615SOL    HW137481   0.415   2.550  12.501  2.1778  2.1461 -0.2628
 8615SOL    HW237482   0.495   2.620  12.595 -0.2081  0.2640  1.1975
 8616SOL     OW37483   2.556   3.780  11.354 -0.4057  0.5130  0.0434
 8616SOL    HW137484   2.497   3.854  11.363  0.1385  1.1091 -1.1740
 8616SOL    HW237485   2.500   3.712  11.391  1.0726 -1.4707 -1.3132
 8617SOL     OW37486   4.529   0.747  10.120  0.1292  0.2444 -0.4679
 8617SOL    HW137487   4.555   0.657  10.098 -0.2630  0.3002 -1.1378
 8617SOL    HW237488   4.454   0.756  10.063  1.5826  0.4485 -2.3420
 8618SOL     OW37489   2.064   0.914  10.709 -0.1092  0.2399 -0.1612
 8618SOL    HW137490   1.997   0.915  10.641 -1.8214 -0.1811  1.5184
 8618SOL    HW237491   2.025   0.881  10.789  0.6167 -0.8747 -0.2714
 8619SOL     OW37492   3.954   2.694   7.114 -0.1733  0.2314  0.0659
 8619SOL    HW137493   4.005   2.617   7.140  1.0991  1.6352  1.7624
 8619SOL    HW237494   3.863   2.664   7.117  0.6268 -1.9605  2.1119
 8620SOL     OW37495   2.178   2.570   1.196 -0.0212 -0.1477  0.4578
 8620SOL    HW137496   2.125   2.501   1.237  0.9045 -1.5502 -0.6908
 8620SOL    HW237497   2.264   2.570   1.237  1.3242  0.7565 -2.3443
 8621SOL     OW37498   2.355   2.037   0.032 -0.3037 -0.1252 -0.0160
 8621SOL    HW137499   2.430   2.090   0.059  0.1449  0.2359 -1.9584
 8621SOL    HW237500   2.293   2.056   0.103  0.3961  0.1860  0.5113
 8622SOL     OW37501   1.769   0.087   6.806  0.4089 -0.0667 -0.1980
 8622SOL    HW137502   1.812   0.162   6.848 -0.9153  0.5777 -0.0152
 8622SOL    HW237503   1.693   0.130   6.768  0.6315 -0.7595 -1.4135
 8623SOL     OW37504   2.855   2.288   7.493  0.2663  0.3489  0.1511
 8623SOL    HW137505   2.799   2.244   7.557  1.8565  1.3419  2.2036
 8623SOL    HW237506   2.886   2.358   7.549 -0.4321  1.5566 -0.9634
 8624SOL     OW37507   4.328   2.086   4.999 -0.5491  0.3045 -0.6099
 8624SOL    HW137508   4.285   2.126   4.924 -0.7797 -0.9011 -1.1153
 8624SOL    HW237509   4.396   2.037   4.952  0.4376  0.6677  0.4103
 8625SOL     OW37510   4.048   2.658   7.863  0.3238  0.1184  0.4200
 8625SOL    HW137511   4.118   2.639   7.801  0.4054  1.6445  0.0455
 8625SOL    HW237512   4.047   2.754   7.864  0.6427  0.1304 -0.8630
 8626SOL     OW37513   2.577   0.069   1.290  0.0792 -0.0345  0.5669
 8626SOL    HW137514   2.586   4.719   1.331  2.1960 -0.3537 -0.5771
 8626SOL    HW237515   2.570   0.117   1.372  0.7175 -0.7809  1.0580
 8627SOL     OW37516   4.442   4.626  14.154 -0.3955  0.1980  0.2748
 8627SOL    HW137517   4.509   4.558  14.148 -1.3256 -0.5791 -1.1663
 8627SOL    HW237518   4.415   4.630  14.063 -0.9554  0.9263  0.4716
 8628SOL     OW37519   2.501   2.435   4.295  0.5852  0.2784  0.0317
 8628SOL    HW137520   2.420   2.419   4.343  0.7745  0.1695  0.3184
 8628SOL    HW237521   2.500   2.523   4.258 -1.9578 -0.1936 -1.0230
 8629SOL     OW37522   1.035   2.986   7.248  0.6391 -0.4073 -0.5328
 8629SOL    HW137523   1.060   3.003   7.339 -1.2635 -2.0238  0.2923
 8629SOL    HW237524   0.994   2.900   7.256 -1.0516  0.5581  1.2030
 8630SOL     OW37525   0.038   0.276  17.399  0.1859  0.4730 -0.0548
 8630SOL    HW137526   0.067   0.335  17.469  0.4491 -1.0480  1.1228
 8630SOL    HW237527   0.053   0.331  17.322 -0.4576 -1.7035 -1.7320
 8631SOL     OW37528   3.838   0.984  13.352  0.3062  0.2258  0.7427
 8631SOL    HW137529   3.815   1.076  13.359  0.9807  0.2425  2.8178
 8631SOL    HW237530   3.771   0.934  13.398  1.0378 -0.6547  0.8745
 8632SOL     OW37531   3.591   1.892   2.529 -0.2240 -0.7851  0.3629
 8632SOL    HW137532   3.576   1.803   2.497 -3.1809 -0.5886  1.1836
 8632SOL    HW237533   3.618   1.871   2.619 -2.4073 -2.9970  0.5025
 8633SOL     OW37534   3.894   4.311   8.139  0.6382  0.4535  0.2200
 8633SOL    HW137535   3.802   4.331   8.122  0.6476  0.3216  0.0109
 8633SOL    HW237536   3.924   4.277   8.055 -0.0220 -0.5362  0.3826
 8634SOL     OW37537   2.502   2.892   8.441 -0.4876  0.1122 -0.4395
 8634SOL    HW137538   2.431   2.858   8.495  0.7281 -1.8232 -0.0700
 8634SOL    HW237539   2.544   2.813   8.409 -0.8545 -0.0866 -0.4294
 8635SOL     OW37540   2.874   3.790   3.849 -0.4345  0.3588  0.5098
 8635SOL    HW137541   2.815   3.731   3.802  1.8091 -1.3421 -0.2074
 8635SOL    HW237542   2.833   3.874   3.831 -0.6170  0.1320 -0.1465
 8636SOL     OW37543   4.277   1.449   4.896 -0.1753 -0.0360 -0.5025
 8636SOL    HW137544   4.341   1.516   4.921  0.0677 -0.3066 -0.3948
 8636SOL    HW237545   4.203   1.502   4.868 -0.3428 -0.5699 -1.0717
 8637SOL     OW37546   2.101   0.768  11.861  0.0908 -0.6953 -0.0869
 8637SOL    HW137547   2.041   0.805  11.927  1.0634  0.0258  0.3959
 8637SOL    HW237548   2.033   0.731  11.805 -0.3181 -0.6618  0.3892
 8638SOL     OW37549   1.464   2.087   6.462  0.0367 -0.1212 -0.4954
 8638SOL    HW137550   1.490   2.179   6.467 -0.2419 -0.1340  1.0730
 8638SOL    HW237551   1.545   2.039   6.475  1.4707  2.6988  0.9755
 8639SOL     OW37552   1.440   2.586   6.412  0.2257 -0.6427 -0.3714
 8639SOL    HW137553   1.371   2.553   6.355  0.4060 -1.7020  0.0163
 8639SOL    HW237554   1.392   2.643   6.470 -0.9849 -0.4302 -1.5944
 8640SOL     OW37555   1.034   2.857   8.174 -0.9298 -0.0446 -0.1958
 8640SOL    HW137556   1.031   2.844   8.079  2.0594 -1.3116 -0.1141
 8640SOL    HW237557   1.055   2.951   8.178  0.8561 -0.3255 -2.6110
 8641SOL     OW37558   1.837   4.646   0.991 -0.1405 -0.0874  0.3199
 8641SOL    HW137559   1.808   4.699   1.065  0.1509  0.6892 -0.1190
 8641SOL    HW237560   1.812   4.699   0.915 -2.5543 -1.0214  0.4610
 8642SOL     OW37561   1.472   3.659   3.064  0.9924  0.2158 -0.0030
 8642SOL    HW137562   1.472   3.675   2.970 -0.8544 -2.1651 -0.4095
 8642SOL    HW237563   1.427   3.576   3.077 -1.8005  1.4665 -1.5862
 8643SOL     OW37564   0.448   3.790   0.750 -0.3487  0.4812 -0.3085
 8643SOL    HW137565   0.525   3.746   0.714 -0.5464 -0.6624  0.6577
 8643SOL    HW237566   0.483   3.835   0.827 -0.3903  1.3605 -0.8008
 8644SOL     OW37567   0.410   1.290  13.100 -0.2594 -0.4435  0.1977
 8644SOL    HW137568   0.479   1.225  13.106 -1.1957 -1.4407  0.2519
 8644SOL    HW237569   0.343   1.249  13.155  0.0656 -2.5770 -1.0393
 8645SOL     OW37570   4.440   0.523   1.439 -0.4760  0.5387 -0.0234
 8645SOL    HW137571   4.356   0.477   1.430 -0.8464  1.3453 -0.6922
 8645SOL    HW237572   4.417   0.587   1.371  2.4590  0.2374 -1.3025
 8646SOL     OW37573   1.465   0.654   3.265 -0.0714 -0.0119  0.4982
 8646SOL    HW137574   1.527   0.655   3.337 -0.6228  1.3802  0.9442
 8646SOL    HW237575   1.384   0.676   3.311 -0.5737 -1.5933  0.3936
 8647SOL     OW37576   3.045   2.111   2.999 -0.2669  0.5767 -0.6169
 8647SOL    HW137577   3.005   2.195   2.975  0.7680  1.2583  0.0069
 8647SOL    HW237578   3.002   2.064   2.928 -3.0876 -0.3846  1.7439
 8648SOL     OW37579   2.095   4.715   1.906  0.0162  0.0288  0.6495
 8648SOL    HW137580   2.148   4.723   1.826 -1.4429 -0.8835 -0.4009
 8648SOL    HW237581   2.074   4.622   1.913 -0.5169  0.0991  0.0044
 8649SOL     OW37582   2.854   2.514   5.517 -0.5128 -0.1565 -0.0501
 8649SOL    HW137583   2.810   2.436   5.550 -1.1986  0.2514 -0.0021
 8649SOL    HW237584   2.917   2.482   5.453  0.2418  2.5132 -0.6366
 8650SOL     OW37585   4.523   3.501   0.307  0.1046 -0.3182 -0.1131
 8650SOL    HW137586   4.496   3.496   0.399 -0.5173 -4.5051 -0.5260
 8650SOL    HW237587   4.478   3.423   0.276  1.1862 -1.2679  0.6940
 8651SOL     OW37588   1.268   4.349   1.003  0.5445 -0.0894 -0.2644
 8651SOL    HW137589   1.237   4.365   0.913  0.2052  0.8258  0.0202
 8651SOL    HW237590   1.278   4.254   0.997 -0.8171 -0.1043 -2.5055
 8652SOL     OW37591   4.434   3.935   3.357  0.1081  0.0493 -0.2737
 8652SOL    HW137592   4.436   4.025   3.324  0.7347  0.1235 -0.0338
 8652SOL    HW237593   4.346   3.914   3.327  0.4558  0.1553 -1.3557
 8653SOL     OW37594   0.123   2.244  13.485 -0.2077 -0.2158 -0.2571
 8653SOL    HW137595   0.122   2.290  13.569  0.6767 -0.1107 -0.2967
 8653SOL    HW237596   0.216   2.230  13.465  0.8822  5.7817  0.5885
 8654SOL     OW37597   3.783   0.108  14.068 -0.1310  0.2993 -0.4426
 8654SOL    HW137598   3.755   0.061  13.990 -1.4417  1.4994 -0.6883
 8654SOL    HW237599   3.785   0.198  14.037 -0.2375 -0.2429 -2.0060
 8655SOL     OW37600   3.151   0.640   0.789  0.5544  0.0396  0.4724
 8655SOL    HW137601   3.227   0.654   0.733  0.1148  0.9587  0.1011
 8655SOL    HW237602   3.087   0.603   0.728 -0.9526 -0.9275  2.6684
 8656SOL     OW37603   1.149   3.019   2.963 -0.0378 -0.7944  0.4782
 8656SOL    HW137604   1.155   2.980   2.875 -1.2470 -0.1157  0.1006
 8656SOL    HW237605   1.239   3.031   2.994  0.1182  0.3271 -0.3929
 8657SOL     OW37606   0.585   0.840   6.777  0.4549 -0.2252  0.7966
 8657SOL    HW137607   0.527   0.779   6.732 -2.2056  2.4381  0.6146
 8657SOL    HW237608   0.563   0.925   6.740  2.1095 -0.3562 -0.4840
 8658SOL     OW37609   4.020   3.826   4.285 -0.4503 -0.3696 -0.0852
 8658SOL    HW137610   4.018   3.753   4.222  1.6819  0.4294 -1.0794
 8658SOL    HW237611   4.082   3.888   4.247 -2.5760  0.4253 -2.2988
 8659SOL     OW37612   1.272   2.875  15.244  0.3160 -0.6179 -0.5592
 8659SOL    HW137613   1.180   2.862  15.220 -0.3776  0.6554  1.4129
 8659SOL    HW237614   1.319   2.839  15.169  0.7883  0.3176 -0.7110
 8660SOL     OW37615   1.769   0.778   5.976 -0.7552 -0.1705  0.1024
 8660SOL    HW137616   1.680   0.748   5.993 -0.7343 -0.9925 -1.3257
 8660SOL    HW237617   1.752   0.873   5.982 -0.9547 -0.1926 -0.1313
 8661SOL     OW37618   3.298   3.820   2.141  0.2422 -0.1325 -0.1257
 8661SOL    HW137619   3.236   3.869   2.195  0.6902  1.7743 -1.3603
 8661SOL    HW237620   3.356   3.886   2.105  0.7370 -0.8382 -0.6306
 8662SOL     OW37621   3.211   0.999   2.909  0.0620 -0.4128  0.0936
 8662SOL    HW137622   3.226   1.051   2.989 -0.3732 -0.6735  0.3453
 8662SOL    HW237623   3.189   0.912   2.943  0.1123 -0.9453 -1.2295
 8663SOL     OW37624   3.313   1.390   3.424 -0.1739  0.1997  0.5399
 8663SOL    HW137625   3.239   1.451   3.426 -0.2482  0.1065  0.6436
 8663SOL    HW237626   3.295   1.347   3.341  0.2340  0.5833  0.2561
 8664SOL     OW37627   2.923   3.212   2.088 -0.1558  0.0459  0.0334
 8664SOL    HW137628   2.991   3.218   2.155 -0.1584  1.0830 -0.0591
 8664SOL    HW237629   2.885   3.300   2.092 -2.4240 -0.9825  1.0377
 8665SOL     OW37630   0.602   2.969  12.898 -0.2111  0.6552  0.4490
 8665SOL    HW137631   0.549   2.906  12.948 -0.7751 -0.9597 -2.1678
 8665SOL    HW237632   0.635   2.918  12.824 -0.4660 -0.8386  1.3582
 8666SOL     OW37633   3.533   3.047   2.466  0.0082  0.0168 -0.7036
 8666SOL    HW137634   3.578   2.965   2.486 -2.0546 -1.2096 -1.1060
 8666SOL    HW237635   3.444   3.012   2.478  0.2390 -0.1978  0.3604
 8667SOL     OW37636   0.776   3.520   5.799 -0.3525 -0.1167  0.5870
 8667SOL    HW137637   0.801   3.569   5.721 -1.6004 -1.3412 -0.5580
 8667SOL    HW237638   0.750   3.435   5.765  1.3086 -0.5922  0.5130
 8668SOL     OW37639   0.356   0.297   7.098  0.3403  0.3753 -0.2929
 8668SOL    HW137640   0.283   0.317   7.157 -0.2621 -0.3372 -0.8102
 8668SOL    HW237641   0.331   0.216   7.054 -3.0952  1.4535 -0.2925
 8669SOL     OW37642   3.798   3.327  16.891  0.0900 -0.7182  0.3747
 8669SOL    HW137643   3.843   3.339  16.807 -3.3218  0.8767 -1.2135
 8669SOL    HW237644   3.778   3.233  16.892  0.9651 -0.9405 -1.5753
 8670SOL     OW37645   3.124   1.298  14.931  0.0445 -1.0181  0.0657
 8670SOL    HW137646   3.062   1.258  14.870 -0.7070  0.1256  0.0750
 8670SOL    HW237647   3.204   1.246  14.920  1.3836  0.4855  2.6712
 8671SOL     OW37648   3.646   2.161   3.500 -0.1583 -0.1755 -0.1464
 8671SOL    HW137649   3.605   2.132   3.418  1.1976 -0.7682 -0.6069
 8671SOL    HW237650   3.649   2.082   3.553  0.3131 -0.3071 -0.3662
 8672SOL     OW37651   1.060   4.580   0.725  0.0268  0.2622  1.0748
 8672SOL    HW137652   1.017   4.507   0.770  0.2858 -1.2773 -1.1177
 8672SOL    HW237653   1.059   4.535   0.640 -2.4498 -1.2343  1.8733
 8673SOL     OW37654   0.472   0.141   5.948 -0.2925  0.4068 -0.5282
 8673SOL    HW137655   0.444   0.162   5.859  0.9031 -0.6894 -1.1625
 8673SOL    HW237656   0.500   0.050   5.941 -3.0224 -0.7011  3.0229
 8674SOL     OW37657   0.207   2.721   1.297  0.1247 -0.1719  0.5514
 8674SOL    HW137658   0.131   2.724   1.239 -0.8218  1.3295  1.8664
 8674SOL    HW237659   0.197   2.629   1.323 -2.3592 -0.6618 -2.1499
 8675SOL     OW37660   1.416   3.930   7.269  0.3526 -0.6253  0.0904
 8675SOL    HW137661   1.369   3.876   7.333 -1.1548  0.4612 -0.0992
 8675SOL    HW237662   1.506   3.899   7.281  0.7704  1.0429  1.1770
 8676SOL     OW37663   3.853   1.415   7.215  0.2242 -0.5295 -0.1985
 8676SOL    HW137664   3.926   1.354   7.219  1.7818  1.4324  1.1943
 8676SOL    HW237665   3.906   1.481   7.260 -0.6041  0.0113 -0.0154
 8677SOL     OW37666   2.259   2.487   4.501  0.1274  0.2519 -0.0383
 8677SOL    HW137667   2.174   2.472   4.459  0.2730 -1.0300  0.1332
 8677SOL    HW237668   2.284   2.575   4.472 -0.1156 -0.3274 -2.0032
 8678SOL     OW37669   0.480   3.781   7.224  0.1451 -0.4879  0.1859
 8678SOL    HW137670   0.487   3.730   7.305 -3.0986  1.6457  1.7788
 8678SOL    HW237671   0.425   3.727   7.167 -0.5339 -0.1459  0.5193
 8679SOL     OW37672   0.624   2.855  15.587 -0.1446  0.7075  0.2977
 8679SOL    HW137673   0.615   2.762  15.605  1.0807  0.4800 -0.3269
 8679SOL    HW237674   0.547   2.889  15.634 -0.6520  1.1602 -0.8521
 8680SOL     OW37675   1.760   1.502  14.778 -0.6811 -0.2363  0.1392
 8680SOL    HW137676   1.718   1.552  14.848  0.8999  3.9959 -1.8902
 8680SOL    HW237677   1.807   1.568  14.726  0.1204 -0.0727  1.0740
 8681SOL     OW37678   1.049   3.254   2.523  0.2168 -0.0843 -0.2040
 8681SOL    HW137679   0.980   3.301   2.477  1.8730  3.3054  0.7414
 8681SOL    HW237680   1.079   3.311   2.594  0.6898  0.3291 -0.7332
 8682SOL     OW37681   2.474   1.381   2.864 -0.2538 -0.3355  1.5766
 8682SOL    HW137682   2.549   1.331   2.834  0.0341  1.1584 -0.2066
 8682SOL    HW237683   2.454   1.339   2.948  0.8188  0.5156  2.2487
 8683SOL     OW37684   0.587   4.159   1.241 -0.3696  0.2737 -0.1360
 8683SOL    HW137685   0.633   4.079   1.216 -0.2819 -0.1679  1.4120
 8683SOL    HW237686   0.625   4.178   1.328 -2.2049 -2.6432  1.3026
 8684SOL     OW37687   2.605   3.870   8.376 -0.1678  0.0239  0.3974
 8684SOL    HW137688   2.574   3.836   8.460  0.6408  0.4015  0.8558
 8684SOL    HW237689   2.542   3.843   8.310 -2.3886  1.3754  1.9741
 8685SOL     OW37690   1.393   1.333   7.508 -0.3651 -0.1894  0.1871
 8685SOL    HW137691   1.336   1.397   7.550 -1.8379 -0.0255 -2.0739
 8685SOL    HW237692   1.415   1.290   7.591  1.9950  1.4716  0.4197
 8686SOL     OW37693   2.558   1.265  11.676 -0.0323  0.3027 -0.4988
 8686SOL    HW137694   2.534   1.186  11.628 -0.3984  0.3574 -0.4046
 8686SOL    HW237695   2.628   1.297  11.618  0.7336 -0.3852  0.0549
 8687SOL     OW37696   0.264   0.527   3.881  0.1747  0.0011 -0.2646
 8687SOL    HW137697   0.233   0.543   3.792 -1.6435 -0.6731  0.2302
 8687SOL    HW237698   0.187   0.491   3.926  0.4581  1.3344  1.2833
 8688SOL     OW37699   4.635   1.334   4.527  0.3574  0.1126  0.0352
 8688SOL    HW137700   4.667   1.422   4.511 -0.3948  0.4451  0.3410
 8688SOL    HW237701   4.603   1.314   4.439 -1.4756  2.3577  0.1921
 8689SOL     OW37702   0.969   2.233   7.395 -0.3531  0.1976  0.1577
 8689SOL    HW137703   0.903   2.167   7.374  1.0981 -1.1289 -0.2814
 8689SOL    HW237704   1.047   2.183   7.370  1.5564  2.7036  1.0925
 8690SOL     OW37705   2.105   3.881   2.533 -0.2622  0.2866 -0.3104
 8690SOL    HW137706   2.134   3.836   2.453 -1.2246 -0.5214 -0.1906
 8690SOL    HW237707   2.074   3.812   2.591 -2.0610  0.8117 -0.6442
 8691SOL     OW37708   3.407   4.634   3.650  0.1874 -0.9171 -0.2131
 8691SOL    HW137709   3.315   4.627   3.625 -0.0970  0.3359  0.4926
 8691SOL    HW237710   3.408   4.596   3.738  1.5512  0.6491  0.4561
 8692SOL     OW37711   3.934   3.776  10.107 -0.0331  0.2973 -0.4497
 8692SOL    HW137712   3.878   3.777  10.185 -0.1690  0.7192 -0.5541
 8692SOL    HW237713   4.022   3.809  10.124  1.2345 -4.3506  1.9173
 8693SOL     OW37714   2.447   0.835   1.810  0.1988  0.0470 -0.2814
 8693SOL    HW137715   2.368   0.828   1.756  0.4402 -1.6270 -0.4303
 8693SOL    HW237716   2.446   0.929   1.828  1.4427  0.3848 -2.0128
 8694SOL     OW37717   1.291   3.003   1.245 -0.0172  0.3393 -0.0523
 8694SOL    HW137718   1.275   3.063   1.172  0.0343  0.3683 -0.0400
 8694SOL    HW237719   1.382   3.024   1.266 -0.4149  1.7083  0.2976
 8695SOL     OW37720   2.861   2.565   4.998  0.0426 -0.5832  0.0245
 8695SOL    HW137721   2.782   2.567   5.052 -0.7666 -0.3415 -1.1535
 8695SOL    HW237722   2.831   2.562   4.907 -2.5082  1.2047  0.7791
 8696SOL     OW37723   3.092   0.921   2.647 -0.0990  0.3298 -0.3761
 8696SOL    HW137724   3.009   0.924   2.694 -0.2731  1.4582 -0.7367
 8696SOL    HW237725   3.139   0.955   2.723 -0.4448 -0.5260  0.2093
 8697SOL     OW37726   0.529   0.099   0.766 -0.7561  0.7924  0.4003
 8697SOL    HW137727   0.612   0.080   0.722 -1.8354 -3.1665  0.0496
 8697SOL    HW237728   0.473   0.035   0.722 -1.0077  0.3684  1.3210
 8698SOL     OW37729   1.794   2.204  12.254  0.4198  0.5595 -0.6948
 8698SOL    HW137730   1.759   2.208  12.343  0.3589  0.3464 -0.7104
 8698SOL    HW237731   1.797   2.297  12.231  2.4370  0.4743 -0.7356
 8699SOL     OW37732   3.361   1.042   6.251 -0.2562  0.3612 -0.0826
 8699SOL    HW137733   3.424   0.974   6.275 -0.7422 -0.7424 -1.9564
 8699SOL    HW237734   3.284   0.986   6.247 -0.0906  0.1735 -0.6168
 8700SOL     OW37735   2.200   1.277   4.392  0.3019  0.1878  0.2328
 8700SOL    HW137736   2.203   1.214   4.320  1.3609  0.4564  0.0355
 8700SOL    HW237737   2.259   1.225   4.447  0.5283 -1.1263 -1.2342
 8701SOL     OW37738   3.420   3.169   8.805  0.2523  0.0798  0.2706
 8701SOL    HW137739   3.441   3.075   8.811  0.3525  0.1316  0.6934
 8701SOL    HW237740   3.419   3.188   8.899  1.1790 -0.6403  0.4355
 8702SOL     OW37741   4.372   0.800   8.184 -0.0050  0.2081 -0.9999
 8702SOL    HW137742   4.453   0.752   8.166 -1.1823 -3.0832  2.4714
 8702SOL    HW237743   4.308   0.731   8.169 -1.0742  1.1174 -0.6042
 8703SOL     OW37744   0.400   1.034   5.483  0.5807  0.3687 -0.0374
 8703SOL    HW137745   0.443   0.980   5.548  0.0797  0.6551  0.5330
 8703SOL    HW237746   0.464   1.103   5.468  0.1919  0.0935 -3.0506
 8704SOL     OW37747   3.147   3.709  16.226 -0.5844 -0.4021 -0.2953
 8704SOL    HW137748   3.185   3.638  16.277 -2.6589 -0.7583  0.7532
 8704SOL    HW237749   3.100   3.656  16.161  0.9146 -1.4807 -0.4981
 8705SOL     OW37750   0.545   0.427  15.358  0.0138  0.1180 -0.2708
 8705SOL    HW137751   0.567   0.519  15.345 -0.2707  0.4796  1.8490
 8705SOL    HW237752   0.451   0.429  15.341 -0.4661 -0.1971  2.3841
 8706SOL     OW37753   4.185   4.569   4.891 -0.9018 -0.4039  0.6714
 8706SOL    HW137754   4.169   4.602   4.980 -1.2841  1.4555 -0.0862
 8706SOL    HW237755   4.260   4.620   4.861 -1.4754  0.5197  0.7995
 8707SOL     OW37756   2.297   1.656  16.289 -0.5918 -0.0695  0.0628
 8707SOL    HW137757   2.344   1.734  16.258 -0.6486 -0.1818 -0.3061
 8707SOL    HW237758   2.268   1.611  16.210  2.5240 -1.9975  0.0314
 8708SOL     OW37759   3.826   3.625  17.229 -0.4570 -0.0897  0.3208
 8708SOL    HW137760   3.896   3.660  17.174 -0.1305  0.4809  1.0970
 8708SOL    HW237761   3.752   3.671  17.188 -0.2501 -2.3046 -2.5348
 8709SOL     OW37762   0.488   3.327   7.294  0.4222 -0.5249 -0.0547
 8709SOL    HW137763   0.537   3.282   7.363  0.4807  0.4096  0.5012
 8709SOL    HW237764   0.547   3.332   7.219  3.4659 -0.6645  2.3301
 8710SOL     OW37765   0.054   4.548   4.012 -0.1500 -0.0916  0.6161
 8710SOL    HW137766   0.026   4.575   4.100  0.1937 -2.4848  1.4488
 8710SOL    HW237767   0.145   4.526   4.030  0.1424  0.6313 -0.0033
 8711SOL     OW37768   2.905   0.248   1.099 -0.5189 -0.4019  0.1918
 8711SOL    HW137769   2.922   0.303   1.023 -0.2147 -1.0920 -0.2464
 8711SOL    HW237770   2.873   0.309   1.165 -2.1399 -0.2659 -0.7241
 8712SOL     OW37771   4.317   1.215   6.451  0.2802 -0.6059 -0.0208
 8712SOL    HW137772   4.326   1.228   6.545 -1.8078 -0.3136  0.1466
 8712SOL    HW237773   4.410   1.200   6.433  0.1661 -1.0301 -0.2388
 8713SOL     OW37774   2.116   3.080   4.151  0.3795 -0.3958  0.0465
 8713SOL    HW137775   2.094   3.039   4.068  2.3430 -0.1806 -0.5947
 8713SOL    HW237776   2.157   3.007   4.197  2.0462  1.0601  0.9035
 8714SOL     OW37777   1.582   0.842   2.323  0.5502 -0.6378  0.3112
 8714SOL    HW137778   1.667   0.873   2.356  1.2419 -1.7799 -0.4147
 8714SOL    HW237779   1.523   0.916   2.339 -0.3422 -1.1029 -0.8495
 8715SOL     OW37780   4.649   1.477   2.627 -0.2908  0.0139 -0.2441
 8715SOL    HW137781   4.733   1.479   2.582  0.4479 -2.0894  1.0644
 8715SOL    HW237782   4.686   1.473   2.715 -0.1455 -2.5448 -0.4250
 8716SOL     OW37783   1.168   1.195   2.216  0.6277  0.6201 -0.2504
 8716SOL    HW137784   1.227   1.128   2.250 -1.7060 -1.7685 -0.9254
 8716SOL    HW237785   1.227   1.258   2.174  2.2038 -0.1842  0.7667
 8717SOL     OW37786   3.351   3.357   7.006 -0.2737 -0.2029 -0.1685
 8717SOL    HW137787   3.276   3.387   7.057  0.5118 -0.7642  1.3167
 8717SOL    HW237788   3.323   3.370   6.916  2.8061 -1.3503 -1.3022
 8718SOL     OW37789   3.375   0.307  10.503  0.1844 -0.0370 -0.4909
 8718SOL    HW137790   3.393   0.264  10.586 -0.8206 -1.6742 -1.1154
 8718SOL    HW237791   3.336   0.390  10.530 -1.6828 -1.0463 -0.0876
 8719SOL     OW37792   4.725   3.923  14.358  0.1032  0.2658 -0.1434
 8719SOL    HW137793   0.054   3.971  14.410  1.2340 -0.6941 -0.6392
 8719SOL    HW237794   0.005   3.836  14.395  0.6074  0.3209 -0.2182
 8720SOL     OW37795   3.595   3.901   8.274 -0.5306 -0.0600 -0.1340
 8720SOL    HW137796   3.683   3.937   8.264  0.2525 -1.9045 -0.0549
 8720SOL    HW237797   3.537   3.973   8.250 -1.2432 -1.5392 -2.9802
 8721SOL     OW37798   0.079   0.277   3.271 -0.1955 -0.3675  0.5065
 8721SOL    HW137799   0.065   0.182   3.265  1.7685 -0.8195  3.0292
 8721SOL    HW237800   0.034   0.285   3.355  0.1339 -1.3072  0.7668
 8722SOL     OW37801   3.038   0.618  14.024  0.3932  0.1501  0.2271
 8722SOL    HW137802   2.977   0.663  14.083 -0.6546 -1.4690  0.3813
 8722SOL    HW237803   3.113   0.612  14.084  0.8182 -1.4097 -0.4547
 8723SOL     OW37804   1.114   0.135  10.055 -0.6180  0.1192  0.1965
 8723SOL    HW137805   1.167   0.214  10.069  0.4721 -0.4639 -0.6408
 8723SOL    HW237806   1.121   0.121   9.960  0.6411 -0.1526  0.3287
 8724SOL     OW37807   1.928   3.473   5.583  0.9221 -0.0704  0.0733
 8724SOL    HW137808   1.871   3.521   5.523  1.0598 -0.7623 -0.6010
 8724SOL    HW237809   1.863   3.423   5.632 -1.1224  1.4914 -1.0090
 8725SOL     OW37810   2.728   2.451   8.130  0.3722  0.0630 -0.0047
 8725SOL    HW137811   2.744   2.364   8.093  0.1466  1.2297 -2.8222
 8725SOL    HW237812   2.698   2.430   8.219  0.1263  1.3702  0.2209
 8726SOL     OW37813   2.757   0.348  11.268 -0.3601  0.1725 -1.0976
 8726SOL    HW137814   2.820   0.278  11.286  2.6268  3.0487 -0.3448
 8726SOL    HW237815   2.813   0.408  11.219 -1.0120  0.6151 -1.3017
 8727SOL     OW37816   1.606   2.570  10.109 -0.0988 -0.1403 -0.7709
 8727SOL    HW137817   1.528   2.528  10.145 -0.4857  0.2063 -1.2097
 8727SOL    HW237818   1.595   2.559  10.015  1.0630  0.9291 -1.0362
 8728SOL     OW37819   2.673   0.677   7.816  0.5844  0.0032 -0.7072
 8728SOL    HW137820   2.646   0.609   7.877  1.0707  2.2684  2.0400
 8728SOL    HW237821   2.748   0.639   7.771  0.4644 -2.3339  1.0585
 8729SOL     OW37822   2.272   0.610   5.724 -0.0644  0.0241 -0.0428
 8729SOL    HW137823   2.189   0.594   5.770  0.8795 -0.7812  1.3631
 8729SOL    HW237824   2.271   0.705   5.727 -2.0274 -0.0081  0.5153
 8730SOL     OW37825   1.658   3.501   9.326  0.2370  0.4692  0.4414
 8730SOL    HW137826   1.656   3.438   9.254 -2.3544  1.7485 -0.6183
 8730SOL    HW237827   1.571   3.541   9.328  0.9861  2.0184  1.8963
 8731SOL     OW37828   3.118   0.494   2.041 -0.5501  0.4772 -0.0384
 8731SOL    HW137829   3.168   0.571   2.014  0.4035 -0.4623 -0.9026
 8731SOL    HW237830   3.176   0.426   2.008 -1.2921  0.1345 -0.6326
 8732SOL     OW37831   1.832   0.668   2.133 -0.3015 -0.0014  0.4817
 8732SOL    HW137832   1.739   0.691   2.140 -0.0534  1.3531 -0.5355
 8732SOL    HW237833   1.882   0.740   2.173  1.5561 -0.8784 -0.2528
 8733SOL     OW37834   0.717   3.257   1.481 -0.0758  0.9090 -0.6832
 8733SOL    HW137835   0.809   3.277   1.501  0.4430 -1.9259 -0.2232
 8733SOL    HW237836   0.705   3.190   1.548  3.3192 -0.3331 -1.2913
 8734SOL     OW37837   4.622   2.659  12.135  0.1708  0.5374 -0.1796
 8734SOL    HW137838   4.635   2.572  12.097 -3.6941 -0.5064  0.8242
 8734SOL    HW237839   4.708   2.682  12.170 -0.5203  1.4192  0.9383
 8735SOL     OW37840   2.323   4.347   8.620  0.1049  0.6808 -0.2000
 8735SOL    HW137841   2.381   4.272   8.607  0.0980  0.9120 -1.5809
 8735SOL    HW237842   2.379   4.403   8.673  2.7842 -0.5674 -1.7365
 8736SOL     OW37843   3.120   2.991   6.664  0.2237  0.0334 -0.1707
 8736SOL    HW137844   3.104   3.016   6.755  1.2906 -1.4645  0.4303
 8736SOL    HW237845   3.077   2.905   6.658 -0.6743  0.3414  2.0046
 8737SOL     OW37846   0.603   3.845   4.517  0.1162  0.0118  0.4713
 8737SOL    HW137847   0.585   3.756   4.486 -3.4976  1.0182 -0.2832
 8737SOL    HW237848   0.531   3.889   4.472 -1.0585 -2.2761  0.1103
 8738SOL     OW37849   0.750   1.505   3.798 -0.2295  0.4464 -0.2653
 8738SOL    HW137850   0.686   1.436   3.818 -0.1941  1.0136  1.8294
 8738SOL    HW237851   0.717   1.518   3.709 -1.1009  0.7521  0.0934
 8739SOL     OW37852   3.377   3.112   6.690 -0.4400 -0.0008  0.0837
 8739SOL    HW137853   3.360   3.206   6.687 -1.0070 -0.0039  3.2932
 8739SOL    HW237854   3.293   3.088   6.649  0.4797 -0.3030 -1.6092
 8740SOL     OW37855   0.016   0.602   6.571  0.0550  0.5879  0.2996
 8740SOL    HW137856   4.735   0.564   6.657 -0.1789  0.0074 -0.0012
 8740SOL    HW237857   4.691   0.548   6.520  0.6002 -0.6111  0.9158
 8741SOL     OW37858   1.809   4.262  16.937 -0.1935 -0.2051 -0.4969
 8741SOL    HW137859   1.823   4.356  16.927  1.0605 -0.5219 -1.8007
 8741SOL    HW237860   1.787   4.253  17.029  0.4952  2.1311 -0.1045
 8742SOL     OW37861   0.924   4.269  10.926 -0.4961 -0.2945  0.5180
 8742SOL    HW137862   0.889   4.311  11.005  1.6292  0.3833  1.0982
 8742SOL    HW237863   0.925   4.334  10.855  1.0347 -1.8243 -0.8517
 8743SOL     OW37864   0.933   1.210   4.957  0.6614 -0.3050  0.2402
 8743SOL    HW137865   0.975   1.241   4.877  0.2378  1.7570  0.8228
 8743SOL    HW237866   0.849   1.179   4.924 -0.5334  0.1729  2.8661
 8744SOL     OW37867   4.151   0.074  17.323  0.3524  0.0112 -0.2527
 8744SOL    HW137868   4.067   0.114  17.346  0.6441 -0.0763  0.9283
 8744SOL    HW237869   4.144   0.069  17.227  0.4536  2.8665 -0.4225
 8745SOL     OW37870   3.900   1.122   8.193 -0.6762  0.2270 -0.6000
 8745SOL    HW137871   3.855   1.044   8.226 -2.5983  0.8699 -1.6661
 8745SOL    HW237872   3.908   1.111   8.098 -2.9534  2.2215 -1.0418
 8746SOL     OW37873   2.698   1.001   8.642  0.1862 -0.0448 -0.2272
 8746SOL    HW137874   2.672   0.939   8.573 -1.0842 -1.0512  1.1477
 8746SOL    HW237875   2.784   0.963   8.663  1.9937  3.8886 -0.5165
 8747SOL     OW37876   4.702   3.910   8.034 -0.3672 -0.5369  0.1659
 8747SOL    HW137877   0.005   3.850   8.098 -2.1868 -0.8650  0.9487
 8747SOL    HW237878   4.614   3.873   8.032  0.0260 -1.4491 -0.4221
 8748SOL     OW37879   3.380   2.913   9.161  0.1773  0.0735  0.0467
 8748SOL    HW137880   3.405   2.986   9.219 -2.3012 -0.4365  1.7946
 8748SOL    HW237881   3.402   2.831   9.204 -0.5314  0.2020  0.6633
 8749SOL     OW37882   0.534   2.310  14.909 -0.1309 -0.3408 -0.2007
 8749SOL    HW137883   0.476   2.378  14.945  0.0475 -0.3033  0.0141
 8749SOL    HW237884   0.478   2.246  14.864  0.3444  0.0603 -1.3708
 8750SOL     OW37885   3.245   0.830   3.539 -0.3111 -0.4899 -0.0580
 8750SOL    HW137886   3.251   0.738   3.564 -1.5520 -0.0822  1.6614
 8750SOL    HW237887   3.319   0.866   3.588 -0.8266  1.8230 -0.9719
 8751SOL     OW37888   4.211   1.764   6.011  0.0066  0.0573  0.0754
 8751SOL    HW137889   4.238   1.750   6.101  2.8209 -1.5698 -1.0113
 8751SOL    HW237890   4.148   1.834   6.028  0.3205  0.9353 -2.3681
 8752SOL     OW37891   1.877   0.525   4.793 -0.2433  0.0785  0.3663
 8752SOL    HW137892   1.889   0.528   4.888 -0.5691  2.7206  0.3213
 8752SOL    HW237893   1.956   0.568   4.759 -2.2136  1.3777 -2.6081
 8753SOL     OW37894   3.582   3.971   4.918  0.1383  0.0495 -0.2383
 8753SOL    HW137895   3.498   3.988   4.876 -0.1806 -1.0131 -0.0413
 8753SOL    HW237896   3.562   3.888   4.962 -0.2561 -0.3621 -1.1893
 8754SOL     OW37897   1.525   1.818   0.745 -0.0451  0.3102 -0.2643
 8754SOL    HW137898   1.507   1.878   0.673 -0.3647  1.8919  1.1547
 8754SOL    HW237899   1.435   1.795   0.766 -0.0272  0.4121 -0.0793
 8755SOL     OW37900   1.430   3.659   2.730  0.2822  1.1596  0.0348
 8755SOL    HW137901   1.339   3.657   2.759  0.8049  0.8525  1.6323
 8755SOL    HW237902   1.444   3.752   2.709  0.5074  1.0262 -0.4173
 8756SOL     OW37903   1.312   3.680   5.967  0.0416  0.0525  0.2133
 8756SOL    HW137904   1.226   3.651   5.997  0.4813 -0.3187  1.1247
 8756SOL    HW237905   1.329   3.763   6.012 -1.6816 -0.3762  1.6440
 8757SOL     OW37906   2.034   4.022   9.002 -0.3372  0.1861  0.5418
 8757SOL    HW137907   2.075   3.935   9.009  0.1440  0.1964 -2.1606
 8757SOL    HW237908   1.948   4.003   8.965 -0.6676  0.2705  1.2770
 8758SOL     OW37909   4.305   2.047   5.796 -0.3187  0.2131 -0.3265
 8758SOL    HW137910   4.308   2.046   5.700 -0.0623 -0.7286 -0.3096
 8758SOL    HW237911   4.288   1.955   5.820 -1.2902  0.9157  1.6581
 8759SOL     OW37912   2.450   2.696   3.853  0.0710  0.0232  0.3189
 8759SOL    HW137913   2.355   2.705   3.858  0.0603 -0.6215  1.2446
 8759SOL    HW237914   2.483   2.786   3.857  4.2537 -1.3971 -1.8727
 8760SOL     OW37915   0.534   1.176   9.112  0.2924 -0.1663  0.5178
 8760SOL    HW137916   0.589   1.167   9.034  0.9383  0.4495  0.8980
 8760SOL    HW237917   0.482   1.249   9.077  1.6842  0.9375  0.7698
 8761SOL     OW37918   2.200   2.547  13.605 -0.6858 -0.3807  0.0253
 8761SOL    HW137919   2.248   2.562  13.523 -1.1447  0.0875 -0.1595
 8761SOL    HW237920   2.241   2.605  13.669  0.1985 -0.7447 -0.2080
 8762SOL     OW37921   2.887   1.692   4.201 -0.3462  0.1905  0.3417
 8762SOL    HW137922   2.913   1.600   4.193 -3.3646 -0.5377 -0.8605
 8762SOL    HW237923   2.942   1.727   4.131 -1.6332  0.5958 -0.4643
 8763SOL     OW37924   1.464   4.190  17.534  0.4945  0.1072 -0.1086
 8763SOL    HW137925   1.540   4.135  17.552  0.3311 -0.0368  0.1362
 8763SOL    HW237926   1.487   4.281  17.556  1.1187 -0.3514  1.1214
 8764SOL     OW37927   4.354   0.131  11.914  0.3590 -0.0375 -0.0243
 8764SOL    HW137928   4.329   0.157  12.003 -0.9303  0.0882 -0.4255
 8764SOL    HW237929   4.270   0.130  11.868 -0.2588  2.7307  1.0409
 8765SOL     OW37930   3.401   0.262  11.779 -0.1628 -0.0425  0.1497
 8765SOL    HW137931   3.404   0.167  11.793 -1.3103 -0.5747 -3.1920
 8765SOL    HW237932   3.451   0.261  11.697  2.5733 -0.0712  1.8043
 8766SOL     OW37933   1.268   3.543  13.434 -0.3499 -0.0758 -0.1416
 8766SOL    HW137934   1.188   3.574  13.392  0.1669  2.8825  1.0215
 8766SOL    HW237935   1.265   3.587  13.519  1.0564 -0.3007  0.0252
 8767SOL     OW37936   4.054   2.485   8.790 -0.1908  0.1578  0.2076
 8767SOL    HW137937   4.013   2.566   8.760 -1.3737 -0.4959  0.0683
 8767SOL    HW237938   4.061   2.434   8.709 -1.6874 -0.6186  0.5628
 8768SOL     OW37939   3.968   3.394  17.133 -0.2699  0.1025  0.3924
 8768SOL    HW137940   3.924   3.366  17.053  0.1451 -1.3423  0.6745
 8768SOL    HW237941   3.903   3.440  17.186 -0.5268  0.8783 -0.5890
 8769SOL     OW37942   0.151   2.906   8.105 -0.0311 -0.3856 -0.2458
 8769SOL    HW137943   0.058   2.891   8.119 -0.9041  3.3451 -1.8611
 8769SOL    HW237944   0.158   2.996   8.138 -0.8226 -0.9332  1.3698
 8770SOL     OW37945   2.336   4.636   1.790 -0.3185  0.0243  0.2396
 8770SOL    HW137946   2.418   4.655   1.744 -0.4305  0.1561  0.0951
 8770SOL    HW237947   2.274   4.653   1.719  1.8115  2.0279 -1.1583
 8771SOL     OW37948   4.657   1.891   6.536 -0.3948  0.4893  0.4139
 8771SOL    HW137949   4.574   1.931   6.509 -0.2063  1.3405  1.0735
 8771SOL    HW237950   4.703   1.884   6.452  0.9649  0.1606  1.1913
 8772SOL     OW37951   0.068   2.554  11.527 -0.0047  0.1570 -0.2218
 8772SOL    HW137952   0.041   2.642  11.553  1.8738  0.6500  0.0468
 8772SOL    HW237953   0.012   2.490  11.571  0.5735 -0.2929 -0.1384
 8773SOL     OW37954   1.934   0.305  11.733 -0.0775  0.0048 -0.4374
 8773SOL    HW137955   1.869   0.240  11.761  2.5943 -2.0875  0.9192
 8773SOL    HW237956   1.941   0.285  11.640 -1.0901 -1.8945 -0.1049
 8774SOL     OW37957   4.136   1.858   9.643 -0.0722  0.4751 -0.1365
 8774SOL    HW137958   4.126   1.766   9.669 -2.1361  0.8207  0.2673
 8774SOL    HW237959   4.227   1.863   9.672 -0.6161 -0.4465  1.7231
 8775SOL     OW37960   0.746   3.534   1.208  0.6131  0.4374  0.3242
 8775SOL    HW137961   0.716   3.487   1.286  0.3053 -0.0556 -0.0843
 8775SOL    HW237962   0.839   3.516   1.218  0.1610 -2.6228 -0.7100
 8776SOL     OW37963   3.078   0.467   1.280  0.4558 -0.3131 -0.4090
 8776SOL    HW137964   3.069   0.555   1.316  1.9113  0.5152 -2.0569
 8776SOL    HW237965   3.057   0.494   1.190 -2.0279  0.5421  0.4141
 8777SOL     OW37966   3.442   0.858   4.721  0.1677 -0.3126 -0.4923
 8777SOL    HW137967   3.432   0.776   4.770  3.3137  0.7156  1.8239
 8777SOL    HW237968   3.408   0.918   4.787 -0.0158  1.5342 -2.2651
 8778SOL     OW37969   4.179   3.103  17.546 -0.0580  0.3154 -0.8888
 8778SOL    HW137970   4.188   3.164  17.473  2.3781 -0.7487 -1.5064
 8778SOL    HW237971   4.236   3.032  17.516 -0.1482 -0.0123 -0.2980
 8779SOL     OW37972   3.875   4.116   8.311 -0.0173 -0.1279  0.3947
 8779SOL    HW137973   3.888   4.062   8.233 -0.1773 -1.1908  1.1070
 8779SOL    HW237974   3.891   4.203   8.274  2.9221 -1.7775 -2.1732
 8780SOL     OW37975   0.682   0.740   4.681  0.0016 -0.6429 -0.2712
 8780SOL    HW137976   0.702   0.718   4.590 -0.5468 -0.1464 -0.5112
 8780SOL    HW237977   0.611   0.803   4.669 -0.6405 -1.4532 -0.6622
 8781SOL     OW37978   1.406   0.321   3.840 -0.0680 -0.1972  0.5517
 8781SOL    HW137979   1.455   0.256   3.891 -1.0783 -0.2385  1.4701
 8781SOL    HW237980   1.315   0.305   3.863 -0.7975  1.5080 -1.1943
 8782SOL     OW37981   4.669   2.551  15.931  0.0791  0.4358  0.0022
 8782SOL    HW137982   4.628   2.557  16.018  0.6176  0.8498  0.2246
 8782SOL    HW237983   4.598   2.577  15.872 -1.0917  1.6469  1.9233
 8783SOL     OW37984   2.480   1.792  13.182  0.0534 -0.4699 -0.5522
 8783SOL    HW137985   2.527   1.786  13.098  0.1744 -1.1095 -0.4392
 8783SOL    HW237986   2.435   1.872  13.156 -2.1763 -1.7420 -0.6596
 8784SOL     OW37987   3.013   0.146   7.368  0.2023  0.2954  0.4935
 8784SOL    HW137988   2.972   0.061   7.350  1.1617 -0.0595 -0.0255
 8784SOL    HW237989   2.937   0.203   7.363 -1.0444 -1.4752 -0.4851
 8785SOL     OW37990   2.114   1.898   7.476  0.0452  0.1154  0.3339
 8785SOL    HW137991   2.144   1.833   7.539  2.9691  2.0993  1.0200
 8785SOL    HW237992   2.097   1.962   7.545  1.8358  1.8151 -0.7824
 8786SOL     OW37993   0.787   3.478   8.087  0.4470 -0.1498  0.4719
 8786SOL    HW137994   0.860   3.507   8.142  0.4915 -1.9271  1.3747
 8786SOL    HW237995   0.789   3.386   8.113  0.8698  0.3846  2.3386
 8787SOL     OW37996   0.978   0.440   5.066 -0.3679 -0.2687 -0.2744
 8787SOL    HW137997   1.067   0.437   5.031 -0.3070  0.7289 -0.2166
 8787SOL    HW237998   0.948   0.350   5.080  1.6661 -0.8939  0.1247
 8788SOL     OW37999   4.594   3.702   5.660  0.1741  0.0394  0.2244
 8788SOL    HW138000   4.657   3.773   5.652  0.2594  0.1502  2.0352
 8788SOL    HW238001   4.643   3.640   5.713 -2.1750 -1.4683  0.6708
 8789SOL     OW38002   1.574   1.126   0.645  0.1198  0.0754  0.1761
 8789SOL    HW138003   1.653   1.173   0.616 -0.6262  1.3933  0.2903
 8789SOL    HW238004   1.542   1.192   0.706  3.1690  1.9636 -0.2564
 8790SOL     OW38005   2.375   2.456   6.016 -0.2926 -0.0215  0.4481
 8790SOL    HW138006   2.373   2.379   6.073 -0.1722  0.4426  1.0736
 8790SOL    HW238007   2.457   2.486   6.056  0.4576 -1.7258  0.1925
 8791SOL     OW38008   1.946   2.168   5.285  0.7906  0.1240  0.4155
 8791SOL    HW138009   1.894   2.219   5.348  0.1046 -0.2647  0.1674
 8791SOL    HW238010   1.953   2.078   5.317  1.5553 -0.8482 -2.5341
 8792SOL     OW38011   2.861   2.379   3.928 -0.5018 -0.3849  0.1546
 8792SOL    HW138012   2.801   2.316   3.888 -0.8809  0.1804 -0.1509
 8792SOL    HW238013   2.847   2.374   4.023 -0.8109 -1.6465  0.0471
 8793SOL     OW38014   4.578   3.874  17.648 -0.3416 -1.1617  0.7058
 8793SOL    HW138015   4.663   3.871  17.693 -0.0896  2.0332  0.4344
 8793SOL    HW238016   4.520   3.909  17.716  0.9680  0.5637  0.9145
 8794SOL     OW38017   3.650   2.942   0.983  0.1983 -0.7998  0.6045
 8794SOL    HW138018   3.607   3.028   0.980 -0.5065 -1.2035 -0.8902
 8794SOL    HW238019   3.726   2.966   1.037  0.1782 -0.1582  0.3536
 8795SOL     OW38020   2.877   2.842  10.646 -0.0232  0.3237  0.4061
 8795SOL    HW138021   2.807   2.777  10.640  1.7049 -1.3795 -1.0956
 8795SOL    HW238022   2.887   2.878  10.559  0.4514  0.7562  0.6410
 8796SOL     OW38023   2.082   0.079  10.926  0.1182  0.4828 -0.3906
 8796SOL    HW138024   2.117   0.071  10.837 -0.2298  1.3511 -0.6071
 8796SOL    HW238025   2.010   0.141  10.913 -0.7875 -0.5482 -0.3844
 8797SOL     OW38026   0.992   0.455  10.681  0.1785  0.4431  0.0908
 8797SOL    HW138027   1.040   0.372  10.683  0.1013  0.3712 -1.0234
 8797SOL    HW238028   1.003   0.476  10.588  1.6954  1.1106  0.4188
 8798SOL     OW38029   1.673   3.604   0.577 -0.4074 -0.1121  0.0959
 8798SOL    HW138030   1.653   3.532   0.516  0.9051 -0.1888 -0.2350
 8798SOL    HW238031   1.696   3.681   0.526  1.3244 -0.1367  0.8629
 8799SOL     OW38032   2.276   0.047   4.594 -0.2021 -0.2044 -0.1494
 8799SOL    HW138033   2.242   4.725   4.661  0.7299 -0.9621 -0.3288
 8799SOL    HW238034   2.337   0.099   4.646 -0.4261 -0.3622  0.2676
 8800SOL     OW38035   4.657   1.947  16.039  0.1938  0.0782  0.6363
 8800SOL    HW138036   4.718   1.964  15.967  1.5659 -1.5745  1.4154
 8800SOL    HW238037   4.587   1.914  15.981  2.1463 -1.0838 -1.0635
 8801SOL     OW38038   4.610   1.059   6.508 -0.3363 -0.0097  0.3334
 8801SOL    HW138039   4.550   0.984   6.512 -0.7457  0.2589 -0.6429
 8801SOL    HW238040   4.698   1.024   6.513 -0.4508 -0.1510  1.2239
 8802SOL     OW38041   3.132   1.651   6.891  0.4740  0.4459  0.4743
 8802SOL    HW138042   3.132   1.557   6.913  0.0791  0.6718  1.4424
 8802SOL    HW238043   3.039   1.650   6.867  0.6169 -0.7549 -0.0547
 8803SOL     OW38044   0.915   2.638   3.110  0.2704  0.0818 -0.6877
 8803SOL    HW138045   0.820   2.635   3.104  0.1419  1.6622  0.5265
 8803SOL    HW238046   0.941   2.671   3.024 -0.6700  1.7696 -0.3103
 8804SOL     OW38047   0.564   1.013   7.021  0.4826 -0.3247  0.7122
 8804SOL    HW138048   0.554   0.922   6.994  1.2702  1.4376 -5.3524
 8804SOL    HW238049   0.659   1.020   7.014  0.3600  0.2531 -0.2636
 8805SOL     OW38050   1.212   3.059   3.597 -0.4912  0.1623 -0.5944
 8805SOL    HW138051   1.125   3.085   3.566 -0.0761  2.2183 -0.0182
 8805SOL    HW238052   1.252   3.144   3.579 -0.9311  0.5916  0.4473
 8806SOL     OW38053   4.572   2.311   8.596  0.3741 -0.1011  0.0356
 8806SOL    HW138054   4.635   2.246   8.628  0.1559 -0.4003 -0.1366
 8806SOL    HW238055   4.550   2.368   8.670 -0.7134  0.1964 -0.5198
 8807SOL     OW38056   4.427   0.133   1.980 -0.2500 -0.1062 -0.3592
 8807SOL    HW138057   4.418   0.148   2.074  1.0300 -0.6219 -0.1458
 8807SOL    HW238058   4.519   0.105   1.974 -0.2568 -0.6734  2.3040
 8808SOL     OW38059   4.308   1.785   5.153 -0.4188  0.1051  0.1647
 8808SOL    HW138060   4.284   1.811   5.064 -3.0483  2.0425  1.4252
 8808SOL    HW238061   4.328   1.869   5.194 -2.0305  0.4320  0.2951
 8809SOL     OW38062   3.468   2.498   2.630  0.1422  0.0364 -0.4846
 8809SOL    HW138063   3.529   2.462   2.694  1.2559  2.8118 -0.0051
 8809SOL    HW238064   3.525   2.539   2.564  2.9418 -3.2650 -0.1204
 8810SOL     OW38065   3.163   1.430   5.897 -0.2297  0.5688 -0.0886
 8810SOL    HW138066   3.079   1.429   5.852  1.5747 -0.4042 -3.4274
 8810SOL    HW238067   3.217   1.452   5.822  0.3285  2.9212  1.0075
 8811SOL     OW38068   3.368   4.434  15.248  0.3602 -0.5768  0.3233
 8811SOL    HW138069   3.304   4.471  15.309 -0.2999  0.0443 -0.7521
 8811SOL    HW238070   3.351   4.490  15.172  1.1479  0.2236  0.7342
 8812SOL     OW38071   4.711   4.115   0.180 -0.3299  0.1581  0.1675
 8812SOL    HW138072   4.630   4.070   0.155  1.0874 -1.0884 -2.2830
 8812SOL    HW238073   4.714   4.086   0.271 -0.6149 -0.0102  0.1260
 8813SOL     OW38074   2.006   1.653   1.230 -0.8269 -0.1280 -0.3812
 8813SOL    HW138075   1.931   1.633   1.174 -0.2297 -1.0554 -0.8415
 8813SOL    HW238076   2.032   1.563   1.249 -2.8481 -0.7291 -0.4597
 8814SOL     OW38077   3.780   0.980  16.790 -0.8784  0.3037 -0.4325
 8814SOL    HW138078   3.736   0.927  16.857  0.3704 -1.6140 -1.1380
 8814SOL    HW238079   3.828   1.033  16.853 -0.9441  2.2241 -2.0092
 8815SOL     OW38080   1.242   3.892  13.327  0.3757 -0.0206  0.2923
 8815SOL    HW138081   1.232   3.941  13.245  0.7143 -0.0461  0.2372
 8815SOL    HW238082   1.322   3.840  13.317 -0.4760 -1.2800 -0.0185
 8816SOL     OW38083   3.059   3.016   6.121 -0.0055 -0.4726  0.8643
 8816SOL    HW138084   3.055   2.920   6.123 -0.2476 -0.4842  0.0351
 8816SOL    HW238085   2.988   3.041   6.062 -0.4132 -0.0180  1.5582
 8817SOL     OW38086   2.301   0.450   3.024 -0.6678  0.5719  0.0287
 8817SOL    HW138087   2.206   0.448   3.008 -0.6709 -2.3590  0.5456
 8817SOL    HW238088   2.333   0.361   3.034  1.9984  1.5057 -0.1411
 8818SOL     OW38089   3.815   1.457   7.934 -0.2649  0.2886  0.4721
 8818SOL    HW138090   3.755   1.408   7.877  0.0702  0.0540  0.3198
 8818SOL    HW238091   3.888   1.395   7.929 -1.7082 -1.0823 -3.8399
 8819SOL     OW38092   3.661   0.580  14.423 -0.1549 -0.1655 -0.1518
 8819SOL    HW138093   3.734   0.624  14.466 -1.2654 -0.4122  1.9793
 8819SOL    HW238094   3.593   0.644  14.446 -0.6985 -0.1907 -1.7066
 8820SOL     OW38095   3.617   1.034   1.559  0.9906  0.2279  0.0129
 8820SOL    HW138096   3.664   0.968   1.509  1.2817  0.9572 -0.6719
 8820SOL    HW238097   3.572   1.076   1.486 -0.2585 -1.5587 -0.2402
 8821SOL     OW38098   1.901   3.194   2.925  0.0036  0.0512 -0.3262
 8821SOL    HW138099   1.928   3.217   3.013 -2.3544 -2.1744  0.9679
 8821SOL    HW238100   1.939   3.107   2.915 -1.7084 -0.5155 -2.1471
 8822SOL     OW38101   1.858   0.148   5.581  0.2640 -0.5635 -0.3594
 8822SOL    HW138102   1.812   0.225   5.547  0.2332 -0.1036  0.7356
 8822SOL    HW238103   1.820   0.146   5.669  1.5539 -0.3095  0.2012
 8823SOL     OW38104   1.443   4.185   7.418  0.0804 -0.2677  0.6683
 8823SOL    HW138105   1.462   4.105   7.369 -1.0922  0.4602 -0.9653
 8823SOL    HW238106   1.352   4.169   7.444 -0.8963  0.1598 -2.5008
 8824SOL     OW38107   4.402   1.269  12.860  0.6420  0.2355 -0.6642
 8824SOL    HW138108   4.356   1.343  12.821  0.2508  1.9032  2.9902
 8824SOL    HW238109   4.336   1.204  12.883  0.5017 -0.2155 -2.3764
 8825SOL     OW38110   1.664   2.528   6.188 -0.0766  0.3511 -0.0789
 8825SOL    HW138111   1.695   2.613   6.219  0.4554  0.1373 -0.0330
 8825SOL    HW238112   1.743   2.479   6.212  1.0908  1.5523 -1.4577
 8826SOL     OW38113   1.178   0.730   2.625 -0.2178 -0.6966 -0.5379
 8826SOL    HW138114   1.126   0.701   2.550 -1.6245 -0.5863  0.3814
 8826SOL    HW238115   1.137   0.816   2.627  0.3734 -0.3841 -2.4357
 8827SOL     OW38116   2.440   2.592  14.211  0.6698 -0.7852  0.3070
 8827SOL    HW138117   2.507   2.525  14.204 -0.9130 -2.4098  0.8223
 8827SOL    HW238118   2.390   2.568  14.290 -0.1119  1.7526  0.6050
 8828SOL     OW38119   0.790   0.018  12.490  0.0671 -0.3153  0.1401
 8828SOL    HW138120   0.747   0.019  12.404  2.6252 -2.0688 -1.1436
 8828SOL    HW238121   0.773   4.669  12.530  0.9714 -0.1842  0.8008
 8829SOL     OW38122   1.556   4.205  10.665  0.3698  0.2612  0.0459
 8829SOL    HW138123   1.639   4.156  10.663 -0.0279 -0.4921  2.4377
 8829SOL    HW238124   1.567   4.254  10.583 -3.6916  0.8771 -0.1396
 8830SOL     OW38125   4.397   2.707  12.323  0.1745 -0.1082 -0.2345
 8830SOL    HW138126   4.443   2.694  12.240 -0.2066  0.1287 -0.4826
 8830SOL    HW238127   4.368   2.796  12.303 -0.9083  0.2000  2.7811
 8831SOL     OW38128   2.858   2.977  17.363  0.2938 -0.2921 -0.5648
 8831SOL    HW138129   2.794   2.906  17.368 -0.6066  0.5062 -0.6411
 8831SOL    HW238130   2.832   3.022  17.444 -0.9920  1.1512 -1.7594
 8832SOL     OW38131   0.252   2.391  13.718  0.1235  0.5392  0.2133
 8832SOL    HW138132   0.281   2.480  13.739  0.8917  0.2100  0.5568
 8832SOL    HW238133   0.249   2.353  13.806 -0.0978  0.7863  0.3129
 8833SOL     OW38134   4.628   1.069   8.256 -0.4874  0.1721 -0.4840
 8833SOL    HW138135   4.546   1.083   8.305  0.2992 -1.0766  1.1543
 8833SOL    HW238136   4.608   1.113   8.173  0.6910 -0.2126 -0.9667
 8834SOL     OW38137   0.162   4.213  12.785  0.4701  0.1432 -0.3842
 8834SOL    HW138138   0.136   4.302  12.808 -1.9831 -0.7110  0.0598
 8834SOL    HW238139   0.089   4.166  12.825  2.4168 -0.6344  2.3530
 8835SOL     OW38140   4.403   4.039   1.349 -0.2451  0.1780  0.0612
 8835SOL    HW138141   4.469   3.973   1.331 -2.3419 -2.4464  2.0109
 8835SOL    HW238142   4.378   4.069   1.262  0.5444  0.5295 -0.0498
 8836SOL     OW38143   0.904   3.883   6.985 -0.1677  0.1533  0.5540
 8836SOL    HW138144   0.985   3.831   6.988  1.4743  2.5041 -2.8773
 8836SOL    HW238145   0.841   3.814   7.008 -2.0715  1.1447 -1.6708
 8837SOL     OW38146   4.275   3.989   2.777 -0.3281 -0.0197 -0.7940
 8837SOL    HW138147   4.327   3.931   2.721  0.0151  0.3441 -0.8511
 8837SOL    HW238148   4.200   3.928   2.780 -1.2780  1.3250  2.5503
 8838SOL     OW38149   0.706   2.300   5.172 -0.4847  0.1236 -0.2656
 8838SOL    HW138150   0.679   2.277   5.261  0.3803  0.2519  0.0327
 8838SOL    HW238151   0.627   2.281   5.123  0.0367 -2.4483 -0.1037
 8839SOL     OW38152   1.645   2.737   9.126  0.3483 -0.0693 -0.1984
 8839SOL    HW138153   1.607   2.708   9.043 -1.5895 -0.8421  0.9864
 8839SOL    HW238154   1.636   2.663   9.185  1.8309  1.0711  1.4814
 8840SOL     OW38155   4.028   1.181  13.622  0.0970 -0.4655 -0.5337
 8840SOL    HW138156   3.962   1.200  13.556  0.7976 -2.2788 -1.7699
 8840SOL    HW238157   4.020   1.087  13.606  0.5510 -0.0297 -3.2467
 8841SOL     OW38158   0.915   1.285  14.693 -0.3409  0.3026 -0.4692
 8841SOL    HW138159   0.862   1.364  14.680  0.8002  1.5303  2.2650
 8841SOL    HW238160   0.900   1.238  14.611  0.1968 -1.2325  0.3179
 8842SOL     OW38161   2.460   3.173   8.551  0.3538 -0.7596 -0.4550
 8842SOL    HW138162   2.550   3.169   8.583  0.5859  3.0053 -0.5713
 8842SOL    HW238163   2.450   3.086   8.513  0.5888 -1.3124  0.7707
 8843SOL     OW38164   2.342   3.785   6.684  0.1184  0.2476 -0.2920
 8843SOL    HW138165   2.422   3.762   6.637 -0.4053  1.0021 -1.5424
 8843SOL    HW238166   2.325   3.701   6.726 -0.1333 -0.3281 -1.5589
 8844SOL     OW38167   4.043   3.658   6.270 -0.3362 -0.2337 -0.1475
 8844SOL    HW138168   4.074   3.746   6.250  0.2384 -0.6165 -0.9300
 8844SOL    HW238169   4.124   3.607   6.268  0.1895  0.7357 -2.3562
 8845SOL     OW38170   1.745   4.433  15.996 -0.3223  0.0483  0.3050
 8845SOL    HW138171   1.775   4.438  16.087 -1.4448  2.6438  0.5214
 8845SOL    HW238172   1.675   4.497  16.007  0.6031  1.3508 -1.3836
 8846SOL     OW38173   0.559   2.892   9.263 -0.0590  0.0651 -0.0055
 8846SOL    HW138174   0.617   2.819   9.240  1.1401  0.2262  2.4560
 8846SOL    HW238175   0.606   2.972   9.236  0.6150  0.6739  2.9482
 8847SOL     OW38176   0.973   2.657   6.876  0.2853 -0.1884 -0.3574
 8847SOL    HW138177   0.889   2.700   6.865 -0.3554 -1.4001 -0.2641
 8847SOL    HW238178   0.963   2.580   6.820 -0.0837  0.2614 -0.8978
 8848SOL     OW38179   4.673   0.813   4.438  0.0131  0.1266  0.1550
 8848SOL    HW138180   0.002   0.882   4.445  0.3553 -0.3338  1.6747
 8848SOL    HW238181   4.589   0.858   4.448  0.0476  0.0168  0.9492
 8849SOL     OW38182   3.734   2.578  15.764 -0.2100 -0.1309 -0.7202
 8849SOL    HW138183   3.713   2.489  15.791  1.3332 -0.2360  0.1142
 8849SOL    HW238184   3.662   2.594  15.703 -1.6190  0.3177  1.0910
 8850SOL     OW38185   1.644   0.386   8.810 -0.4898  0.4541  0.0529
 8850SOL    HW138186   1.553   0.414   8.820 -0.0399  1.4750  1.2430
 8850SOL    HW238187   1.692   0.469   8.811  0.1138  0.0957  0.6729
 8851SOL     OW38188   1.754   0.743  11.105  0.4230  0.2648 -0.2655
 8851SOL    HW138189   1.807   0.664  11.103  0.6718  0.4232  0.1811
 8851SOL    HW238190   1.800   0.798  11.042  1.6890 -0.3859  0.0809
 8852SOL     OW38191   3.158   2.462   6.634 -0.1497 -0.7655 -0.0471
 8852SOL    HW138192   3.242   2.476   6.679 -1.2964  2.3454  1.2014
 8852SOL    HW238193   3.120   2.395   6.691  0.6764 -0.2136  1.1747
 8853SOL     OW38194   2.764   2.416   5.956 -0.0080  0.1244 -0.2203
 8853SOL    HW138195   2.696   2.363   5.915  1.9066 -3.1528  0.8074
 8853SOL    HW238196   2.710   2.460   6.021  0.6516 -0.5085  0.7675
 8854SOL     OW38197   3.752   1.345   2.934  0.3899 -0.0686 -0.0428
 8854SOL    HW138198   3.825   1.293   2.902 -1.9436 -1.6041 -2.8225
 8854SOL    HW238199   3.751   1.420   2.874  0.6711  1.1266  1.4297
 8855SOL     OW38200   2.129   3.445   7.027 -0.5087  0.8056  0.9128
 8855SOL    HW138201   2.035   3.438   7.038 -0.4885  2.0980  1.8447
 8855SOL    HW238202   2.134   3.416   6.936  0.2293  1.3325  0.7847
 8856SOL     OW38203   0.907   4.678   8.940  0.6072 -0.7825  0.0595
 8856SOL    HW138204   0.815   4.677   8.965 -0.2669  0.8956 -3.1477
 8856SOL    HW238205   0.904   4.597   8.888  0.0470 -0.6891 -0.0487
 8857SOL     OW38206   3.301   4.441   9.241 -0.5278 -0.3969 -0.1990
 8857SOL    HW138207   3.234   4.487   9.191  1.1181  0.9495 -1.1590
 8857SOL    HW238208   3.255   4.434   9.325 -0.7007  1.4315 -0.1477
 8858SOL     OW38209   1.520   0.790   8.518  0.4550  0.6202  0.2481
 8858SOL    HW138210   1.452   0.725   8.537  0.2171 -0.0498 -2.9073
 8858SOL    HW238211   1.476   0.864   8.558  0.1351  1.3483 -1.4443
 8859SOL     OW38212   4.319   3.554   6.336  0.0188 -0.0540  0.5812
 8859SOL    HW138213   4.399   3.503   6.351 -0.6593 -1.9203 -2.2202
 8859SOL    HW238214   4.357   3.617   6.275 -0.3013  0.6193  1.0720
 8860SOL     OW38215   2.003   1.327  11.463 -0.1672 -0.3484  0.0638
 8860SOL    HW138216   2.039   1.335  11.552  0.4009 -0.8044 -0.1221
 8860SOL    HW238217   1.911   1.308  11.479  0.0488 -0.2222  1.4368
 8861SOL     OW38218   4.454   2.303   3.962 -0.8801  0.3405 -0.0497
 8861SOL    HW138219   4.540   2.323   3.999 -1.4410 -0.9562  1.9399
 8861SOL    HW238220   4.481   2.258   3.882  1.4086  1.7753 -0.0763
 8862SOL     OW38221   3.270   1.790   3.798 -0.0798 -0.2934  0.7175
 8862SOL    HW138222   3.270   1.699   3.766  0.8793 -0.2099  0.4817
 8862SOL    HW238223   3.249   1.832   3.715  2.6029  1.5320  0.9722
 8863SOL     OW38224   1.989   2.980  11.442 -0.3925  0.0498  0.6427
 8863SOL    HW138225   1.895   2.970  11.427 -0.0420 -0.8712 -0.9202
 8863SOL    HW238226   2.000   3.075  11.432 -1.9193  0.1848  0.1445
 8864SOL     OW38227   3.891   1.515   9.597  0.4885 -0.4003 -0.2416
 8864SOL    HW138228   3.862   1.424   9.609 -1.6901  0.7543  3.2423
 8864SOL    HW238229   3.871   1.547   9.685 -0.0236 -1.2230 -0.0512
 8865SOL     OW38230   3.464   0.098   3.448  0.7244  0.4074 -0.2875
 8865SOL    HW138231   3.434   0.032   3.510 -0.0425  0.2630 -0.8152
 8865SOL    HW238232   3.500   0.162   3.509 -1.0552  0.3562  0.7990
 8866SOL     OW38233   4.183   3.829   7.949 -0.5852 -0.1973 -0.2669
 8866SOL    HW138234   4.149   3.744   7.922 -0.2081 -0.9163  1.5351
 8866SOL    HW238235   4.190   3.873   7.864  0.3350 -0.5523 -0.3687
 8867SOL     OW38236   0.912   1.496   7.095 -0.1450 -0.0976  0.7331
 8867SOL    HW138237   0.925   1.516   7.188 -0.6539  1.0859  0.5422
 8867SOL    HW238238   0.827   1.535   7.077  0.7433  1.0179 -1.0592
 8868SOL     OW38239   4.024   1.799   3.703  0.2227  0.2013  0.1140
 8868SOL    HW138240   4.045   1.767   3.791 -1.3590 -1.0294  0.0437
 8868SOL    HW238241   3.967   1.736   3.660  0.7593  0.4796 -1.0085
 8869SOL     OW38242   2.868   0.566  15.324 -0.5147  0.0945 -0.0572
 8869SOL    HW138243   2.907   0.500  15.267 -1.1478  0.1853 -0.6009
 8869SOL    HW238244   2.863   0.521  15.408 -2.6718 -1.2597 -0.9098
 8870SOL     OW38245   0.655   3.790   6.296  0.4246  0.3985 -0.2205
 8870SOL    HW138246   0.692   3.866   6.252  1.2780 -0.9353 -1.8067
 8870SOL    HW238247   0.730   3.733   6.316 -0.1615  0.5637  2.4212
 8871SOL     OW38248   1.580   3.738  10.499 -0.3442  0.3026 -0.0542
 8871SOL    HW138249   1.659   3.689  10.522  1.4452  1.7528 -2.9477
 8871SOL    HW238250   1.514   3.683  10.541 -0.2989 -0.1570 -0.5733
 8872SOL     OW38251   4.523   4.061   0.402  0.8554 -0.4185 -0.7964
 8872SOL    HW138252   4.582   4.002   0.449 -0.1589 -0.7067  0.1048
 8872SOL    HW238253   4.437   4.020   0.416  1.7198 -1.7437  0.6993
 8873SOL     OW38254   1.414   1.698   6.353 -0.4769  0.0617 -0.7649
 8873SOL    HW138255   1.446   1.715   6.264 -0.0422  1.8979 -0.2593
 8873SOL    HW238256   1.478   1.634   6.384  0.0231  0.9374  0.0227
 8874SOL     OW38257   1.253   2.883  10.049  0.2311  0.3793  0.3711
 8874SOL    HW138258   1.261   2.843   9.963 -2.2133 -0.1061  0.3634
 8874SOL    HW238259   1.175   2.842  10.087  1.2508 -1.7574  0.1518
 8875SOL     OW38260   2.838   2.515   9.297  0.3386 -0.0171 -0.1463
 8875SOL    HW138261   2.894   2.490   9.224 -1.8593 -0.8621 -1.5288
 8875SOL    HW238262   2.751   2.514   9.257 -0.8874  2.2635  2.4777
 8876SOL     OW38263   0.249   3.297   7.455  0.0960 -0.1983 -0.2060
 8876SOL    HW138264   0.232   3.372   7.398  1.8012  0.5414  0.2466
 8876SOL    HW238265   0.336   3.271   7.424 -0.8969 -2.6858 -0.8493
 8877SOL     OW38266   3.483   2.942  17.101 -0.6852  0.1284 -0.2214
 8877SOL    HW138267   3.484   3.019  17.157  1.0465 -0.0133 -0.0395
 8877SOL    HW238268   3.391   2.935  17.076 -0.0190 -2.6527 -1.9556
 8878SOL     OW38269   0.519   4.391   8.108 -0.0507  0.5061 -0.1402
 8878SOL    HW138270   0.448   4.330   8.129 -0.1099  0.3374 -0.8270
 8878SOL    HW238271   0.555   4.409   8.195 -1.7740  0.3672  0.5878
 8879SOL     OW38272   0.926   2.698   6.192  0.5121 -0.4244  0.0286
 8879SOL    HW138273   0.903   2.684   6.100  1.1582  0.1908 -0.2363
 8879SOL    HW238274   0.959   2.788   6.184 -1.4678  0.3721  0.8137
 8880SOL     OW38275   0.634   4.037   8.720  0.0657  0.2932 -0.2115
 8880SOL    HW138276   0.632   3.995   8.806 -0.9965 -1.6521 -1.1808
 8880SOL    HW238277   0.723   4.072   8.724  0.0342  0.3727 -0.1966
 8881SOL     OW38278   4.230   2.533  15.039 -0.2274  0.0415  0.5500
 8881SOL    HW138279   4.175   2.536  15.118  0.0961  1.0716  0.7455
 8881SOL    HW238280   4.161   2.500  14.981  0.4186  0.6508 -0.5678
 8882SOL     OW38281   2.092   4.169   6.920 -0.1159  0.1526 -0.0623
 8882SOL    HW138282   2.116   4.224   6.845  1.7079 -0.1105  0.3164
 8882SOL    HW238283   2.006   4.202   6.947 -0.6826 -2.8877  1.7823
 8883SOL     OW38284   3.864   1.032  11.634  0.3539 -0.2793 -0.2490
 8883SOL    HW138285   3.845   1.079  11.716  2.1496 -0.6544  0.3728
 8883SOL    HW238286   3.915   0.960  11.672 -0.5247 -0.5575  0.4156
 8884SOL     OW38287   2.563   0.966   2.092 -0.2470 -0.3000  0.2699
 8884SOL    HW138288   2.621   1.039   2.113 -0.5674  0.7927 -2.5312
 8884SOL    HW238289   2.610   0.886   2.115  1.4898  1.5674  3.1397
 8885SOL     OW38290   0.165   3.196  15.607  0.3045 -0.6057  0.1503
 8885SOL    HW138291   0.102   3.169  15.541  0.2384  1.5572 -0.6541
 8885SOL    HW238292   0.125   3.271  15.651  0.4859 -0.2815 -0.2390
 8886SOL     OW38293   1.590   0.259   8.195 -0.1619 -0.3474 -0.0094
 8886SOL    HW138294   1.539   0.215   8.127 -0.5078  1.4385 -0.9062
 8886SOL    HW238295   1.659   0.201   8.226 -0.2408 -1.5664 -2.1278
 8887SOL     OW38296   1.219   3.172   6.107 -0.1105 -0.2379 -0.1845
 8887SOL    HW138297   1.285   3.155   6.174 -0.8705 -0.5482  0.4876
 8887SOL    HW238298   1.268   3.182   6.025 -0.5068  0.0899 -0.3798
 8888SOL     OW38299   0.067   0.714   4.046 -0.0674  0.7682 -0.1404
 8888SOL    HW138300   0.044   0.621   4.039  1.0315  0.5494 -0.7555
 8888SOL    HW238301   4.732   0.748   3.993 -1.3738  0.0165  1.1111
 8889SOL     OW38302   0.581   3.429  13.556 -0.0714 -0.2559  0.1343
 8889SOL    HW138303   0.632   3.488  13.501 -0.5226  0.0961  0.0891
 8889SOL    HW238304   0.536   3.501  13.601  0.7170 -0.3511  1.0887
 8890SOL     OW38305   3.382   4.078   8.747 -0.1361 -0.2801  0.0412
 8890SOL    HW138306   3.475   4.062   8.765 -0.4783 -3.1855 -0.8433
 8890SOL    HW238307   3.378   4.153   8.806  0.5459 -0.4178  0.2644
 8891SOL     OW38308   4.452   0.595   2.853 -0.7091 -0.6764 -1.0678
 8891SOL    HW138309   4.508   0.530   2.895 -0.2090  1.0591  0.9259
 8891SOL    HW238310   4.509   0.671   2.843 -1.3882 -0.0132  0.0212
 8892SOL     OW38311   3.925   3.224   5.040  0.1488 -0.3846 -0.4448
 8892SOL    HW138312   3.891   3.191   4.957 -1.9063 -0.2878  0.3475
 8892SOL    HW238313   3.867   3.296   5.065 -0.3570 -0.3009 -1.8560
 8893SOL     OW38314   2.954   1.371   5.695  0.0667 -0.0411 -0.2768
 8893SOL    HW138315   2.915   1.434   5.634  1.8340  0.7779 -0.5459
 8893SOL    HW238316   2.986   1.303   5.636  1.1330 -0.3329  0.6560
 8894SOL     OW38317   0.501   2.062  11.109 -0.0748  0.0329 -0.0058
 8894SOL    HW138318   0.424   2.044  11.055  1.0818 -0.8976 -1.3594
 8894SOL    HW238319   0.571   2.083  11.048  0.6136  0.6343  0.9983
 8895SOL     OW38320   3.734   2.342  12.360 -0.3345  0.2396 -0.2639
 8895SOL    HW138321   3.724   2.297  12.276  0.6827  0.9144 -0.7474
 8895SOL    HW238322   3.707   2.280  12.428 -1.5835 -1.8771 -2.7100
 8896SOL     OW38323   2.385   0.635  16.635 -0.4459 -0.1056  0.1984
 8896SOL    HW138324   2.295   0.655  16.662 -0.2625  2.7203 -1.2852
 8896SOL    HW238325   2.409   0.709  16.579 -3.1274 -0.0424 -0.8685
 8897SOL     OW38326   3.463   4.142   0.732 -0.0544 -0.1963  0.4486
 8897SOL    HW138327   3.520   4.218   0.745  0.5921 -0.5431 -0.4576
 8897SOL    HW238328   3.494   4.110   0.648  0.6079  2.2099 -0.2212
 8898SOL     OW38329   4.095   4.523   6.646 -0.3224  0.1953 -0.2660
 8898SOL    HW138330   4.146   4.556   6.721 -1.2165  0.1849  0.3489
 8898SOL    HW238331   4.089   4.600   6.590  1.0680 -0.5200 -1.3966
 8899SOL     OW38332   4.306   2.779   6.547 -0.2134 -0.5309  0.4927
 8899SOL    HW138333   4.235   2.829   6.588  0.2322 -0.6613  1.4373
 8899SOL    HW238334   4.255   2.725   6.487  2.3125 -1.3216 -0.9432
 8900SOL     OW38335   0.230   2.169   9.006 -0.8713  0.2967 -0.2503
 8900SOL    HW138336   0.196   2.258   9.009 -0.2523  0.4707  1.6341
 8900SOL    HW238337   0.175   2.128   9.073 -0.6334 -0.9251 -0.8049
 8901SOL     OW38338   1.418   1.095  10.033 -0.3434  0.1737 -0.5003
 8901SOL    HW138339   1.366   1.154  10.088 -0.7161 -0.4468 -0.1839
 8901SOL    HW238340   1.497   1.146  10.015 -1.0747  1.6398  0.3949
 8902SOL     OW38341   3.950   3.925   7.066 -0.5291  0.2232 -0.2285
 8902SOL    HW138342   3.976   4.013   7.090 -1.4447 -0.0499  1.7424
 8902SOL    HW238343   3.858   3.926   7.094 -0.7737  2.2254 -1.0926
 8903SOL     OW38344   0.701   1.779   5.684 -0.1379 -0.0551  0.7779
 8903SOL    HW138345   0.724   1.790   5.591 -1.1185 -0.3772  0.4862
 8903SOL    HW238346   0.605   1.788   5.683 -0.1238  0.0216  0.1016
 8904SOL     OW38347   4.124   3.568   5.211  0.0079 -0.3496 -0.5697
 8904SOL    HW138348   4.203   3.613   5.181  0.3949 -0.0516  0.8844
 8904SOL    HW238349   4.089   3.537   5.128  0.1966 -0.1460 -0.7256
 8905SOL     OW38350   3.040   2.697   7.741  0.4891  0.1588  0.5158
 8905SOL    HW138351   3.061   2.760   7.672 -1.9637 -2.4869 -2.6343
 8905SOL    HW238352   3.055   2.750   7.819  0.1260 -1.1510  1.4759
 8906SOL     OW38353   2.870   0.457  11.614  0.1749  0.8978 -0.2978
 8906SOL    HW138354   2.900   0.421  11.698  0.0683 -0.5792 -0.8888
 8906SOL    HW238355   2.933   0.437  11.544  2.3288  2.4134  1.2026
 8907SOL     OW38356   4.396   3.207  14.819  0.3507  0.3127  0.0270
 8907SOL    HW138357   4.370   3.158  14.741 -1.4733 -0.6509  1.2581
 8907SOL    HW238358   4.480   3.167  14.842 -1.2761 -2.2849  1.5634
 8908SOL     OW38359   1.655   1.735   8.332 -0.0954 -0.0380 -0.6688
 8908SOL    HW138360   1.612   1.818   8.353 -1.1720 -0.6077 -0.5877
 8908SOL    HW238361   1.581   1.675   8.327 -0.2910  0.0553  1.0667
 8909SOL     OW38362   0.530   3.236  16.226  0.3231 -0.5736  0.0152
 8909SOL    HW138363   0.554   3.205  16.139 -0.8064  1.2891 -0.9408
 8909SOL    HW238364   0.489   3.158  16.264 -2.2481  0.9904  0.4599
 8910SOL     OW38365   3.557   1.898   6.620 -0.3213  0.0937 -0.5953
 8910SOL    HW138366   3.571   1.813   6.579 -0.2025 -0.5341  0.7654
 8910SOL    HW238367   3.463   1.904   6.607 -0.1896  0.4245 -1.3793
 8911SOL     OW38368   4.172   2.635   2.651  0.6353 -0.1244 -0.2077
 8911SOL    HW138369   4.222   2.673   2.723  0.5233 -2.0796  0.8967
 8911SOL    HW238370   4.163   2.553   2.698  0.3748 -0.9930 -1.7709
 8912SOL     OW38371   1.363   3.419   3.059  0.6014  0.4213 -0.1231
 8912SOL    HW138372   1.399   3.347   3.110 -3.3528 -1.1731  0.4798
 8912SOL    HW238373   1.394   3.397   2.971 -0.5034 -2.8778  0.3249
 8913SOL     OW38374   1.343   2.265  11.349  0.4686  0.1964 -0.2881
 8913SOL    HW138375   1.379   2.189  11.305  2.3492  1.7178 -1.3747
 8913SOL    HW238376   1.302   2.312  11.276 -0.8981 -1.0952 -0.3508
 8914SOL     OW38377   0.098   3.601  15.216 -0.6055  0.2421 -0.6115
 8914SOL    HW138378   0.049   3.684  15.215 -0.9144  0.0860  2.6069
 8914SOL    HW238379   0.103   3.577  15.308 -1.6239  2.2349 -0.0275
 8915SOL     OW38380   3.698   0.633   9.188  0.4600  0.2400  0.2241
 8915SOL    HW138381   3.642   0.638   9.110 -0.0204 -0.3251  0.5311
 8915SOL    HW238382   3.635   0.628   9.260 -1.5812 -0.5069 -1.6088
 8916SOL     OW38383   2.154   4.502  13.267  0.2170  0.1458  0.4801
 8916SOL    HW138384   2.100   4.498  13.346 -2.1264  0.2853 -1.1129
 8916SOL    HW238385   2.197   4.417  13.269  1.8069  0.9463  0.2728
 8917SOL     OW38386   3.130   1.267  12.925 -0.4338  0.3370 -0.1020
 8917SOL    HW138387   3.111   1.178  12.955  0.3889 -0.4343 -1.8260
 8917SOL    HW238388   3.163   1.310  13.004  1.1453  0.0110 -0.5946
 8918SOL     OW38389   1.977   3.981   5.450 -0.4425  0.0219  0.0334
 8918SOL    HW138390   2.000   3.892   5.478 -0.3841 -0.0385 -0.1999
 8918SOL    HW238391   2.029   3.996   5.371 -1.4995 -1.4241 -0.9535
 8919SOL     OW38392   4.311   2.801  15.589 -0.3628  0.0653 -0.3621
 8919SOL    HW138393   4.220   2.803  15.618  0.5506  1.1331  2.3712
 8919SOL    HW238394   4.312   2.710  15.557 -0.1547 -0.4423  1.1230
 8920SOL     OW38395   3.900   0.571   6.537  0.7732 -0.6477  0.1172
 8920SOL    HW138396   3.990   0.542   6.553  0.1037  0.2842  5.4003
 8920SOL    HW238397   3.859   0.488   6.511  2.0015 -1.1178 -0.3628
 8921SOL     OW38398   1.641   2.027  14.981  0.2253 -0.0894  0.5207
 8921SOL    HW138399   1.732   2.012  15.006  0.2313  1.1505  1.2342
 8921SOL    HW238400   1.635   2.121  14.964  0.1895 -0.1666  0.1074
 8922SOL     OW38401   1.122   3.409   7.134 -0.0287  0.2860  0.0056
 8922SOL    HW138402   1.062   3.428   7.062  1.7939  0.7717 -1.3883
 8922SOL    HW238403   1.076   3.338   7.179 -1.3728  1.7594  0.9581
 8923SOL     OW38404   4.494   1.812   5.501 -0.8152  0.6554 -0.0367
 8923SOL    HW138405   4.574   1.797   5.551  1.0268  3.9227 -1.9708
 8923SOL    HW238406   4.471   1.723   5.476  3.1874 -0.1811 -0.6880
 8924SOL     OW38407   0.089   2.142   5.391  0.2527  0.1517  0.1114
 8924SOL    HW138408   0.011   2.088   5.375  0.2935  0.3280 -0.7065
 8924SOL    HW238409   0.079   2.169   5.482  0.7569  3.6585 -0.8878
 8925SOL     OW38410   1.878   0.004   9.020 -0.0853  0.3343 -0.5059
 8925SOL    HW138411   1.862   0.042   9.107  1.0721  0.8105 -0.4893
 8925SOL    HW238412   1.793   0.021   8.981 -0.8271  0.6480  1.2532
 8926SOL     OW38413   1.803   0.900   4.222 -0.3513  0.5097 -0.1632
 8926SOL    HW138414   1.772   0.833   4.161  0.8874  1.2250 -1.6113
 8926SOL    HW238415   1.861   0.846   4.275 -1.2378  2.1145  2.4038
 8927SOL     OW38416   3.572   1.687  11.008  0.2819 -0.1208  0.2520
 8927SOL    HW138417   3.494   1.736  11.035 -0.2935 -0.5057 -0.7104
 8927SOL    HW238418   3.541   1.596  11.015  0.6255 -0.3857 -1.6382
 8928SOL     OW38419   0.141   3.141   3.913  0.4625 -0.4588 -0.0210
 8928SOL    HW138420   0.075   3.165   3.978  1.7546 -1.8483  1.7851
 8928SOL    HW238421   0.108   3.196   3.841 -0.4862 -2.0037 -0.7773
 8929SOL     OW38422   4.249   3.464  10.937  0.7801  0.4200 -0.0162
 8929SOL    HW138423   4.322   3.415  10.899 -0.7350 -2.1423  0.3561
 8929SOL    HW238424   4.257   3.542  10.882 -2.5723  1.7352  1.3806
 8930SOL     OW38425   1.483   1.543   7.287 -0.3471 -0.3327 -0.2486
 8930SOL    HW138426   1.502   1.470   7.346 -1.2791 -0.1079  0.3226
 8930SOL    HW238427   1.429   1.601   7.341 -0.2566  0.6632 -1.2301
 8931SOL     OW38428   2.929   1.923   8.245  0.3857  0.3408 -0.1612
 8931SOL    HW138429   3.011   1.875   8.250  1.2900  1.6556 -2.2360
 8931SOL    HW238430   2.898   1.909   8.335  0.8136  1.5968  0.1818
 8932SOL     OW38431   3.710   1.135  12.457 -0.2317  0.1459  0.1706
 8932SOL    HW138432   3.695   1.203  12.391 -1.0472 -1.7638 -1.6116
 8932SOL    HW238433   3.801   1.112  12.437 -1.0248 -0.8585 -2.2458
 8933SOL     OW38434   0.313   3.932   6.296  0.1100 -0.1339 -0.5170
 8933SOL    HW138435   0.262   3.949   6.217 -1.9440 -0.6755  0.7003
 8933SOL    HW238436   0.405   3.937   6.268 -0.9866  0.5214 -3.9822
 8934SOL     OW38437   1.713   4.394   3.998 -0.6583 -0.6769 -0.0176
 8934SOL    HW138438   1.682   4.304   4.014 -1.0212 -0.4833  0.3691
 8934SOL    HW238439   1.806   4.383   4.018 -0.3910 -1.6760 -1.7316
 8935SOL     OW38440   0.715   4.314  11.372  0.2279  0.9065  0.1361
 8935SOL    HW138441   0.788   4.344  11.319  0.8935 -0.4143  0.3097
 8935SOL    HW238442   0.754   4.304  11.459 -1.6045 -0.6837  0.7900
 8936SOL     OW38443   2.633   0.530   8.624 -0.2066 -0.0513  0.4928
 8936SOL    HW138444   2.573   0.562   8.692 -0.2016 -2.2606  1.5570
 8936SOL    HW238445   2.702   0.594   8.611 -2.6979  2.1208 -2.1473
 8937SOL     OW38446   3.493   3.286   1.498 -0.0937 -0.0279 -0.2521
 8937SOL    HW138447   3.528   3.272   1.586  1.3533  3.0977 -0.3267
 8937SOL    HW238448   3.484   3.380   1.482  0.2814  0.3029  1.4948
 8938SOL     OW38449   2.548   1.189   4.426  0.6676  0.8224  0.5274
 8938SOL    HW138450   2.536   1.261   4.364 -0.8235  0.5122  0.4557
 8938SOL    HW238451   2.630   1.217   4.466  0.7320  0.2620  0.7881
 8939SOL     OW38452   2.448   3.808   8.157 -0.6561 -0.0732  0.4216
 8939SOL    HW138453   2.353   3.818   8.160 -0.7946 -0.3614 -3.0535
 8939SOL    HW238454   2.441   3.713   8.144  0.5340  0.1514 -1.8921
 8940SOL     OW38455   3.421   0.827   9.090 -0.5280  0.7241  0.7413
 8940SOL    HW138456   3.441   0.741   9.054 -1.6270  0.7980 -0.0571
 8940SOL    HW238457   3.443   0.830   9.183  0.3989 -0.0712  0.5488
 8941SOL     OW38458   4.063   2.014   6.537  0.1380 -0.6349 -0.6007
 8941SOL    HW138459   3.978   2.057   6.522  0.7129  0.1672 -1.5451
 8941SOL    HW238460   4.097   2.041   6.452  0.9065 -0.3413 -0.1964
 8942SOL     OW38461   1.404   4.447   4.717 -0.5953 -0.1846  0.2168
 8942SOL    HW138462   1.463   4.384   4.757 -0.3966  0.1182  0.3907
 8942SOL    HW238463   1.324   4.408   4.753  0.0006 -2.5868 -1.0276
 8943SOL     OW38464   2.255   4.736  12.667  0.6784 -0.1689  0.3258
 8943SOL    HW138465   2.224   4.670  12.605 -0.1345  1.3110 -0.8495
 8943SOL    HW238466   2.325   4.677  12.695 -0.4774 -1.0557  1.3686
 8944SOL     OW38467   3.524   3.677  12.984 -0.0787 -0.1530  0.4084
 8944SOL    HW138468   3.596   3.619  13.012  0.6546  0.8746  0.6702
 8944SOL    HW238469   3.451   3.639  13.033  0.3353 -0.4295  0.8160
 8945SOL     OW38470   2.711   3.024  14.245 -0.3794 -0.2506 -0.7318
 8945SOL    HW138471   2.709   2.962  14.172  1.3246 -1.4133  0.1929
 8945SOL    HW238472   2.649   2.982  14.304 -0.6039  0.3000 -0.5734
 8946SOL     OW38473   0.624   4.712  13.003  0.3511  0.9575 -0.5180
 8946SOL    HW138474   0.567   4.687  13.076 -0.3599  0.3863 -1.2664
 8946SOL    HW238475   0.685   0.022  13.061  0.1171 -2.5734  2.5143
 8947SOL     OW38476   2.224   0.752   4.305 -0.9044  0.5785 -0.3299
 8947SOL    HW138477   2.260   0.671   4.268  1.4587  0.5641  1.9467
 8947SOL    HW238478   2.304   0.801   4.322 -1.0302  1.1944 -1.5244
 8948SOL     OW38479   0.772   2.575   5.219  0.5869 -0.2868  0.6954
 8948SOL    HW138480   0.719   2.498   5.199  2.8372 -0.9027 -2.9351
 8948SOL    HW238481   0.702   2.640   5.226  0.0032 -0.5596 -2.5363
 8949SOL     OW38482   3.428   4.563   7.301 -0.1471 -0.4858  0.1301
 8949SOL    HW138483   3.450   4.640   7.248 -2.4767  0.5692  0.7288
 8949SOL    HW238484   3.342   4.546   7.264 -0.9087  2.4327  0.5847
 8950SOL     OW38485   2.797   2.894   1.267 -0.5595 -0.0271 -0.1966
 8950SOL    HW138486   2.891   2.880   1.281 -0.8451 -2.1040 -0.2703
 8950SOL    HW238487   2.751   2.843   1.334 -1.1714 -1.7075 -1.8964
 8951SOL     OW38488   2.325   1.273  16.701  0.0140  0.1787  0.3576
 8951SOL    HW138489   2.374   1.241  16.777  1.0768  0.7976 -0.0666
 8951SOL    HW238490   2.281   1.350  16.737  0.0720 -0.9706  2.8980
 8952SOL     OW38491   3.620   0.038  10.968  0.0591  0.1852  0.4167
 8952SOL    HW138492   3.688   4.728  10.918 -1.0430  1.2206 -2.0190
 8952SOL    HW238493   3.569   4.694  10.982  1.7908 -0.8526  0.8348
 8953SOL     OW38494   0.661   3.493   7.567  0.1858  0.4122 -0.3159
 8953SOL    HW138495   0.699   3.407   7.582  2.9807  1.3452 -1.9083
 8953SOL    HW238496   0.679   3.531   7.653 -1.1361  0.9016 -0.2441
 8954SOL     OW38497   0.722   2.140   4.274  0.1577 -0.3026 -0.1296
 8954SOL    HW138498   0.767   2.180   4.349 -1.6579  1.0867  0.2354
 8954SOL    HW238499   0.798   2.094   4.240 -1.5952 -4.6494  1.7941
 8955SOL     OW38500   1.853   1.154   8.418 -0.5728  0.0506 -0.2767
 8955SOL    HW138501   1.921   1.170   8.353 -1.9814 -2.9908 -2.4313
 8955SOL    HW238502   1.861   1.242   8.456  0.2716 -0.8809  1.7573
 8956SOL     OW38503   3.939   3.290   4.546 -0.0427 -0.5746 -0.0544
 8956SOL    HW138504   3.990   3.228   4.493 -1.9285 -1.7258 -0.5085
 8956SOL    HW238505   4.017   3.345   4.558 -1.4481  1.3722  0.1869
 8957SOL     OW38506   0.922   3.102   4.090  0.3015  0.2341 -0.2826
 8957SOL    HW138507   0.943   3.018   4.047  0.1961 -1.6298  3.2941
 8957SOL    HW238508   0.909   3.162   4.017 -1.1164 -2.1481 -1.9886
 8958SOL     OW38509   4.351   0.322  12.422 -0.4902  0.0365  0.4304
 8958SOL    HW138510   4.436   0.292  12.453 -1.9944 -2.4666  2.1650
 8958SOL    HW238511   4.291   0.311  12.496  1.6710  0.4613  2.2147
 8959SOL     OW38512   3.427   4.342   4.374  0.1029 -0.4746  0.2885
 8959SOL    HW138513   3.370   4.373   4.304  2.5158 -0.6476 -1.7490
 8959SOL    HW238514   3.500   4.310   4.321  0.3030 -3.7429  2.5537
 8960SOL     OW38515   2.157   2.403   3.211 -0.1113 -0.0124  0.6666
 8960SOL    HW138516   2.115   2.484   3.184 -1.0002 -0.8952 -0.5690
 8960SOL    HW238517   2.251   2.423   3.217  0.9275 -4.3312 -1.4573
 8961SOL     OW38518   4.144   0.898   7.932 -0.2341 -0.9007 -0.2730
 8961SOL    HW138519   4.134   0.904   8.027  0.6613  0.5205 -0.2666
 8961SOL    HW238520   4.092   0.819   7.920 -2.8038  0.7910 -0.3185
 8962SOL     OW38521   3.931   1.034  11.919 -0.0491  0.3889 -0.1664
 8962SOL    HW138522   3.886   1.062  11.999 -0.0098  1.4310 -0.5170
 8962SOL    HW238523   3.904   0.942  11.919 -0.0172  0.3772  1.4311
 8963SOL     OW38524   2.182   3.134   8.185 -0.0782 -0.2746  0.1956
 8963SOL    HW138525   2.166   3.049   8.142 -2.1105  0.4144 -0.3890
 8963SOL    HW238526   2.271   3.148   8.152 -0.5146 -2.0447 -1.7786
 8964SOL     OW38527   3.116   2.457   3.690 -0.0051 -0.4395 -0.0869
 8964SOL    HW138528   3.115   2.505   3.774  3.0012  0.1379 -0.3618
 8964SOL    HW238529   3.066   2.379   3.712 -2.7263  1.3347 -0.0002
 8965SOL     OW38530   3.524   1.806  12.990  0.2642 -0.3032 -0.6948
 8965SOL    HW138531   3.556   1.893  13.014 -0.7854 -0.1618  0.1549
 8965SOL    HW238532   3.486   1.828  12.905 -0.7904  0.2677 -0.0762
 8966SOL     OW38533   0.025   2.358   5.207 -0.3265 -0.5063 -1.0340
 8966SOL    HW138534   0.023   2.303   5.128 -0.1088 -1.1655 -0.5774
 8966SOL    HW238535   0.053   2.295   5.273 -2.2260  2.7224  2.8280
 8967SOL     OW38536   1.423   3.222   3.239  0.0095  0.5377 -0.3994
 8967SOL    HW138537   1.462   3.166   3.306  0.9125 -0.1548 -1.4961
 8967SOL    HW238538   1.331   3.197   3.234  0.1633 -0.2417  0.5938
 8968SOL     OW38539   0.512   1.148  13.772 -0.0347 -0.0416  0.1165
 8968SOL    HW138540   0.523   1.152  13.677 -1.0162 -2.1993 -0.0681
 8968SOL    HW238541   0.499   1.240  13.796  1.4167  0.1073  0.3340
 8969SOL     OW38542   2.379   0.381   9.312  0.1897  0.4057 -0.4449
 8969SOL    HW138543   2.340   0.469   9.314 -1.1232 -0.1381 -1.7084
 8969SOL    HW238544   2.332   0.336   9.242 -0.3023  0.7042 -0.3074
 8970SOL     OW38545   0.598   1.346   6.545 -0.6923  0.2121 -0.6413
 8970SOL    HW138546   0.507   1.318   6.551 -1.1856  1.3464 -2.7925
 8970SOL    HW238547   0.610   1.317   6.454  2.0802  1.6471 -0.7507
 8971SOL     OW38548   4.433   0.028   5.365 -0.1427  0.7167  0.5098
 8971SOL    HW138549   4.520   0.029   5.404 -0.4830  0.6169  1.2604
 8971SOL    HW238550   4.424   0.123   5.358 -1.8582  0.4577 -1.0667
 8972SOL     OW38551   0.676   4.312   3.102 -0.1673  0.2671  0.4402
 8972SOL    HW138552   0.723   4.319   3.019 -0.2851  1.9030  0.5170
 8972SOL    HW238553   0.676   4.217   3.113  0.4626  0.3892  1.4716
 8973SOL     OW38554   3.497   2.949   6.025 -0.0139 -0.0711 -0.0287
 8973SOL    HW138555   3.412   2.907   6.010  0.0397 -0.0115 -0.5199
 8973SOL    HW238556   3.531   2.883   6.085 -2.4436 -0.2994  1.0974
 8974SOL     OW38557   0.705   3.628  11.411 -0.3152  0.3576 -0.2668
 8974SOL    HW138558   0.770   3.687  11.448 -1.4471  1.2932  0.2447
 8974SOL    HW238559   0.730   3.537  11.426 -1.1930  0.4772  1.9650
 8975SOL     OW38560   2.493   2.921  17.021 -0.1282 -0.3372  0.4873
 8975SOL    HW138561   2.414   2.948  17.068 -1.1196 -1.3365 -0.5984
 8975SOL    HW238562   2.545   2.991  17.061 -2.9993  0.8364  2.1778
 8976SOL     OW38563   0.731   4.346   5.577 -0.1494  0.5846  0.5506
 8976SOL    HW138564   0.825   4.331   5.566 -0.2654 -0.1321  0.4982
 8976SOL    HW238565   0.708   4.269   5.629  1.4640 -0.2085  0.0749
 8977SOL     OW38566   3.287   4.519  14.150  0.2034 -0.5235 -0.1187
 8977SOL    HW138567   3.332   4.566  14.221  0.8250 -1.3233  0.0121
 8977SOL    HW238568   3.204   4.566  14.148 -0.1177 -1.0680  0.6745
 8978SOL     OW38569   3.393   1.341   6.389  0.0788  0.5838 -0.2562
 8978SOL    HW138570   3.376   1.253   6.424 -0.3133  1.4783  1.8166
 8978SOL    HW238571   3.458   1.321   6.322  0.5105  2.0969 -0.2810
 8979SOL     OW38572   0.643   4.043  12.165  0.8266  0.4318 -0.2891
 8979SOL    HW138573   0.592   4.101  12.221 -1.4467  1.0567 -3.0370
 8979SOL    HW238574   0.611   3.954  12.178 -2.6157  1.5716 -1.0604
 8980SOL     OW38575   2.970   4.156  10.311  0.2552 -0.0914 -0.2849
 8980SOL    HW138576   2.927   4.202  10.383 -0.3145  0.3052 -0.8671
 8980SOL    HW238577   2.930   4.070  10.328  0.8161 -0.4542 -0.7749
 8981SOL     OW38578   0.812   1.718   6.420 -0.1251 -0.4093  0.1261
 8981SOL    HW138579   0.738   1.709   6.359 -0.6625  2.2469  0.4062
 8981SOL    HW238580   0.883   1.692   6.361 -0.0677  1.9966 -0.8754
 8982SOL     OW38581   3.565   2.432   7.737 -0.0784 -0.2260 -0.3127
 8982SOL    HW138582   3.640   2.441   7.795  0.6098  0.5386 -1.3246
 8982SOL    HW238583   3.578   2.337   7.730  1.8936  0.0030  0.2582
 8983SOL     OW38584   0.702   1.824   8.012  0.4061 -0.1537 -0.0179
 8983SOL    HW138585   0.668   1.736   8.031 -0.7575  0.0821 -1.0031
 8983SOL    HW238586   0.621   1.864   7.979 -0.0180 -0.7076  0.3492
 8984SOL     OW38587   1.930   4.380  13.132 -0.8141 -0.2908  0.0975
 8984SOL    HW138588   1.911   4.412  13.043 -2.2299  0.7624  0.7762
 8984SOL    HW238589   2.000   4.435  13.166 -0.6676 -1.3574  1.5098
 8985SOL     OW38590   4.564   3.769   4.907 -0.4328 -0.1370  0.0156
 8985SOL    HW138591   4.498   3.700   4.907  0.2321 -0.7806  2.2174
 8985SOL    HW238592   4.600   3.753   4.820 -2.7786  2.2152 -1.3875
 8986SOL     OW38593   2.390   0.575   2.007  0.2140 -0.4830 -0.0390
 8986SOL    HW138594   2.479   0.610   2.006 -0.2673  0.7020 -1.8372
 8986SOL    HW238595   2.357   0.584   1.918  1.5027 -0.3391 -0.4977
 8987SOL     OW38596   3.511   0.348   8.205  0.4420  0.4009 -0.6362
 8987SOL    HW138597   3.589   0.355   8.260 -1.0700 -0.6059  1.6542
 8987SOL    HW238598   3.507   0.257   8.174 -0.0840 -0.3626  1.6482
 8988SOL     OW38599   4.706   3.280   9.050 -0.2797 -0.0132 -0.4082
 8988SOL    HW138600   4.661   3.272   9.134 -0.6873  0.5632 -0.5755
 8988SOL    HW238601   0.029   3.350   9.077  1.7664 -1.7800 -0.2234
 8989SOL     OW38602   3.323   4.083   5.088 -0.4489  0.0360  0.0029
 8989SOL    HW138603   3.408   4.108   5.125 -0.8191 -0.5619  1.2543
 8989SOL    HW238604   3.328   3.988   5.098  1.6846  0.4534  3.0392
 8990SOL     OW38605   4.269   3.833   4.963  0.1740  0.1036 -0.0880
 8990SOL    HW138606   4.314   3.887   4.899  1.5726  1.1384  1.7654
 8990SOL    HW238607   4.274   3.747   4.921 -0.8141  0.8949 -1.8033
 8991SOL     OW38608   1.081   2.651   7.895 -0.2264  0.4919  0.4700
 8991SOL    HW138609   1.173   2.624   7.903  0.0125  1.3015  0.4514
 8991SOL    HW238610   1.092   2.741   7.863  2.0173 -0.2646 -0.8598
 8992SOL     OW38611   3.604   3.074  11.613 -0.3225 -0.4335  1.2103
 8992SOL    HW138612   3.687   3.089  11.657  0.4711 -0.8902 -0.1496
 8992SOL    HW238613   3.614   2.980  11.600 -1.3344 -0.1659 -1.4356
 8993SOL     OW38614   3.423   2.626   8.845  0.3563  0.0833  0.1956
 8993SOL    HW138615   3.499   2.644   8.791  1.5602 -1.6757  1.3091
 8993SOL    HW238616   3.447   2.582   8.927  1.6577  0.0693 -0.2005
 8994SOL     OW38617   2.988   3.745   8.354 -0.4302  0.1708 -0.5676
 8994SOL    HW138618   2.914   3.706   8.401 -0.3123 -0.8408 -1.2127
 8994SOL    HW238619   3.060   3.692   8.391  0.3192  1.4146 -0.2414
 8995SOL     OW38620   4.352   1.085  13.565  0.5652  0.4410  0.3982
 8995SOL    HW138621   4.310   1.160  13.607  3.6773  1.4063  1.8100
 8995SOL    HW238622   4.441   1.120  13.561  0.4169  0.3318 -3.5753
 8996SOL     OW38623   3.060   1.061   6.864  0.4850 -0.6507  0.0488
 8996SOL    HW138624   3.138   1.083   6.915  0.8791  2.0171 -1.7129
 8996SOL    HW238625   2.981   1.064   6.918 -0.2063  2.1990 -1.1578
 8997SOL     OW38626   2.650   3.233   6.977  0.3152 -0.2081  0.1612
 8997SOL    HW138627   2.678   3.292   7.046 -0.6341  0.0484  0.3253
 8997SOL    HW238628   2.639   3.294   6.904  0.4175 -1.0190 -0.5293
 8998SOL     OW38629   4.688   2.391   1.936  0.1273  0.6112 -0.4993
 8998SOL    HW138630   0.043   2.363   1.921 -0.3782 -0.4883 -1.5171
 8998SOL    HW238631   4.690   2.417   2.028 -0.6861 -0.7484 -0.0971
 8999SOL     OW38632   0.265   4.658   3.801  0.1256 -0.0036  0.4288
 8999SOL    HW138633   0.177   4.621   3.796  1.3925 -3.0724  0.5553
 8999SOL    HW238634   0.312   4.576   3.818 -0.0899 -0.1835  0.1472
 9000SOL     OW38635   2.550   0.920   0.612 -0.1189 -0.0264 -0.9601
 9000SOL    HW138636   2.457   0.922   0.593 -0.4729 -0.6729  0.6919
 9000SOL    HW238637   2.546   0.874   0.696  0.2035  2.2436  0.3089
 9001SOL     OW38638   1.647   1.952   9.665 -0.5373  0.3981  0.3804
 9001SOL    HW138639   1.630   1.975   9.757  0.1343 -0.7302  0.7812
 9001SOL    HW238640   1.687   2.025   9.618  2.3346 -1.5659 -0.2130
 9002SOL     OW38641   3.605   0.485   9.459 -0.6040 -0.1169 -0.1043
 9002SOL    HW138642   3.527   0.488   9.514 -1.7940  0.9750 -1.8604
 9002SOL    HW238643   3.675   0.496   9.523 -0.4634 -1.4254 -0.0383
 9003SOL     OW38644   4.667   0.340   7.897  0.5449 -0.1611  0.5349
 9003SOL    HW138645   4.688   0.392   7.974 -1.4648  0.7325  0.4825
 9003SOL    HW238646   4.636   0.260   7.940 -2.8741  1.1302  0.5222
 9004SOL     OW38647   1.046   1.073   4.685  0.2244 -0.3056 -0.2858
 9004SOL    HW138648   1.075   0.997   4.735  1.5243 -0.2135 -0.9159
 9004SOL    HW238649   0.952   1.054   4.689  0.2070 -0.2894 -0.5578
 9005SOL     OW38650   3.357   1.009  15.075 -0.2450 -0.3367 -0.4797
 9005SOL    HW138651   3.418   0.949  15.033 -0.8860 -1.4699  0.2359
 9005SOL    HW238652   3.332   1.060  14.998  1.3032 -1.5476 -1.7709
 9006SOL     OW38653   0.358   2.391   8.196 -0.6725  0.5221 -0.2523
 9006SOL    HW138654   0.290   2.441   8.150 -3.2186 -1.3461  1.5146
 9006SOL    HW238655   0.314   2.365   8.276  0.7904  1.3927  0.8240
 9007SOL     OW38656   1.031   0.187  17.602 -0.1646  0.0456 -0.4846
 9007SOL    HW138657   0.989   0.174  17.687  0.2528 -1.6300 -0.5278
 9007SOL    HW238658   0.995   0.121  17.543  0.6118 -0.2579 -0.6140
 9008SOL     OW38659   3.911   1.982  13.094  0.1608  0.7701 -0.1688
 9008SOL    HW138660   3.923   2.054  13.031  0.7061  0.3899 -0.5074
 9008SOL    HW238661   3.970   1.913  13.062  0.2188  1.2309 -1.0685
 9009SOL     OW38662   0.816   2.895  15.405 -0.0195  0.3005  0.0229
 9009SOL    HW138663   0.847   2.982  15.429  1.1653  0.3906 -1.8053
 9009SOL    HW238664   0.744   2.878  15.467  0.9350 -0.5055  0.9073
 9010SOL     OW38665   1.322   0.993   7.802 -0.3290  0.0243 -0.2032
 9010SOL    HW138666   1.377   0.990   7.880 -0.1441  0.1997 -0.3242
 9010SOL    HW238667   1.300   0.900   7.799 -0.1762 -0.0388  0.7355
 9011SOL     OW38668   2.423   2.246  14.390 -0.8041  0.0696  0.2876
 9011SOL    HW138669   2.394   2.169  14.440 -0.5074  0.8008  1.5990
 9011SOL    HW238670   2.509   2.257  14.430  0.2598  0.1435 -2.0757
 9012SOL     OW38671   0.455   0.657   2.249 -0.1950  0.4268 -0.0348
 9012SOL    HW138672   0.511   0.584   2.275 -0.1556  0.3580 -0.3245
 9012SOL    HW238673   0.447   0.714   2.327  1.9420 -1.5186  1.6095
 9013SOL     OW38674   2.853   1.154   1.086 -0.2309 -0.7280  0.0163
 9013SOL    HW138675   2.781   1.214   1.104 -0.5178 -0.8470 -0.7350
 9013SOL    HW238676   2.836   1.147   0.992  0.2587 -2.0826  0.0309
 9014SOL     OW38677   0.244   1.890   9.191 -0.0804 -0.6936 -0.2195
 9014SOL    HW138678   0.188   1.822   9.155 -0.2767 -0.2112 -0.8194
 9014SOL    HW238679   0.319   1.889   9.131 -0.9792  0.3355 -1.3557
 9015SOL     OW38680   0.847   4.328   7.297  0.3840  0.0022  0.3663
 9015SOL    HW138681   0.773   4.268   7.298 -0.9838  1.7152  0.6956
 9015SOL    HW238682   0.926   4.273   7.301  0.4293  0.1276  1.1757
 9016SOL     OW38683   4.686   1.964   6.246  0.9890  0.2831  0.5113
 9016SOL    HW138684   0.000   2.039   6.277 -0.3936  1.2814  0.3466
 9016SOL    HW238685   4.612   2.009   6.206  0.3704 -2.2368 -1.1811
 9017SOL     OW38686   4.000   3.732  14.459  0.7665 -0.7638 -0.0979
 9017SOL    HW138687   3.959   3.752  14.375  1.3339  0.4199 -0.0982
 9017SOL    HW238688   4.087   3.733  14.420  0.5739 -2.5978 -0.5819
 9018SOL     OW38689   0.431   1.387   7.603  0.1420  0.6909  0.3611
 9018SOL    HW138690   0.343   1.425   7.603 -0.6724 -1.2283  0.0940
 9018SOL    HW238691   0.467   1.476   7.614  0.1833  0.8259 -0.8943
 9019SOL     OW38692   3.556   2.458   4.402  0.2400  0.1387  0.2061
 9019SOL    HW138693   3.469   2.425   4.421 -0.1044  0.5279 -0.6831
 9019SOL    HW238694   3.563   2.518   4.476  1.3104  0.8425 -0.4633
 9020SOL     OW38695   4.490   1.523   5.469 -0.2454 -0.2713  0.4208
 9020SOL    HW138696   4.468   1.494   5.381 -0.4952  0.8516  0.1225
 9020SOL    HW238697   4.420   1.477   5.516  0.0295 -0.5110  0.6002
 9021SOL     OW38698   3.747   3.606   6.950 -0.2858  0.7979  0.2314
 9021SOL    HW138699   3.836   3.598   6.984 -1.1744  1.5434  2.7766
 9021SOL    HW238700   3.750   3.540   6.881 -0.8437  1.1033 -0.0836
 9022SOL     OW38701   0.826   1.085   6.987  0.0345 -0.0661  0.0028
 9022SOL    HW138702   0.860   1.169   6.958 -0.4210 -1.0077 -3.2043
 9022SOL    HW238703   0.887   1.027   6.941  1.9930  0.0712  2.4164
 9023SOL     OW38704   4.702   0.665  11.531 -0.1639  0.2286  0.1920
 9023SOL    HW138705   0.037   0.729  11.535  1.9738 -1.9644 -2.1767
 9023SOL    HW238706   4.690   0.643  11.438  2.1979  1.0951 -0.3227
 9024SOL     OW38707   1.111   1.281   3.059  0.5066  0.3119  0.0507
 9024SOL    HW138708   1.134   1.356   3.114  1.5572 -0.4189  0.5886
 9024SOL    HW238709   1.171   1.214   3.090  1.0893  0.2320 -1.2601
 9025SOL     OW38710   0.088   3.904   4.998  0.3292 -0.1704 -0.1081
 9025SOL    HW138711   0.161   3.880   5.056 -0.8788 -1.1328  1.0233
 9025SOL    HW238712   0.025   3.840   5.031 -1.7484  1.4329 -0.9876
 9026SOL     OW38713   4.020   0.589   8.280  0.1442 -0.3073  0.1525
 9026SOL    HW138714   4.083   0.544   8.337  0.2295 -1.3618 -0.7690
 9026SOL    HW238715   3.974   0.517   8.238  1.4502 -1.5202  0.7811
 9027SOL     OW38716   2.242   2.879   3.581 -0.5683  0.1590  0.5033
 9027SOL    HW138717   2.333   2.892   3.553  0.3010  1.7159  4.1638
 9027SOL    HW238718   2.244   2.905   3.672 -1.4166 -0.4059  0.6867
 9028SOL     OW38719   2.867   0.008   6.434 -0.3423  0.0506 -0.0221
 9028SOL    HW138720   2.812   4.667   6.427 -1.2035  0.4496  2.3866
 9028SOL    HW238721   2.935   4.721   6.497  1.0108 -0.1393 -1.5454
 9029SOL     OW38722   4.265   4.637   1.853 -0.5684 -0.3605 -0.1881
 9029SOL    HW138723   4.345   4.675   1.892 -1.0303  1.4121 -0.9481
 9029SOL    HW238724   4.216   4.717   1.834  1.3541  0.8714 -0.0736
 9030SOL     OW38725   0.317   2.484   5.169 -0.5398 -0.4375  0.3622
 9030SOL    HW138726   0.242   2.426   5.161 -0.2244 -0.6905 -0.7636
 9030SOL    HW238727   0.323   2.480   5.264 -0.2192 -0.8564  0.3246
 9031SOL     OW38728   3.943   3.454  14.386  0.5421 -0.4391  0.1083
 9031SOL    HW138729   3.849   3.454  14.405  0.3002  0.1256 -1.0977
 9031SOL    HW238730   3.969   3.540  14.420  1.4569 -0.8414  0.4352
 9032SOL     OW38731   1.176   1.141   8.713 -0.5041  0.0372 -0.3165
 9032SOL    HW138732   1.160   1.226   8.672  1.3672  0.7108  0.3709
 9032SOL    HW238733   1.110   1.152   8.781 -2.6835  0.6919 -2.5289
 9033SOL     OW38734   4.134   0.646   7.142 -0.3042  0.0478 -0.2681
 9033SOL    HW138735   4.181   0.708   7.086 -1.0455 -0.8052 -1.8242
 9033SOL    HW238736   4.098   0.716   7.197 -1.6151 -1.2456  0.5112
 9034SOL     OW38737   3.885   0.364  12.353 -0.3696  0.2573  0.3063
 9034SOL    HW138738   3.902   0.332  12.442 -1.2905 -3.0857 -0.7272
 9034SOL    HW238739   3.923   0.302  12.292  2.5836  2.2589  0.1218
 9035SOL     OW38740   3.369   1.332   5.637 -1.1069  0.3643  0.0157
 9035SOL    HW138741   3.416   1.327   5.720  0.0971 -0.6414 -0.7209
 9035SOL    HW238742   3.305   1.262   5.648  0.5311 -0.9069  1.5784
 9036SOL     OW38743   2.344   2.095   7.504  0.1323  0.0801 -0.8151
 9036SOL    HW138744   2.347   2.039   7.582  0.3842 -0.1948 -1.0196
 9036SOL    HW238745   2.293   2.038   7.447 -0.5626  0.6383 -0.7482
 9037SOL     OW38746   4.183   1.574   6.925  0.1992 -0.2168 -0.1278
 9037SOL    HW138747   4.093   1.602   6.909  0.5911  0.4052 -1.2039
 9037SOL    HW238748   4.177   1.579   7.021  4.3201  0.0789  0.1112
 9038SOL     OW38749   3.490   3.547  16.216 -0.6612 -0.2294 -0.1637
 9038SOL    HW138750   3.517   3.586  16.299 -0.9674  1.2332 -0.7634
 9038SOL    HW238751   3.437   3.471  16.240 -0.5544 -0.5504 -0.9503
 9039SOL     OW38752   1.329   3.210   7.278 -0.1562 -0.2873 -0.1815
 9039SOL    HW138753   1.257   3.266   7.308  0.4997 -1.1355  3.0008
 9039SOL    HW238754   1.374   3.190   7.360 -0.5417  0.1589  0.1390
 9040SOL     OW38755   2.087   3.203   7.887  0.0773  0.3624  0.5645
 9040SOL    HW138756   2.117   3.173   7.801  0.2482  3.9181 -0.6108
 9040SOL    HW238757   2.027   3.131   7.902  1.1547 -0.2171  2.0787
 9041SOL     OW38758   1.655   0.573   4.618 -0.3789  0.2315 -0.0146
 9041SOL    HW138759   1.735   0.549   4.665 -0.1989 -0.1600 -0.5197
 9041SOL    HW238760   1.669   0.667   4.630  0.7296  0.0097  0.5044
 9042SOL     OW38761   0.968   2.457   6.671 -0.3655 -0.3291 -0.0103
 9042SOL    HW138762   0.900   2.397   6.641 -1.7083 -0.3848  3.2156
 9042SOL    HW238763   0.957   2.528   6.607 -0.8837 -0.6488 -0.2705
 9043SOL     OW38764   0.590   2.443   6.310 -0.0755  0.2345  0.0394
 9043SOL    HW138765   0.601   2.456   6.216  0.5556 -2.0740 -0.2111
 9043SOL    HW238766   0.498   2.467   6.322 -0.3710 -0.6253 -0.5013
 9044SOL     OW38767   4.707   3.329   2.356  0.1994  0.0251  0.2230
 9044SOL    HW138768   0.027   3.402   2.327  0.0754 -0.2043 -0.6089
 9044SOL    HW238769   0.016   3.254   2.316 -1.2622 -0.1414 -1.1096
 9045SOL     OW38770   3.208   2.552   2.646  0.1191 -0.7042 -0.1823
 9045SOL    HW138771   3.205   2.462   2.614 -0.8080 -1.0444  0.8395
 9045SOL    HW238772   3.303   2.548   2.658  0.3740  0.8457 -1.6947
 9046SOL     OW38773   0.995   2.159   3.000  0.0749 -0.0585  0.2257
 9046SOL    HW138774   0.925   2.177   2.937  0.2517  2.0561  0.6240
 9046SOL    HW238775   1.040   2.244   2.997  1.7608 -0.9136  1.2824
 9047SOL     OW38776   4.119   0.632   5.834  0.0917 -0.0619 -0.1214
 9047SOL    HW138777   4.076   0.685   5.901  0.0746  0.1042 -0.2647
 9047SOL    HW238778   4.091   0.547   5.866  0.1758 -0.8185 -2.0548
 9048SOL     OW38779   2.491   3.012   0.040  0.3264 -0.7515  0.4298
 9048SOL    HW138780   2.420   3.050   0.091  0.4650 -0.1786  0.1881
 9048SOL    HW238781   2.572   3.044   0.079  0.0540 -0.7396  0.9827
 9049SOL     OW38782   2.832   2.042   3.202  0.0538 -0.3489 -0.2442
 9049SOL    HW138783   2.909   2.068   3.151 -0.5826  0.1276 -0.9722
 9049SOL    HW238784   2.771   2.053   3.129 -0.2463 -0.0657  0.0501
 9050SOL     OW38785   3.902   4.278   0.600 -0.8107  0.3852 -0.1324
 9050SOL    HW138786   3.822   4.240   0.638  0.2893 -1.9066 -0.0718
 9050SOL    HW238787   3.865   4.357   0.563  0.6696  1.9475  1.7166
 9051SOL     OW38788   4.653   0.473   6.810  0.0995  0.1514  0.3172
 9051SOL    HW138789   4.718   0.408   6.839  0.9043  0.9738  0.3418
 9051SOL    HW238790   4.577   0.460   6.867  0.3660 -1.8497  0.2140
 9052SOL     OW38791   4.147   3.519   2.411 -0.0729  0.0184 -0.2585
 9052SOL    HW138792   4.154   3.612   2.432  1.7908  0.3647 -2.5024
 9052SOL    HW238793   4.078   3.488   2.471  0.3368  1.5672  0.9994
 9053SOL     OW38794   2.700   3.646   2.491 -0.3160  0.2738  0.0601
 9053SOL    HW138795   2.753   3.612   2.418  1.1224  0.3390  1.0830
 9053SOL    HW238796   2.667   3.560   2.519  2.5293 -1.6793 -2.4815
 9054SOL     OW38797   2.801   0.719   2.961  0.5907 -0.6404  0.0202
 9054SOL    HW138798   2.731   0.730   2.896  1.8668 -0.8184 -1.3892
 9054SOL    HW238799   2.747   0.677   3.028 -0.1964 -1.2321 -0.9856
 9055SOL     OW38800   4.416   3.710  12.107 -0.1667 -0.3103 -0.1360
 9055SOL    HW138801   4.479   3.714  12.179 -0.3566 -2.5793  0.1423
 9055SOL    HW238802   4.391   3.803  12.104 -0.7274 -0.4656 -0.3431
 9056SOL     OW38803   3.507   3.537   4.728 -0.3639  0.1096 -0.4896
 9056SOL    HW138804   3.554   3.458   4.753 -0.7160  0.2902  0.7734
 9056SOL    HW238805   3.459   3.570   4.804  0.6210  1.7065 -0.5638
 9057SOL     OW38806   3.886   1.080   7.911 -0.1356 -0.1244  1.3172
 9057SOL    HW138807   3.901   1.163   7.866  2.0550  0.7044  3.5716
 9057SOL    HW238808   3.963   1.033   7.881 -1.8985 -2.0398 -0.2028
 9058SOL     OW38809   0.299   1.637  12.642 -0.1485 -0.1556 -0.5019
 9058SOL    HW138810   0.252   1.719  12.630 -0.9917 -0.6901 -0.9170
 9058SOL    HW238811   0.370   1.673  12.695 -0.0774 -0.5162 -0.3519
 9059SOL     OW38812   2.348   4.008   5.823 -0.6426  0.7304 -0.0516
 9059SOL    HW138813   2.392   3.966   5.750  0.9713  0.4140  1.1159
 9059SOL    HW238814   2.415   4.005   5.891  0.7742  1.8872 -1.4152
 9060SOL     OW38815   2.611   1.227   5.463 -0.0826 -0.3029  0.7908
 9060SOL    HW138816   2.586   1.237   5.371  0.6757  2.1309  0.8599
 9060SOL    HW238817   2.706   1.226   5.459 -0.1122  1.2175 -0.3108
 9061SOL     OW38818   4.660   2.141   1.006 -0.1041  0.2765 -0.1117
 9061SOL    HW138819   4.579   2.103   0.971 -0.9026  1.5572  0.3218
 9061SOL    HW238820   4.662   2.125   1.100  0.3052  3.0999  0.3794
 9062SOL     OW38821   3.876   3.140  17.604 -0.2079  0.2994  0.1734
 9062SOL    HW138822   3.954   3.124  17.551  0.9185  0.2186  1.8612
 9062SOL    HW238823   3.864   3.052  17.638  1.8543 -0.4648 -1.1002
 9063SOL     OW38824   3.044   4.727  14.562  0.0838 -0.6345 -0.3055
 9063SOL    HW138825   3.040   4.722  14.467 -0.2330  0.5811 -0.3552
 9063SOL    HW238826   3.119   4.671  14.581  0.0320 -0.2721  1.0075
 9064SOL     OW38827   1.157   0.868   8.793  0.0991  0.1248  0.0725
 9064SOL    HW138828   1.171   0.958   8.765 -2.7253  0.7940  0.7911
 9064SOL    HW238829   1.133   0.828   8.709 -0.0781  0.1515  0.1102
 9065SOL     OW38830   2.843   1.201   0.812 -0.1603  0.3084  0.5534
 9065SOL    HW138831   2.866   1.292   0.789 -1.8204  0.5272 -0.2201
 9065SOL    HW238832   2.858   1.159   0.727  0.2898  1.6981 -0.0590
 9066SOL     OW38833   1.360   4.156   7.047 -0.9259  0.3362  0.5232
 9066SOL    HW138834   1.383   4.075   7.092 -1.0005  0.4455  0.7576
 9066SOL    HW238835   1.436   4.214   7.058 -0.4892 -0.0567 -0.3925
 9067SOL     OW38836   3.753   4.184   4.952  0.8232 -0.5325  0.4525
 9067SOL    HW138837   3.775   4.210   4.862 -2.1583 -0.2908 -0.2175
 9067SOL    HW238838   3.696   4.108   4.945  0.4428 -0.2128  0.0190
 9068SOL     OW38839   0.438   0.971   2.100 -0.6045 -0.2992  0.2423
 9068SOL    HW138840   0.409   0.899   2.043  0.0666  0.2265 -0.7581
 9068SOL    HW238841   0.388   0.964   2.181 -0.5590 -0.1221  0.2848
 9069SOL     OW38842   2.193   1.856  10.999  0.0017 -0.0967 -0.2802
 9069SOL    HW138843   2.213   1.762  11.003 -0.6644 -0.3150 -2.0412
 9069SOL    HW238844   2.221   1.891  11.083  0.9885 -1.7273  0.0844
 9070SOL     OW38845   3.232   3.542  12.854 -0.4518 -0.1907 -0.2938
 9070SOL    HW138846   3.257   3.483  12.924  1.0028 -0.6061 -1.1595
 9070SOL    HW238847   3.172   3.494  12.798 -0.0193  0.2347 -1.1296
 9071SOL     OW38848   1.114   3.813   2.011 -0.2900 -0.4526  0.1661
 9071SOL    HW138849   1.092   3.881   2.075  2.1256  1.1917 -0.7477
 9071SOL    HW238850   1.202   3.833   1.978 -0.5890  1.4125  0.4976
 9072SOL     OW38851   3.093   2.365  15.647  0.0952 -0.2856 -0.5009
 9072SOL    HW138852   3.065   2.454  15.668  1.2697  0.4250 -1.9503
 9072SOL    HW238853   3.160   2.378  15.580  0.8422 -0.3019  0.2403
 9073SOL     OW38854   3.324   4.415   3.124 -0.3295  1.2953 -0.1188
 9073SOL    HW138855   3.240   4.448   3.091 -0.2432  1.6015 -0.0309
 9073SOL    HW238856   3.292   4.374   3.204 -0.1864  0.7075 -0.3641
 9074SOL     OW38857   0.169   2.464   2.707 -0.4937 -0.4979 -0.4465
 9074SOL    HW138858   0.148   2.533   2.644  0.2729  0.7780  0.6882
 9074SOL    HW238859   0.170   2.382   2.658  0.4619 -0.4148 -0.5682
 9075SOL     OW38860   2.742   1.308   7.116  0.1369 -0.2190  0.0460
 9075SOL    HW138861   2.761   1.221   7.152 -0.7804 -0.4586 -0.0324
 9075SOL    HW238862   2.656   1.321   7.156 -0.0046  1.2036 -0.7239
 9076SOL     OW38863   3.612   1.822   2.783  0.1924 -0.1855  0.1614
 9076SOL    HW138864   3.518   1.837   2.769  0.1724 -1.1408 -0.7134
 9076SOL    HW238865   3.632   1.882   2.854 -1.9945  0.0850  0.5460
 9077SOL     OW38866   0.117   0.426   4.420 -0.1798 -0.6516 -0.0195
 9077SOL    HW138867   0.200   0.473   4.421  0.9062 -2.6092  1.4838
 9077SOL    HW238868   0.074   0.465   4.497  0.4532 -1.3432  0.6884
 9078SOL     OW38869   0.813   3.371   2.482  0.0462 -0.0411  0.2339
 9078SOL    HW138870   0.839   3.443   2.424 -1.1431 -0.7958 -1.2301
 9078SOL    HW238871   0.820   3.422   2.563  1.3055 -0.0986  0.1599
 9079SOL     OW38872   1.459   1.854   4.310 -0.5732 -0.2355 -0.0066
 9079SOL    HW138873   1.422   1.768   4.288  0.3888 -0.4749 -0.6974
 9079SOL    HW238874   1.531   1.829   4.368  0.4613 -1.2551 -1.7133
 9080SOL     OW38875   1.436   0.703  15.978 -0.3078  0.1351 -0.0209
 9080SOL    HW138876   1.518   0.729  16.020 -0.0007 -1.5723  0.4336
 9080SOL    HW238877   1.374   0.699  16.051 -1.0838 -2.4018 -0.8225
 9081SOL     OW38878   1.140   0.089   5.531  0.2403 -0.0851  0.1784
 9081SOL    HW138879   1.131   4.730   5.539  0.1062 -0.1769 -1.0235
 9081SOL    HW238880   1.196   0.093   5.453  0.0548 -1.5227 -0.0335
 9082SOL     OW38881   0.751   2.663   2.736 -0.4082  0.2736  0.3592
 9082SOL    HW138882   0.671   2.683   2.688  1.2673  0.2647 -2.4805
 9082SOL    HW238883   0.793   2.600   2.677 -0.4401  0.5735  0.0154
 9083SOL     OW38884   2.708   4.641   2.156 -0.3807 -0.0190  0.2320
 9083SOL    HW138885   2.695   4.695   2.078 -0.4799 -0.7122 -0.2277
 9083SOL    HW238886   2.779   4.690   2.198  0.3092  0.0172 -0.9924
 9084SOL     OW38887   3.094   2.995   9.133 -0.1455  0.1057  0.4171
 9084SOL    HW138888   3.186   2.984   9.110 -1.4204 -3.2480 -3.0869
 9084SOL    HW238889   3.078   3.086   9.108 -0.1788 -0.3472 -1.2371
 9085SOL     OW38890   1.414   2.519   2.287 -0.0168  0.3476  0.0487
 9085SOL    HW138891   1.507   2.531   2.305  0.5368 -1.7318 -1.3893
 9085SOL    HW238892   1.415   2.475   2.202  1.0410 -1.1407  0.8265
 9086SOL     OW38893   1.302   3.321   6.469  0.7792  0.6965 -0.0065
 9086SOL    HW138894   1.327   3.388   6.533 -1.8287  1.7887 -0.1346
 9086SOL    HW238895   1.211   3.309   6.496  0.3573  0.2091 -1.6748
 9087SOL     OW38896   3.345   3.371   9.940  0.3954 -0.1443 -0.5944
 9087SOL    HW138897   3.429   3.412   9.919  0.9025  0.1917  2.1361
 9087SOL    HW238898   3.308   3.442   9.992  1.9239  0.2969 -0.1137
 9088SOL     OW38899   0.494   0.528   6.058  0.5186 -0.1032  0.2899
 9088SOL    HW138900   0.500   0.623   6.049  0.4448 -0.1719 -0.4765
 9088SOL    HW238901   0.413   0.508   6.104  1.1138 -0.0076  1.3695
 9089SOL     OW38902   3.390   2.441   3.638  0.1062  0.3327 -0.6869
 9089SOL    HW138903   3.296   2.460   3.638 -0.1131 -0.7457 -0.4392
 9089SOL    HW238904   3.426   2.526   3.613  0.2198  0.4196 -0.2345
 9090SOL     OW38905   1.950   2.380  13.345  0.0243 -0.2527  0.1602
 9090SOL    HW138906   1.949   2.476  13.341 -0.8538 -0.2120  1.3594
 9090SOL    HW238907   2.023   2.369  13.285 -0.2710  0.6366 -0.3659
 9091SOL     OW38908   2.435   3.781  17.482  0.4450  0.0122  0.2962
 9091SOL    HW138909   2.363   3.804  17.423 -0.7291 -0.6097  1.4739
 9091SOL    HW238910   2.387   3.750  17.559 -1.7651  1.2367 -0.5737
 9092SOL     OW38911   2.884   2.502  12.398 -0.4287 -0.4760  0.2234
 9092SOL    HW138912   2.901   2.457  12.481  1.8009  1.7666  0.9936
 9092SOL    HW238913   2.953   2.472  12.339  0.1017  1.0301  0.0713
 9093SOL     OW38914   1.679   0.861   5.666 -0.2825 -0.3449  0.0564
 9093SOL    HW138915   1.765   0.824   5.646 -0.0838 -1.1712  2.4844
 9093SOL    HW238916   1.705   0.931   5.726 -1.4701 -2.4873  3.0964
 9094SOL     OW38917   4.078   2.470   3.983 -0.3480 -0.3368  0.3798
 9094SOL    HW138918   4.139   2.455   4.056 -1.1929  1.1234  1.3799
 9094SOL    HW238919   4.032   2.550   4.009 -2.0614 -0.5763 -2.0151
 9095SOL     OW38920   0.902   0.878   6.799  0.4833 -0.1715 -0.3388
 9095SOL    HW138921   0.915   0.951   6.738  0.9243  1.6932  1.9800
 9095SOL    HW238922   0.816   0.840   6.782  1.1564 -1.5718 -0.6138
 9096SOL     OW38923   3.593   0.289  14.823 -0.2365 -0.4353 -0.1116
 9096SOL    HW138924   3.617   0.240  14.745  0.6858 -1.4830  0.8232
 9096SOL    HW238925   3.672   0.343  14.822 -0.2989 -0.3265  0.5011
 9097SOL     OW38926   4.314   1.269   6.721 -0.0131 -0.4862  0.3179
 9097SOL    HW138927   4.338   1.293   6.810 -1.5847  2.2568  0.0094
 9097SOL    HW238928   4.229   1.229   6.738 -0.8682  0.7103 -1.1874
 9098SOL     OW38929   0.969   2.103   6.991  0.1258  0.0756 -0.4675
 9098SOL    HW138930   1.027   2.040   6.948  1.0589  0.0221  0.8624
 9098SOL    HW238931   1.030   2.146   7.051  0.1384 -0.1255 -0.3361
 9099SOL     OW38932   3.873   1.616  14.639  0.2607 -0.4446  0.0236
 9099SOL    HW138933   3.879   1.527  14.674 -1.9441 -0.5980  0.0236
 9099SOL    HW238934   3.817   1.661  14.702  1.6144  0.3920  0.6402
 9100SOL     OW38935   3.614   2.624   4.618 -0.1309 -0.1355  0.2189
 9100SOL    HW138936   3.623   2.713   4.585  0.3698  0.2036  1.2511
 9100SOL    HW238937   3.701   2.617   4.657  0.0470 -0.8444 -0.3113
 9101SOL     OW38938   2.557   2.702  13.365  0.1941  0.5721  0.0462
 9101SOL    HW138939   2.524   2.643  13.433 -0.6196  1.1648  0.1690
 9101SOL    HW238940   2.616   2.645  13.317  0.5337  1.9420 -1.1766
 9102SOL     OW38941   3.965   1.607   8.083 -0.1038  0.4748  0.4684
 9102SOL    HW138942   3.903   1.566   8.023 -1.2149 -0.3120  2.1590
 9102SOL    HW238943   3.912   1.637   8.157 -0.1215  1.7493 -0.0699
 9103SOL     OW38944   1.370   4.709   8.106  0.1484 -0.0574 -0.0256
 9103SOL    HW138945   1.353   0.047   8.165  0.5334 -0.9840  1.2354
 9103SOL    HW238946   1.363   0.006   8.016  1.2602  2.3338  0.7564
 9104SOL     OW38947   2.455   1.814  16.962 -0.2442  0.4635 -0.0354
 9104SOL    HW138948   2.434   1.737  16.909  1.1681 -0.3823  0.6461
 9104SOL    HW238949   2.386   1.873  16.932  1.7107  2.2483 -0.9859
 9105SOL     OW38950   1.146   0.857   5.087 -0.6121 -0.1759 -0.0380
 9105SOL    HW138951   1.163   0.946   5.118  1.0287  0.4934 -2.8051
 9105SOL    HW238952   1.208   0.804   5.137 -1.5471 -0.4668  0.8341
 9106SOL     OW38953   3.469   2.819  15.223 -0.3680 -0.6676 -0.1876
 9106SOL    HW138954   3.472   2.890  15.287 -1.6228 -1.1552  0.4038
 9106SOL    HW238955   3.376   2.797  15.227 -0.5146  0.2632  1.5062
 9107SOL     OW38956   3.935   0.255   7.074  0.1062  0.2380  0.2642
 9107SOL    HW138957   3.864   0.243   7.137 -0.7595  0.6167 -0.6477
 9107SOL    HW238958   3.890   0.218   6.998 -0.5409  0.2987  0.6218
 9108SOL     OW38959   1.791   0.627   3.981  0.1971 -0.3757 -0.7649
 9108SOL    HW138960   1.795   0.559   3.914 -1.4243 -0.3548 -0.8802
 9108SOL    HW238961   1.779   0.576   4.061  0.1674  1.4821  0.4157
 9109SOL     OW38962   4.301   4.284   7.521  0.3495  0.3166  0.6638
 9109SOL    HW138963   4.391   4.317   7.524  0.5416 -0.1910  0.5723
 9109SOL    HW238964   4.273   4.274   7.612  2.7055 -1.9482  1.1509
 9110SOL     OW38965   1.990   3.857  11.200 -0.1111 -0.2396 -0.5766
 9110SOL    HW138966   2.032   3.941  11.182  0.3717 -0.2410  0.5340
 9110SOL    HW238967   1.902   3.870  11.164  0.4089  0.2223 -1.6760
 9111SOL     OW38968   3.710   1.661   6.492  0.0510  0.0315 -0.1239
 9111SOL    HW138969   3.748   1.656   6.404  1.3228  0.1215  0.4210
 9111SOL    HW238970   3.788   1.633   6.538  1.1682  2.9836 -0.2099
 9112SOL     OW38971   2.487   0.677  11.893  0.2783  0.7100 -0.6901
 9112SOL    HW138972   2.406   0.628  11.881  0.9200 -0.9219  1.5610
 9112SOL    HW238973   2.471   0.701  11.985  0.3234 -0.2385 -0.4359
 9113SOL     OW38974   4.725   2.348   8.334 -0.3606 -0.3144  0.1525
 9113SOL    HW138975   4.674   2.352   8.414  1.2725 -3.0770  1.3450
 9113SOL    HW238976   0.075   2.314   8.359 -0.3537  0.0018  0.5442
 9114SOL     OW38977   2.544   2.613   5.438 -0.4712  0.7672  0.0575
 9114SOL    HW138978   2.464   2.664   5.428 -1.1606 -0.4782 -0.7447
 9114SOL    HW238979   2.511   2.534   5.481 -1.0631  0.0494 -1.7419
 9115SOL     OW38980   2.087   1.647   5.532  0.2946  0.3765 -0.5646
 9115SOL    HW138981   1.996   1.637   5.504 -0.3476  0.1655  1.5696
 9115SOL    HW238982   2.068   1.686   5.618 -1.1005  0.2545 -0.8140
 9116SOL     OW38983   3.750   3.472   2.191  0.1013  0.2752 -0.3507
 9116SOL    HW138984   3.724   3.544   2.249  3.7553 -0.1189  1.7762
 9116SOL    HW238985   3.831   3.502   2.151  2.3037  0.2760  4.1012
 9117SOL     OW38986   3.714   3.730   3.631 -0.1622 -0.2074  0.7011
 9117SOL    HW138987   3.694   3.822   3.646  0.7885 -0.1086  1.3800
 9117SOL    HW238988   3.692   3.715   3.539 -1.1395 -1.2977  1.1109
 9118SOL     OW38989   3.859   2.595  16.002  0.3939 -0.3534 -0.8579
 9118SOL    HW138990   3.885   2.680  16.038  2.2875 -1.2189 -0.1812
 9118SOL    HW238991   3.827   2.610  15.913 -2.7657 -2.4142 -0.0885
 9119SOL     OW38992   1.612   0.977   9.194 -0.1732 -0.4186  0.1626
 9119SOL    HW138993   1.632   0.894   9.152 -1.5264  0.0240 -1.3449
 9119SOL    HW238994   1.538   0.958   9.251  0.2622 -2.4647  0.0248
 9120SOL     OW38995   2.736   2.565   7.452  0.5827  0.0583 -0.2244
 9120SOL    HW138996   2.690   2.614   7.520  0.1330  0.0121 -0.4996
 9120SOL    HW238997   2.793   2.507   7.502 -1.7043 -2.8418 -1.0082
 9121SOL     OW38998   2.568   2.048  11.367 -1.0779 -0.1349 -0.3046
 9121SOL    HW138999   2.607   2.011  11.288  2.3682  0.7867  0.9447
 9121SOL    HW239000   2.602   2.134  11.342 -2.2466 -0.0972 -1.7265
 9122SOL     OW39001   1.961   4.498   1.231  0.5591 -0.3020 -0.0330
 9122SOL    HW139002   1.970   4.455   1.147 -1.2824  2.2863 -1.5350
 9122SOL    HW239003   1.876   4.542   1.234  0.7817  0.1299 -0.1293
 9123SOL     OW39004   3.637   4.432   5.799 -0.3465  0.5790 -0.1436
 9123SOL    HW139005   3.562   4.447   5.741  0.1676 -1.1244 -1.2344
 9123SOL    HW239006   3.710   4.457   5.743 -0.1864 -0.9311 -0.6089
 9124SOL     OW39007   4.250   2.082   2.421 -0.1712  0.1750  0.5984
 9124SOL    HW139008   4.309   2.108   2.493  0.3721 -0.3061  0.3309
 9124SOL    HW239009   4.239   1.989   2.442  3.0617 -0.2468  0.4520
 9125SOL     OW39010   4.121   3.989   1.935  0.3118  0.7008  0.1970
 9125SOL    HW139011   4.204   3.969   1.892 -0.1523 -0.5041 -0.1276
 9125SOL    HW239012   4.146   3.974   2.026  1.0256  0.6741 -0.0075
 9126SOL     OW39013   0.771   1.004   5.857  0.0770 -0.0916  0.1502
 9126SOL    HW139014   0.799   0.944   5.788 -1.2823  0.8040 -1.1818
 9126SOL    HW239015   0.755   0.942   5.928  0.4696 -1.0092 -0.5530
 9127SOL     OW39016   1.062   1.728  14.392  0.3692  0.0242  0.4614
 9127SOL    HW139017   1.137   1.684  14.353 -0.2586 -0.5268 -0.1301
 9127SOL    HW239018   0.999   1.656  14.390 -0.0313  0.3361  1.9139
 9128SOL     OW39019   3.291   0.499   7.071 -0.5012  0.0200 -0.0956
 9128SOL    HW139020   3.364   0.519   7.011 -1.6783 -0.8355 -1.8294
 9128SOL    HW239021   3.217   0.471   7.016 -0.4699 -0.0391 -0.1078
 9129SOL     OW39022   2.858   2.313   2.856 -0.2736 -0.1187  0.0016
 9129SOL    HW139023   2.837   2.389   2.910 -1.3382  1.1491 -2.2192
 9129SOL    HW239024   2.774   2.289   2.818  0.1968 -1.1658 -0.3738
 9130SOL     OW39025   2.746   0.313   9.478 -0.3755  0.7052  0.3553
 9130SOL    HW139026   2.822   0.261   9.503 -0.8336 -0.0629  0.1247
 9130SOL    HW239027   2.688   0.240   9.457 -0.1798  0.9642 -1.0372
 9131SOL     OW39028   0.802   0.098   2.793 -0.4588  0.7838  0.6373
 9131SOL    HW139029   0.838   0.169   2.740 -0.5326  0.9546  0.8160
 9131SOL    HW239030   0.876   0.076   2.849 -0.8927  1.6225  1.5399
 9132SOL     OW39031   4.630   1.522   3.553  0.3731  0.1854 -0.2537
 9132SOL    HW139032   4.680   1.601   3.533 -0.3018  0.9232  0.9839
 9132SOL    HW239033   4.693   1.452   3.535 -1.4679 -0.8766 -2.5201
 9133SOL     OW39034   4.640   0.106   9.648  0.5685 -0.6083 -0.0242
 9133SOL    HW139035   4.627   0.190   9.691  0.2885 -0.6957  0.0596
 9133SOL    HW239036   4.563   0.053   9.669  0.5000 -0.7626 -0.6579
 9134SOL     OW39037   4.061   4.726   6.461  0.3740  0.3961  0.2770
 9134SOL    HW139038   3.966   4.727   6.476 -0.0156 -1.2308 -2.1065
 9134SOL    HW239039   4.057   4.699   6.369 -1.5053  2.0656 -0.1414
 9135SOL     OW39040   1.210   3.180   9.376 -0.4376  0.8478 -0.1211
 9135SOL    HW139041   1.297   3.163   9.339 -1.3784 -0.7841 -1.5762
 9135SOL    HW239042   1.226   3.143   9.463  0.5679 -0.6251 -0.9325
 9136SOL     OW39043   1.667   1.354   5.151 -0.4953  0.4474  0.3229
 9136SOL    HW139044   1.619   1.370   5.233  0.6660  0.7094  0.9471
 9136SOL    HW239045   1.730   1.295   5.192  1.5677  1.8090 -0.8546
 9137SOL     OW39046   3.759   2.550   2.596  0.8191 -0.7234 -0.4126
 9137SOL    HW139047   3.795   2.637   2.615  2.2499 -0.9442 -2.0214
 9137SOL    HW239048   3.820   2.500   2.649  0.8235  0.6096  0.8538
 9138SOL     OW39049   3.774   0.047  14.453 -0.6439  0.1360 -0.2688
 9138SOL    HW139050   3.712   4.710  14.453 -1.2946  0.6994  0.6438
 9138SOL    HW239051   3.862   0.008  14.448  0.4030  2.4634  0.0197
 9139SOL     OW39052   2.415   1.484  12.051  0.8722 -0.4114 -0.0890
 9139SOL    HW139053   2.423   1.562  11.996  0.3949 -1.5746 -1.8034
 9139SOL    HW239054   2.369   1.429  11.988 -2.5602  1.1202  1.0840
 9140SOL     OW39055   1.867   2.292   8.668 -0.0478 -0.2812  0.0482
 9140SOL    HW139056   1.876   2.220   8.605  0.4820 -1.1322  1.0945
 9140SOL    HW239057   1.951   2.280   8.713  0.8697 -1.4530 -1.9584
 9141SOL     OW39058   4.395   4.302   6.552  0.6841 -0.2807  0.5992
 9141SOL    HW139059   4.340   4.326   6.478  3.3702  1.3147 -0.8589
 9141SOL    HW239060   4.456   4.248   6.503  1.1683  0.6797  0.1383
 9142SOL     OW39061   1.287   3.791   7.444  0.0315  0.3157 -0.1527
 9142SOL    HW139062   1.346   3.748   7.507  0.5351 -0.0838 -0.8963
 9142SOL    HW239063   1.265   3.718   7.387 -3.1938 -0.4695  2.1103
 9143SOL     OW39064   1.240   2.933   6.339 -0.1092  0.2828  0.1486
 9143SOL    HW139065   1.169   2.964   6.283 -0.2509  0.2858  0.3317
 9143SOL    HW239066   1.310   2.997   6.321  1.2746 -0.4421  2.9187
 9144SOL     OW39067   2.577   1.120   0.816  0.9808 -0.3436 -0.5175
 9144SOL    HW139068   2.660   1.168   0.818  0.3677  0.7997 -2.8842
 9144SOL    HW239069   2.603   1.055   0.751 -0.2400 -1.2503 -0.0895
 9145SOL     OW39070   2.120   4.705   6.822  0.1215  0.6813 -0.1629
 9145SOL    HW139071   2.093   0.017   6.900  1.4788  0.6050  0.3421
 9145SOL    HW239072   2.196   4.664   6.862  0.9152 -0.0901 -2.4421
 9146SOL     OW39073   4.071   4.664   6.186  0.1174  0.1780  0.0833
 9146SOL    HW139074   4.029   4.726   6.126 -0.8188 -0.3920  0.1442
 9146SOL    HW239075   4.118   4.606   6.127  1.3361 -0.5136  1.7438
 9147SOL     OW39076   1.506   2.852   8.879  0.5770  0.7030 -0.6398
 9147SOL    HW139077   1.435   2.888   8.827 -0.8959 -0.3427  0.6327
 9147SOL    HW239078   1.520   2.918   8.947 -3.4291  1.5475 -0.6287
 9148SOL     OW39079   1.939   3.243  11.563  0.1124  0.5980  0.2623
 9148SOL    HW139080   1.853   3.280  11.542 -0.4505 -0.8081  0.0709
 9148SOL    HW239081   1.995   3.320  11.551  0.6351  0.2269  0.3355
 9149SOL     OW39082   2.299   4.068   2.739  0.0438 -0.0943 -0.3280
 9149SOL    HW139083   2.338   4.038   2.656  0.6092 -0.1061 -0.0568
 9149SOL    HW239084   2.332   4.001   2.799 -1.2486 -0.3074  0.1496
 9150SOL     OW39085   1.365   1.180   1.533  0.0475 -0.3624  0.1895
 9150SOL    HW139086   1.297   1.112   1.530  0.3944 -0.6791 -0.3676
 9150SOL    HW239087   1.412   1.180   1.450  0.7790 -4.4095  0.5704
 9151SOL     OW39088   0.260   1.802   9.442 -0.1305 -0.0778 -0.3936
 9151SOL    HW139089   0.179   1.761   9.472  1.8032 -3.5220  0.0865
 9151SOL    HW239090   0.248   1.832   9.352  0.4530 -0.6078 -0.6486
 9152SOL     OW39091   3.457   4.024   7.822  0.1372  0.2470  0.4067
 9152SOL    HW139092   3.400   4.091   7.861  0.4577  1.1901 -0.7421
 9152SOL    HW239093   3.404   4.015   7.742  0.4273  2.2251 -0.0158
 9153SOL     OW39094   3.171   3.844   3.839 -0.1325  0.7877  0.5346
 9153SOL    HW139095   3.079   3.865   3.825 -0.4291 -1.6814 -1.3394
 9153SOL    HW239096   3.201   3.837   3.748  1.0218  1.7783  0.8374
 9154SOL     OW39097   0.156   2.787   6.533  0.5808  0.4866  0.3841
 9154SOL    HW139098   0.205   2.766   6.454  1.7282  1.1953  0.8900
 9154SOL    HW239099   0.144   2.879   6.508  0.7747  0.3752 -0.1214
 9155SOL     OW39100   3.544   2.287   6.761  0.2162  0.2949 -0.3425
 9155SOL    HW139101   3.468   2.246   6.721  1.4250 -0.4877 -1.8407
 9155SOL    HW239102   3.517   2.378   6.746  2.4894  1.0217 -0.1827
 9156SOL     OW39103   2.003   1.517   1.514  0.2470  0.0156  0.5541
 9156SOL    HW139104   2.071   1.465   1.471  0.2199  0.6829 -0.3053
 9156SOL    HW239105   1.965   1.570   1.444 -0.2899  1.7935  2.1794
 9157SOL     OW39106   3.224   0.883   0.382  1.0244 -0.1265 -0.3834
 9157SOL    HW139107   3.288   0.954   0.383  1.2278 -0.3004 -2.5465
 9157SOL    HW239108   3.170   0.914   0.309  0.6470  1.5878  0.6150
 9158SOL     OW39109   4.154   0.045  13.055  0.0174  0.0594 -0.2164
 9158SOL    HW139110   4.158   0.134  13.020 -0.1648  0.0688 -0.2109
 9158SOL    HW239111   4.074   0.044  13.107  0.0843  1.3136 -0.0939
 9159SOL     OW39112   1.744   0.862   3.211 -0.5663 -0.3402 -0.0107
 9159SOL    HW139113   1.770   0.796   3.275  0.4217  1.1252  1.1139
 9159SOL    HW239114   1.835   0.877   3.186 -0.4015 -0.5128  0.4895
 9160SOL     OW39115   0.135   2.831  12.107  0.4560  0.3160  0.3722
 9160SOL    HW139116   0.176   2.790  12.031 -0.6016 -1.6133  0.8325
 9160SOL    HW239117   0.205   2.832  12.173 -0.2391 -0.4184  1.1234
 9161SOL     OW39118   3.948   2.882   3.293  0.2912 -0.1456 -0.4364
 9161SOL    HW139119   4.007   2.850   3.225 -1.5608  1.0255 -2.6234
 9161SOL    HW239120   4.000   2.925   3.361 -1.3440  0.2810  0.5436
 9162SOL     OW39121   4.173   0.402   7.770 -0.8882 -0.1554 -0.0162
 9162SOL    HW139122   4.243   0.339   7.751  0.6718  1.7839 -0.7716
 9162SOL    HW239123   4.225   0.478   7.798 -0.5446 -0.7161  0.8818
 9163SOL     OW39124   2.356   2.198   8.083 -0.5097  0.2859 -0.1773
 9163SOL    HW139125   2.356   2.187   8.178 -1.5858 -0.1398 -0.2329
 9163SOL    HW239126   2.439   2.159   8.056 -2.2228 -2.3842 -1.6204
 9164SOL     OW39127   4.576   3.842   2.804 -0.0062 -0.0460 -0.4002
 9164SOL    HW139128   4.528   3.801   2.731  0.5043 -1.8811  0.2831
 9164SOL    HW239129   4.601   3.764   2.854 -1.4891 -1.1959 -1.4420
 9165SOL     OW39130   1.619   3.573   4.587  0.8461 -0.2659 -0.0052
 9165SOL    HW139131   1.608   3.538   4.675 -0.1164  1.9944  0.7755
 9165SOL    HW239132   1.655   3.500   4.536 -1.1935 -0.7619 -0.7373
 9166SOL     OW39133   0.819   1.072  10.890 -0.0883 -0.2756  0.3072
 9166SOL    HW139134   0.813   1.139  10.822 -3.8259 -3.2810 -2.2608
 9166SOL    HW239135   0.905   1.093  10.929 -0.6961  1.6944  0.6119
 9167SOL     OW39136   4.596   1.210  13.591 -0.5640 -0.0298  0.9529
 9167SOL    HW139137   4.681   1.169  13.608 -0.9664 -1.0681  0.4826
 9167SOL    HW239138   4.597   1.266  13.669  0.4721 -0.5212  1.3008
 9168SOL     OW39139   3.655   3.064  11.065 -0.3493  0.2538  0.5742
 9168SOL    HW139140   3.565   3.090  11.082 -0.7130 -0.1189 -0.7148
 9168SOL    HW239141   3.703   3.140  11.097  0.1383 -0.5637  1.8077
 9169SOL     OW39142   2.662   4.334   7.084  0.0442 -0.4668  0.6304
 9169SOL    HW139143   2.738   4.327   7.141  2.5472  1.1220 -2.5451
 9169SOL    HW239144   2.603   4.397   7.126 -0.4611 -0.6577  0.1992
 9170SOL     OW39145   1.900   1.959   5.584  0.4713  0.1817  0.9157
 9170SOL    HW139146   1.824   1.902   5.572  1.3701 -1.2023  1.7869
 9170SOL    HW239147   1.869   2.025   5.645 -0.6038 -2.7669  3.5154
 9171SOL     OW39148   4.735   4.414   5.790  0.5011 -0.2580  0.0968
 9171SOL    HW139149   0.057   4.447   5.859 -0.6503  0.2961  0.7928
 9171SOL    HW239150   4.679   4.356   5.840 -1.7253  2.1104  0.3907
 9172SOL     OW39151   3.084   0.622   9.101  0.2995  0.2989 -0.3124
 9172SOL    HW139152   3.076   0.710   9.064  0.6923  1.1095  1.5278
 9172SOL    HW239153   3.012   0.571   9.065  0.4101 -1.2766  1.7006
 9173SOL     OW39154   0.217   3.768   2.492  0.7995  0.2436 -0.4934
 9173SOL    HW139155   0.310   3.783   2.508  1.5516 -2.1351 -2.6129
 9173SOL    HW239156   0.176   3.806   2.570 -1.4474  1.6335 -2.3574
 9174SOL     OW39157   2.172   2.499   5.276  0.2613 -0.9277 -0.8594
 9174SOL    HW139158   2.195   2.511   5.368 -2.0609  0.2880 -0.4390
 9174SOL    HW239159   2.146   2.589   5.260  0.4097 -0.7338 -0.0030
 9175SOL     OW39160   2.545   0.610   3.080 -0.1119 -0.3277 -0.3022
 9175SOL    HW139161   2.473   0.585   3.022  0.7247  1.4520 -2.1436
 9175SOL    HW239162   2.588   0.525   3.088  0.4324 -0.0186  0.1035
 9176SOL     OW39163   3.565   0.631   7.659 -0.2000  0.2161  0.4132
 9176SOL    HW139164   3.620   0.650   7.735 -0.8751  1.8513  0.4973
 9176SOL    HW239165   3.609   0.676   7.587 -0.4449  1.2066  0.8846
 9177SOL     OW39166   1.692   2.958   2.457  0.1423  0.2717  0.3382
 9177SOL    HW139167   1.713   2.894   2.525  0.8914 -0.8779 -0.9876
 9177SOL    HW239168   1.603   2.989   2.474  0.1935  0.8476 -0.4561
 9178SOL     OW39169   3.869   3.834   5.994  0.2688  0.4798 -0.1765
 9178SOL    HW139170   3.917   3.752   5.994  0.4859  0.6147 -2.9878
 9178SOL    HW239171   3.860   3.859   5.902 -1.1382  1.5076  0.2439
 9179SOL     OW39172   3.286   3.424   4.945  0.0455  0.1689 -0.0416
 9179SOL    HW139173   3.231   3.405   4.869 -0.3974  0.7343  0.1362
 9179SOL    HW239174   3.347   3.351   4.942  1.4630  1.4115 -1.6816
 9180SOL     OW39175   0.675   2.561   4.361  0.2780  0.0241  0.0414
 9180SOL    HW139176   0.627   2.613   4.297 -0.4352 -2.4876 -1.4560
 9180SOL    HW239177   0.748   2.529   4.309  0.0773 -1.4079  0.6394
 9181SOL     OW39178   1.058   0.152   1.581 -0.1643  0.0741  0.1296
 9181SOL    HW139179   1.123   0.104   1.529  1.0285  0.2262  1.5012
 9181SOL    HW239180   1.088   0.150   1.671 -0.1895 -1.2444  0.1165
 9182SOL     OW39181   4.252   0.830   6.996  0.2729 -0.5768  0.0595
 9182SOL    HW139182   4.302   0.864   6.922  0.5990  0.2400  0.6507
 9182SOL    HW239183   4.215   0.910   7.034 -0.5435 -0.3388 -1.2528
 9183SOL     OW39184   1.505   1.444   5.391 -1.3196 -0.4974  0.5638
 9183SOL    HW139185   1.504   1.540   5.400  2.0663 -0.4362  0.4954
 9183SOL    HW239186   1.410   1.437   5.388 -1.3645 -0.4193  1.9207
 9184SOL     OW39187   3.009   4.399   3.369 -0.1358 -0.5218  0.4474
 9184SOL    HW139188   3.103   4.410   3.377  0.1961 -2.7813 -0.3918
 9184SOL    HW239189   3.001   4.323   3.311  0.7923  0.5470 -1.0473
 9185SOL     OW39190   2.266   0.006  10.401 -0.5752 -0.3631 -0.2334
 9185SOL    HW139191   2.351   4.717  10.437 -0.6944 -0.4394 -0.0020
 9185SOL    HW239192   2.244   0.079  10.459  0.5677  0.4848 -0.8671
 9186SOL     OW39193   2.629   1.719   0.054 -0.3895  0.1995 -0.1630
 9186SOL    HW139194   2.674   1.717   0.138  1.9261  1.2236 -1.4093
 9186SOL    HW239195   2.683   1.677  17.730  2.1719  1.9528  0.8385
 9187SOL     OW39196   0.608   3.572   8.263  0.1083 -0.2747  0.4116
 9187SOL    HW139197   0.648   3.545   8.180 -0.8819 -0.9724  0.1588
 9187SOL    HW239198   0.576   3.495   8.312 -1.5139 -0.0493 -0.2888
 9188SOL     OW39199   2.255   1.456   6.064 -0.3942  0.1431  0.0522
 9188SOL    HW139200   2.300   1.399   6.002 -0.0720  1.3631 -0.8324
 9188SOL    HW239201   2.297   1.433   6.147  1.7732 -0.3684 -1.1873
 9189SOL     OW39202   0.094   1.962  14.926 -0.4000  0.5630 -0.1191
 9189SOL    HW139203   0.024   1.897  14.934 -1.1924  1.4367  0.0696
 9189SOL    HW239204   0.161   1.909  14.969  1.4756  2.8826 -0.1658
 9190SOL     OW39205   1.489   2.123   7.674 -0.0614  0.3197 -0.4145
 9190SOL    HW139206   1.455   2.183   7.740  0.3931 -0.9633  0.9872
 9190SOL    HW239207   1.448   2.145   7.590  0.7938 -1.0362 -1.1886
 9191SOL     OW39208   4.659   3.773   7.135 -0.1635  0.0083  0.2479
 9191SOL    HW139209   4.564   3.767   7.124  0.0459  0.8124 -2.0631
 9191SOL    HW239210   4.694   3.742   7.051  0.5955 -1.7971  1.2203
 9192SOL     OW39211   4.655   3.855   0.596 -0.5586  0.3958 -0.2469
 9192SOL    HW139212   4.680   3.908   0.671  1.8717 -0.1929 -0.6320
 9192SOL    HW239213   4.576   3.815   0.633 -1.2763  1.2210 -0.8998
 9193SOL     OW39214   2.883   1.250   5.409 -0.3007 -0.4467  0.4859
 9193SOL    HW139215   2.973   1.231   5.437  0.6661  1.9016 -1.0265
 9193SOL    HW239216   2.902   1.237   5.316 -2.5072 -0.9472  0.1080
 9194SOL     OW39217   1.175   2.682   7.068 -0.0160  0.2992  0.4043
 9194SOL    HW139218   1.113   2.711   7.001  0.5433 -2.0895 -1.1393
 9194SOL    HW239219   1.238   2.754   7.060  0.7164 -0.3831  0.0441
 9195SOL     OW39220   4.073   3.643  13.755  0.2964  0.0391 -0.1772
 9195SOL    HW139221   4.089   3.711  13.822  2.3064 -0.2168 -0.3982
 9195SOL    HW239222   4.093   3.566  13.808 -0.3370 -0.2010 -0.3011
 9196SOL     OW39223   3.046   4.270   1.239  0.5806 -0.5858 -0.2600
 9196SOL    HW139224   3.042   4.365   1.247 -1.4617 -0.5493 -1.7026
 9196SOL    HW239225   2.979   4.252   1.173 -0.3591  0.2302  0.4592
 9197SOL     OW39226   2.921   0.350   6.911  0.1869 -0.3670  0.7737
 9197SOL    HW139227   2.979   0.302   6.970 -0.1474 -0.6549  0.8640
 9197SOL    HW239228   2.962   0.342   6.825 -0.3229  1.0097  0.4133
 9198SOL     OW39229   1.613   1.634  10.458  0.0628  0.4431  0.4823
 9198SOL    HW139230   1.596   1.547  10.424  0.4362 -0.3249  2.2528
 9198SOL    HW239231   1.535   1.663  10.507 -1.0232 -0.5278 -0.6771
 9199SOL     OW39232   2.313   1.160  15.577  0.5909  0.7625 -0.1635
 9199SOL    HW139233   2.324   1.091  15.512 -1.5127  0.4458 -0.1879
 9199SOL    HW239234   2.369   1.128  15.648  0.5250 -1.9181 -1.3227
 9200SOL     OW39235   1.981   3.436   8.610  0.5101 -0.0742  0.3840
 9200SOL    HW139236   1.939   3.516   8.578 -2.6078 -1.1137  1.9137
 9200SOL    HW239237   2.013   3.403   8.525 -1.5168 -4.1072  1.1697
 9201SOL     OW39238   1.141   4.220   8.372  0.1988 -0.2016  0.4629
 9201SOL    HW139239   1.154   4.301   8.421  2.5487  0.4121 -1.1261
 9201SOL    HW239240   1.223   4.169   8.376  0.9951  0.7981 -2.4457
 9202SOL     OW39241   1.975   4.048   3.481 -0.0301  0.1749  0.9032
 9202SOL    HW139242   1.945   3.958   3.468  2.2859 -0.3024 -1.0894
 9202SOL    HW239243   2.031   4.038   3.558  1.6288  0.4672 -0.2643
 9203SOL     OW39244   1.577   0.592   6.762 -0.3533 -0.2371 -0.3327
 9203SOL    HW139245   1.626   0.599   6.844  1.0777  1.4676 -1.3090
 9203SOL    HW239246   1.605   0.668   6.710 -0.0145  0.4725  0.8842
 9204SOL     OW39247   4.320   0.013   6.837  0.0430  0.1812 -0.0260
 9204SOL    HW139248   4.233   0.051   6.822 -0.4769 -0.8775  0.2678
 9204SOL    HW239249   4.368   0.088   6.803 -1.1516  2.1202  2.6451
 9205SOL     OW39250   2.362   0.903   2.269 -0.0721  0.2570 -0.0513
 9205SOL    HW139251   2.415   0.953   2.206  1.9090  1.6277  2.6850
 9205SOL    HW239252   2.442   0.861   2.302 -0.0821 -2.0264 -2.9400
 9206SOL     OW39253   2.952   2.136   1.634  0.5631 -0.0333 -0.2607
 9206SOL    HW139254   2.982   2.225   1.650 -2.3790  0.8850  0.1667
 9206SOL    HW239255   2.901   2.155   1.555 -1.9133  1.5507  1.7272
 9207SOL     OW39256   2.916   0.808   3.342 -0.7518  0.9488 -0.0897
 9207SOL    HW139257   2.887   0.722   3.313 -1.1895  1.2098 -0.4259
 9207SOL    HW239258   2.930   0.774   3.431 -1.2424 -0.6852 -0.6362
 9208SOL     OW39259   0.549   0.334  13.080 -0.2357 -0.9535 -0.0658
 9208SOL    HW139260   0.641   0.325  13.057 -0.2617 -1.4748  0.0290
 9208SOL    HW239261   0.525   0.426  13.067  2.1582 -0.7502 -3.0570
 9209SOL     OW39262   0.774   1.349   8.017  0.9789  0.0792 -0.1823
 9209SOL    HW139263   0.743   1.399   7.942 -0.4799 -0.4747  0.0670
 9209SOL    HW239264   0.854   1.395   8.046 -0.0021  2.2132 -0.8662
 9210SOL     OW39265   2.627   1.973   9.172  0.2473 -0.1169 -0.5224
 9210SOL    HW139266   2.539   2.003   9.150  0.3807  0.7497  0.1533
 9210SOL    HW239267   2.606   1.881   9.193  1.5286  0.3760  2.9208
 9211SOL     OW39268   3.432   2.082   9.034  0.1116  0.8803 -0.4953
 9211SOL    HW139269   3.478   2.097   9.117 -0.1196  0.6632 -0.3246
 9211SOL    HW239270   3.480   2.007   8.999 -0.5508 -0.2262  0.9550
 9212SOL     OW39271   0.856   1.454  16.206  0.0066 -0.1079  0.0701
 9212SOL    HW139272   0.870   1.394  16.132 -0.3443  0.8372 -0.7649
 9212SOL    HW239273   0.941   1.450  16.250 -0.5732 -1.0297  1.1147
 9213SOL     OW39274   0.358   3.979   5.842 -0.0948  0.2600 -0.3818
 9213SOL    HW139275   0.438   3.974   5.895 -0.7348  2.0761  0.7471
 9213SOL    HW239276   0.362   4.062   5.796  0.1224 -0.1037 -1.0210
 9214SOL     OW39277   2.029   4.287   5.148  0.0823  0.2488  0.4360
 9214SOL    HW139278   2.051   4.329   5.231  0.3873 -1.9325  1.4337
 9214SOL    HW239279   2.113   4.305   5.106 -1.0586  0.9442 -1.6167
 9215SOL     OW39280   0.939   2.581   1.359  0.4124  0.2778 -0.8508
 9215SOL    HW139281   1.009   2.639   1.329  0.7605  0.4518  0.2819
 9215SOL    HW239282   0.980   2.555   1.442  2.5336  0.7267 -1.7452
 9216SOL     OW39283   4.652   2.231   8.912  0.2266  0.0032  0.0889
 9216SOL    HW139284   4.560   2.229   8.888  0.4578 -2.8613 -0.5243
 9216SOL    HW239285   4.643   2.286   8.990 -2.1534  3.1821 -2.4460
 9217SOL     OW39286   0.998   2.232  17.119  0.3182 -0.1741 -0.1258
 9217SOL    HW139287   0.940   2.303  17.090  0.0076 -0.3427  0.0787
 9217SOL    HW239288   1.042   2.275  17.193  1.8413 -3.2498  0.7699
 9218SOL     OW39289   2.624   4.665   4.427  0.4559  0.1223 -0.3539
 9218SOL    HW139290   2.614   4.679   4.521  0.0509 -3.7419  0.1546
 9218SOL    HW239291   2.699   4.720   4.404  1.2631  0.2810  2.7288
 9219SOL     OW39292   4.113   0.859   7.558 -0.4668 -0.1398 -0.2648
 9219SOL    HW139293   4.067   0.784   7.520 -1.0041  0.7022 -1.2617
 9219SOL    HW239294   4.171   0.813   7.619 -1.4895 -0.3681  0.5372
 9220SOL     OW39295   2.665   3.232  11.199  0.5325 -0.2048  0.1009
 9220SOL    HW139296   2.739   3.234  11.138 -0.0087  1.5688 -0.5003
 9220SOL    HW239297   2.637   3.323  11.203 -1.3226 -0.7018 -0.9289
 9221SOL     OW39298   3.514   3.163  16.112 -0.0104 -0.0751 -0.0365
 9221SOL    HW139299   3.562   3.157  16.029  0.4477 -0.2423  0.2358
 9221SOL    HW239300   3.545   3.092  16.167 -0.4358 -0.1498  0.1024
 9222SOL     OW39301   4.227   3.789   3.880  0.4280 -0.6165  0.5170
 9222SOL    HW139302   4.263   3.805   3.967  0.5236 -1.8460  0.7079
 9222SOL    HW239303   4.139   3.820   3.902  0.4212 -1.0592  1.1146
 9223SOL     OW39304   0.839   1.539  14.354  0.0301 -0.2515 -0.4091
 9223SOL    HW139305   0.764   1.589  14.322 -0.1615  1.1564  2.2171
 9223SOL    HW239306   0.798   1.463  14.396  0.6457 -0.2825  0.1371
 9224SOL     OW39307   4.575   3.067   5.546  0.6017 -0.6178  0.1311
 9224SOL    HW139308   4.529   3.072   5.463  2.1829  1.5238 -0.5861
 9224SOL    HW239309   4.632   2.991   5.536  2.0892  0.5935 -0.5711
 9225SOL     OW39310   0.195   2.802   2.334 -0.4508 -0.1213  0.1907
 9225SOL    HW139311   0.183   2.791   2.240  1.5477  1.5818 -0.2755
 9225SOL    HW239312   0.152   2.887   2.346  0.5534  0.1858  1.5523
 9226SOL     OW39313   3.610   1.439   4.778  0.2489  0.4793  1.2296
 9226SOL    HW139314   3.678   1.379   4.747 -0.0076  0.4690  0.6821
 9226SOL    HW239315   3.594   1.402   4.865  0.6861 -1.5985  0.4314
 9227SOL     OW39316   3.622   3.482   0.993 -0.4558 -0.1857  0.1112
 9227SOL    HW139317   3.692   3.512   1.052  0.2864 -1.1163 -0.2929
 9227SOL    HW239318   3.666   3.468   0.909 -0.3388  2.0653 -0.1810
 9228SOL     OW39319   1.764   3.386   4.460  0.0362  0.3008 -0.1567
 9228SOL    HW139320   1.794   3.470   4.425 -0.4011  0.1841 -0.8180
 9228SOL    HW239321   1.809   3.337   4.390  0.5190  0.2319  0.2012
 9229SOL     OW39322   1.628   0.278   1.633  0.9524  0.9323 -0.1701
 9229SOL    HW139323   1.544   0.260   1.675 -0.6588  0.5044 -3.5609
 9229SOL    HW239324   1.599   0.348   1.575 -2.3654 -0.3223 -0.0556
 9230SOL     OW39325   1.863   1.760   2.614 -0.2823 -0.6846 -0.2348
 9230SOL    HW139326   1.806   1.834   2.592  0.3241 -0.4158 -0.9092
 9230SOL    HW239327   1.902   1.792   2.695 -1.7747  2.3307 -0.6978
 9231SOL     OW39328   2.619   3.960   0.122 -0.0547 -0.0739  0.4421
 9231SOL    HW139329   2.685   3.967   0.191  0.3628  2.2058 -0.1913
 9231SOL    HW239330   2.549   3.982   0.183  0.9128  1.5262  0.9700
 9232SOL     OW39331   0.469   0.384   5.731 -0.3103 -0.1149  0.0970
 9232SOL    HW139332   0.560   0.409   5.747  0.0808 -0.7749 -1.1101
 9232SOL    HW239333   0.417   0.437   5.792  1.9739  1.1978  0.8961
 9233SOL     OW39334   4.575   4.202   3.592 -0.0449  0.3173  0.1479
 9233SOL    HW139335   4.549   4.236   3.506 -5.1437 -4.2456 -0.1100
 9233SOL    HW239336   4.664   4.231   3.610  0.3128  0.4436 -1.7927
 9234SOL     OW39337   3.113   3.073  15.951 -0.5959 -0.3231  0.4688
 9234SOL    HW139338   3.147   2.985  15.933 -2.3336 -1.0885  0.9988
 9234SOL    HW239339   3.102   3.106  15.861  1.9187  1.6778  0.8541
 9235SOL     OW39340   4.228   0.716  16.913  0.2760  0.1792  0.3113
 9235SOL    HW139341   4.231   0.791  16.853  0.8976 -0.0707  0.0188
 9235SOL    HW239342   4.291   0.656  16.872  0.2594 -1.1918  2.3067
 9236SOL     OW39343   3.703   4.117   7.927 -0.6265 -0.1144 -0.8345
 9236SOL    HW139344   3.708   4.182   7.856 -0.1019  0.9055  0.1330
 9236SOL    HW239345   3.632   4.065   7.891 -0.8000 -1.2241  1.1362
 9237SOL     OW39346   0.372   0.696   8.003 -0.1114  0.4656 -0.0995
 9237SOL    HW139347   0.410   0.779   8.032 -0.8092 -0.2637  2.9111
 9237SOL    HW239348   0.354   0.718   7.911  1.7618  0.7741 -0.3899
 9238SOL     OW39349   2.088   0.624   7.792  0.0055 -0.1971 -0.0370
 9238SOL    HW139350   2.011   0.569   7.807 -0.7811  0.4451 -1.6331
 9238SOL    HW239351   2.153   0.560   7.818  0.4744 -0.0981 -0.9549
 9239SOL     OW39352   4.520   1.145   7.989  0.6427 -0.0324  0.8480
 9239SOL    HW139353   4.446   1.109   8.036  2.7481 -1.3617  3.1430
 9239SOL    HW239354   4.484   1.230   7.963 -3.9988 -1.9658  1.0731
 9240SOL     OW39355   2.409   0.613   8.310 -0.3020 -0.3786 -0.3373
 9240SOL    HW139356   2.473   0.542   8.314  0.7758  0.7418  2.9694
 9240SOL    HW239357   2.464   0.680   8.270  1.0175 -3.5863 -3.8564
 9241SOL     OW39358   2.251   3.202   3.929  0.2251  0.3372 -0.3540
 9241SOL    HW139359   2.178   3.263   3.919 -0.0505  0.1096  0.2558
 9241SOL    HW239360   2.235   3.186   4.022  1.6509 -1.5203 -0.4382
 9242SOL     OW39361   1.849   2.569   5.895  0.3056 -0.0741 -0.2109
 9242SOL    HW139362   1.892   2.628   5.958 -0.3999 -1.5210  1.6334
 9242SOL    HW239363   1.764   2.612   5.889  0.2347 -0.3570 -1.2465
 9243SOL     OW39364   0.230   2.228   7.853  0.1305  0.0194  0.8309
 9243SOL    HW139365   0.201   2.318   7.869  2.0949  0.7511  0.3390
 9243SOL    HW239366   0.210   2.190   7.938  0.7249  1.4365  1.6183
 9244SOL     OW39367   2.075   1.045   7.619 -0.1027  0.1753  0.8469
 9244SOL    HW139368   2.069   0.988   7.695  0.4921 -1.9361 -0.6668
 9244SOL    HW239369   1.989   1.031   7.579  0.3055 -1.1634  0.4265
 9245SOL     OW39370   4.661   0.225  13.287  0.4225  0.1036 -0.0400
 9245SOL    HW139371   4.650   0.319  13.273 -2.1597 -0.1859  0.1086
 9245SOL    HW239372   4.736   0.218  13.227  0.3534  1.8425 -0.3109
 9246SOL     OW39373   3.440   1.490  11.716 -0.0916 -0.1920  0.3788
 9246SOL    HW139374   3.463   1.556  11.650  0.2620  0.9951  1.6823
 9246SOL    HW239375   3.391   1.546  11.776  0.4451 -0.5895  1.1931
 9247SOL     OW39376   0.727   3.530  15.501 -0.2740 -0.7860  0.1993
 9247SOL    HW139377   0.650   3.474  15.510 -0.2264 -1.1450 -1.6477
 9247SOL    HW239378   0.689   3.618  15.495  2.2991  0.5200  2.9260
 9248SOL     OW39379   0.859   1.722  14.609 -0.3930 -1.3003 -0.4046
 9248SOL    HW139380   0.809   1.646  14.641  0.5049 -2.2001 -1.1329
 9248SOL    HW239381   0.915   1.685  14.541  0.6147 -0.2923 -0.1262
 9249SOL     OW39382   3.527   2.534   7.483  0.3502 -0.1054 -0.4890
 9249SOL    HW139383   3.610   2.579   7.470 -0.0202  0.6250 -0.3075
 9249SOL    HW239384   3.526   2.527   7.579 -0.1100 -2.3657 -0.6429
 9250SOL     OW39385   0.177   1.948   2.989 -0.2127 -0.0129  0.2387
 9250SOL    HW139386   0.206   1.906   2.908  2.0001  0.9058  0.5504
 9250SOL    HW239387   0.178   2.034   2.947  0.8380 -0.7580 -1.2699
 9251SOL     OW39388   3.281   4.028   0.888 -0.1551 -0.4224  0.2654
 9251SOL    HW139389   3.352   3.975   0.925  0.2664  0.3943  0.6311
 9251SOL    HW239390   3.331   4.069   0.818 -0.3044 -2.2400 -0.9030
 9252SOL     OW39391   1.599   2.424  14.407  0.2270 -0.2545  0.4441
 9252SOL    HW139392   1.612   2.422  14.312  1.1823 -0.7434  0.5841
 9252SOL    HW239393   1.507   2.445  14.424 -0.1405 -2.1550  0.7514
 9253SOL     OW39394   0.177   3.379   0.327  0.1229  0.2531  0.0005
 9253SOL    HW139395   0.198   3.290   0.299  0.4027 -0.1731  1.5510
 9253SOL    HW239396   0.204   3.361   0.418 -0.3507  0.1085  0.1154
 9254SOL     OW39397   0.151   1.992  11.046 -0.6765  0.2686 -0.2016
 9254SOL    HW139398   0.201   1.913  11.026  1.0475  1.1252  0.7398
 9254SOL    HW239399   0.066   1.950  11.038  0.0501 -0.5602 -3.8282
 9255SOL     OW39400   4.602   3.124  11.638 -0.6580  0.5941 -0.1705
 9255SOL    HW139401   4.643   3.199  11.595 -0.7903  0.4929 -0.4733
 9255SOL    HW239402   4.645   3.138  11.722  1.7756 -0.3418 -1.2392
 9256SOL     OW39403   4.058   1.154   5.004  0.1103  0.2488  0.1529
 9256SOL    HW139404   3.994   1.083   5.000 -0.4617  0.6948  1.3741
 9256SOL    HW239405   4.000   1.230   4.995 -1.6774 -0.9665  1.2368
 9257SOL     OW39406   2.649   1.603   7.530  0.0343  0.1371 -0.4402
 9257SOL    HW139407   2.586   1.534   7.509  0.9324 -1.0273  0.6231
 9257SOL    HW239408   2.684   1.552   7.604  0.6991  0.3776 -0.5928
 9258SOL     OW39409   3.253   2.319   3.997  0.0239  0.3777  0.6218
 9258SOL    HW139410   3.222   2.396   3.950  0.9464  1.5743  1.9620
 9258SOL    HW239411   3.240   2.354   4.085 -1.2189  0.5919  0.3557
 9259SOL     OW39412   3.492   0.186  15.270 -0.2757  0.1592 -0.3693
 9259SOL    HW139413   3.525   0.250  15.207  1.6908 -0.5646 -0.0979
 9259SOL    HW239414   3.427   0.145  15.212 -0.6561 -0.4792  0.5100
 9260SOL     OW39415   2.479   0.279   4.010 -1.0372  0.1952  0.0153
 9260SOL    HW139416   2.479   0.216   3.937 -0.1802  0.6377 -0.3665
 9260SOL    HW239417   2.412   0.328   3.962 -1.9957  0.5989  1.7938
 9261SOL     OW39418   0.341   2.177   3.344  0.6402  0.2395  0.6357
 9261SOL    HW139419   0.254   2.171   3.384  1.0628  0.5411  1.6278
 9261SOL    HW239420   0.349   2.082   3.332  1.0844  0.0372  2.4943
 9262SOL     OW39421   1.646   1.735   8.945 -0.0158  0.3665 -0.5855
 9262SOL    HW139422   1.602   1.818   8.961 -1.5839 -0.2426 -1.7295
 9262SOL    HW239423   1.702   1.740   9.023 -0.2850 -0.0576 -0.3610
 9263SOL     OW39424   2.581   3.938  11.612  0.1737 -0.4337 -0.0583
 9263SOL    HW139425   2.606   3.970  11.698 -1.5961  1.4128 -0.2117
 9263SOL    HW239426   2.606   4.009  11.553 -1.8168  0.0820 -0.2882
 9264SOL     OW39427   1.222   1.897   8.199 -0.2884  0.0972  0.0390
 9264SOL    HW139428   1.258   1.853   8.276 -1.9779  1.2121  1.4485
 9264SOL    HW239429   1.140   1.849   8.185 -1.1186  2.1414 -2.1597
 9265SOL     OW39430   4.161   1.218   5.638 -0.1813  0.5807  0.3019
 9265SOL    HW139431   4.243   1.233   5.684 -0.2619 -1.6650  1.1509
 9265SOL    HW239432   4.160   1.287   5.571 -0.8414  0.5772  0.3048
 9266SOL     OW39433   2.593   4.259   5.277  0.0151 -0.3971 -0.7407
 9266SOL    HW139434   2.625   4.293   5.360 -1.8019 -0.5032 -0.0076
 9266SOL    HW239435   2.530   4.327   5.259 -0.1259 -0.2042  0.4966
 9267SOL     OW39436   0.542   3.503   6.472 -0.1162 -0.2227  0.4168
 9267SOL    HW139437   0.499   3.570   6.419  1.0436  0.3458  0.2042
 9267SOL    HW239438   0.596   3.465   6.403 -0.3539  0.0732  0.0690
 9268SOL     OW39439   1.212   0.155   1.806  0.2891 -0.2583  0.2496
 9268SOL    HW139440   1.285   0.216   1.800  1.1367 -1.1331  1.6218
 9268SOL    HW239441   1.249   0.078   1.849 -2.0200 -1.8065 -0.5502
 9269SOL     OW39442   2.915   2.367   7.184  0.3594 -0.1906 -0.1812
 9269SOL    HW139443   2.938   2.310   7.111 -5.0239 -2.1379 -0.3251
 9269SOL    HW239444   2.892   2.300   7.249 -0.6679  0.2158 -0.1330
 9270SOL     OW39445   2.081   0.011   6.546 -0.7306  0.2909 -0.1348
 9270SOL    HW139446   2.003   0.066   6.538 -0.5868  0.4423 -0.4880
 9270SOL    HW239447   2.099   0.005   6.640  0.5782  0.2005 -0.3966
 9271SOL     OW39448   2.478   3.827  11.884  0.4490  0.2537  0.6479
 9271SOL    HW139449   2.446   3.829  11.794  3.1988 -2.1054 -0.3802
 9271SOL    HW239450   2.402   3.793  11.931  0.6902 -0.8888  0.2011
 9272SOL     OW39451   0.320   0.205  17.478 -0.3044  0.6624  0.0777
 9272SOL    HW139452   0.268   0.261  17.535  0.8545  2.2578 -0.4351
 9272SOL    HW239453   0.257   0.193  17.407  2.9658  0.3144 -2.7694
 9273SOL     OW39454   1.409   0.198   8.761  0.0838  0.8302  0.2696
 9273SOL    HW139455   1.434   0.116   8.803 -0.1964  0.6780  0.1410
 9273SOL    HW239456   1.478   0.205   8.696  1.6485  0.5148  1.8959
 9274SOL     OW39457   2.740   3.391   8.624  0.3078 -0.1458  0.4594
 9274SOL    HW139458   2.769   3.324   8.687  1.3175 -0.2806 -0.1476
 9274SOL    HW239459   2.648   3.403   8.646  0.2342  1.9341 -0.9080
 9275SOL     OW39460   1.280   1.660  14.213 -0.3886 -0.3318 -0.0339
 9275SOL    HW139461   1.342   1.649  14.141 -1.0149 -2.8629 -0.1890
 9275SOL    HW239462   1.306   1.749  14.239  3.1578 -1.3234 -0.1305
 9276SOL     OW39463   3.572   4.323   9.111  0.7648  0.2400  0.1106
 9276SOL    HW139464   3.630   4.255   9.144 -0.0821 -1.7721 -2.5162
 9276SOL    HW239465   3.631   4.399   9.113 -1.2952  1.8522 -0.0634
 9277SOL     OW39466   2.542   2.306   9.423 -0.2029 -0.2652  0.1571
 9277SOL    HW139467   2.556   2.269   9.510  1.5338  1.2643  0.5250
 9277SOL    HW239468   2.581   2.393   9.434 -2.5045  0.9346 -1.2575
 9278SOL     OW39469   1.525   1.955   9.049 -0.3777 -0.6442 -0.1046
 9278SOL    HW139470   1.543   2.001   8.966  1.0007 -0.7790  0.1149
 9278SOL    HW239471   1.435   1.970   9.077 -0.3465 -1.0531  0.2171
 9279SOL     OW39472   2.299   0.453   7.150  0.0648 -0.1708  0.3945
 9279SOL    HW139473   2.329   0.544   7.153 -0.0223 -0.1458  0.5012
 9279SOL    HW239474   2.243   0.452   7.073  1.5899  0.7502 -0.7254
 9280SOL     OW39475   1.533   1.208   5.536 -0.1282 -0.2665 -0.5137
 9280SOL    HW139476   1.524   1.141   5.469  1.0040 -0.4406 -0.4936
 9280SOL    HW239477   1.530   1.290   5.488  0.9735  0.9550  1.4675
 9281SOL     OW39478   2.897   0.727  10.440  0.5416  0.1871  0.2836
 9281SOL    HW139479   2.964   0.690  10.498  1.3281  1.2086  0.0329
 9281SOL    HW239480   2.862   0.803  10.486 -1.1010 -0.7547  0.5597
 9282SOL     OW39481   2.857   4.399   2.941  0.0835  0.2470 -0.3350
 9282SOL    HW139482   2.799   4.441   2.878  0.3866 -0.5236 -1.1284
 9282SOL    HW239483   2.830   4.308   2.932  1.0341 -0.1837  1.1559
 9283SOL     OW39484   4.201   0.101   4.394 -0.1549  0.2227 -0.0109
 9283SOL    HW139485   4.198   0.116   4.299 -0.8637  0.6133  0.0693
 9283SOL    HW239486   4.143   0.025   4.390  1.1109 -0.7985  1.3578
 9284SOL     OW39487   0.411   1.066  16.574  0.1381 -0.4166  0.4647
 9284SOL    HW139488   0.340   1.019  16.530 -0.9155  1.6529 -0.0709
 9284SOL    HW239489   0.360   1.089  16.653  0.1763 -1.1290  0.6960
 9285SOL     OW39490   2.028   3.311   8.376  0.7994  0.0707  0.0590
 9285SOL    HW139491   1.935   3.320   8.357  1.1703  2.8648 -0.4258
 9285SOL    HW239492   2.049   3.225   8.340  1.9442 -0.5272  2.1922
 9286SOL     OW39493   2.115   1.196   9.280 -0.3931 -0.2011  0.4328
 9286SOL    HW139494   2.171   1.128   9.317  0.5120  0.4100  0.2023
 9286SOL    HW239495   2.033   1.147   9.288 -1.4624  1.3293 -1.1082
 9287SOL     OW39496   2.755   3.322   3.697 -0.2008  0.9877 -0.0754
 9287SOL    HW139497   2.729   3.299   3.786  2.6682  1.2310  0.8070
 9287SOL    HW239498   2.685   3.276   3.650 -1.4961  1.7306  1.1242
 9288SOL     OW39499   3.064   1.080   9.504 -0.9598 -0.3367  0.2695
 9288SOL    HW139500   3.140   1.034   9.541 -0.2623  1.6248  1.2862
 9288SOL    HW239501   3.093   1.171   9.515 -0.7659 -0.4963  1.0964
 9289SOL     OW39502   0.139   2.671  10.982  0.5937 -0.2499  0.0820
 9289SOL    HW139503   0.126   2.635  11.070 -0.1496 -2.8893 -1.1341
 9289SOL    HW239504   0.232   2.651  10.968  0.2517 -0.8962 -1.2254
 9290SOL     OW39505   1.660   1.307   3.044 -0.1691 -0.1600 -0.1893
 9290SOL    HW139506   1.729   1.365   3.011 -1.4356  0.5041 -1.6846
 9290SOL    HW239507   1.612   1.361   3.107  1.1673 -0.5533  1.1748
 9291SOL     OW39508   1.690   2.490   8.626 -0.2167 -0.1204 -0.1040
 9291SOL    HW139509   1.773   2.442   8.625 -0.1172  0.0700 -1.1481
 9291SOL    HW239510   1.651   2.471   8.541 -0.1820  1.7078 -0.5305
 9292SOL     OW39511   0.532   0.886   5.656  0.6606  0.1342 -0.2467
 9292SOL    HW139512   0.599   0.871   5.723  0.9999 -0.6382 -0.7614
 9292SOL    HW239513   0.467   0.820   5.680  0.0848  0.4007 -1.0852
 9293SOL     OW39514   2.447   0.941   8.923 -0.9962 -0.3223 -0.0907
 9293SOL    HW139515   2.375   1.002   8.907 -0.4912  0.3081  0.0385
 9293SOL    HW239516   2.426   0.911   9.012  0.6715  0.9368  0.7287
 9294SOL     OW39517   0.391   1.069   4.177 -0.4103 -0.3144  0.1423
 9294SOL    HW139518   0.344   0.986   4.172 -1.1796  0.0210  1.6549
 9294SOL    HW239519   0.382   1.092   4.270 -0.6003  0.0472  0.0330
 9295SOL     OW39520   4.544   3.290   7.570 -0.2421 -0.5120 -0.3828
 9295SOL    HW139521   4.557   3.204   7.530  1.0530  0.0775 -1.2343
 9295SOL    HW239522   4.449   3.286   7.561 -0.1792 -0.1437 -1.2099
 9296SOL     OW39523   0.554   3.326  15.604 -0.1417 -0.3074  0.6715
 9296SOL    HW139524   0.506   3.249  15.574  1.7659 -0.3481 -2.2821
 9296SOL    HW239525   0.486   3.364  15.659 -0.2740  1.1627 -0.5051
 9297SOL     OW39526   0.325   2.498   3.954 -0.0154 -0.1108 -0.3155
 9297SOL    HW139527   0.284   2.413   3.944  3.0076 -1.5617 -0.2332
 9297SOL    HW239528   0.278   2.548   4.021 -0.8439 -0.9133 -0.3038
 9298SOL     OW39529   3.634   0.310  13.731 -0.0149  0.1756  0.4465
 9298SOL    HW139530   3.541   0.326  13.747 -0.6906 -2.0515 -1.3633
 9298SOL    HW239531   3.642   0.216  13.717 -0.5764 -0.2693  3.1086
 9299SOL     OW39532   4.690   0.044   3.300 -0.2913  0.5816 -0.3918
 9299SOL    HW139533   4.649   0.029   3.215 -2.0490 -0.7737  0.7029
 9299SOL    HW239534   4.665   4.699   3.345  0.7309 -0.4762 -1.7311
 9300SOL     OW39535   0.349   0.922   0.576 -0.2276 -0.0438  0.0493
 9300SOL    HW139536   0.304   0.977   0.641  2.8848  0.5614  1.6775
 9300SOL    HW239537   0.394   0.858   0.631  1.0325  1.2235  0.4994
 9301SOL     OW39538   1.764   2.005  16.311 -0.0432  0.0814  0.4433
 9301SOL    HW139539   1.743   1.992  16.403  0.7721 -1.5501  0.3996
 9301SOL    HW239540   1.844   2.056  16.320  0.7694 -1.6087  2.7878
 9302SOL     OW39541   4.177   0.101   5.731 -0.4071  0.1963  0.1372
 9302SOL    HW139542   4.137   0.172   5.681 -3.3889 -2.1515 -0.7578
 9302SOL    HW239543   4.239   0.145   5.790 -1.3543  0.1619  1.1529
 9303SOL     OW39544   3.474   1.355   8.861 -0.0708 -0.7426 -0.0531
 9303SOL    HW139545   3.474   1.426   8.925 -3.5516 -1.2159  0.4688
 9303SOL    HW239546   3.566   1.349   8.833 -0.5493  0.0361 -1.7912
 9304SOL     OW39547   1.611   0.754   5.294 -0.2716  0.3586  0.1905
 9304SOL    HW139548   1.646   0.710   5.217  0.7403 -1.4970  1.7113
 9304SOL    HW239549   1.626   0.689   5.363  2.5405  0.0330 -0.7626
 9305SOL     OW39550   3.498   1.574   7.857  0.1808 -0.2801  0.5358
 9305SOL    HW139551   3.504   1.545   7.948 -0.3732 -1.7092  0.1147
 9305SOL    HW239552   3.564   1.642   7.871  0.1304 -1.0966  4.8272
 9306SOL     OW39553   1.144   1.194   9.848 -0.4310  0.1462 -0.0359
 9306SOL    HW139554   1.143   1.103   9.878 -3.0200  0.4667  0.8492
 9306SOL    HW239555   1.205   1.187   9.775 -0.6098 -1.4642 -0.0395
 9307SOL     OW39556   2.379   2.600   0.833  0.2353  0.6205  0.0812
 9307SOL    HW139557   2.423   2.632   0.911 -0.5767 -0.2398  0.8811
 9307SOL    HW239558   2.436   2.526   0.816 -0.4168  0.3201 -0.8001
 9308SOL     OW39559   2.701   2.009  14.173  0.5000  0.0131  0.2726
 9308SOL    HW139560   2.767   1.968  14.117  0.0571 -1.0002  0.4851
 9308SOL    HW239561   2.673   1.935  14.227  0.3733  1.5695  2.3437
 9309SOL     OW39562   0.113   2.175  17.092 -0.0797  0.9006  0.2977
 9309SOL    HW139563   0.126   2.218  17.177 -1.4265  2.7711 -0.4246
 9309SOL    HW239564   0.094   2.085  17.115  0.4536  1.0684  1.3604
 9310SOL     OW39565   3.396   1.674  14.013 -0.0427 -0.3471  0.3749
 9310SOL    HW139566   3.440   1.753  14.045  1.7090 -1.8472  1.6296
 9310SOL    HW239567   3.318   1.706  13.967 -0.4728  3.4671  3.7965
 9311SOL     OW39568   2.098   2.205   2.290 -0.0310  0.8184 -0.5001
 9311SOL    HW139569   2.109   2.146   2.216 -2.4314  1.4054 -1.3264
 9311SOL    HW239570   2.171   2.265   2.273 -0.3564  1.5305  0.5629
 9312SOL     OW39571   2.651   3.740   1.009  0.3109  0.3390 -0.4235
 9312SOL    HW139572   2.719   3.713   1.070  0.6861  0.7594 -0.6556
 9312SOL    HW239573   2.584   3.672   1.008 -0.1116  0.8047 -2.6485
 9313SOL     OW39574   0.978   2.419   1.604 -0.4112 -0.1825  0.0644
 9313SOL    HW139575   1.043   2.349   1.616  1.0463  1.4099  1.4525
 9313SOL    HW239576   0.901   2.364   1.588 -1.4145  1.3846 -0.4904
 9314SOL     OW39577   3.925   2.902   1.783  1.1057 -0.0560  0.5379
 9314SOL    HW139578   3.934   2.934   1.873 -0.7600  0.4499  0.5610
 9314SOL    HW239579   4.010   2.860   1.776  1.0416 -0.2100  0.6998
 9315SOL     OW39580   3.127   0.877   4.855 -0.3983 -0.1446 -0.5210
 9315SOL    HW139581   3.049   0.914   4.895 -0.1886  1.0269 -1.1852
 9315SOL    HW239582   3.191   0.902   4.922 -1.7742  1.1296  0.3126
 9316SOL     OW39583   2.782   1.821   8.979 -0.1395  0.1299 -0.6451
 9316SOL    HW139584   2.720   1.892   8.996  0.3325  0.3809  0.0520
 9316SOL    HW239585   2.783   1.771   9.061  0.8252 -0.5255 -1.0674
 9317SOL     OW39586   3.865   0.037  10.244 -0.6427  0.5663  0.5413
 9317SOL    HW139587   3.931   4.733  10.187  1.1910  1.2148  2.2231
 9317SOL    HW239588   3.783   4.733  10.216  0.0678 -1.4177  1.3271
 9318SOL     OW39589   4.511   2.334   5.318 -0.2927  0.2165  0.4820
 9318SOL    HW139590   4.450   2.326   5.245  0.1116  0.7680  0.0851
 9318SOL    HW239591   4.579   2.392   5.284  0.1026 -0.4242  0.1876
 9319SOL     OW39592   4.123   2.929   1.185  0.0870  0.7408  0.1089
 9319SOL    HW139593   4.165   2.850   1.220 -0.5441  0.0193 -0.7420
 9319SOL    HW239594   4.029   2.912   1.190  0.3622 -1.3879 -1.6885
 9320SOL     OW39595   2.035   2.891   4.598 -0.0047  0.6091 -0.0446
 9320SOL    HW139596   1.975   2.960   4.627 -1.0926  0.0230 -0.9134
 9320SOL    HW239597   1.983   2.811   4.590 -0.8337  1.3445 -1.9417
 9321SOL     OW39598   0.747   2.351   3.966 -0.9157  0.8113  0.7576
 9321SOL    HW139599   0.698   2.431   3.951 -0.1188  0.9662 -1.0016
 9321SOL    HW239600   0.689   2.306   4.028 -0.5465 -0.0910  0.4559
 9322SOL     OW39601   1.731   0.373  11.308  0.4955 -0.2734 -0.6661
 9322SOL    HW139602   1.697   0.319  11.237 -0.9268  0.4046 -0.5084
 9322SOL    HW239603   1.666   0.444  11.311 -0.1108 -0.8621  0.3142
 9323SOL     OW39604   4.361   0.873   8.465 -0.0754 -0.0266  0.8753
 9323SOL    HW139605   4.322   0.829   8.540 -0.9245 -2.7750 -1.1486
 9323SOL    HW239606   4.342   0.808   8.397  2.0508 -0.1977  0.4534
 9324SOL     OW39607   0.292   2.163   6.733  0.0019 -0.2709  0.1640
 9324SOL    HW139608   0.261   2.252   6.716  0.4649 -0.1257  0.0997
 9324SOL    HW239609   0.281   2.123   6.647  0.5240  0.2967 -0.1604
 9325SOL     OW39610   3.617   0.157  17.613 -0.7242  0.9924 -0.0111
 9325SOL    HW139611   3.552   0.122  17.675 -0.7812  1.3538  0.1348
 9325SOL    HW239612   3.566   0.202  17.546  0.4529 -1.4032 -2.4985
 9326SOL     OW39613   3.092   2.770  10.771  0.0382 -0.5809  0.1995
 9326SOL    HW139614   3.155   2.815  10.714 -0.0961  0.7034  1.0610
 9326SOL    HW239615   3.015   2.787  10.717  0.5153 -0.0267 -0.3071
 9327SOL     OW39616   3.450   3.790   8.489 -0.3401  0.1779  0.1409
 9327SOL    HW139617   3.533   3.769   8.532  1.4354  2.4047 -2.1706
 9327SOL    HW239618   3.484   3.807   8.401  1.0852 -1.3500  0.3907
 9328SOL     OW39619   0.867   4.288   4.385 -0.3135 -0.7370 -0.2678
 9328SOL    HW139620   0.946   4.256   4.342 -0.2504  1.0603 -1.4947
 9328SOL    HW239621   0.871   4.374   4.343  1.2324 -0.2735  0.8454
 9329SOL     OW39622   4.346   2.292   4.455 -0.1307 -0.4316  0.2611
 9329SOL    HW139623   4.309   2.312   4.368  0.8605 -0.3606 -0.1395
 9329SOL    HW239624   4.265   2.263   4.498  0.0129 -1.3888 -0.1155
 9330SOL     OW39625   2.601   4.693  12.256 -0.4320 -0.0309 -0.1931
 9330SOL    HW139626   2.688   4.729  12.237  0.0045 -0.0905  1.7552
 9330SOL    HW239627   2.602   4.612  12.204  0.8994  0.4498 -0.9194
 9331SOL     OW39628   2.327   2.182   6.449 -0.3779  0.3952  0.6040
 9331SOL    HW139629   2.326   2.234   6.530  0.2568  1.0847  0.1685
 9331SOL    HW239630   2.274   2.107   6.473 -0.8861  0.2931 -0.8616
 9332SOL     OW39631   1.660   0.024   8.684 -0.2418 -0.1796 -0.1674
 9332SOL    HW139632   1.716   0.058   8.614  0.7789 -2.0576 -0.2742
 9332SOL    HW239633   1.701   4.682   8.721  1.3710  1.1674  0.8516
 9333SOL     OW39634   3.124   1.712   8.328  0.5147  0.0421 -0.3446
 9333SOL    HW139635   3.068   1.637   8.306  0.0272 -0.4674  2.6246
 9333SOL    HW239636   3.203   1.658   8.331  1.0666  0.9736  1.7009
 9334SOL     OW39637   0.843   0.483  13.531  0.7174  1.0507  0.0321
 9334SOL    HW139638   0.842   0.448  13.620  0.5166  0.6930 -0.1112
 9334SOL    HW239639   0.817   0.410  13.474  1.3976  0.7585  0.1009
 9335SOL     OW39640   2.833   2.975   9.692  0.1393 -0.6081 -0.0869
 9335SOL    HW139641   2.862   3.030   9.619  0.5610 -1.1477 -0.3292
 9335SOL    HW239642   2.786   3.038   9.746 -0.3384 -0.4942 -0.6323
 9336SOL     OW39643   2.318   3.369   6.231  0.2281  0.1361 -0.2015
 9336SOL    HW139644   2.372   3.441   6.264 -0.5732  0.9776 -0.7330
 9336SOL    HW239645   2.352   3.356   6.142  1.9787  1.7344  0.2249
 9337SOL     OW39646   4.260   2.357   2.842 -0.4996 -0.5054 -0.1472
 9337SOL    HW139647   4.341   2.382   2.798 -0.5713  3.4677  2.0015
 9337SOL    HW239648   4.290   2.275   2.881 -1.6089 -1.0046 -0.3445
 9338SOL     OW39649   0.965   1.712  10.044 -0.2230 -0.3783  0.3199
 9338SOL    HW139650   1.004   1.634  10.004 -0.2055 -0.4895  0.5567
 9338SOL    HW239651   0.885   1.728   9.994 -0.4917  0.7114  1.1219
 9339SOL     OW39652   3.067   0.654   1.597 -0.1042  0.4588 -0.1919
 9339SOL    HW139653   3.116   0.736   1.599 -0.2172  0.5837 -2.6720
 9339SOL    HW239654   2.988   0.684   1.552 -0.4247 -2.0205 -1.2579
 9340SOL     OW39655   0.396   2.895   3.435  0.0461 -0.2777 -0.1547
 9340SOL    HW139656   0.348   2.852   3.506  1.4087  0.2629  1.0991
 9340SOL    HW239657   0.457   2.946   3.489 -0.5028 -0.0286  0.2346
 9341SOL     OW39658   2.500   2.874   2.562  0.5051 -0.0673  0.1597
 9341SOL    HW139659   2.558   2.831   2.499 -0.2551  0.4772 -0.9147
 9341SOL    HW239660   2.502   2.965   2.531  0.1311 -0.1644 -0.1556
 9342SOL     OW39661   3.131   2.978  14.702 -0.0623  0.4718  0.5000
 9342SOL    HW139662   3.131   2.992  14.607 -1.1333  2.8052  0.8647
 9342SOL    HW239663   3.099   3.062  14.735 -0.3911  0.2186  0.8264
 9343SOL     OW39664   4.513   4.281   4.855 -0.2736 -0.0347 -0.2027
 9343SOL    HW139665   4.422   4.262   4.879 -0.2529  0.4379  0.2648
 9343SOL    HW239666   4.534   4.198   4.813 -0.2858 -0.1776  0.0678
 9344SOL     OW39667   2.773   3.309   2.420  0.2747 -0.0619  0.2549
 9344SOL    HW139668   2.786   3.401   2.396  0.2315 -0.0969  0.0972
 9344SOL    HW239669   2.688   3.285   2.383 -1.0067 -0.0316  3.1915
 9345SOL     OW39670   0.497   4.129  12.368 -0.2810  0.1354 -0.4120
 9345SOL    HW139671   0.408   4.136  12.334 -1.2485 -0.2626  2.0455
 9345SOL    HW239672   0.484   4.161  12.457 -1.7735 -1.6297  0.0141
 9346SOL     OW39673   3.888   3.939   8.092 -0.1017  0.2508 -0.3117
 9346SOL    HW139674   3.843   3.867   8.048 -1.5126 -1.2912  3.6242
 9346SOL    HW239675   3.878   4.009   8.028 -1.9224 -0.9174 -1.3190
 9347SOL     OW39676   3.570   3.399   8.408 -0.1232 -0.2446 -0.0492
 9347SOL    HW139677   3.644   3.459   8.398 -1.7702  1.7074 -0.5705
 9347SOL    HW239678   3.521   3.430   8.331 -1.1574  0.9786  1.1193
 9348SOL     OW39679   0.959   0.942  11.148  0.1304  0.4355 -0.4281
 9348SOL    HW139680   0.958   1.034  11.174 -0.0010  0.5474 -0.8226
 9348SOL    HW239681   0.866   0.933  11.129 -0.8934  1.9492  3.7657
 9349SOL     OW39682   4.570   0.052  11.171  0.5750  0.2515  0.3152
 9349SOL    HW139683   4.494   0.076  11.118  1.4208  1.0282 -0.5510
 9349SOL    HW239684   4.634   0.099  11.118  3.1313 -2.6447  0.8132
 9350SOL     OW39685   3.161   2.588   3.921 -0.0497  0.4408  0.1029
 9350SOL    HW139686   3.246   2.632   3.925 -0.7435  1.7993  0.0452
 9350SOL    HW239687   3.102   2.664   3.923 -2.2780 -1.3380  2.4730
 9351SOL     OW39688   3.541   2.425   4.005 -0.8276 -0.0565  0.3719
 9351SOL    HW139689   3.560   2.357   4.070 -1.1011 -1.5521 -1.1113
 9351SOL    HW239690   3.457   2.391   3.975 -0.6032  0.8077 -1.2228
 9352SOL     OW39691   1.478   4.600   5.888  0.0216 -0.1963 -0.1535
 9352SOL    HW139692   1.513   4.673   5.940  1.1788 -0.3240 -0.7557
 9352SOL    HW239693   1.456   4.649   5.809  1.9922 -1.3689 -1.4278
 9353SOL     OW39694   1.741   4.021  14.113  0.0380  0.3481 -0.1079
 9353SOL    HW139695   1.650   3.993  14.123  0.7937 -1.6161  1.2358
 9353SOL    HW239696   1.733   4.103  14.064  0.7455 -0.1909 -1.1242
 9354SOL     OW39697   2.095   1.785   2.788  0.0176  0.5941  0.1608
 9354SOL    HW139698   2.163   1.725   2.756 -1.1130 -0.9846  0.6852
 9354SOL    HW239699   2.141   1.869   2.791 -1.1548  1.2690 -0.6096
 9355SOL     OW39700   1.665   2.492   1.775 -1.5056  0.2564 -0.1999
 9355SOL    HW139701   1.703   2.486   1.687  2.8974 -2.5360  1.9032
 9355SOL    HW239702   1.605   2.566   1.762  0.3755  1.8365  0.0932
 9356SOL     OW39703   3.030   3.662   8.699  0.0799 -0.1081 -0.6858
 9356SOL    HW139704   3.028   3.717   8.778  1.6021  0.6539 -1.1600
 9356SOL    HW239705   2.955   3.605   8.716 -1.5335  1.7173 -1.6890
 9357SOL     OW39706   3.266   1.514  13.844 -0.0944  0.3168 -0.0001
 9357SOL    HW139707   3.344   1.525  13.898  1.3779 -1.2792 -1.7666
 9357SOL    HW239708   3.298   1.495  13.755 -0.4330 -1.7180  0.3065
 9358SOL     OW39709   4.038   1.620  13.723 -0.2457 -0.1655 -0.4762
 9358SOL    HW139710   3.984   1.633  13.801 -4.0872 -0.7138 -3.0493
 9358SOL    HW239711   4.116   1.578  13.761 -2.1963  0.2545  3.9580
 9359SOL     OW39712   0.790   0.151   4.550 -0.0454  0.3483 -0.3248
 9359SOL    HW139713   0.803   0.186   4.638  2.4844  0.7713 -0.8765
 9359SOL    HW239714   0.708   0.107   4.572  0.1466  1.1905  2.0291
 9360SOL     OW39715   0.336   1.279   6.617 -0.0129  0.1108 -0.9941
 9360SOL    HW139716   0.282   1.355   6.642  0.0107 -1.0000  2.4619
 9360SOL    HW239717   0.319   1.229   6.697 -1.3318  1.1777 -0.6031
 9361SOL     OW39718   3.584   2.670  13.077  0.1668  0.5317  0.2998
 9361SOL    HW139719   3.628   2.590  13.049  1.2820  1.1105  0.4272
 9361SOL    HW239720   3.591   2.677  13.172  1.7502 -1.2132  0.3164
 9362SOL     OW39721   4.556   3.069   7.353 -0.3377  0.5336  0.2376
 9362SOL    HW139722   4.514   2.998   7.401  2.6020 -0.2640  1.6690
 9362SOL    HW239723   4.639   3.064   7.402 -0.0547  0.0704 -0.2995
 9363SOL     OW39724   2.179   2.737  16.004 -0.3261 -0.1118 -0.6433
 9363SOL    HW139725   2.088   2.714  15.985 -1.3333  1.7947  1.8373
 9363SOL    HW239726   2.231   2.685  15.943  0.0668 -0.5600  0.0602
 9364SOL     OW39727   3.324   3.472   5.766  0.1781 -0.1019 -0.1242
 9364SOL    HW139728   3.282   3.387   5.750  0.9571 -0.7604  1.3227
 9364SOL    HW239729   3.244   3.523   5.755  1.4443  2.0995  0.7772
 9365SOL     OW39730   4.719   1.459   7.895  0.1407 -0.5660 -0.4703
 9365SOL    HW139731   4.641   1.453   7.949  0.3089  0.3110 -0.1247
 9365SOL    HW239732   4.728   1.553   7.878 -4.1187  0.1238  1.2328
 9366SOL     OW39733   2.949   0.509  16.652 -0.8643  0.2699  0.0197
 9366SOL    HW139734   2.910   0.527  16.737  1.5234 -1.1312  1.4197
 9366SOL    HW239735   2.996   0.592  16.639 -1.0675  0.5175  0.8563
 9367SOL     OW39736   3.863   1.630   3.867 -0.0869  0.2993 -0.2194
 9367SOL    HW139737   3.855   1.660   3.958 -0.9398  1.8910 -0.8232
 9367SOL    HW239738   3.772   1.640   3.840  0.4135 -0.3797 -2.1110
 9368SOL     OW39739   2.101   2.648   8.767  0.1106 -0.5064  0.4459
 9368SOL    HW139740   2.104   2.614   8.678 -1.6993 -0.5370  0.3879
 9368SOL    HW239741   2.017   2.695   8.765 -1.3831 -3.1712  1.3330
 9369SOL     OW39742   0.570   4.267   4.974  0.0934 -0.5608  0.0133
 9369SOL    HW139743   0.630   4.200   5.004  0.6913 -0.5901 -1.2391
 9369SOL    HW239744   0.546   4.228   4.890  1.2157 -0.7175 -0.2244
 9370SOL     OW39745   3.550   2.192   3.140  0.2107 -0.0446 -0.0407
 9370SOL    HW139746   3.641   2.216   3.153 -0.5147  1.5978  2.1385
 9370SOL    HW239747   3.501   2.208   3.221 -0.4846 -1.3281 -0.2066
 9371SOL     OW39748   3.593   2.305   8.676 -0.0628  0.2260 -0.3041
 9371SOL    HW139749   3.586   2.309   8.771 -1.7025  2.3268 -0.4905
 9371SOL    HW239750   3.634   2.390   8.659 -0.0980  0.3085  0.0296
 9372SOL     OW39751   1.958   4.024  16.826  0.0722 -0.2319  0.0340
 9372SOL    HW139752   1.934   4.055  16.738  0.1452  1.0315  0.4632
 9372SOL    HW239753   1.946   4.101  16.880 -1.4510 -0.8491  0.5674
 9373SOL     OW39754   0.034   2.304   5.618 -0.1755 -0.0611 -0.0955
 9373SOL    HW139755   4.679   2.330   5.633 -0.7743 -1.2424 -1.5986
 9373SOL    HW239756   0.036   2.240   5.689  0.0021  0.1550  0.0920
 9374SOL     OW39757   3.380   2.700  13.658  0.5891  0.6804  0.0435
 9374SOL    HW139758   3.397   2.703  13.752  1.8976  1.0340 -0.2076
 9374SOL    HW239759   3.413   2.786  13.630  0.1497  0.2203 -1.8729
 9375SOL     OW39760   0.611   3.632   6.705  0.3265 -0.2565 -0.1260
 9375SOL    HW139761   0.690   3.582   6.684  0.4064  0.6894 -2.1212
 9375SOL    HW239762   0.559   3.603   6.629 -2.9374 -0.0345  2.0224
 9376SOL     OW39763   0.755   1.447   4.244 -0.0965 -0.5809  0.8012
 9376SOL    HW139764   0.709   1.372   4.206  0.9248 -1.4399  1.2575
 9376SOL    HW239765   0.838   1.439   4.198 -0.6616  0.4815 -0.4182
 9377SOL     OW39766   3.369   4.647  14.386 -0.7128  0.1692 -0.1216
 9377SOL    HW139767   3.334   4.603  14.463 -0.2149  0.3024  0.1763
 9377SOL    HW239768   3.366   0.004  14.409 -2.2285  0.5785 -1.9730
 9378SOL     OW39769   3.742   1.885   8.376  0.2193  0.0124 -0.4013
 9378SOL    HW139770   3.766   1.793   8.369 -1.3355 -0.4123  0.0072
 9378SOL    HW239771   3.719   1.911   8.286 -0.3907 -0.1174 -0.2800
 9379SOL     OW39772   2.041   0.340   9.644 -0.7782 -0.4597  0.1694
 9379SOL    HW139773   2.132   0.333   9.616 -0.4669 -0.2004  1.1222
 9379SOL    HW239774   2.027   0.423   9.598 -0.2004 -0.1905  0.4809
 9380SOL     OW39775   1.178   1.555   7.869 -0.9174  0.1162  0.1019
 9380SOL    HW139776   1.217   1.592   7.790 -2.5164 -0.5778 -0.9898
 9380SOL    HW239777   1.258   1.540   7.920 -0.6628  0.0559 -0.3147
 9381SOL     OW39778   1.980   2.479   4.130 -0.4261  0.3226 -0.6853
 9381SOL    HW139779   1.890   2.447   4.137 -0.7626  1.5809  0.7689
 9381SOL    HW239780   2.015   2.405   4.079 -2.7546 -0.9757 -0.4151
 9382SOL     OW39781   0.566   3.119   7.021  0.1403  0.0103 -0.1077
 9382SOL    HW139782   0.635   3.172   7.059 -0.9142  1.8176 -0.7296
 9382SOL    HW239783   0.614   3.099   6.941  2.3657 -1.7975  1.6934
 9383SOL     OW39784   4.653   2.475  15.079 -0.1269  0.2704  0.0327
 9383SOL    HW139785   4.675   2.493  14.988  0.6798 -2.0471 -0.2296
 9383SOL    HW239786   4.732   2.483  15.133 -0.6410  2.3446  0.4642
 9384SOL     OW39787   2.560   0.824   8.192  0.4001  0.1840  0.1622
 9384SOL    HW139788   2.612   0.794   8.118  0.2953 -0.9201  0.5448
 9384SOL    HW239789   2.541   0.914   8.163  0.0448  0.3053  0.7632
 9385SOL     OW39790   0.842   3.270  17.076  0.2796  0.4379  0.5411
 9385SOL    HW139791   0.816   3.238  17.162  0.7580 -1.5808 -0.0750
 9385SOL    HW239792   0.845   3.189  17.026  1.8777  0.0511  1.2672
 9386SOL     OW39793   3.853   3.912  10.440 -0.1599  0.0073  0.7086
 9386SOL    HW139794   3.804   3.836  10.407 -1.8154  0.7484  1.4513
 9386SOL    HW239795   3.788   3.980  10.422  0.4918  0.9114  1.7781
 9387SOL     OW39796   0.312   3.750   6.625 -0.0034  0.1505 -0.5038
 9387SOL    HW139797   0.364   3.793   6.557  1.2230  0.7123  0.8133
 9387SOL    HW239798   0.369   3.773   6.698  1.8634 -0.5369 -1.7572
 9388SOL     OW39799   3.792   0.080   6.453  0.2329 -0.0487  0.1731
 9388SOL    HW139800   3.788   0.175   6.445 -0.6955 -0.1769 -0.8031
 9388SOL    HW239801   3.744   0.060   6.373  0.1483  0.8453  0.0087
 9389SOL     OW39802   0.599   3.801   5.924 -0.3586  0.4180 -0.4608
 9389SOL    HW139803   0.679   3.846   5.896  0.3601  0.8190  2.2689
 9389SOL    HW239804   0.561   3.794   5.837  1.1763 -0.6191 -1.0624
 9390SOL     OW39805   0.717   2.604  11.266 -0.1989  0.0706  0.1442
 9390SOL    HW139806   0.763   2.551  11.201 -1.1753  2.6011 -2.6256
 9390SOL    HW239807   0.665   2.665  11.213 -0.3707  1.7283  2.2576
 9391SOL     OW39808   1.279   0.004   3.979  0.3261 -0.2285 -0.3953
 9391SOL    HW139809   1.314   4.667   4.031 -0.0861  2.0398  3.0865
 9391SOL    HW239810   1.363   0.051   3.977 -0.5218  1.1636 -3.5400
 9392SOL     OW39811   2.574   3.673   3.439  0.2337  0.5002 -0.4112
 9392SOL    HW139812   2.495   3.704   3.394 -0.4233  1.0035  1.0729
 9392SOL    HW239813   2.612   3.607   3.381  1.4478  1.0378 -0.2244
 9393SOL     OW39814   0.184   2.100  15.585 -0.2759 -0.0155  0.3604
 9393SOL    HW139815   0.094   2.123  15.562 -0.4737 -1.8119 -0.6142
 9393SOL    HW239816   0.228   2.099  15.500  0.3702 -0.6090  0.7008
 9394SOL     OW39817   3.106   2.773   5.247 -0.1119 -0.6596 -0.8329
 9394SOL    HW139818   3.012   2.764   5.262  0.2831 -1.9719  0.9130
 9394SOL    HW239819   3.101   2.866   5.226  1.3833 -0.1678  0.9897
 9395SOL     OW39820   4.046   4.175  11.161  0.7922 -0.0548  0.0034
 9395SOL    HW139821   3.951   4.183  11.154  0.5834 -1.7255  0.8902
 9395SOL    HW239822   4.065   4.082  11.150  0.5805 -0.3202  1.9224
 9396SOL     OW39823   1.546   2.297   8.807 -0.0727  0.0310  0.0970
 9396SOL    HW139824   1.562   2.342   8.724 -2.6177 -0.0239 -0.4141
 9396SOL    HW239825   1.451   2.301   8.813 -0.3444 -1.6913 -3.2436
 9397SOL     OW39826   2.923   2.099   2.471  0.2175  1.0545  0.0411
 9397SOL    HW139827   2.882   2.013   2.462 -1.5765  2.1483 -2.2566
 9397SOL    HW239828   2.950   2.111   2.380 -0.7732  1.6411 -0.1763
 9398SOL     OW39829   3.758   1.092  12.134  0.5524 -0.3377  0.9208
 9398SOL    HW139830   3.662   1.093  12.134  0.5545 -0.5419 -0.5199
 9398SOL    HW239831   3.772   1.186  12.151  2.2201 -0.2337 -1.0423
 9399SOL     OW39832   3.547   4.282   7.553 -0.2425  0.4210 -0.6426
 9399SOL    HW139833   3.480   4.273   7.621  0.9845 -1.6104  0.2985
 9399SOL    HW239834   3.498   4.281   7.471 -0.2884  0.7608 -0.6180
 9400SOL     OW39835   1.787   2.328   6.594  0.2991 -0.1160 -0.2768
 9400SOL    HW139836   1.836   2.255   6.556 -1.7320  0.6242 -4.3736
 9400SOL    HW239837   1.701   2.319   6.552 -0.4728 -0.3628  1.3604
 9401SOL     OW39838   0.742   4.095  13.327  0.1645 -0.3087 -0.1585
 9401SOL    HW139839   0.753   4.139  13.243  0.7623  2.0381  1.1682
 9401SOL    HW239840   0.750   4.175  13.379 -1.0796  0.9610 -1.9056
 9402SOL     OW39841   1.717   2.830   3.645  0.7754  0.0598  0.6464
 9402SOL    HW139842   1.739   2.760   3.584  0.1242 -0.1806  0.6919
 9402SOL    HW239843   1.806   2.826   3.682  0.1309  1.4077  2.3423
 9403SOL     OW39844   3.670   0.934   7.977 -0.2984  0.4286  0.1992
 9403SOL    HW139845   3.671   0.936   8.073  2.2158  1.1880  0.1473
 9403SOL    HW239846   3.746   0.987   7.953 -0.0443  0.2530  0.6018
 9404SOL     OW39847   2.497   2.444   1.642 -0.4602  0.5583  0.5773
 9404SOL    HW139848   2.516   2.503   1.715 -1.5870  1.2869  0.2926
 9404SOL    HW239849   2.454   2.501   1.577 -1.5211  0.2278  0.9964
 9405SOL     OW39850   4.425   3.452   1.125 -0.2300  0.0882  0.6274
 9405SOL    HW139851   4.376   3.380   1.087 -0.9872  1.0396 -0.2076
 9405SOL    HW239852   4.406   3.524   1.064 -0.8038 -0.6746 -0.0846
 9406SOL     OW39853   3.451   1.321   4.222 -0.1396  0.2004 -0.0626
 9406SOL    HW139854   3.441   1.387   4.153 -1.0089  0.7815  0.6114
 9406SOL    HW239855   3.396   1.364   4.288  0.7494  2.3772 -0.7370
 9407SOL     OW39856   3.791   3.272   2.411 -0.9343  0.2693 -0.2522
 9407SOL    HW139857   3.777   3.321   2.330 -0.3664 -1.8056 -1.5982
 9407SOL    HW239858   3.837   3.329   2.473  0.2504 -2.0561  0.9855
 9408SOL     OW39859   3.600   3.036   5.509  0.2893  0.2802  0.5728
 9408SOL    HW139860   3.514   3.075   5.524 -0.2539  0.1930 -2.4295
 9408SOL    HW239861   3.599   3.015   5.416 -2.3951 -3.6791  1.4706
 9409SOL     OW39862   2.104   0.662   6.361 -0.9389  0.4309  0.3955
 9409SOL    HW139863   2.176   0.605   6.391 -0.2235  1.4802  0.6704
 9409SOL    HW239864   2.084   0.639   6.270  0.5293 -2.3153  0.7475
 9410SOL     OW39865   3.571   0.461   5.161 -0.0015 -0.2861 -0.3038
 9410SOL    HW139866   3.608   0.442   5.247 -2.4360 -0.4028  0.7178
 9410SOL    HW239867   3.493   0.510   5.187  0.1856  1.4569 -3.0369
 9411SOL     OW39868   2.203   3.304  12.321 -0.2455  0.1951  0.0474
 9411SOL    HW139869   2.247   3.335  12.400  3.0470 -0.6481 -1.4992
 9411SOL    HW239870   2.113   3.283  12.346  0.0647  2.3529  3.0545
 9412SOL     OW39871   2.948   4.386   3.645 -0.2933 -0.6779  0.3214
 9412SOL    HW139872   3.035   4.353   3.670 -0.0591 -2.6375 -3.0754
 9412SOL    HW239873   2.948   4.388   3.550  0.0153 -0.9116  0.3170
 9413SOL     OW39874   0.721   2.703  13.558 -0.3319  0.5300 -0.5479
 9413SOL    HW139875   0.800   2.651  13.541 -0.0936  0.4793  0.7085
 9413SOL    HW239876   0.757   2.792  13.561 -1.1261  0.8219  0.5217
 9414SOL     OW39877   0.595   2.141   8.460  0.0596 -0.6405  0.0716
 9414SOL    HW139878   0.668   2.122   8.520 -1.2600 -1.1945  1.5087
 9414SOL    HW239879   0.538   2.170   8.531  0.5002 -0.2865  0.2807
 9415SOL     OW39880   2.835   2.667   4.201  0.1498 -0.5297  0.5329
 9415SOL    HW139881   2.928   2.682   4.216  0.1305 -0.3898  0.5122
 9415SOL    HW239882   2.829   2.578   4.238  0.8892 -2.0166 -2.9768
 9416SOL     OW39883   2.503   3.411   2.492  0.3271  0.0210 -0.3802
 9416SOL    HW139884   2.454   3.493   2.487  1.1244  0.5570  0.4576
 9416SOL    HW239885   2.509   3.409   2.588  1.8346  3.1960 -0.3941
 9417SOL     OW39886   4.623   2.169   6.903 -0.3839  0.0063 -0.6809
 9417SOL    HW139887   4.624   2.077   6.877  1.1580 -0.3470  0.6234
 9417SOL    HW239888   4.577   2.167   6.987 -1.5850  0.8927 -1.3204
 9418SOL     OW39889   2.590   0.773   3.301 -0.0924  0.2023  0.3692
 9418SOL    HW139890   2.539   0.704   3.343 -1.9938  1.5642  0.2794
 9418SOL    HW239891   2.618   0.740   3.215  1.8271  0.5243  0.8687
 9419SOL     OW39892   2.220   2.980   4.885  0.4202  0.3218  0.8797
 9419SOL    HW139893   2.137   3.023   4.906 -0.2583 -0.0285 -1.1172
 9419SOL    HW239894   2.273   2.974   4.964  0.4918 -0.4863  0.7675
 9420SOL     OW39895   1.344   2.433   8.315  0.2879 -0.2214 -0.1997
 9420SOL    HW139896   1.277   2.365   8.319 -1.1918  1.0559 -3.6134
 9420SOL    HW239897   1.295   2.509   8.284  0.3776  0.3739  1.1032
 9421SOL     OW39898   1.378   4.315   5.304  0.2906  0.1973 -0.1488
 9421SOL    HW139899   1.355   4.339   5.215  0.9809 -1.8447 -0.8750
 9421SOL    HW239900   1.457   4.263   5.286  1.0283  1.4618 -0.5691
 9422SOL     OW39901   2.986   4.710   5.518 -0.0591 -0.1528 -0.1902
 9422SOL    HW139902   2.902   0.004   5.553  0.9959  0.7675  1.4991
 9422SOL    HW239903   3.031   4.687   5.599 -2.6330  0.6464  1.4924
 9423SOL     OW39904   0.030   1.453   5.934  0.4264  0.1143  0.2705
 9423SOL    HW139905   0.012   1.479   5.844  0.6741  0.8922  0.4512
 9423SOL    HW239906   0.007   1.360   5.937  1.1592 -0.1136 -1.3382
 9424SOL     OW39907   3.873   3.745  14.187 -0.3786  0.0791 -0.0746
 9424SOL    HW139908   3.858   3.664  14.137 -0.5466 -0.4129  0.7578
 9424SOL    HW239909   3.788   3.780  14.212 -0.1135  0.1402  0.7467
 9425SOL     OW39910   3.937   0.730  16.857 -0.4238 -0.4426 -0.3913
 9425SOL    HW139911   3.950   0.820  16.889 -0.9626 -0.8782  1.0866
 9425SOL    HW239912   4.025   0.696  16.847 -0.4905 -0.4640 -0.8996
 9426SOL     OW39913   2.267   4.326   2.474  0.5801 -0.0447  0.7244
 9426SOL    HW139914   2.276   4.311   2.380 -2.3781 -2.3866  0.7938
 9426SOL    HW239915   2.338   4.269   2.504 -0.2630 -1.8110 -0.6149
 9427SOL     OW39916   1.402   0.483   8.802 -0.1449  0.1303  0.1565
 9427SOL    HW139917   1.369   0.499   8.890 -2.1415  2.5496 -1.0295
 9427SOL    HW239918   1.373   0.394   8.781 -3.5431  1.7272 -2.0230
 9428SOL     OW39919   3.305   1.210   2.382  0.0138 -0.1107  0.1742
 9428SOL    HW139920   3.337   1.192   2.470  2.7883 -2.8768 -1.3859
 9428SOL    HW239921   3.359   1.153   2.327 -0.7778 -0.5106 -0.1880
 9429SOL     OW39922   0.421   4.101   2.158 -0.0843  0.2672  0.5317
 9429SOL    HW139923   0.484   4.168   2.183  0.4634 -0.1513  0.2736
 9429SOL    HW239924   0.334   4.134   2.182  0.5711  1.8378  0.7666
 9430SOL     OW39925   1.021   0.589   7.674  0.3061  0.1531 -0.0369
 9430SOL    HW139926   1.084   0.521   7.648 -0.3332 -0.7158  0.6806
 9430SOL    HW239927   0.971   0.575   7.593 -2.1139  2.0119  1.1725
 9431SOL     OW39928   4.708   4.285   3.937  0.5530  0.8130  0.0182
 9431SOL    HW139929   4.710   4.380   3.927  0.3598  0.6893 -1.1470
 9431SOL    HW239930   0.064   4.260   3.943  0.5712  1.0258  0.5962
 9432SOL     OW39931   3.917   0.332   8.133 -0.0605 -0.6134 -0.0637
 9432SOL    HW139932   3.984   0.299   8.072 -1.4580  2.1012 -3.0232
 9432SOL    HW239933   3.844   0.270   8.131 -1.6344  1.2512  0.2345
 9433SOL     OW39934   3.442   4.181  16.989 -0.1668  0.1195 -0.4568
 9433SOL    HW139935   3.430   4.265  16.945  1.1574 -0.3193 -1.6700
 9433SOL    HW239936   3.513   4.204  17.050  1.3880 -1.4126 -1.7033
 9434SOL     OW39937   1.891   3.548  15.071 -0.1603 -0.3787  0.1279
 9434SOL    HW139938   1.930   3.573  14.988  0.4857 -2.4727 -0.1932
 9434SOL    HW239939   1.950   3.491  15.122  0.4022  0.8936  0.9045
 9435SOL     OW39940   3.172   0.922   9.241 -0.2173 -0.0827 -0.3661
 9435SOL    HW139941   3.239   0.886   9.182  1.3558  0.5607  1.0204
 9435SOL    HW239942   3.141   0.989   9.180 -0.6886  0.8379  0.8886
 9436SOL     OW39943   4.451   3.322   3.650  0.6709 -0.1916  0.4880
 9436SOL    HW139944   4.412   3.359   3.571 -1.4796 -0.4853  1.4056
 9436SOL    HW239945   4.455   3.403   3.701  1.9623  0.4053 -0.5533
 9437SOL     OW39946   4.536   3.119  10.626  0.1378 -0.4488 -0.1179
 9437SOL    HW139947   4.601   3.168  10.675  0.4726 -1.8333  0.8265
 9437SOL    HW239948   4.593   3.073  10.564 -0.9422 -3.5357  1.1510
 9438SOL     OW39949   2.624   2.211   2.736 -0.4014 -0.0298  0.2534
 9438SOL    HW139950   2.676   2.134   2.712 -1.8946 -1.4490  1.5228
 9438SOL    HW239951   2.552   2.170   2.783 -0.7238  2.3302  1.8113
 9439SOL     OW39952   1.036   0.170   8.929 -0.9130 -0.2948 -0.2408
 9439SOL    HW139953   1.104   0.144   8.992 -0.2357  0.7383 -0.5549
 9439SOL    HW239954   1.010   0.082   8.903  0.5607 -1.5219  2.3958
 9440SOL     OW39955   2.192   1.992   6.057  0.4139 -0.1542  0.2647
 9440SOL    HW139956   2.142   2.000   5.975 -0.3442  2.1547  0.9555
 9440SOL    HW239957   2.232   1.906   6.047 -2.2436 -1.3890  0.0342
 9441SOL     OW39958   2.867   0.912   8.334  0.3021 -0.0895  0.1078
 9441SOL    HW139959   2.942   0.952   8.377  0.9227  0.1958 -1.2237
 9441SOL    HW239960   2.806   0.873   8.397  1.0020  1.5524  1.7739
 9442SOL     OW39961   3.280   1.886   6.503 -0.0162 -0.4662 -0.0595
 9442SOL    HW139962   3.241   1.884   6.590 -1.2578  0.0736 -0.6115
 9442SOL    HW239963   3.207   1.845   6.457 -0.4843  2.8180 -2.2052
 9443SOL     OW39964   0.252   4.320   4.322  0.4915 -0.0956 -0.3030
 9443SOL    HW139965   0.235   4.226   4.326 -1.4484  0.2581 -0.0984
 9443SOL    HW239966   0.160   4.349   4.325  0.8441  1.1783 -1.7889
 9444SOL     OW39967   2.835   4.264  10.500  0.8578 -0.0442 -0.0082
 9444SOL    HW139968   2.764   4.274  10.437  1.0221 -1.3127 -0.3855
 9444SOL    HW239969   2.813   4.323  10.572 -1.5408  0.0723 -0.8410
 9445SOL     OW39970   4.475   3.086  17.071  0.7151  0.8933  0.6083
 9445SOL    HW139971   4.448   3.130  17.152 -0.3805  0.9357  0.2203
 9445SOL    HW239972   4.457   2.995  17.093  1.9197 -0.3023 -3.4694
 9446SOL     OW39973   1.994   4.696  14.207  0.0924  0.7764 -0.1081
 9446SOL    HW139974   1.977   0.048  14.242  0.2321  0.6708  0.2269
 9446SOL    HW239975   2.017   4.724  14.119  1.5230 -0.2575 -0.0558
 9447SOL     OW39976   3.495   4.424   2.930  0.8916  0.4288  0.4462
 9447SOL    HW139977   3.429   4.419   2.999 -0.5853 -2.5053 -1.1586
 9447SOL    HW239978   3.520   4.516   2.937  2.2583  0.1416 -0.6044
 9448SOL     OW39979   2.669   1.035   4.806 -0.0925 -0.0283 -0.0433
 9448SOL    HW139980   2.593   0.984   4.777 -0.2872 -0.2083  0.7955
 9448SOL    HW239981   2.697   1.087   4.730 -0.6494 -0.6667 -0.6935
 9449SOL     OW39982   1.600   0.387   6.062 -0.4910  0.4164  0.0854
 9449SOL    HW139983   1.652   0.466   6.046 -2.6400  1.3514 -2.1937
 9449SOL    HW239984   1.648   0.340   6.131 -1.2319  0.3437  0.5531
 9450SOL     OW39985   4.407   3.740   2.613  0.2728 -0.7447 -0.1920
 9450SOL    HW139986   4.418   3.653   2.575 -0.9934 -1.1567  0.3838
 9450SOL    HW239987   4.403   3.787   2.530  0.4340 -0.1511  0.1322
 9451SOL     OW39988   0.330   0.796  13.946 -0.0648  0.3197  0.3614
 9451SOL    HW139989   0.241   0.765  13.961 -0.3916  1.3866  0.6236
 9451SOL    HW239990   0.379   0.731  13.895  0.7091  0.0017  1.5261
 9452SOL     OW39991   1.942   4.144   8.408 -0.1710 -0.0334 -0.0628
 9452SOL    HW139992   2.004   4.207   8.445 -0.6204 -0.0283  0.6749
 9452SOL    HW239993   1.866   4.193   8.376  1.0539  0.5284 -2.1639
 9453SOL     OW39994   2.034   2.554   2.082 -0.4738 -0.5499 -0.5910
 9453SOL    HW139995   2.020   2.507   2.164  0.8906  0.0856  0.0138
 9453SOL    HW239996   2.056   2.483   2.022  2.0637 -2.0405  2.1064
 9454SOL     OW39997   2.456   1.112   1.871 -0.4082  1.3955  0.1917
 9454SOL    HW139998   2.369   1.115   1.911 -0.9818  0.8226 -0.9867
 9454SOL    HW239999   2.502   1.073   1.945  0.2836  0.4085 -0.7431
 9455SOL     OW40000   4.596   1.657  12.867 -0.4387 -0.1282 -0.3272
 9455SOL    HW140001   4.614   1.592  12.799 -0.1599  0.4558 -0.8134
 9455SOL    HW240002   4.571   1.734  12.816  0.0898  1.0176  1.1646
 9456SOL     OW40003   4.495   1.890   4.847 -0.1424  0.6942  0.4425
 9456SOL    HW140004   4.544   1.874   4.928  2.9042  0.8632 -1.3576
 9456SOL    HW240005   4.483   1.802   4.811  0.1097  0.3567  1.1658
 9457SOL     OW40006   2.207   1.303  10.786  0.0277  0.7729  0.4139
 9457SOL    HW140007   2.262   1.377  10.761 -0.7886  0.4726 -2.2667
 9457SOL    HW240008   2.209   1.300  10.882 -0.2142  0.9502  0.4243
 9458SOL     OW40009   3.361   1.466  12.369  0.2569 -0.3952  0.5209
 9458SOL    HW140010   3.329   1.376  12.366 -2.5883  0.6224  0.6839
 9458SOL    HW240011   3.393   1.470  12.459  0.4475 -2.0070  0.5217
 9459SOL     OW40012   1.344   3.271   5.514 -0.5434  0.1042  0.1139
 9459SOL    HW140013   1.394   3.352   5.508 -3.5013  1.6586 -3.5305
 9459SOL    HW240014   1.315   3.264   5.424  1.4280  0.5413 -0.5618
 9460SOL     OW40015   1.304   4.075   0.970 -0.0956 -0.0542  0.2464
 9460SOL    HW140016   1.280   4.050   1.060 -3.6832 -1.5837 -1.1290
 9460SOL    HW240017   1.334   3.988   0.945 -0.6879 -0.0157 -0.5852
 9461SOL     OW40018   3.131   3.482   4.435  0.2448 -0.8124  0.8400
 9461SOL    HW140019   3.184   3.505   4.358 -3.3861 -0.5343 -1.5371
 9461SOL    HW240020   3.175   3.535   4.502 -1.1972 -1.6742  2.4477
 9462SOL     OW40021   3.449   0.886  10.160  0.0467 -0.6847  0.1574
 9462SOL    HW140022   3.431   0.930  10.243 -0.4032  2.6628 -1.6976
 9462SOL    HW240023   3.393   0.809  10.167 -0.2559 -0.6093 -1.4033
 9463SOL     OW40024   0.522   3.564   5.278 -0.4590 -0.3124 -0.3388
 9463SOL    HW140025   0.484   3.507   5.211 -2.0022 -0.0787  0.3523
 9463SOL    HW240026   0.531   3.502   5.350  0.5882  0.2648  0.0353
 9464SOL     OW40027   0.467   2.196  13.832  0.4145  0.3509  0.4050
 9464SOL    HW140028   0.411   2.217  13.907  0.7027 -0.5954  0.8922
 9464SOL    HW240029   0.553   2.204  13.875  0.8984 -3.0931  0.0573
 9465SOL     OW40030   1.423   2.874  13.170 -0.3954 -0.3024 -0.0339
 9465SOL    HW140031   1.491   2.895  13.106 -0.7583  0.7837 -0.0553
 9465SOL    HW240032   1.360   2.946  13.169 -0.1743 -0.1616 -3.6923
 9466SOL     OW40033   4.421   0.849   6.563 -0.4939  0.5714  0.3545
 9466SOL    HW140034   4.457   0.789   6.497 -1.2040  0.4569  0.0714
 9466SOL    HW240035   4.328   0.847   6.540  0.1608 -1.8545 -2.2121
 9467SOL     OW40036   1.755   2.079   8.076  0.4303 -0.2275 -0.1551
 9467SOL    HW140037   1.803   1.998   8.093 -0.5108 -0.8981 -0.6782
 9467SOL    HW240038   1.766   2.088   7.981  0.8716  0.9387  0.0082
 9468SOL     OW40039   2.483   2.617   1.875  0.6013 -0.1283  0.0392
 9468SOL    HW140040   2.477   2.563   1.954  0.6448  0.3616  0.3725
 9468SOL    HW240041   2.535   2.689   1.909  2.3615 -2.1020  1.5328
 9469SOL     OW40042   3.026   1.909   7.688 -0.1352  0.3063  0.1088
 9469SOL    HW140043   3.093   1.840   7.686 -1.3653 -0.8432 -1.3804
 9469SOL    HW240044   2.957   1.877   7.630 -0.5867 -1.9384  1.8541
 9470SOL     OW40045   2.969   1.963  15.838 -0.1457 -0.3648  0.1295
 9470SOL    HW140046   3.064   1.974  15.833 -0.3828  0.5481 -2.7148
 9470SOL    HW240047   2.946   2.011  15.758 -1.5547  0.0560  0.7875
 9471SOL     OW40048   0.559   3.591   0.275  0.2522 -0.0870 -0.2045
 9471SOL    HW140049   0.628   3.657   0.282 -0.2155  0.2689  0.9883
 9471SOL    HW240050   0.481   3.644   0.288  1.1528  0.4787  2.8255
 9472SOL     OW40051   3.573   2.694   0.146  0.6700  0.4503 -0.6815
 9472SOL    HW140052   3.630   2.623   0.118  0.1713 -1.0709  2.1216
 9472SOL    HW240053   3.598   2.759   0.081  0.4539 -0.4985 -1.7011
 9473SOL     OW40054   3.053   1.460  16.288 -0.3334  0.3032  0.4265
 9473SOL    HW140055   3.002   1.481  16.210  0.7747  0.7019 -0.1896
 9473SOL    HW240056   3.003   1.498  16.359  0.9800  0.2343  1.3868
 9474SOL     OW40057   1.346   1.548   9.871 -0.4143  0.1824 -0.0834
 9474SOL    HW140058   1.387   1.627   9.835 -0.2972 -0.2537 -0.9018
 9474SOL    HW240059   1.370   1.474   9.815  1.4572 -0.4499  1.5488
 9475SOL     OW40060   2.632   1.725  16.363  0.0198 -0.7965  0.4919
 9475SOL    HW140061   2.640   1.804  16.309 -3.2591 -1.5843 -1.1210
 9475SOL    HW240062   2.697   1.666  16.325  1.5226  0.5414  0.9685
 9476SOL     OW40063   4.443   1.581   3.232 -0.1101  0.1464 -0.0509
 9476SOL    HW140064   4.443   1.500   3.284 -1.7233 -0.9827 -1.7658
 9476SOL    HW240065   4.517   1.574   3.171  0.5597 -0.9865  0.8782
 9477SOL     OW40066   3.681   3.452   5.426  0.1006  0.0323  0.1925
 9477SOL    HW140067   3.649   3.388   5.490 -0.5077 -1.0812 -1.2283
 9477SOL    HW240068   3.764   3.480   5.464  1.2927 -1.1934 -1.4979
 9478SOL     OW40069   2.666   2.610   8.434  0.3567 -0.4462  0.9027
 9478SOL    HW140070   2.741   2.588   8.489  0.4180  1.4137  1.5610
 9478SOL    HW240071   2.723   2.639   8.363  0.6132 -0.7726  0.9727
 9479SOL     OW40072   4.580   1.683  10.408  0.2942  0.3659  0.1611
 9479SOL    HW140073   4.554   1.618  10.474 -1.7851  0.8829 -0.1446
 9479SOL    HW240074   4.523   1.755  10.433  0.8165  0.5489  0.8308
 9480SOL     OW40075   3.828   2.748   2.234  0.0934  0.6616 -0.1144
 9480SOL    HW140076   3.800   2.759   2.143  0.3830 -0.0094 -0.2922
 9480SOL    HW240077   3.830   2.653   2.247 -0.8441  0.3107 -2.5476
 9481SOL     OW40078   1.504   1.834   3.086  0.2256 -0.2422 -0.1140
 9481SOL    HW140079   1.469   1.757   3.130 -0.6952  0.1351 -0.1877
 9481SOL    HW240080   1.595   1.827   3.117 -0.4972  1.9622  2.5240
 9482SOL     OW40081   0.815   2.438   7.552  0.2744  0.3198 -0.1419
 9482SOL    HW140082   0.729   2.403   7.529  0.8178 -2.6799  2.4281
 9482SOL    HW240083   0.874   2.381   7.502 -0.6393 -0.9033  0.1787
 9483SOL     OW40084   1.655   3.256  12.430 -0.7067 -0.1659 -0.1716
 9483SOL    HW140085   1.605   3.334  12.408  0.1940  0.0743 -1.4206
 9483SOL    HW240086   1.634   3.241  12.522 -1.6247  3.1254  0.1520
 9484SOL     OW40087   2.016   1.084   1.590  0.0889 -0.2308  0.0758
 9484SOL    HW140088   1.967   1.108   1.669 -2.0013 -0.5658 -1.0973
 9484SOL    HW240089   1.939   1.072   1.534  0.0761 -1.2809  0.3293
 9485SOL     OW40090   4.613   2.451   7.350  0.0866 -0.7352  0.2593
 9485SOL    HW140091   4.702   2.431   7.381  0.5742 -0.6348 -1.1103
 9485SOL    HW240092   4.576   2.367   7.321 -1.0783 -0.0473 -0.2459
 9486SOL     OW40093   1.346   3.175   4.403 -0.4681  0.2696  0.4939
 9486SOL    HW140094   1.402   3.098   4.396 -0.6064  0.4862 -2.7650
 9486SOL    HW240095   1.398   3.236   4.455 -1.5157  1.4846  0.1238
 9487SOL     OW40096   0.434   4.298  16.772 -0.1320  0.4305  0.5846
 9487SOL    HW140097   0.449   4.206  16.749 -2.1468 -0.3078  2.1862
 9487SOL    HW240098   0.338   4.296  16.764  0.0269 -1.5355 -0.7475
 9488SOL     OW40099   2.135   0.359  11.882 -0.9880 -0.1009 -0.0600
 9488SOL    HW140100   2.181   0.276  11.896  0.3233  0.8740  1.4148
 9488SOL    HW240101   2.061   0.348  11.823 -0.7330  0.4970 -0.4944
 9489SOL     OW40102   2.102   3.304   0.242  0.3485 -0.3904  0.2483
 9489SOL    HW140103   2.055   3.387   0.231  2.5099  0.9779  1.3226
 9489SOL    HW240104   2.050   3.272   0.316  1.9731 -1.2764  0.9828
 9490SOL     OW40105   1.010   2.496   2.347 -0.3002 -0.0066  0.2410
 9490SOL    HW140106   0.965   2.580   2.336  0.2538  0.3696  0.9534
 9490SOL    HW240107   1.005   2.456   2.259  3.5895  1.1734 -0.5097
 9491SOL     OW40108   1.687   1.142   6.779  0.0802 -0.3826  0.0685
 9491SOL    HW140109   1.732   1.088   6.844 -0.8187 -0.4213  0.6420
 9491SOL    HW240110   1.633   1.201   6.830  1.4223  1.1481 -0.2738
 9492SOL     OW40111   1.872   0.703   7.459 -0.4631 -0.1043  0.1736
 9492SOL    HW140112   1.871   0.614   7.425  1.4244  1.0141 -2.8775
 9492SOL    HW240113   1.967   0.701   7.466 -0.3783  0.8383 -0.6275
 9493SOL     OW40114   4.246   1.973  11.588  0.1571  0.3481 -0.0865
 9493SOL    HW140115   4.274   1.916  11.516 -0.2596  1.4573 -1.1468
 9493SOL    HW240116   4.228   2.049  11.533  1.0770  1.7685  1.5676
 9494SOL     OW40117   0.587   4.049   3.496  0.3110  1.0308 -0.2790
 9494SOL    HW140118   0.507   4.082   3.457 -0.4250  0.2426  0.5480
 9494SOL    HW240119   0.624   4.119   3.549  0.9604 -0.0375  0.6820
 9495SOL     OW40120   0.718   0.660   7.686 -0.5099  0.1834  0.0655
 9495SOL    HW140121   0.711   0.739   7.739 -0.5943 -0.4162  0.9594
 9495SOL    HW240122   0.659   0.685   7.615  0.2110  2.5062  0.2892
 9496SOL     OW40123   4.201   1.825   2.771 -0.3924  0.2745  0.5526
 9496SOL    HW140124   4.285   1.844   2.813  1.8531 -2.8751 -2.6109
 9496SOL    HW240125   4.181   1.732   2.776 -1.0496  0.2951 -1.9376
 9497SOL     OW40126   4.236   0.592   8.074 -0.3117 -0.4148 -0.0491
 9497SOL    HW140127   4.148   0.599   8.038 -1.4000  2.2029  3.1555
 9497SOL    HW240128   4.277   0.596   7.988  0.1793 -1.6257  0.1233
 9498SOL     OW40129   0.541   1.449   4.907 -0.2300 -0.5212  0.0920
 9498SOL    HW140130   0.485   1.417   4.978 -2.0980  2.3720 -0.0806
 9498SOL    HW240131   0.529   1.377   4.844  0.2523 -0.7121  0.2190
 9499SOL     OW40132   1.742   2.403   9.887 -0.5597  0.2598  0.1893
 9499SOL    HW140133   1.804   2.360   9.828  0.8439  0.1536  1.7504
 9499SOL    HW240134   1.788   2.487   9.889  0.5324 -0.3007 -1.3767
 9500SOL     OW40135   3.477   0.412   0.226  0.6108 -0.1933 -0.1269
 9500SOL    HW140136   3.555   0.415   0.170  0.6735 -1.5774 -0.1199
 9500SOL    HW240137   3.414   0.367   0.170  1.0291 -1.3927  0.3544
 9501SOL     OW40138   4.273   3.377   4.004 -0.2689 -0.2726  0.1941
 9501SOL    HW140139   4.361   3.391   3.970 -0.3922  1.5637  0.6409
 9501SOL    HW240140   4.289   3.340   4.091 -1.3749 -0.8046  0.1666
 9502SOL     OW40141   0.387   0.788   1.371  0.0269 -0.0444  0.1105
 9502SOL    HW140142   0.383   0.803   1.465  1.3043 -1.4556  0.3869
 9502SOL    HW240143   0.294   0.773   1.356 -0.2288 -0.5793  2.1807
 9503SOL     OW40144   4.018   2.392  16.692 -0.6405  0.3365  0.1514
 9503SOL    HW140145   4.061   2.340  16.623 -0.0232 -2.3879  2.5431
 9503SOL    HW240146   4.048   2.331  16.760 -4.0677  0.3058  1.6080
 9504SOL     OW40147   4.061   3.668   1.044 -0.1485 -0.2983 -0.1955
 9504SOL    HW140148   4.146   3.709   1.054 -0.2400 -0.6316  1.8226
 9504SOL    HW240149   4.086   3.594   0.989  0.3250  1.3057 -2.1667
 9505SOL     OW40150   1.821   0.747  11.423 -0.1119 -0.1808 -0.5400
 9505SOL    HW140151   1.742   0.703  11.457  0.4621 -0.3166  0.6054
 9505SOL    HW240152   1.830   0.697  11.341 -1.8104  1.8598 -1.9660
 9506SOL     OW40153   2.721   1.693   8.513  0.7090  0.1582 -0.1024
 9506SOL    HW140154   2.746   1.604   8.484  1.7548  0.8230 -1.2790
 9506SOL    HW240155   2.671   1.717   8.435  0.7216 -0.6070 -0.3488
 9507SOL     OW40156   3.935   3.300  15.219  0.0516 -0.6582 -0.2311
 9507SOL    HW140157   3.973   3.312  15.131 -0.1813 -0.2990 -0.2848
 9507SOL    HW240158   3.948   3.390  15.250  1.5769 -0.0316 -2.6474
 9508SOL     OW40159   1.322   4.458   8.055 -0.5606  0.3630  0.3141
 9508SOL    HW140160   1.382   4.429   8.124 -0.2980  0.2396  0.0284
 9508SOL    HW240161   1.327   4.551   8.077 -2.0514  1.1948 -2.8557
 9509SOL     OW40162   4.595   1.318   4.159 -0.3724  0.1891 -0.1824
 9509SOL    HW140163   4.554   1.392   4.204  0.3060  1.5338 -1.7492
 9509SOL    HW240164   4.675   1.308   4.210  0.2457  3.1605 -0.5999
 9510SOL     OW40165   4.112   1.699   8.651 -0.3159 -0.1257  0.2323
 9510SOL    HW140166   4.081   1.623   8.702 -0.3725  0.8288  1.6073
 9510SOL    HW240167   4.047   1.762   8.682  0.0057  0.5934 -0.5714
 9511SOL     OW40168   3.913   2.711   8.691 -0.1491  0.2889  0.6050
 9511SOL    HW140169   3.942   2.796   8.723 -0.0265  0.5093 -0.0894
 9511SOL    HW240170   3.948   2.716   8.602 -1.3164  0.0417  0.1370
 9512SOL     OW40171   3.519   2.405  11.708  0.0151 -0.7264 -0.0420
 9512SOL    HW140172   3.527   2.323  11.757 -0.2345 -0.7240  0.0077
 9512SOL    HW240173   3.429   2.436  11.725 -0.1198 -0.6058 -0.9762
 9513SOL     OW40174   3.642   4.161   8.807  0.2489  0.0565 -0.0761
 9513SOL    HW140175   3.725   4.180   8.763 -0.7244  2.3562 -0.8906
 9513SOL    HW240176   3.597   4.241   8.780 -1.4723 -0.7287  0.4657
 9514SOL     OW40177   2.077   1.513   7.219  0.3801 -0.4100  0.5685
 9514SOL    HW140178   2.169   1.534   7.235  0.4831 -0.7984  0.4852
 9514SOL    HW240179   2.039   1.598   7.197  1.8517  0.4969  1.5402
 9515SOL     OW40180   4.046   3.883  15.313 -0.1120  0.4951  0.5234
 9515SOL    HW140181   4.140   3.897  15.325  0.5678 -0.8597 -3.3290
 9515SOL    HW240182   4.030   3.978  15.308  0.5344  0.6003  0.5097
 9516SOL     OW40183   1.442   0.222   4.390  0.4950 -0.3518  0.5211
 9516SOL    HW140184   1.376   0.153   4.386  1.9364 -1.6174 -1.3266
 9516SOL    HW240185   1.521   0.191   4.345  0.8494  0.2878  0.7007
 9517SOL     OW40186   2.820   3.434   4.134  0.7376  0.3166 -0.4583
 9517SOL    HW140187   2.881   3.508   4.135  2.2951 -0.9961  3.1092
 9517SOL    HW240188   2.745   3.475   4.092 -1.2485  0.5436  3.3250
 9518SOL     OW40189   2.931   1.089   3.053 -0.5207 -0.0277  0.5488
 9518SOL    HW140190   3.005   1.139   3.088  0.1196  0.3982 -1.3849
 9518SOL    HW240191   2.900   1.060   3.139 -0.6146 -1.3268  0.0721
 9519SOL     OW40192   3.177   4.698   3.993  0.6751 -0.1645 -0.1828
 9519SOL    HW140193   3.099   0.004   3.955 -0.6587 -1.0535  1.5390
 9519SOL    HW240194   3.191   0.013   4.073 -2.8570 -0.0475  0.3841
 9520SOL     OW40195   2.529   1.044  13.743  0.8369 -0.4429  0.3651
 9520SOL    HW140196   2.621   1.065  13.762  0.9665  1.1067 -2.0273
 9520SOL    HW240197   2.514   1.069  13.652  0.5443 -0.4750  0.4058
 9521SOL     OW40198   4.599   0.203   7.573  0.3491  0.2887 -0.8144
 9521SOL    HW140199   4.607   0.288   7.529  0.0526 -0.2509 -1.8967
 9521SOL    HW240200   4.547   0.224   7.651  0.4414  0.5077 -0.8116
 9522SOL     OW40201   1.468   2.815  15.044 -0.2332  0.3360 -0.1760
 9522SOL    HW140202   1.446   2.724  15.024  0.5435  0.1693 -0.3000
 9522SOL    HW240203   1.554   2.823  15.002 -0.2336  0.5402 -0.1354
 9523SOL     OW40204   0.502   4.512  16.936 -0.2249 -0.2957 -0.4923
 9523SOL    HW140205   0.418   4.527  16.979  1.0428 -0.6628  2.0658
 9523SOL    HW240206   0.473   4.455  16.865 -3.2461  0.9772 -0.2707
 9524SOL     OW40207   2.357   1.201   0.978  0.1873  0.0120 -0.3399
 9524SOL    HW140208   2.293   1.219   0.910  1.1281  2.0777 -0.6643
 9524SOL    HW240209   2.432   1.182   0.921 -0.5626  2.1769 -2.0282
 9525SOL     OW40210   4.470   1.499   3.790  0.2286 -0.1023 -0.3045
 9525SOL    HW140211   4.517   1.442   3.851  0.9230 -0.2785 -1.0091
 9525SOL    HW240212   4.533   1.513   3.720 -0.1509 -0.3941 -0.7075
 9526SOL     OW40213   4.415   0.012   4.069  0.0371 -0.0771  0.0335
 9526SOL    HW140214   4.508   0.034   4.074 -0.2625  1.5945 -1.6521
 9526SOL    HW240215   4.411   4.670   4.012  0.6264  1.5259 -2.2124
 9527SOL     OW40216   0.831   0.906   7.452  0.6132 -0.2664 -0.1813
 9527SOL    HW140217   0.788   0.963   7.388  2.1583  1.6709  0.5235
 9527SOL    HW240218   0.759   0.883   7.512  0.0908  1.0062 -0.3214
 9528SOL     OW40219   1.927   0.212   8.395  0.5345 -0.4137 -0.2366
 9528SOL    HW140220   1.908   0.128   8.437 -2.2549  0.0174 -0.6284
 9528SOL    HW240221   1.880   0.263   8.462 -1.2129 -1.1699 -0.8665
 9529SOL     OW40222   1.279   4.278  13.680  0.0861  0.1055  0.0797
 9529SOL    HW140223   1.350   4.221  13.651 -0.2888  0.4877 -1.6438
 9529SOL    HW240224   1.318   4.364  13.668  2.2862 -1.1850 -1.9669
 9530SOL     OW40225   2.281   2.572   5.781 -0.5470  0.4302  0.2759
 9530SOL    HW140226   2.296   2.660   5.813 -0.4003 -1.0919  4.3818
 9530SOL    HW240227   2.304   2.519   5.857 -0.0394  0.7151  0.3151
 9531SOL     OW40228   2.134   2.731  16.701  0.6608 -0.0282 -0.1063
 9531SOL    HW140229   2.219   2.734  16.745  1.0521 -0.5624 -0.8299
 9531SOL    HW240230   2.084   2.766  16.775 -2.4146  1.5170 -2.8916
 9532SOL     OW40231   3.655   0.378   6.802  0.2145 -0.3123 -0.5202
 9532SOL    HW140232   3.729   0.438   6.788 -1.8096  2.4815  0.9251
 9532SOL    HW240233   3.584   0.432   6.835 -0.8169 -2.1211  0.2283
 9533SOL     OW40234   1.379   3.813  14.248  0.1805 -0.4950  0.1867
 9533SOL    HW140235   1.381   3.905  14.275 -0.2334  0.0767 -1.7156
 9533SOL    HW240236   1.427   3.766  14.316 -1.4256 -0.0654  1.5893
 9534SOL     OW40237   3.210   0.173   3.617 -0.0907  0.6073  0.1240
 9534SOL    HW140238   3.201   0.079   3.629 -0.5808  0.7682  1.0329
 9534SOL    HW240239   3.163   0.185   3.535 -1.7046 -0.1783  0.9394
 9535SOL     OW40240   3.064   0.053   2.917 -0.3543 -0.3691  0.0277
 9535SOL    HW140241   3.132   0.112   2.950 -0.1574 -0.7509  0.3030
 9535SOL    HW240242   3.112   0.036   2.837 -2.0467 -1.7254 -0.6997
 9536SOL     OW40243   2.401   1.261   5.949  0.3566  0.2003  0.6970
 9536SOL    HW140244   2.327   1.216   5.909  2.4654 -2.3449 -0.3557
 9536SOL    HW240245   2.436   1.187   5.999 -1.0443 -2.0931 -1.7739
 9537SOL     OW40246   4.082   0.647   4.723 -0.3825  0.0088 -0.2752
 9537SOL    HW140247   4.103   0.556   4.744  1.8464  0.2848 -1.3209
 9537SOL    HW240248   3.992   0.639   4.690 -1.4789 -0.8947  2.9523
 9538SOL     OW40249   3.932   2.729   6.261  0.0966 -0.4620 -0.3276
 9538SOL    HW140250   3.926   2.634   6.258  1.4968 -0.6015  1.2108
 9538SOL    HW240251   4.018   2.742   6.302  0.3373  1.7229 -1.5420
 9539SOL     OW40252   1.524   1.600   4.210  0.5174 -0.0807  0.5133
 9539SOL    HW140253   1.593   1.609   4.144  1.4667 -0.3819  1.4507
 9539SOL    HW240254   1.578   1.556   4.277  0.8536  0.3491  0.5244
 9540SOL     OW40255   1.763   2.908   0.983  0.1134  0.8692  0.0490
 9540SOL    HW140256   1.810   2.986   1.012  4.3196 -1.9028  0.7175
 9540SOL    HW240257   1.701   2.946   0.921  0.7799  1.4615 -0.2480
 9541SOL     OW40258   3.216   4.220  14.035  0.4396  0.6873 -0.2700
 9541SOL    HW140259   3.228   4.240  14.128  0.8996  0.6272 -0.3159
 9541SOL    HW240260   3.186   4.131  14.051 -2.5997  1.5084 -1.5740
 9542SOL     OW40261   1.668   3.099   6.084  0.1962  0.1586  0.1906
 9542SOL    HW140262   1.644   3.187   6.114  0.2707  0.0628  0.5330
 9542SOL    HW240263   1.734   3.074   6.149 -0.0059 -0.0531  0.3116
 9543SOL     OW40264   2.634   0.140   9.224  0.1898 -0.3925 -0.4365
 9543SOL    HW140265   2.636   0.049   9.195  1.6339 -0.2170 -0.8694
 9543SOL    HW240266   2.543   0.142   9.254  0.4099 -0.5713  0.2519
 9544SOL     OW40267   0.098   3.154   8.188  0.2082  0.1080  0.4616
 9544SOL    HW140268   0.003   3.151   8.198  0.3393  0.3417  1.7860
 9544SOL    HW240269   0.115   3.248   8.180  1.7031 -0.0940  1.1747
 9545SOL     OW40270   3.668   1.609  13.904 -0.3199  0.2001  0.0903
 9545SOL    HW140271   3.580   1.617  13.942 -0.3937 -0.4343  0.0405
 9545SOL    HW240272   3.637   1.633  13.816 -1.4012  2.5525  1.0994
 9546SOL     OW40273   2.364   2.911   7.752  0.0122  0.1493  0.1964
 9546SOL    HW140274   2.401   2.826   7.729 -0.5427 -0.0045 -0.1230
 9546SOL    HW240275   2.409   2.918   7.836  0.5395  0.6949 -0.1311
 9547SOL     OW40276   3.493   0.803   2.417 -0.2758 -0.5488 -0.0036
 9547SOL    HW140277   3.527   0.870   2.358 -0.0420 -0.8439 -0.2008
 9547SOL    HW240278   3.529   0.720   2.385  2.2012  0.8015 -0.7306
 9548SOL     OW40279   1.294   4.055   5.725 -0.0370  0.2884  0.0973
 9548SOL    HW140280   1.380   4.053   5.681 -0.1238 -2.2516  0.0561
 9548SOL    HW240281   1.251   4.105   5.655 -0.7360  1.2947  1.2365
 9549SOL     OW40282   0.823   2.757   5.665 -0.6827  0.0913  0.7479
 9549SOL    HW140283   0.846   2.803   5.584  0.2132 -0.6594  0.5748
 9549SOL    HW240284   0.832   2.666   5.637 -2.9785  0.0712  0.0364
 9550SOL     OW40285   2.579   1.526  16.515 -0.4349 -0.3050 -0.2408
 9550SOL    HW140286   2.493   1.551  16.549 -0.4026  1.9359 -1.8683
 9550SOL    HW240287   2.600   1.596  16.454  0.3963 -0.4160 -0.0842
 9551SOL     OW40288   1.830   1.231   3.537  0.1817  0.7343  0.5318
 9551SOL    HW140289   1.896   1.163   3.547 -0.5412 -0.3184 -1.8336
 9551SOL    HW240290   1.783   1.208   3.457  0.2134 -0.9648  1.0058
 9552SOL     OW40291   2.972   0.087   5.935  0.4307  0.2896  0.1380
 9552SOL    HW140292   3.047   0.096   5.876  0.2245  1.8459  0.1170
 9552SOL    HW240293   2.905   0.131   5.882 -1.1967 -0.7113  1.3670
 9553SOL     OW40294   4.175   2.146   6.251  0.3260 -0.3072  0.1392
 9553SOL    HW140295   4.124   2.227   6.244  0.3510 -0.3488 -0.5253
 9553SOL    HW240296   4.256   2.168   6.205 -0.4858  2.4421  0.0564
 9554SOL     OW40297   3.815   0.570  13.045 -0.1307 -0.7142  0.6171
 9554SOL    HW140298   3.904   0.584  13.012 -0.0399 -2.1955  0.2404
 9554SOL    HW240299   3.826   0.561  13.140  2.8531 -0.3978  0.3235
 9555SOL     OW40300   1.863   2.679   4.643 -0.0206  0.3704  0.0873
 9555SOL    HW140301   1.773   2.648   4.639  0.5299 -1.2009 -0.2994
 9555SOL    HW240302   1.907   2.598   4.669  0.2035  1.3825  2.7983
 9556SOL     OW40303   0.372   1.850   5.688  0.3857  0.4018 -0.1018
 9556SOL    HW140304   0.381   1.765   5.731  1.4126  0.6473  0.1852
 9556SOL    HW240305   0.297   1.897   5.725  0.8450  3.0150 -2.4412
 9557SOL     OW40306   4.295   4.354  15.381 -0.0336 -0.0473 -0.1997
 9557SOL    HW140307   4.285   4.448  15.374 -1.3256 -0.1085  0.8887
 9557SOL    HW240308   4.280   4.336  15.288  1.0038 -2.5912  0.1172
 9558SOL     OW40309   4.257   0.979   7.265  0.0847 -0.3192 -0.0471
 9558SOL    HW140310   4.262   1.071   7.238  0.6892 -0.0253  1.0289
 9558SOL    HW240311   4.324   0.971   7.334 -0.1641 -2.0788 -0.0240
 9559SOL     OW40312   0.602   3.185   2.756  0.1969 -0.2992  0.3538
 9559SOL    HW140313   0.675   3.125   2.771 -0.2891 -0.9529  0.1234
 9559SOL    HW240314   0.562   3.188   2.843  0.3475 -0.6360  0.4371
 9560SOL     OW40315   4.634   0.776  10.400  0.5222 -0.6274  0.3949
 9560SOL    HW140316   4.726   0.749  10.397  1.1525  1.5917 -0.2117
 9560SOL    HW240317   4.610   0.786  10.308  0.8012  0.9241  0.4840
 9561SOL     OW40318   2.982   4.192   5.212 -0.0667  0.2392  0.3107
 9561SOL    HW140319   3.073   4.171   5.231  0.9376  0.9334 -3.5288
 9561SOL    HW240320   2.998   4.271   5.159  1.6684  0.3978  1.1006
 9562SOL     OW40321   2.320   4.079   4.292 -0.5569 -0.0643 -0.2968
 9562SOL    HW140322   2.344   4.127   4.213 -0.2819  0.3120  0.0146
 9562SOL    HW240323   2.251   4.127   4.339  1.0248 -0.8165  2.7650
 9563SOL     OW40324   2.467   4.504   8.304  0.1544  0.0799 -0.3261
 9563SOL    HW140325   2.531   4.524   8.235  0.0948 -0.3102 -0.4911
 9563SOL    HW240326   2.485   4.417   8.339 -1.5905 -0.1182  0.0436
 9564SOL     OW40327   0.936   1.141   7.219  0.0013  0.0926  0.1160
 9564SOL    HW140328   0.867   1.106   7.163 -1.9883  0.8254  2.0835
 9564SOL    HW240329   1.000   1.073   7.201 -0.2801 -0.5718  1.6707
 9565SOL     OW40330   1.356   2.012  13.576 -0.3402 -0.1774 -0.0039
 9565SOL    HW140331   1.274   2.059  13.590  0.2048  0.4056  1.2912
 9565SOL    HW240332   1.408   2.047  13.648  0.3673  0.8440 -1.0199
 9566SOL     OW40333   1.450   0.702   6.407  0.1310  0.7389  0.4038
 9566SOL    HW140334   1.422   0.703   6.498  2.1306  1.8952  1.0167
 9566SOL    HW240335   1.521   0.641   6.389 -1.2356 -0.1839 -1.9682
 9567SOL     OW40336   0.909   4.533  17.031 -0.6163  0.5042 -0.6831
 9567SOL    HW140337   0.837   4.581  16.990 -1.3530 -1.7250 -1.9875
 9567SOL    HW240338   0.979   4.576  16.981 -1.4020  0.9301 -1.4069
 9568SOL     OW40339   2.210   4.337   6.710 -0.0016 -0.1766 -0.0951
 9568SOL    HW140340   2.301   4.365   6.716 -0.1548  0.4315 -0.6773
 9568SOL    HW240341   2.212   4.281   6.632 -1.1765  1.6553 -1.4293
 9569SOL     OW40342   1.853   0.157   6.496 -1.0590 -0.3516 -0.3306
 9569SOL    HW140343   1.818   0.133   6.410 -1.0203 -2.5103  0.2562
 9569SOL    HW240344   1.772   0.171   6.544  2.0193  0.9692  4.4539
   4.73591   4.73591  17.74228
