Membrane in water
40344
    1TMC1    C1    1   4.441   0.149  11.385  0.8687 -0.2154  0.9011
    1TMC1    C2    2   4.408   0.271  11.431  0.0953 -0.1534  0.4029
    1TMC1    C3    3   4.489   0.379  11.402 -0.0186  0.0041 -0.3916
    1TMC1    C4    4   4.545   0.131  11.298 -1.1702  0.7234  0.4935
    1TMC1    C5    5   4.618   0.243  11.263 -0.0504  0.3019 -0.3638
    1TMC1    C6    6   4.600   0.368  11.321 -0.2928  0.5306  0.2638
    1TMC1     C    7   4.388   0.035  11.463  0.2610  0.1001 -0.4094
    1TMC1     O    8   4.310   0.070  11.554 -0.1380 -0.0124 -0.0698
    1TMC1     H    9   4.325   0.292  11.497  0.3100 -1.0779  0.9653
    1TMC1    H1   10   4.571   0.035  11.254 -1.2790  0.5456  0.8176
    1TMC1    H2   11   4.649   0.454  11.277 -1.9242  0.9724 -0.6779
    1TMC1    C7   12   4.736   0.214  11.181 -0.5700  0.5108 -0.1327
    1TMC1    C8   13   4.455   0.508  11.463 -0.1392  0.8170 -0.1644
    1TMC1    O1   14   4.731   0.159  11.070  0.7317 -0.2167  0.0843
    1TMC1    O2   15   4.346   0.526  11.523  0.1016 -0.1524  0.5840
    1TMC1    O3   16   0.093   0.307  11.217  0.1305  0.2052 -0.1315
    1TMC1    H3   17   0.089   0.314  11.315 -0.7312 -2.2057 -0.0060
    1TMC1    O5   18   4.523   0.606  11.402 -0.1451  0.4186 -0.0681
    1TMC1    H5   19   4.619   0.593  11.415 -0.1881  0.9448  0.8226
    2MPD2     C   20   4.297   4.292  11.623  0.0317  0.3496  0.1136
    2MPD2    C1   21   4.251   4.413  11.667  0.1263  0.1820  0.0307
    2MPD2    C2   22   4.291   4.523  11.594  0.2907  0.1178 -0.4449
    2MPD2    C3   23   4.378   4.525  11.493  0.0786  0.4105 -0.2570
    2MPD2    C4   24   4.439   4.405  11.458 -0.4031 -0.6088 -0.6273
    2MPD2    C5   25   4.391   4.292  11.523 -0.1003 -0.4681  0.1348
    2MPD2     H   26   4.243   4.617  11.618 -0.3842 -0.6082  1.0660
    2MPD2    H1   27   4.513   4.406  11.379 -0.0825 -2.4687 -0.3448
    2MPD2    H2   28   4.275   4.198  11.672 -0.5074 -0.6733 -2.0519
    2MPD2    H3   29   4.429   4.194  11.497 -0.8625 -1.0456  1.2138
    2MPD2     N   30   4.421   4.641  11.426 -0.0616  0.8175  0.5254
    2MPD2    H5   31   4.477   4.633  11.342  0.7999  2.3527  0.9492
    2MPD2    N1   32   4.160   4.437  11.772 -0.8983 -0.3238 -0.8560
    2MPD2    H7   33   4.140   4.536  11.787  0.9321  0.1749 -1.6978
    3TMC1    C1   34   3.405   0.363  11.010  0.3868  0.2168 -0.1541
    3TMC1    C2   35   3.490   0.272  10.957 -0.0766  0.0718 -0.3054
    3TMC1    C3   36   3.443   0.188  10.860 -0.3008 -0.1542  0.4274
    3TMC1    C4   37   3.274   0.369  10.972  0.4307  0.0581 -0.3302
    3TMC1    C5   38   3.227   0.276  10.883  0.0553 -0.3802 -1.1152
    3TMC1    C6   39   3.311   0.183  10.831 -0.1311  0.0889 -0.4756
    3TMC1     C   40   3.464   0.456  11.095  0.3402 -0.8001 -0.0602
    3TMC1     O   41   3.557   0.411  11.161 -0.3867  0.1145  0.1038
    3TMC1     H   42   3.591   0.270  10.996 -0.7978 -1.0455  1.4905
    3TMC1    H1   43   3.204   0.439  11.017 -0.3028  1.7190 -4.0763
    3TMC1    H2   44   3.278   0.109  10.758 -0.8349 -0.5491  0.4897
    3TMC1    C7   45   3.102   0.290  10.809 -0.6163 -0.0584  0.0168
    3TMC1    C8   46   3.531   0.090  10.795  0.0001  0.2261  0.2836
    3TMC1    O1   47   3.066   0.200  10.739  0.3831  0.3732 -0.5125
    3TMC1    O2   48   3.491   4.725  10.741  0.2295  0.5261  0.3908
    3TMC1    O3   49   3.112   0.414  10.766 -0.6474  0.3779 -0.0810
    3TMC1    H3   50   3.156   0.481  10.822 -1.1900  0.2032  0.5572
    3TMC1    O5   51   3.648   0.149  10.773 -0.5511  0.0535 -0.3074
    3TMC1    H5   52   3.640   0.246  10.786  1.3584  0.1263  0.2608
    4MPD2     C   53   3.389   0.889  11.375  0.1438 -0.2441  0.5561
    4MPD2    C1   54   3.343   0.903  11.244  0.4397  0.7616  0.3864
    4MPD2    C2   55   3.353   0.802  11.155  0.9478  0.6173 -0.1036
    4MPD2    C3   56   3.421   0.686  11.184  0.2222  0.6994 -0.0181
    4MPD2    C4   57   3.479   0.671  11.306  0.1328  0.1595  0.3128
    4MPD2    C5   58   3.458   0.769  11.401  0.0729 -0.0336 -0.2590
    4MPD2     H   59   3.298   0.813  11.063 -0.6595  0.1567  0.7987
    4MPD2    H1   60   3.544   0.586  11.322 -0.1255  0.1074  1.0627
    4MPD2    H2   61   3.388   0.961  11.456 -0.3083 -1.3066  1.4944
    4MPD2    H3   62   3.514   0.759  11.493  4.3315 -0.7291 -2.9551
    4MPD2     N   63   3.408   0.584  11.093  0.5832  0.2552  0.3875
    4MPD2    H5   64   3.341   0.602  11.019  1.6032 -1.4075 -0.9240
    4MPD2    N1   65   3.290   1.021  11.191  0.0696 -0.9619  0.0886
    4MPD2    H7   66   3.249   1.020  11.098  3.0651 -0.7287 -1.2158
    5TCq1    O1   67   0.322   2.212  11.695  0.7317  0.1613  0.2497
    5TCq1    C1   68   0.240   2.104  11.690 -0.1108  0.4224  0.2258
    5TCq1    O2   69   0.250   2.010  11.773  0.4159 -0.0743  0.3639
    5TCq1    C2   70   0.111   2.175  11.686  0.1365  0.0924  0.2218
    5TCq1    C3   71   0.064   2.199  11.814  0.3964 -0.0304 -0.2745
    5TCq1    C4   72   4.670   2.226  11.821 -0.5254  0.1076 -0.2035
    5TCq1    C5   73   4.590   2.232  11.708 -0.9237 -1.0513 -0.5641
    5TCq1    C6   74   4.653   2.218  11.589  0.5750  0.6989 -0.1361
    5TCq1    C7   75   0.046   2.182  11.570 -0.2203 -0.1457 -0.4842
    5TCq1    C8   76   4.567   2.176  11.478  0.1143 -0.6061 -0.2719
    5TCq1    O4   77   4.620   2.113  11.388 -0.3574 -0.0515  0.2641
    5TCq1    C9   78   4.616   2.270  11.950 -0.1086  0.0809 -0.5154
    5TCq1    O5   79   4.678   2.243  12.058  0.1309 -1.0902  0.2173
    5TCq1    O6   80   4.511   2.341  11.945 -0.1102  0.5008  0.6959
    5TCq1    H1   81   0.280   2.290  11.655  0.3415 -0.5413 -0.7119
    5TCq1    H2   82   0.123   2.194  11.905  1.7614 -1.7741 -1.2676
    5TCq1    H3   83   4.490   2.272  11.714 -1.1755 -1.8487  0.4176
    5TCq1    H4   84   0.095   2.139  11.483 -1.4466 -0.6976 -0.8979
    6MPD2     C   85   4.217   2.264  11.439  0.1901  0.2125 -0.5557
    6MPD2    C1   86   4.333   2.205  11.406  0.0355 -0.0153 -0.0347
    6MPD2    C2   87   4.329   2.093  11.326  0.4315 -0.1322  0.6014
    6MPD2    C3   88   4.207   2.058  11.263  0.3502 -1.1132  0.1079
    6MPD2    C4   89   4.087   2.123  11.297 -0.5776 -0.8306 -0.5773
    6MPD2    C5   90   4.097   2.223  11.389  0.6774 -0.2274  0.0605
    6MPD2     H   91   4.419   2.043  11.294  0.8369  0.3627  0.9545
    6MPD2    H1   92   3.994   2.113  11.242 -1.5960 -0.6037  1.0923
    6MPD2    H2   93   4.208   2.349  11.506  0.3755 -0.7161  0.6470
    6MPD2    H3   94   4.012   2.281  11.423  0.7072 -1.1681  1.7229
    6MPD2     N   95   4.212   1.954  11.163 -0.1362 -0.0203 -1.0258
    6MPD2    H5   96   4.299   1.905  11.142  1.0417  0.2370  3.4128
    6MPD2    N1   97   4.447   2.244  11.474 -0.3353  0.0326 -0.7724
    6MPD2    H7   98   4.437   2.339  11.507  0.5107  0.2510 -1.1364
    7TCq1    O1   99   1.962   1.964  14.093 -0.3659 -0.3657  0.6003
    7TCq1    C1  100   1.986   2.045  13.993 -0.3926 -0.1411  0.4077
    7TCq1    O2  101   2.026   2.157  14.008  0.2042  0.1314  0.0141
    7TCq1    C2  102   1.922   1.999  13.867 -0.5392 -0.5306  0.2113
    7TCq1    C3  103   1.878   2.091  13.782 -0.4066 -0.4736  0.0185
    7TCq1    C4  104   1.837   2.049  13.663  0.3363 -0.0423  0.2668
    7TCq1    C5  105   1.834   1.919  13.622 -0.3730  0.1549 -0.2393
    7TCq1    C6  106   1.895   1.827  13.703  0.4669  0.6201 -0.2425
    7TCq1    C7  107   1.949   1.866  13.824 -0.5921  0.8407  0.0438
    7TCq1    C8  108   1.922   1.695  13.658  0.4697  0.2499 -0.6044
    7TCq1    O4  109   1.937   1.610  13.741  0.4478 -0.0438  0.6121
    7TCq1    C9  110   1.793   2.149  13.571 -0.8547  0.0237 -0.4044
    7TCq1    O5  111   1.784   2.101  13.450 -0.3403 -0.8218  0.5231
    7TCq1    O6  112   1.774   2.266  13.599  0.4763 -0.6046  0.5811
    7TCq1    H1  113   1.919   1.883  14.060  0.0599 -0.4534  0.2592
    7TCq1    H2  114   1.869   2.193  13.818 -0.8469 -0.1849 -0.9113
    7TCq1    H3  115   1.798   1.906  13.520  1.3293 -2.0384 -0.5700
    7TCq1    H4  116   2.005   1.797  13.885 -1.7763  1.2949  1.6246
    8MPD2     C  117   2.022   1.357  13.286 -0.4382  0.0049  0.6301
    8MPD2    C1  118   1.983   1.332  13.416  0.1350  0.2262  0.1356
    8MPD2    C2  119   1.968   1.440  13.506  0.1109 -0.8005  0.2920
    8MPD2    C3  120   1.966   1.576  13.449 -0.0360 -0.7816 -0.2515
    8MPD2    C4  121   2.022   1.592  13.324 -0.1703  0.0381 -0.5423
    8MPD2    C5  122   2.033   1.483  13.236 -0.3074  0.1779  0.0466
    8MPD2     H  123   1.940   1.415  13.608 -1.9046 -0.5244 -0.1851
    8MPD2    H1  124   2.039   1.692  13.285  0.5751 -1.0005 -2.8955
    8MPD2    H2  125   2.042   1.273  13.221 -0.2957  0.7045 -0.2205
    8MPD2    H3  126   2.049   1.498  13.130  1.3144 -1.1101  0.1087
    8MPD2     N  127   1.942   1.698  13.521 -0.3729  0.4632 -0.7138
    8MPD2    H5  128   1.952   1.780  13.462 -0.3826  0.6095 -0.5115
    8MPD2    N1  129   1.977   1.197  13.457 -0.1488 -0.2460  0.3730
    8MPD2    H7  130   2.018   1.132  13.391  0.4136  1.0870 -0.5811
    9TMC1    C1  131   3.705   1.474  11.420 -0.1032 -0.3975  0.5327
    9TMC1    C2  132   3.662   1.537  11.313  0.1263  0.1317  0.0549
    9TMC1    C3  133   3.530   1.564  11.295 -0.9502 -0.3832 -0.1696
    9TMC1    C4  134   3.608   1.434  11.516  0.5021  0.1937  0.9229
    9TMC1    C5  135   3.488   1.494  11.516  0.1375 -0.3238 -0.0030
    9TMC1    C6  136   3.442   1.544  11.398 -0.0414  0.0755  0.1524
    9TMC1     C  137   3.843   1.433  11.411  0.0152 -1.2874  0.1775
    9TMC1     O  138   3.915   1.469  11.319 -0.0587 -0.1538 -0.4212
    9TMC1     H  139   3.728   1.557  11.229 -0.6510 -1.1188 -0.8614
    9TMC1    H1  140   3.641   1.379  11.604 -1.4025 -0.5504  1.1757
    9TMC1    H2  141   3.337   1.572  11.401  0.4916  2.0010  0.7188
    9TMC1    C7  142   3.389   1.439  11.613  0.2494 -0.0511  0.9967
    9TMC1    C8  143   3.479   1.643  11.183 -0.0514 -0.4595  0.2486
    9TMC1    O1  144   3.267   1.444  11.592  0.1154  0.4284  0.4494
    9TMC1    O2  145   3.382   1.614  11.110 -0.4557 -0.1852 -0.3062
    9TMC1    O3  146   3.459   1.453  11.733 -0.1493  0.3573 -0.0837
    9TMC1    H3  147   3.552   1.481  11.718  0.0708  0.0379  0.6296
    9TMC1    O5  148   3.582   1.723  11.133  0.4098  1.1408  0.7375
    9TMC1    H5  149   3.658   1.742  11.192  0.8387 -2.1576  1.2756
   10MPD2     C  150   4.086   1.250  11.436 -0.4266  0.4885 -0.3788
   10MPD2    C1  151   3.980   1.253  11.526 -0.3835 -0.3689  0.2203
   10MPD2    C2  152   3.968   1.153  11.629 -0.6950 -0.0616 -0.9572
   10MPD2    C3  153   4.069   1.062  11.639  0.7943  0.0139 -0.7661
   10MPD2    C4  154   4.176   1.066  11.555  0.0097 -0.4512  0.8764
   10MPD2    C5  155   4.190   1.165  11.462  0.3862  0.9230 -0.6896
   10MPD2     H  156   3.881   1.138  11.692  1.5131 -1.4166  1.7803
   10MPD2    H1  157   4.258   0.995  11.554  0.7639  0.4390 -0.2001
   10MPD2    H2  158   4.089   1.315  11.350 -2.0598  0.1835 -0.6726
   10MPD2    H3  159   4.276   1.170  11.395  1.3579 -1.9795  0.3738
   10MPD2     N  160   4.088   0.973  11.750  0.7630 -0.0283 -0.6163
   10MPD2    H5  161   4.163   0.904  11.748  0.1770 -0.6410 -1.3314
   10MPD2    N1  162   3.866   1.336  11.503 -0.3173 -0.3155 -0.2205
   10MPD2    H7  163   3.787   1.315  11.562  0.4545 -0.0991  0.8945
   11TCq1    O1  164   0.268   0.333  13.691  0.2280 -0.4982 -0.6188
   11TCq1    C1  165   0.142   0.296  13.718 -0.0468 -0.0267  0.4028
   11TCq1    O2  166   0.090   0.192  13.683 -0.2549 -0.3841 -0.3134
   11TCq1    C2  167   0.104   0.355  13.843 -0.6233  0.1040 -0.8034
   11TCq1    C3  168   0.179   0.339  13.953  0.1504 -0.5920 -0.1877
   11TCq1    C4  169   0.119   0.303  14.072  0.6649 -0.0888  0.5235
   11TCq1    C5  170   4.723   0.292  14.081 -0.1490  0.3317 -0.5687
   11TCq1    C6  171   4.652   0.301  13.966  0.2051 -0.6534 -0.3662
   11TCq1    C7  172   4.711   0.327  13.848  0.3568  0.4471 -0.0549
   11TCq1    C8  173   4.543   0.212  13.951 -0.5670  0.5061 -0.0093
   11TCq1    O4  174   4.461   0.192  14.038  0.0688  0.0611 -0.8615
   11TCq1    C9  175   0.202   0.281  14.190 -0.1380 -0.4124 -0.5733
   11TCq1    O5  176   0.143   0.281  14.296  0.3574  0.1097  1.1367
   11TCq1    O6  177   0.329   0.290  14.179 -0.2287 -0.2776 -0.2313
   11TCq1    H1  178   0.291   0.424  13.721 -0.5256 -0.7427  0.7341
   11TCq1    H2  179   0.286   0.351  13.951  0.2079 -1.1196 -0.2557
   11TCq1    H3  180   4.669   0.255  14.168 -0.7876  0.1155 -1.0537
   11TCq1    H4  181   4.655   0.328  13.755 -3.1117 -0.3047  2.0078
   12MPD2     C  182   4.372   4.711  13.870 -0.4016 -0.4182 -0.7487
   12MPD2    C1  183   4.482   0.023  13.804  0.1772 -0.7368 -0.1950
   12MPD2    C2  184   4.513   4.706  13.681  0.1581 -0.2278  0.0069
   12MPD2    C3  185   4.448   4.594  13.628 -0.2922 -0.3089  0.4553
   12MPD2    C4  186   4.337   4.548  13.699  0.8002 -0.5338  0.1557
   12MPD2    C5  187   4.302   4.610  13.816  0.0448  0.0164 -0.1273
   12MPD2     H  188   4.601   4.730  13.624  2.4897 -0.3426  3.5329
   12MPD2    H1  189   4.282   4.462  13.661  0.5653  0.2054 -1.1843
   12MPD2    H2  190   4.342   0.011  13.966  0.6934 -1.4051 -0.0002
   12MPD2    H3  191   4.224   4.563  13.875  1.6493 -1.2930  0.9716
   12MPD2     N  192   4.477   4.536  13.499 -0.7941 -0.1089  0.3972
   12MPD2    H5  193   4.424   4.452  13.480  0.0883  0.4553 -4.3914
   12MPD2    N1  194   4.560   0.135  13.839 -0.0922  0.0152  0.3535
   12MPD2    H7  195   4.635   0.165  13.778 -1.4384 -2.5867 -2.5687
   13TCq1    O1  196   4.109   0.028  10.494 -0.0463  0.2305 -0.8376
   13TCq1    C1  197   4.188   0.093  10.587  0.0946  0.0701 -0.1959
   13TCq1    O2  198   4.301   0.136  10.575  0.8156  0.5187  0.4287
   13TCq1    C2  199   4.101   0.131  10.692 -0.2571 -0.3683 -0.0307
   13TCq1    C3  200   4.091   0.262  10.729 -0.3191  0.4301  0.1120
   13TCq1    C4  201   4.006   0.295  10.832  0.1674 -0.5931  0.4261
   13TCq1    C5  202   3.935   0.196  10.893  0.5124 -0.3080  0.0686
   13TCq1    C6  203   3.943   0.062  10.852  0.0160 -0.6387 -0.0947
   13TCq1    C7  204   4.019   0.031  10.746  0.6218 -0.5869  0.1133
   13TCq1    C8  205   3.876   4.691  10.921  0.1252  0.2659 -0.1652
   13TCq1    O4  206   3.868   4.586  10.865  0.3804  0.1999 -0.2002
   13TCq1    C9  207   3.993   0.434  10.875 -0.0771 -0.3759  0.3817
   13TCq1    O5  208   3.884   0.471  10.920 -0.7133  0.0746 -0.0493
   13TCq1    O6  209   4.088   0.510  10.843  0.6143 -0.6466  0.2320
   13TCq1    H1  210   4.016   0.042  10.520 -0.4532 -0.0129 -2.1963
   13TCq1    H2  211   4.150   0.339  10.681  0.4937 -1.0237 -1.2029
   13TCq1    H3  212   3.872   0.227  10.975 -0.2106  0.0064 -0.6131
   13TCq1    H4  213   4.026   4.670  10.707  1.3950 -0.4463 -0.1287
   14MPD2     C  214   3.695   4.531  11.094 -0.1065  0.1599 -0.4191
   14MPD2    C1  215   3.738   4.656  11.129  0.3104 -0.6072  0.2482
   14MPD2    C2  216   3.688   4.715  11.246  0.5793 -0.6845 -0.2639
   14MPD2    C3  217   3.593   4.647  11.324 -0.0747  0.1798  0.0733
   14MPD2    C4  218   3.554   4.516  11.289  0.2303  0.2243 -0.5988
   14MPD2    C5  219   3.604   4.464  11.177 -0.2367  0.6484 -0.3276
   14MPD2     H  220   3.720   0.078  11.259 -0.6647 -0.3081 -0.1959
   14MPD2    H1  221   3.487   4.456  11.349  3.5533 -3.1965 -0.3509
   14MPD2    H2  222   3.722   4.480  11.002 -0.0173 -0.0220 -0.2910
   14MPD2    H3  223   3.570   4.365  11.147  2.7651 -0.5191  0.1108
   14MPD2     N  224   3.535   4.718  11.432 -0.4868  0.1364  0.1148
   14MPD2    H5  225   3.559   0.077  11.436 -0.6281  0.1252  1.2479
   14MPD2    N1  226   3.825   4.735  11.045 -0.8854 -0.1405  0.0776
   14MPD2    H7  227   3.851   0.088  11.076  0.8118 -1.3913  2.3580
   15TCq1    O1  228   1.907   3.732   1.312  0.2197 -0.3378 -0.1060
   15TCq1    C1  229   1.832   3.761   1.420  0.7440 -0.2731 -0.0115
   15TCq1    O2  230   1.850   3.863   1.487  0.1367 -0.6734 -0.1332
   15TCq1    C2  231   1.693   3.700   1.416 -0.4724 -0.2662  0.0947
   15TCq1    C3  232   1.610   3.764   1.497 -0.8214  0.0019 -0.3928
   15TCq1    C4  233   1.483   3.718   1.495 -1.0945  0.3733 -0.2320
   15TCq1    C5  234   1.450   3.605   1.427  0.2091 -0.8734 -0.1406
   15TCq1    C6  235   1.542   3.543   1.343 -0.3131  0.0209 -0.8443
   15TCq1    C7  236   1.669   3.591   1.331  0.0487 -0.0076  0.5390
   15TCq1    C8  237   1.511   3.408   1.291 -0.9100  0.0335 -0.7747
   15TCq1    O4  238   1.599   3.336   1.248  0.4973  0.2630 -0.1999
   15TCq1    C9  239   1.398   3.772   1.590 -0.5453 -0.5921 -0.4738
   15TCq1    O5  240   1.446   3.860   1.666 -0.1738  0.5228  0.4352
   15TCq1    O6  241   1.281   3.723   1.584  0.2716 -0.2508  0.7557
   15TCq1    H1  242   1.887   3.641   1.281  1.5254 -0.3134 -0.9961
   15TCq1    H2  243   1.637   3.849   1.558  0.9918  0.3042 -1.6174
   15TCq1    H3  244   1.350   3.567   1.438  0.4462 -2.6992 -4.3711
   15TCq1    H4  245   1.730   3.554   1.250  0.0726 -0.0412  0.5721
   16MPD2     C  246   1.154   3.315   1.221  0.6156  0.1456 -0.0511
   16MPD2    C1  247   1.292   3.297   1.237  0.3406  0.5385  0.2710
   16MPD2    C2  248   1.339   3.170   1.206 -0.6073 -0.1546  0.3082
   16MPD2    C3  249   1.263   3.067   1.147  0.5377  0.5204 -0.6024
   16MPD2    C4  250   1.127   3.094   1.126 -0.5590 -0.0929 -0.1760
   16MPD2    C5  251   1.071   3.212   1.172 -0.6996 -0.0542  0.4648
   16MPD2     H  252   1.441   3.144   1.231 -0.4166  1.3460  1.0927
   16MPD2    H1  253   1.051   3.027   1.089  0.4921 -0.6322 -1.3532
   16MPD2    H2  254   1.110   3.407   1.258 -0.5986 -0.5509  0.2419
   16MPD2    H3  255   0.967   3.239   1.164 -0.8049 -1.0094 -1.2704
   16MPD2     N  256   1.331   2.946   1.129  0.3328  0.2415  0.1099
   16MPD2    H5  257   1.427   2.948   1.161  1.5518 -1.4125 -3.3902
   16MPD2    N1  258   1.368   3.405   1.283 -0.0352  0.5939  0.3002
   16MPD2    H7  259   1.322   3.491   1.309 -1.8093 -0.1936 -0.1836
   17TMC1    C1  260   3.224   4.426  12.107 -0.5859 -0.3519 -0.6913
   17TMC1    C2  261   3.152   4.411  11.995  0.2525  0.7219  0.8997
   17TMC1    C3  262   3.019   4.372  12.014  0.8420 -0.7490 -0.0817
   17TMC1    C4  263   3.176   4.439  12.237 -0.3967 -0.3589  0.4275
   17TMC1    C5  264   3.048   4.394  12.252  0.5064 -0.1542 -0.7300
   17TMC1    C6  265   2.977   4.346  12.144  0.1879  0.6230  0.4150
   17TMC1     C  266   3.339   4.509  12.080  0.1496 -0.5196 -0.5625
   17TMC1     O  267   3.352   4.607  12.157  0.3392  0.6113  0.1262
   17TMC1     H  268   3.192   4.406  11.894  3.1353 -1.0982  2.1097
   17TMC1    H1  269   3.244   4.461  12.319 -1.3206 -0.5552  1.2582
   17TMC1    H2  270   2.879   4.305  12.164  0.4006 -0.2574 -0.3539
   17TMC1    C7  271   3.009   4.359  12.385 -0.1427  0.1353  0.9503
   17TMC1    C8  272   2.954   4.311  11.904 -0.1072  0.2552  0.4495
   17TMC1    O1  273   2.948   4.256  12.412 -0.4793 -0.0892 -0.2859
   17TMC1    O2  274   2.891   4.203  11.907  0.6591  0.8368 -0.1782
   17TMC1    O3  275   3.076   4.427  12.475  0.3444 -0.2151 -0.2465
   17TMC1    H3  276   3.097   4.519  12.447  1.4129 -0.3782  0.0229
   17TMC1    O5  277   2.955   4.407  11.803  0.2092  0.5475  0.1172
   17TMC1    H5  278   2.994   4.494  11.827  1.0970 -0.1618  1.2149
   18MPD2     C  279   3.554   4.661  11.966  0.3639  0.9641 -0.0849
   18MPD2    C1  280   3.529   4.530  11.930 -0.1303  0.5880 -0.2974
   18MPD2    C2  281   3.616   4.459  11.856 -0.4105  0.5005 -0.5810
   18MPD2    C3  282   3.730   4.517  11.818 -0.2603 -0.2846 -0.6969
   18MPD2    C4  283   3.758   4.650  11.854  0.0337 -0.1535 -0.3467
   18MPD2    C5  284   3.675   4.721  11.931 -0.0699 -0.1418 -0.2640
   18MPD2     H  285   3.592   4.355  11.835  1.2667 -0.0701  0.3146
   18MPD2    H1  286   3.851   4.692  11.816  0.4757 -1.1726 -0.3842
   18MPD2    H2  287   3.494   4.729  12.025 -2.7031 -0.7971 -1.1712
   18MPD2    H3  288   3.689   0.083  11.965  0.3787 -0.4926  0.6194
   18MPD2     N  289   3.821   4.470  11.716  0.2084 -0.0316  0.0232
   18MPD2    H5  290   3.888   4.532  11.673 -0.7166  0.0797 -1.2668
   18MPD2    N1  291   3.419   4.458  11.981 -0.1630 -0.5551 -0.0537
   18MPD2    H7  292   3.411   4.360  11.953 -1.0517  0.2796 -2.7937
   19TMC2    C1  293   0.915   4.492  14.077 -0.5891 -0.6476  1.3011
   19TMC2    C2  294   0.952   4.620  14.079 -0.3107 -0.6913 -0.6784
   19TMC2    C3  295   0.852   4.711  14.054  0.2405 -0.7744 -0.4458
   19TMC2    C4  296   0.786   4.457  14.060  0.6918  0.0228 -0.1431
   19TMC2    C5  297   0.694   4.551  14.047  0.1328 -0.6052 -0.3434
   19TMC2    C6  298   0.722   4.682  14.030 -0.4709  0.3285 -0.4078
   19TMC2     C  299   1.010   4.380  14.090 -0.1693 -0.1925  0.2601
   19TMC2     O  300   0.959   4.270  14.064  0.4037  0.6770 -0.1314
   19TMC2     H  301   1.056   4.648  14.070 -0.1873 -0.3557  1.7399
   19TMC2    H1  302   0.761   4.352  14.051  1.3276 -0.2719  1.5958
   19TMC2    H2  303   0.653   0.019  13.997 -0.2087  0.7061 -0.0829
   19TMC2    C7  304   0.559   4.506  14.059  0.1091 -0.4861 -0.6632
   19TMC2    C8  305   0.896   0.111  14.060 -0.2641 -0.5808 -0.4188
   19TMC2    O1  306   0.536   4.398  14.111  0.4144  0.0450  0.7764
   19TMC2    O2  307   1.015   0.150  14.049  0.0666 -0.3928 -0.4541
   19TMC2    O5  308   0.795   0.191  14.095  0.7370  0.4066  0.2899
   19TMC2    H5  309   0.708   0.150  14.078 -0.6826  2.1854  3.2497
   20MPD2     C  310   1.210   4.190  14.193  0.2674  0.1317  0.5577
   20MPD2    C1  311   1.205   4.321  14.226 -0.4885 -0.1819 -0.5498
   20MPD2    C2  312   1.262   4.362  14.339  1.2254  0.1698  0.3141
   20MPD2    C3  313   1.319   4.271  14.426  0.5491 -0.2719  0.4049
   20MPD2    C4  314   1.321   4.141  14.388  0.4976  0.2555  0.3753
   20MPD2    C5  315   1.266   4.090  14.272  0.3663  0.3127  0.6689
   20MPD2     H  316   1.250   4.464  14.373 -1.3804 -0.7582  2.1234
   20MPD2    H1  317   1.361   4.072  14.461 -0.6944 -0.1272  0.6764
   20MPD2    H2  318   1.157   4.152  14.107  1.2860 -2.5005  1.0823
   20MPD2    H3  319   1.282   3.988  14.240 -0.5744 -0.3057  2.1487
   20MPD2     N  320   1.374   4.306  14.552 -0.0943 -0.4695  0.2888
   20MPD2    H5  321   1.416   4.235  14.612 -1.2028  0.6649  2.3999
   20MPD2    N1  322   1.119   4.413  14.166 -0.1741 -0.0778 -0.0160
   20MPD2    H7  323   1.131   4.506  14.202  1.3131  0.0152 -0.7590
   21TMC2    C1  324   3.548   0.173  14.261 -0.3601 -0.3736 -0.2903
   21TMC2    C2  325   3.438   0.113  14.218  0.3148  0.0343 -0.1492
   21TMC2    C3  326   3.318   0.175  14.237  0.3899  0.6839 -0.3311
   21TMC2    C4  327   3.541   0.293  14.328  0.3008  0.6235  0.2499
   21TMC2    C5  328   3.416   0.354  14.328  0.0422  0.1490 -0.5837
   21TMC2    C6  329   3.293   0.288  14.305  1.1442  1.1315 -0.7352
   21TMC2     C  330   3.667   0.093  14.262 -0.0449 -0.1073  0.1087
   21TMC2     O  331   3.644   4.713  14.242 -0.3661  0.2897  0.4313
   21TMC2     H  332   3.448   0.029  14.151  1.9744  1.1524 -1.3211
   21TMC2    H1  333   3.623   0.338  14.384  1.1183  2.1904 -2.2231
   21TMC2    H2  334   3.196   0.317  14.346  1.4905 -1.7809  2.1497
   21TMC2    C7  335   3.409   0.478  14.405  0.4470 -0.7355  0.0376
   21TMC2    C8  336   3.201   0.119  14.176 -0.2253  0.2242 -0.0822
   21TMC2    O1  337   3.486   0.501  14.495 -0.7156  0.1850  0.4776
   21TMC2    O2  338   3.194   0.003  14.147  0.2762  0.0751 -0.3714
   21TMC2    O5  339   3.141   0.219  14.110 -0.3376  0.0277 -0.4124
   21TMC2    H5  340   3.179   0.309  14.113  0.8045 -0.4891  0.6636
   22MPD2     C  341   4.174   0.011  14.236  0.2357  0.0646  0.4820
   22MPD2    C1  342   4.065   4.667  14.231  0.9975  0.4272 -0.4409
   22MPD2    C2  343   3.938   4.722  14.233  1.0328 -0.3643  0.5706
   22MPD2    C3  344   3.910   0.117  14.256 -0.4807 -0.4296  0.0404
   22MPD2    C4  345   4.017   0.201  14.254  0.0759  0.2832 -0.8398
   22MPD2    C5  346   4.142   0.141  14.246 -0.4017  0.5068  0.7340
   22MPD2     H  347   3.853   4.654  14.239  1.1160 -0.4163  1.2186
   22MPD2    H1  348   4.018   0.309  14.262  0.7798  0.2474 -0.4809
   22MPD2    H2  349   4.276   4.714  14.240 -0.0490 -1.1334 -3.1533
   22MPD2    H3  350   4.229   0.206  14.247 -1.6099  2.1312  1.0531
   22MPD2     N  351   3.783   0.170  14.262  0.3393  0.2708 -0.0820
   22MPD2    H5  352   3.778   0.272  14.258  0.6761  0.2901 -0.0559
   22MPD2    N1  353   4.086   4.525  14.215 -0.1094  0.5168  0.5766
   22MPD2    H7  354   4.003   4.471  14.194 -0.6703  1.1130  1.2959
   23TMC2    C1  355   4.403   1.610  14.772 -0.5501 -0.1446 -0.2177
   23TMC2    C2  356   4.411   1.602  14.633 -1.1308 -0.0286 -0.7314
   23TMC2    C3  357   4.297   1.616  14.565  0.2056  0.1950  0.4185
   23TMC2    C4  358   4.292   1.631  14.833  1.2054  0.4338 -0.1476
   23TMC2    C5  359   4.178   1.656  14.761  0.1013 -0.5312  0.6688
   23TMC2    C6  360   4.178   1.642  14.625 -0.8182 -0.5159 -0.2645
   23TMC2     C  361   4.526   1.596  14.849  0.2479  0.5159  0.6877
   23TMC2     O  362   4.513   1.598  14.972  0.7426  0.3570 -0.4520
   23TMC2     H  363   4.509   1.588  14.589 -0.7504 -1.0642  0.4602
   23TMC2    H1  364   4.283   1.649  14.939  0.8888 -1.7457  0.1879
   23TMC2    H2  365   4.088   1.653  14.565  0.7244 -1.0979 -2.7289
   23TMC2    C7  366   4.053   1.647  14.836  0.0720  0.4271  0.3872
   23TMC2    C8  367   4.309   1.573  14.430  0.2596 -0.1535 -0.5406
   23TMC2    O1  368   4.063   1.643  14.958  0.0508  0.8380  0.2888
   23TMC2    O2  369   4.394   1.500  14.389 -0.2140 -0.0970 -0.1542
   23TMC2    O5  370   4.235   1.653  14.348  0.1041 -0.2884  0.4141
   23TMC2    H5  371   4.166   1.709  14.391  0.1166  0.5123 -0.6192
   24MPD2     C  372   0.283   1.427  14.905 -0.8505 -0.2907  0.2059
   24MPD2    C1  373   0.188   1.465  14.998 -1.0856  0.3472  0.1191
   24MPD2    C2  374   0.068   1.525  14.961 -0.1448 -0.9749 -0.1079
   24MPD2    C3  375   0.038   1.556  14.829  0.2156  0.8706  0.0490
   24MPD2    C4  376   0.138   1.522  14.737 -0.7696 -0.0015 -0.5186
   24MPD2    C5  377   0.257   1.465  14.781  0.1989 -0.9802  0.8930
   24MPD2     H  378   0.002   1.551  15.042  1.3233  2.7061 -0.0792
   24MPD2    H1  379   0.134   1.548  14.632  2.8830 -1.5498 -1.0537
   24MPD2    H2  380   0.379   1.377  14.919 -1.3574 -1.5926 -0.9187
   24MPD2    H3  381   0.335   1.451  14.708  0.5995 -0.9067  1.3112
   24MPD2     N  382   4.649   1.591  14.781  0.4805  1.1944 -0.4816
   24MPD2    H5  383   4.650   1.587  14.680 -0.2438 -1.5114 -0.3658
   24MPD2    N1  384   0.206   1.432  15.135  0.7080  0.6008 -0.6457
   24MPD2    H7  385   0.133   1.455  15.202 -0.5645 -1.7355 -1.2636
   25TMC2    C1  386   3.613   3.748  11.330  0.3991  0.0945  0.1544
   25TMC2    C2  387   3.650   3.866  11.272 -0.6139 -0.1361 -0.6732
   25TMC2    C3  388   3.712   3.959  11.351 -0.4932  0.0258 -0.4148
   25TMC2    C4  389   3.619   3.727  11.471  0.8162 -0.4529  0.5769
   25TMC2    C5  390   3.665   3.831  11.548 -0.3297  0.3772  0.4838
   25TMC2    C6  391   3.715   3.944  11.484  0.1827  0.0297 -0.1845
   25TMC2     C  392   3.599   3.638  11.233  0.1957 -0.3304  0.4727
   25TMC2     O  393   3.585   3.664  11.114  0.1926 -0.4245 -0.0310
   25TMC2     H  394   3.645   3.873  11.164 -0.0685 -2.1257 -0.8230
   25TMC2    H1  395   3.595   3.630  11.512  0.5267 -0.5197  0.2500
   25TMC2    H2  396   3.763   4.021  11.542  1.0259 -1.3253  0.8923
   25TMC2    C7  397   3.669   3.813  11.687 -0.1134  0.0251  0.0567
   25TMC2    C8  398   3.733   4.089  11.286  0.2324 -0.0759 -0.1770
   25TMC2    O1  399   3.588   3.731  11.723 -0.9947  0.1517 -0.5928
   25TMC2    O2  400   3.808   4.116  11.195 -0.1029  0.5932 -0.2056
   25TMC2    O5  401   3.680   4.175  11.377  0.3889 -0.1675 -0.2740
   25TMC2    H5  402   3.620   4.120  11.431 -0.7122  1.0716 -0.2580
   26MPD2     C  403   3.610   3.145  11.117  0.1023 -0.0352  0.1086
   26MPD2    C1  404   3.648   3.156  11.250 -1.1227 -0.2032 -0.0695
   26MPD2    C2  405   3.641   3.282  11.305 -0.1092 -0.1236 -0.1301
   26MPD2    C3  406   3.606   3.394  11.230 -0.4755  0.5487 -0.5791
   26MPD2    C4  407   3.577   3.378  11.092 -0.3779  0.3581 -0.0480
   26MPD2    C5  408   3.587   3.256  11.034 -0.1152  0.2663  0.5200
   26MPD2     H  409   3.660   3.300  11.411 -3.3159  3.5919 -0.2123
   26MPD2    H1  410   3.557   3.463  11.028  1.4563  0.6682 -0.2308
   26MPD2    H2  411   3.591   3.048  11.073 -0.7757  0.3878 -0.4485
   26MPD2    H3  412   3.565   3.240  10.930  0.7269  1.2571  0.1851
   26MPD2     N  413   3.601   3.518  11.294  0.0879 -0.4447  0.2248
   26MPD2    H5  414   3.614   3.520  11.395  0.2293  0.3576  0.1908
   26MPD2    N1  415   3.686   3.044  11.328  0.2003  0.4277  0.2977
   26MPD2    H7  416   3.702   2.954  11.283 -0.6409  0.0264  0.8131
   27TMC2    C1  417   2.216   1.115  11.968 -0.6835 -1.0556  0.8480
   27TMC2    C2  418   2.229   1.170  11.842 -0.6678 -0.5282  0.0950
   27TMC2    C3  419   2.277   1.298  11.830  0.5960 -0.3088 -0.8250
   27TMC2    C4  420   2.290   1.160  12.071 -0.8711 -0.2148 -0.4688
   27TMC2    C5  421   2.357   1.276  12.043  0.0693  0.8339 -1.2008
   27TMC2    C6  422   2.360   1.338  11.930 -0.5462  0.3871  0.7879
   27TMC2     C  423   2.161   0.984  11.986 -0.0831 -0.6661 -0.4126
   27TMC2     O  424   2.132   0.919  11.887 -0.5128  0.2793  0.0706
   27TMC2     H  425   2.181   1.116  11.762 -0.4198  0.6688 -0.8637
   27TMC2    H1  426   2.290   1.117  12.170  1.4735  2.3165  0.6337
   27TMC2    H2  427   2.416   1.431  11.926  0.1951 -0.1357 -0.5978
   27TMC2    C7  428   2.426   1.321  12.165  1.0472  0.6498  0.0121
   27TMC2    C8  429   2.279   1.357  11.699 -0.3412 -0.6530  0.7505
   27TMC2    O1  430   2.400   1.274  12.275 -0.5041 -0.4281  0.2480
   27TMC2    O2  431   2.246   1.314  11.587  0.4554 -0.5853 -0.5779
   27TMC2    O5  432   2.325   1.479  11.717 -0.2723 -0.0651  0.1683
   27TMC2    H5  433   2.301   1.506  11.808 -1.7946  0.5817 -0.4226
   28MPD2     C  434   2.090   0.573  12.292  0.7980  1.0511  0.7525
   28MPD2    C1  435   2.075   0.692  12.367  0.2602  0.0960  0.8332
   28MPD2    C2  436   2.090   0.818  12.307 -0.1204 -0.4380  0.7200
   28MPD2    C3  437   2.112   0.824  12.172  0.3229 -0.2159 -0.6125
   28MPD2    C4  438   2.124   0.710  12.093  0.2158  0.1643  0.2843
   28MPD2    C5  439   2.116   0.588  12.155 -0.4262  0.2918 -0.2466
   28MPD2     H  440   2.084   0.908  12.367  1.3799  0.4445 -0.4404
   28MPD2    H1  441   2.135   0.706  11.985  0.2282 -0.7699  0.3198
   28MPD2    H2  442   2.066   0.476  12.336 -2.8010  0.6450 -2.1172
   28MPD2    H3  443   2.134   0.501  12.093 -0.3715  0.4330 -0.4289
   28MPD2     N  444   2.135   0.953  12.114 -0.1306 -0.1827  0.1281
   28MPD2    H5  445   2.130   1.029  12.180 -0.5649  0.8656 -1.1039
   28MPD2    N1  446   2.038   0.687  12.506 -0.3897  0.3156  0.5812
   28MPD2    H7  447   1.988   0.604  12.536  1.1123 -0.8035 -0.0619
   29TMC2    C1  448   2.102   3.324  14.155 -0.6859 -0.0048 -1.0352
   29TMC2    C2  449   2.211   3.246  14.169 -0.2378 -0.5921  0.1866
   29TMC2    C3  450   2.312   3.286  14.256 -0.2114  0.1137 -0.1549
   29TMC2    C4  451   2.088   3.437  14.230  0.1912  0.1570  0.1642
   29TMC2    C5  452   2.187   3.466  14.327  0.6384  0.3046 -0.0720
   29TMC2    C6  453   2.303   3.394  14.339  0.0331  1.1217 -0.0876
   29TMC2     C  454   1.989   3.272  14.081 -0.0092  0.6631 -0.1449
   29TMC2     O  455   1.926   3.346  14.011 -0.0334  0.1520 -1.0452
   29TMC2     H  456   2.240   3.171  14.096  2.5803  1.3096 -0.6314
   29TMC2    H1  457   1.990   3.483  14.226 -0.4068 -1.0458  0.9426
   29TMC2    H2  458   2.384   3.409  14.408  1.3270 -0.3055 -1.2790
   29TMC2    C7  459   2.161   3.590  14.396  0.0328  1.2265 -0.4076
   29TMC2    C8  460   2.429   3.205  14.278 -0.0578  0.5508  0.1041
   29TMC2    O1  461   2.046   3.622  14.404 -0.5564  0.6666  0.4232
   29TMC2    O2  462   2.535   3.247  14.326  0.5483 -0.1053  0.3143
   29TMC2    O5  463   2.381   3.082  14.282 -0.2614  0.5914 -0.6356
   29TMC2    H5  464   2.285   3.083  14.259 -0.1100  2.3022 -1.1440
   30MPD2     C  465   1.733   2.869  13.900 -0.5042  0.2808 -0.3920
   30MPD2    C1  466   1.841   2.826  13.975  1.0399  0.5694 -0.1563
   30MPD2    C2  467   1.922   2.917  14.040 -0.3686  0.2507  0.8537
   30MPD2    C3  468   1.893   3.048  14.021  0.4956  0.2348 -0.0549
   30MPD2    C4  469   1.792   3.095  13.937  0.4784  0.0080 -0.4121
   30MPD2    C5  470   1.706   2.999  13.890 -0.4039  0.6812 -0.4598
   30MPD2     H  471   1.999   2.891  14.112 -0.1361  0.1612  0.5715
   30MPD2    H1  472   1.776   3.199  13.912  0.1548 -0.0116 -0.2955
   30MPD2    H2  473   1.661   2.800  13.858 -0.9504 -0.0018  0.8341
   30MPD2    H3  474   1.623   3.031  13.827 -0.7561 -1.5545 -1.1339
   30MPD2     N  475   1.983   3.137  14.085 -0.9829  0.8181  0.5334
   30MPD2    H5  476   2.041   3.090  14.154 -2.0833 -0.6893  0.4121
   30MPD2    N1  477   1.870   2.688  14.000 -0.4817  0.3864 -0.3974
   30MPD2    H7  478   1.941   2.668  14.070 -1.5116 -2.5618 -0.1878
   31TMC2    C1  479   4.133   2.327  15.060 -0.4632 -0.2146 -0.1737
   31TMC2    C2  480   4.004   2.345  15.017 -0.3134  0.0765  0.0866
   31TMC2    C3  481   3.912   2.288  15.103 -0.6222  0.7268 -0.0036
   31TMC2    C4  482   4.172   2.261  15.171  0.3292 -0.7528 -0.4415
   31TMC2    C5  483   4.075   2.221  15.255  1.0867  0.1145 -0.0484
   31TMC2    C6  484   3.941   2.230  15.226  0.5714  0.6501  0.3701
   31TMC2     C  485   4.240   2.382  14.979  0.6733 -0.2190 -0.1007
   31TMC2     O  486   4.212   2.481  14.909  0.3962  0.2771  0.1297
   31TMC2     H  487   3.982   2.378  14.916  1.0339  2.8293  0.6920
   31TMC2    H1  488   4.273   2.264  15.209 -0.0004  0.1302  0.3611
   31TMC2    H2  489   3.859   2.208  15.294 -0.1974  1.7333 -0.2100
   31TMC2    C7  490   4.121   2.226  15.396  0.4167 -0.2994  0.7137
   31TMC2    C8  491   3.776   2.322  15.101  0.1137 -0.3740  0.5815
   31TMC2    O1  492   4.242   2.226  15.422  0.3038  0.1310 -0.1886
   31TMC2    O2  493   3.702   2.339  15.201  0.1553 -0.4929  0.3319
   31TMC2    O5  494   3.762   2.403  14.999 -0.4272 -0.0139 -0.0254
   31TMC2    H5  495   3.810   2.380  14.917  0.5486 -2.2804  1.1584
   32MPD2     C  496   4.738   2.373  14.850  0.1562  0.3355 -0.5697
   32MPD2    C1  497   4.645   2.464  14.804  0.0545 -0.2135  0.2782
   32MPD2    C2  498   4.511   2.448  14.839 -0.3591  0.7396 -0.0860
   32MPD2    C3  499   4.483   2.341  14.923 -0.2467  0.5309 -0.0555
   32MPD2    C4  500   4.576   2.246  14.965  0.0312  0.3074  0.7462
   32MPD2    C5  501   4.704   2.261  14.926  0.9348  0.8881  0.3047
   32MPD2     H  502   4.433   2.521  14.824 -1.7032 -0.4153  1.3686
   32MPD2    H1  503   4.566   2.164  15.035 -1.3700 -1.4271 -1.4679
   32MPD2    H2  504   0.102   2.383  14.819 -0.0023  1.0292 -0.8760
   32MPD2    H3  505   0.039   2.185  14.950 -0.8604 -1.2383 -0.9301
   32MPD2     N  506   4.354   2.310  14.982  0.0601  0.4687 -0.2263
   32MPD2    H5  507   4.341   2.217  15.020 -1.3863  0.0454 -1.7486
   32MPD2    N1  508   4.698   2.568  14.727  0.0162  0.6078 -0.1049
   32MPD2    H7  509   0.059   2.573  14.723 -0.1488  1.9262 -2.1777
   33TMC2    C1  510   4.522   0.028  10.849 -0.2117 -0.0362  0.5969
   33TMC2    C2  511   4.626   4.676  10.833  0.6450  0.8685 -0.3189
   33TMC2    C3  512   4.739   4.718  10.764 -0.3292  0.4246  0.2607
   33TMC2    C4  513   4.521   0.149  10.788 -0.2520  0.0285 -0.4229
   33TMC2    C5  514   4.627   0.179  10.702  0.3731  0.6176  0.5985
   33TMC2    C6  515   0.001   0.094  10.688 -0.1519 -0.6898  0.0105
   33TMC2     C  516   4.410   4.728  10.930 -0.3259  0.0883  0.2454
   33TMC2     O  517   4.402   4.603  10.948 -0.9283  0.3224  0.8715
   33TMC2     H  518   4.619   4.574  10.867 -1.5688  1.4156  0.9095
   33TMC2    H1  519   4.430   0.204  10.763  0.1988  0.2662 -1.5452
   33TMC2    H2  520   0.083   0.122  10.623  0.3238  0.7273  1.2028
   33TMC2    C7  521   4.641   0.302  10.633 -0.3185  0.1100 -0.5578
   33TMC2    C8  522   0.093   4.621  10.706  0.5556  0.6830  0.2535
   33TMC2    O1  523   4.713   0.304  10.534  0.7845  0.0030 -0.1116
   33TMC2    O2  524   0.096   4.595  10.587  0.0636 -0.1340 -0.3988
   33TMC2    O5  525   0.117   4.532  10.800  0.3373 -0.2681  0.4567
   33TMC2    H5  526   0.124   4.573  10.889  0.2947  1.9262 -0.5473
   34MPD2     C  527   4.049   0.097  11.277  0.0648  0.1027  0.3712
   34MPD2    C1  528   4.093   4.713  11.237 -0.0697 -0.0808 -0.0512
   34MPD2    C2  529   4.180   4.703  11.132  0.1370  0.7665  0.3317
   34MPD2    C3  530   4.224   0.085  11.074 -0.7137  0.2908 -0.2527
   34MPD2    C4  531   4.181   0.209  11.114 -0.2265  0.1562 -0.2897
   34MPD2    C5  532   4.086   0.207  11.216 -0.2493 -0.2624  0.1837
   34MPD2     H  533   4.228   4.606  11.115  0.5840  1.0290  0.0781
   34MPD2    H1  534   4.214   0.302  11.069 -2.2161  1.1619  0.3188
   34MPD2    H2  535   3.988   0.101  11.367  2.3332  0.7567  1.8697
   34MPD2    H3  536   4.038   0.300  11.245 -1.7678 -1.5046  1.6934
   34MPD2     N  537   4.336   0.096  10.983  0.2238 -0.6782  0.1448
   34MPD2    H5  538   4.363   0.187  10.947  0.2283 -0.3495  0.9862
   34MPD2    N1  539   4.041   4.601  11.299  1.0462 -0.7334  0.0289
   34MPD2    H7  540   3.993   4.602  11.389 -1.9295 -0.5512 -1.5722
   35TMC2    C1  541   1.733   1.112  11.263  0.5302  0.2311  0.5340
   35TMC2    C2  542   1.615   1.129  11.210  0.0055 -0.5808  0.6430
   35TMC2    C3  543   1.539   1.021  11.182 -0.3686 -0.8951 -0.5199
   35TMC2    C4  544   1.786   0.991  11.287 -0.4320  0.5117  0.4414
   35TMC2    C5  545   1.714   0.882  11.248 -1.1865  0.7338 -0.5634
   35TMC2    C6  546   1.582   0.895  11.195 -0.7589  0.3375 -0.2412
   35TMC2     C  547   1.783   1.232  11.332 -0.0060  0.1312 -0.3594
   35TMC2     O  548   1.756   1.341  11.281 -0.8157 -0.0459  0.9153
   35TMC2     H  549   1.572   1.229  11.214 -1.5467 -1.2769  1.2592
   35TMC2    H1  550   1.885   0.979  11.328 -0.9659  0.6049  1.7364
   35TMC2    H2  551   1.539   0.800  11.164 -0.9293  1.4203 -3.2655
   35TMC2    C7  552   1.754   0.739  11.276  0.6862  0.2991  0.2104
   35TMC2    C8  553   1.410   1.047  11.122  0.4974  0.9193  0.0330
   35TMC2    O1  554   1.693   0.650  11.217 -0.6944 -0.3200  0.2424
   35TMC2    O2  555   1.395   1.124  11.032 -0.3414 -0.4776 -0.1181
   35TMC2    O5  556   1.350   0.932  11.112 -0.0890  0.3231 -0.5399
   35TMC2    H5  557   1.346   0.892  11.201  2.4645  2.0186  0.3303
   36MPD2     C  558   1.938   1.484  11.735 -0.3354  0.0280  1.3669
   36MPD2    C1  559   1.899   1.361  11.781  0.1137 -0.0859  0.1454
   36MPD2    C2  560   1.867   1.262  11.686 -0.2944 -0.8879  0.1111
   36MPD2    C3  561   1.869   1.300  11.551 -0.6409 -0.1778  0.5154
   36MPD2    C4  562   1.921   1.425  11.507 -0.0525 -0.3384  0.2412
   36MPD2    C5  563   1.959   1.512  11.602  0.6866  0.5901  0.3565
   36MPD2     H  564   1.828   1.163  11.706 -2.3186 -0.0247  0.3663
   36MPD2    H1  565   1.934   1.459  11.404 -0.7580 -0.4326  0.1245
   36MPD2    H2  566   1.958   1.566  11.803  0.4075 -1.1263  2.5656
   36MPD2    H3  567   1.983   1.612  11.567  1.5740 -0.5692 -2.3848
   36MPD2     N  568   1.817   1.204  11.461 -0.1613  0.4946  0.4447
   36MPD2    H5  569   1.799   1.112  11.500  1.6445 -0.0551 -0.0456
   36MPD2    N1  570   1.875   1.338  11.919  0.1057  0.5863 -0.2520
   36MPD2    H7  571   1.891   1.412  11.986  1.6055  1.1145 -1.1962
   37TMC2    C1  572   3.274   1.546  12.180 -0.2574 -0.7586  0.0082
   37TMC2    C2  573   3.172   1.469  12.135 -0.1382 -0.4614  0.1227
   37TMC2    C3  574   3.129   1.490  12.005  0.3519  0.2565 -0.6292
   37TMC2    C4  575   3.344   1.635  12.102 -0.0290  0.4502 -0.1184
   37TMC2    C5  576   3.299   1.649  11.973 -0.2056  0.8588  0.2968
   37TMC2    C6  577   3.183   1.585  11.925  0.4531  0.6791 -0.1760
   37TMC2     C  578   3.283   1.550  12.317  0.1735 -0.1626  0.1385
   37TMC2     O  579   3.177   1.529  12.376  0.4305  0.5643 -0.3855
   37TMC2     H  580   3.116   1.400  12.197 -1.2237 -0.3875 -0.7669
   37TMC2    H1  581   3.441   1.676  12.126  0.1346 -1.4692  2.4429
   37TMC2    H2  582   3.156   1.583  11.820  0.4442 -0.3393 -0.1546
   37TMC2    C7  583   3.387   1.726  11.886  0.2292 -0.2454 -0.2008
   37TMC2    C8  584   3.011   1.428  11.953  0.3399 -0.4405  0.3786
   37TMC2    O1  585   3.507   1.730  11.916 -1.0114  0.0629  0.4430
   37TMC2    O2  586   2.948   1.461  11.856  0.4898  0.6757 -0.3456
   37TMC2    O5  587   3.037   1.302  11.986  0.4417 -0.6415  0.1312
   37TMC2    H5  588   3.104   1.295  12.058  1.0585  0.5201 -0.3148
   38MPD2     C  589   3.519   1.572  12.773 -0.5220 -0.4033  0.1304
   38MPD2    C1  590   3.616   1.531  12.683 -0.1679 -0.6414 -0.9019
   38MPD2    C2  591   3.580   1.522  12.545  0.3267 -0.5727 -0.4587
   38MPD2    C3  592   3.445   1.543  12.504  0.3842  0.3442  0.0516
   38MPD2    C4  593   3.348   1.571  12.598 -0.0930  0.0768  0.7673
   38MPD2    C5  594   3.389   1.574  12.729 -0.4646 -0.1245 -0.3529
   38MPD2     H  595   3.653   1.522  12.465  0.6109 -1.1981 -0.1972
   38MPD2    H1  596   3.240   1.583  12.588  0.2308 -1.0072 -3.7067
   38MPD2    H2  597   3.525   1.574  12.881 -2.4733  0.6891  0.2260
   38MPD2    H3  598   3.311   1.603  12.799 -1.0013 -1.5774 -0.3475
   38MPD2     N  599   3.410   1.534  12.371 -0.5864 -0.1829  0.7640
   38MPD2    H5  600   3.488   1.532  12.307 -0.0485 -1.2656  1.4505
   38MPD2    N1  601   3.752   1.532  12.719 -0.8430 -0.1132 -0.0192
   38MPD2    H7  602   3.816   1.526  12.641  0.9612  0.4680  1.4073
   39TMC2    C1  603   1.811   2.625   1.506 -0.8843 -0.4276  0.6652
   39TMC2    C2  604   1.835   2.504   1.559 -0.0889  0.3289 -0.1860
   39TMC2    C3  605   1.969   2.469   1.568 -0.3174  0.7454 -0.4665
   39TMC2    C4  606   1.911   2.703   1.470  0.6636  0.2039 -0.6344
   39TMC2    C5  607   2.039   2.665   1.486  0.6935  0.5611 -0.7685
   39TMC2    C6  608   2.071   2.540   1.522  0.3771 -0.8835  0.2645
   39TMC2     C  609   1.681   2.663   1.480  0.3308  0.0685  0.0497
   39TMC2     O  610   1.604   2.576   1.431 -0.4462  0.2341 -0.3602
   39TMC2     H  611   1.749   2.455   1.603  1.2674 -1.1550  0.8105
   39TMC2    H1  612   1.885   2.803   1.438 -0.3518 -0.7083 -2.7025
   39TMC2    H2  613   2.173   2.503   1.526  0.8718  0.3397 -1.1519
   39TMC2    C7  614   2.143   2.758   1.449  0.4585 -0.3104 -0.3600
   39TMC2    C8  615   2.009   2.335   1.623 -0.0715  0.5305 -0.3474
   39TMC2    O1  616   2.097   2.866   1.419 -0.4090  0.1515  0.0839
   39TMC2    O2  617   2.126   2.314   1.646 -0.1421  0.5822 -0.1128
   39TMC2    O5  618   1.921   2.251   1.566 -0.1274  0.2687 -0.0870
   39TMC2    H5  619   1.827   2.281   1.564  0.1562  1.2793  1.8616
   40MPD2     C  620   1.567   3.001   1.549  0.0218  0.7742  0.5723
   40MPD2    C1  621   1.548   2.867   1.510 -0.0904  0.1879  0.0830
   40MPD2    C2  622   1.429   2.823   1.467 -0.2634 -0.2469  0.2725
   40MPD2    C3  623   1.321   2.906   1.471 -0.2945 -0.2289  0.0743
   40MPD2    C4  624   1.334   3.037   1.502 -0.8933  1.2933  0.1033
   40MPD2    C5  625   1.457   3.085   1.544  0.1315  0.4174  0.4467
   40MPD2     H  626   1.417   2.718   1.445  0.8391 -0.2605 -0.2452
   40MPD2    H1  627   1.246   3.101   1.496 -0.2833  2.0987 -0.2787
   40MPD2    H2  628   1.662   3.039   1.582 -0.1351  1.6616  0.0078
   40MPD2    H3  629   1.456   3.189   1.575 -0.2758  0.2447  1.0187
   40MPD2     N  630   1.187   2.867   1.442 -0.2438  0.5098  0.1796
   40MPD2    H5  631   1.117   2.939   1.454 -1.7414 -1.0225  0.7089
   40MPD2    N1  632   1.658   2.789   1.521 -0.6130  0.0747  0.3637
   40MPD2    H7  633   1.738   2.844   1.549  0.5416 -0.3573 -2.0780
   41TMC2    C1  634   0.594   1.135  14.266  0.5688 -0.2937 -0.3394
   41TMC2    C2  635   0.570   1.145  14.396  0.0061  0.3382  0.2505
   41TMC2    C3  636   0.678   1.178  14.477  0.8446 -0.5153 -0.4436
   41TMC2    C4  637   0.716   1.172  14.209  0.1426  0.6177  0.2425
   41TMC2    C5  638   0.825   1.175  14.293 -0.1638  0.8661 -0.0661
   41TMC2    C6  639   0.802   1.189  14.425 -1.3475 -0.1266  0.2888
   41TMC2     C  640   0.481   1.178  14.183 -0.3926 -0.5234 -0.1828
   41TMC2     O  641   0.388   1.105  14.166  0.0340 -0.7337  0.2909
   41TMC2     H  642   0.469   1.127  14.430  0.0179  0.0551  0.1336
   41TMC2    H1  643   0.729   1.165  14.102 -0.2928  0.6467  0.1881
   41TMC2    H2  644   0.882   1.197  14.498  0.2902  1.4061 -1.6512
   41TMC2    C7  645   0.956   1.203  14.236  0.1945 -0.6092 -0.6076
   41TMC2    C8  646   0.663   1.201  14.620  0.5796  0.1382  0.4083
   41TMC2    O1  647   1.049   1.193  14.314  0.2137 -0.0962 -0.8143
   41TMC2    O2  648   0.758   1.193  14.696  0.0819  0.1581  0.0167
   41TMC2    O5  649   0.540   1.246  14.667  0.5360  0.7145  0.1829
   41TMC2    H5  650   0.492   1.277  14.587 -1.0513 -1.8092  0.1591
   42MPD2     C  651   0.272   1.344  14.045 -0.4660  0.2279  0.0120
   42MPD2    C1  652   0.391   1.394  14.091  0.2479 -0.4687 -0.1586
   42MPD2    C2  653   0.411   1.533  14.078 -0.4292 -0.3951 -0.3981
   42MPD2    C3  654   0.309   1.606  14.030  0.3597 -0.5954  0.2424
   42MPD2    C4  655   0.188   1.558  13.995  0.3946  0.7621 -0.3509
   42MPD2    C5  656   0.175   1.425  13.999  0.0699  0.0726 -0.2726
   42MPD2     H  657   0.505   1.566  14.119 -1.2406 -0.1805  1.3077
   42MPD2    H1  658   0.119   1.620  13.939  2.1884  1.3373 -1.9578
   42MPD2    H2  659   0.245   1.239  14.040 -1.0430  0.3524  0.4875
   42MPD2    H3  660   0.085   1.379  13.960  1.0930 -0.8462 -1.5538
   42MPD2     N  661   0.319   1.750  14.017 -0.6259 -0.1392  0.2540
   42MPD2    H5  662   0.239   1.799  13.979 -0.9321  1.4813  2.9884
   42MPD2    N1  663   0.492   1.314  14.155  0.6237  0.0600 -0.1651
   42MPD2    H7  664   0.576   1.364  14.183  0.3453  0.7384 -0.5610
   43TMC2    C1  665   1.679   4.322   0.868  0.2898  0.3410 -0.6303
   43TMC2    C2  666   1.580   4.344   0.959 -0.0860  0.1173  0.4072
   43TMC2    C3  667   1.593   4.451   1.046 -0.1257  0.1540 -0.2127
   43TMC2    C4  668   1.790   4.402   0.870 -0.3714 -0.1845  0.3798
   43TMC2    C5  669   1.802   4.503   0.959 -0.0365  0.0801 -0.1779
   43TMC2    C6  670   1.703   4.526   1.051 -0.3218  0.2586 -0.1004
   43TMC2     C  671   1.678   4.206   0.779 -0.0381 -0.6700 -0.0807
   43TMC2     O  672   1.783   4.171   0.723  0.3564 -0.3905  0.1136
   43TMC2     H  673   1.488   4.287   0.965  0.4888 -0.6015  2.4334
   43TMC2    H1  674   1.860   4.392   0.789  0.9935 -0.0514  1.5377
   43TMC2    H2  675   1.712   4.606   1.124  1.1651 -0.5075  0.5464
   43TMC2    C7  676   1.927   4.582   0.968  0.2852 -0.2331  0.0279
   43TMC2    C8  677   1.498   4.444   1.155 -0.3817 -0.3837  1.0479
   43TMC2    O1  678   1.983   4.609   0.862  0.1144 -0.1224 -0.2740
   43TMC2    O2  679   1.390   4.402   1.135  0.2284  0.3705 -0.4200
   43TMC2    O5  680   1.595   4.403   1.244 -0.0755 -0.2598  0.4771
   43TMC2    H5  681   1.689   4.427   1.237 -0.7466  3.1580  3.1581
   44MPD2     C  682   1.468   3.738   0.690  0.4624  0.2681 -0.4685
   44MPD2    C1  683   1.600   3.787   0.670 -0.0455  0.2540  0.5055
   44MPD2    C2  684   1.631   3.919   0.705  0.6010  0.3487 -0.7829
   44MPD2    C3  685   1.534   4.001   0.757 -1.2174 -0.3299 -0.8381
   44MPD2    C4  686   1.400   3.953   0.767  0.2617 -0.2593 -0.3594
   44MPD2    C5  687   1.369   3.821   0.739  0.5382 -0.4040  0.0132
   44MPD2     H  688   1.728   3.961   0.683  0.9152 -0.1309 -0.3154
   44MPD2    H1  689   1.321   4.013   0.808 -0.3394 -1.3066  0.0130
   44MPD2    H2  690   1.434   3.641   0.656  1.3605 -0.5601  1.0148
   44MPD2    H3  691   1.272   3.779   0.764 -1.1161  2.4965 -1.5292
   44MPD2     N  692   1.558   4.135   0.796  0.0614  0.4658  0.7522
   44MPD2    H5  693   1.476   4.173   0.841 -0.5669 -1.7540  1.5084
   44MPD2    N1  694   1.707   3.715   0.610 -0.1810 -0.3781  0.7639
   44MPD2    H7  695   1.792   3.767   0.591 -0.6397  0.5621  1.3025
   45TMC2    C1  696   3.189   1.233  10.285  0.1198 -0.3805 -0.8543
   45TMC2    C2  697   3.293   1.171  10.353  0.4080 -0.7886 -0.3150
   45TMC2    C3  698   3.367   1.250  10.439 -0.5297  0.4003 -0.4440
   45TMC2    C4  699   3.148   1.363  10.315  0.3523  0.2685 -0.1918
   45TMC2    C5  700   3.229   1.437  10.403 -0.3035  0.0536  0.4434
   45TMC2    C6  701   3.330   1.377  10.471  0.2043 -0.2993 -0.0253
   45TMC2     C  702   3.112   1.147  10.197  0.5285  0.5704 -0.1256
   45TMC2     O  703   3.148   1.034  10.182 -0.5282  0.1920  0.0463
   45TMC2     H  704   3.326   1.072  10.324  2.2825 -0.3333  0.2686
   45TMC2    H1  705   3.056   1.407  10.277 -0.9327 -1.8621  0.3936
   45TMC2    H2  706   3.395   1.449  10.519 -1.1546 -0.0650  1.5038
   45TMC2    C7  707   3.206   1.582  10.415 -0.4145  0.3267 -0.2589
   45TMC2    C8  708   3.495   1.201  10.477 -0.5355 -0.5399 -0.0341
   45TMC2    O1  709   3.270   1.640  10.501  0.2507 -0.2361  0.2443
   45TMC2    O2  710   3.556   1.102  10.433  0.2805 -0.6208  0.3467
   45TMC2    O5  711   3.526   1.269  10.587  0.0355 -0.3584  0.0150
   45TMC2    H5  712   3.447   1.298  10.636 -1.5789 -0.6735 -2.4219
   46MPD2     C  713   2.908   1.031  10.003 -0.3407 -0.1346 -0.6751
   46MPD2    C1  714   2.927   1.169  10.025  0.2932  0.6329  0.6644
   46MPD2    C2  715   2.850   1.259   9.949 -0.1818  0.4899 -0.3867
   46MPD2    C3  716   2.759   1.217   9.869  0.1702 -0.1445 -0.3575
   46MPD2    C4  717   2.755   1.087   9.832 -0.3015 -0.3610  0.2508
   46MPD2    C5  718   2.826   0.997   9.904 -0.1633 -0.3036  0.3009
   46MPD2     H  719   2.867   1.365   9.964 -0.4491  0.3937  0.6466
   46MPD2    H1  720   2.691   1.040   9.758  0.6083  1.6369 -1.7710
   46MPD2    H2  721   2.950   0.953  10.066  2.1885  1.4600 -0.4047
   46MPD2    H3  722   2.824   0.891   9.883 -0.2222 -0.4501  1.0394
   46MPD2     N  723   2.679   1.317   9.807  0.1629  0.0892 -0.6614
   46MPD2    H5  724   2.708   1.410   9.833 -0.4892 -0.4008  1.7881
   46MPD2    N1  725   3.015   1.217  10.127  0.3356 -0.1994  0.2390
   46MPD2    H7  726   3.016   1.318  10.131  0.1261 -0.0061 -3.6864
   47TMC2    C1  727   4.678   2.648   9.594  0.5435 -0.6736  0.4958
   47TMC2    C2  728   4.656   2.568   9.483 -0.3824 -0.6121  0.1395
   47TMC2    C3  729   4.546   2.588   9.407  0.0315  0.6490 -0.5750
   47TMC2    C4  730   4.588   2.745   9.633 -0.3604 -0.5669 -0.0983
   47TMC2    C5  731   4.477   2.762   9.552  0.2056 -0.8581  0.2116
   47TMC2    C6  732   4.450   2.677   9.443  0.7398 -0.5209 -0.4633
   47TMC2     C  733   0.065   2.650   9.664 -0.4797 -1.0650  0.2500
   47TMC2     O  734   0.094   2.746   9.732  0.1224 -0.0056  0.3925
   47TMC2     H  735   4.725   2.493   9.446 -2.1662 -1.6111 -1.1795
   47TMC2    H1  736   4.594   2.805   9.723 -0.0496 -0.7396 -0.0057
   47TMC2    H2  737   4.364   2.680   9.377  0.5758  0.9960 -0.1934
   47TMC2    C7  738   4.365   2.832   9.601  0.3278 -0.3049 -0.1617
   47TMC2    C8  739   4.528   2.539   9.274 -0.2708 -0.3206 -0.2420
   47TMC2    O1  740   4.366   2.868   9.719  0.5155  0.3234 -0.5305
   47TMC2    O2  741   4.602   2.566   9.180  0.0188 -0.1193  0.2430
   47TMC2    O5  742   4.423   2.464   9.273 -0.1783  0.4185 -0.1882
   47TMC2    H5  743   4.387   2.454   9.364  0.3840 -0.3918 -0.0574
   48MPD2     C  744   0.359   2.614   9.745 -0.1814 -0.3538 -0.5003
   48MPD2    C1  745   0.267   2.509   9.711 -0.1263  0.3585  0.2018
   48MPD2    C2  746   0.306   2.378   9.732  0.0582  0.0900 -0.8083
   48MPD2    C3  747   0.430   2.346   9.786  0.1919  0.2098 -0.7768
   48MPD2    C4  748   0.518   2.450   9.814  0.5112  0.0586 -0.7852
   48MPD2    C5  749   0.484   2.580   9.796 -0.3948 -0.3664  0.6883
   48MPD2     H  750   0.236   2.299   9.710  1.2116 -1.6474  1.8781
   48MPD2    H1  751   0.611   2.419   9.861  0.0349 -0.1917 -0.0296
   48MPD2    H2  752   0.335   2.720   9.743  0.7624 -0.1064  0.9026
   48MPD2    H3  753   0.549   2.651   9.846  0.7732 -1.5647  0.8741
   48MPD2     N  754   0.448   2.215   9.819  0.5481  0.0141 -0.5827
   48MPD2    H5  755   0.369   2.153   9.811 -0.7415  1.4064  1.4786
   48MPD2    N1  756   0.142   2.528   9.653 -0.0995  0.6111  0.3708
   48MPD2    H7  757   0.079   2.453   9.624 -0.7757  1.8199 -1.3045
   49TMC2    C1  758   3.406   4.487   9.910 -0.1260 -0.3125 -0.4515
   49TMC2    C2  759   3.466   4.510   9.790 -0.4698  0.1348  0.0134
   49TMC2    C3  760   3.426   4.442   9.681 -0.0918 -0.6162 -0.6139
   49TMC2    C4  761   3.298   4.404   9.912 -0.3606  0.0348 -0.3095
   49TMC2    C5  762   3.257   4.347   9.793  0.0610  0.2321  0.5240
   49TMC2    C6  763   3.324   4.352   9.676  0.1164  0.8149 -0.6235
   49TMC2     C  764   3.439   4.574  10.024  0.4611 -0.2160  0.4521
   49TMC2     O  765   3.541   4.644  10.015  0.4692  0.0461 -0.1293
   49TMC2     H  766   3.557   4.563   9.766 -0.9340  0.5248 -0.8632
   49TMC2    H1  767   3.253   4.378  10.007 -1.9273  1.3845 -0.6967
   49TMC2    H2  768   3.304   4.282   9.596 -1.1704  0.8921 -0.3646
   49TMC2    C7  769   3.148   4.240   9.809 -0.4044 -0.4273  0.7410
   49TMC2    C8  770   3.477   4.493   9.557  1.2608  0.0510 -0.6191
   49TMC2    O1  771   3.110   4.209   9.920  0.0714  0.3239 -0.5580
   49TMC2    O2  772   3.563   4.583   9.543  0.3597 -0.2620  0.4455
   49TMC2    O5  773   3.411   4.443   9.453  1.2217 -0.3282  0.6166
   49TMC2    H5  774   3.345   4.373   9.472 -0.9271  1.2863 -0.9958
   50MPD2     C  775   3.425   0.001  10.282  0.0980 -0.1344 -0.5430
   50MPD2    C1  776   3.334   4.643  10.243  0.8058  0.3719  0.4851
   50MPD2    C2  777   3.215   4.619  10.313 -0.4909  0.1279 -0.2156
   50MPD2    C3  778   3.181   4.707  10.417 -0.6010 -0.3857 -0.3955
   50MPD2    C4  779   3.270   0.071  10.455 -0.9660  0.2602 -0.2705
   50MPD2    C5  780   3.393   0.075  10.391  0.3218  0.2529  0.3821
   50MPD2     H  781   3.136   4.561  10.267 -1.4629  0.6124  0.8393
   50MPD2    H1  782   3.253   0.128  10.546 -1.4186 -2.8554  1.6330
   50MPD2    H2  783   3.520   0.017  10.233 -0.6578  0.6031 -1.7754
   50MPD2    H3  784   3.473   0.144  10.417 -0.4329  0.4140  2.2859
   50MPD2     N  785   3.069   4.685  10.499 -0.3773 -0.6334  0.3244
   50MPD2    H5  786   3.072   4.738  10.585  2.4765 -0.4822  0.1337
   50MPD2    N1  787   3.342   4.563  10.126 -0.1605 -0.3616  0.0833
   50MPD2    H7  788   3.267   4.496  10.113 -0.9339  0.2887  1.2599
   51TMC2    C1  789   3.401   2.535   1.301 -0.5783 -0.3768 -0.6939
   51TMC2    C2  790   3.460   2.599   1.409 -0.2624  0.5106 -0.4240
   51TMC2    C3  791   3.568   2.674   1.379  0.0775  0.5070 -0.7908
   51TMC2    C4  792   3.433   2.572   1.174 -0.2740 -0.3448  0.0036
   51TMC2    C5  793   3.528   2.669   1.155  0.4278  0.5733 -0.1780
   51TMC2    C6  794   3.611   2.704   1.252 -0.0710 -0.7417 -0.2338
   51TMC2     C  795   3.397   2.390   1.321  0.2367 -0.3378 -0.5280
   51TMC2     O  796   3.428   2.307   1.231 -0.6764  0.1457 -0.7226
   51TMC2     H  797   3.425   2.592   1.511  1.8726  0.3171  0.2888
   51TMC2    H1  798   3.369   2.524   1.101 -0.8424 -1.6574  1.3632
   51TMC2    H2  799   3.680   2.787   1.241 -0.2676 -0.3037  1.7955
   51TMC2    C7  800   3.570   2.707   1.027 -0.4626 -0.7683  0.5274
   51TMC2    C8  801   3.615   2.775   1.479 -0.1185  0.1900 -0.6509
   51TMC2    O1  802   3.682   2.760   1.018 -0.4987 -0.1673  0.5138
   51TMC2    O2  803   3.613   2.894   1.458 -0.2809  0.2619  0.0225
   51TMC2    O5  804   3.640   2.720   1.597  0.5235 -0.4872  0.1567
   51TMC2    H5  805   3.626   2.624   1.588 -1.5335 -0.2677  1.0128
   52MPD2     C  806   3.473   2.016   1.654  0.1047 -0.2177  0.4874
   52MPD2    C1  807   3.519   2.040   1.530  0.0523  0.3501  0.4979
   52MPD2    C2  808   3.475   2.156   1.465 -0.2733 -0.0423 -0.4992
   52MPD2    C3  809   3.379   2.237   1.514 -0.5808  0.5609 -0.9235
   52MPD2    C4  810   3.326   2.207   1.637  1.1295  0.0442 -0.1608
   52MPD2    C5  811   3.368   2.094   1.699  0.5836  0.3602  0.4233
   52MPD2     H  812   3.521   2.173   1.368 -0.1191 -2.2687 -0.8180
   52MPD2    H1  813   3.248   2.271   1.677  1.4700 -0.7957  1.8441
   52MPD2    H2  814   3.503   1.924   1.703  1.0445 -0.0863  0.1720
   52MPD2    H3  815   3.333   2.055   1.794  1.0667  1.7437  1.1738
   52MPD2     N  816   3.352   2.360   1.450 -0.2139  0.6480  0.3275
   52MPD2    H5  817   3.301   2.431   1.501  0.4566  2.1607 -1.1363
   52MPD2    N1  818   3.618   1.969   1.460 -0.1962 -0.7165 -0.4845
   52MPD2    H7  819   3.632   1.985   1.361  3.4097  3.5087  0.7146
   53TMC2    C1  820   3.932   1.857  11.424  0.1868  0.3914  0.8749
   53TMC2    C2  821   4.002   1.751  11.363 -0.3935 -0.1461 -0.1370
   53TMC2    C3  822   4.096   1.684  11.440  0.6784  0.6630 -0.6154
   53TMC2    C4  823   3.957   1.890  11.552 -0.6033  0.2835  0.3516
   53TMC2    C5  824   4.042   1.817  11.626 -0.4157 -0.3018 -0.6048
   53TMC2    C6  825   4.121   1.707  11.573 -0.1994  0.5871 -0.7625
   53TMC2     C  826   3.798   1.871  11.389 -0.1480  0.5488  0.1859
   53TMC2     O  827   3.759   1.836  11.279  0.0927 -0.2988 -0.4910
   53TMC2     H  828   3.977   1.725  11.261 -1.3030 -0.1211  0.0796
   53TMC2    H1  829   3.922   1.982  11.598  3.7665  0.8000  2.6894
   53TMC2    H2  830   4.219   1.681  11.611 -1.2586 -0.4743  1.2460
   53TMC2    C7  831   4.002   1.817  11.766 -0.7347  0.1112 -0.0983
   53TMC2    C8  832   4.196   1.605  11.362 -0.4025  0.5758  0.4811
   53TMC2    O1  833   3.919   1.898  11.791 -0.2201  0.2533  0.3322
   53TMC2    O2  834   4.316   1.593  11.392 -0.0472 -0.2711  0.0778
   53TMC2    O5  835   4.146   1.549  11.254  0.2964  0.0680  0.6750
   53TMC2    H5  836   4.052   1.523  11.256 -0.3542  2.5070  1.6542
   54MPD2     C  837   3.504   1.892  11.406 -0.2486 -0.7177 -0.1336
   54MPD2    C1  838   3.585   1.874  11.513  0.8170 -0.5868  0.1746
   54MPD2    C2  839   3.526   1.853  11.638 -0.3412 -0.0147  0.3260
   54MPD2    C3  840   3.394   1.823  11.651 -0.4506  0.7120 -0.9836
   54MPD2    C4  841   3.310   1.845  11.540  0.2855 -0.3758  0.1720
   54MPD2    C5  842   3.362   1.887  11.425 -0.1893  0.4876  0.2137
   54MPD2     H  843   3.589   1.827  11.722 -2.4677  0.3314  2.0188
   54MPD2    H1  844   3.203   1.844  11.555  0.0376 -1.1718 -1.7246
   54MPD2    H2  845   3.540   1.914  11.307 -0.1954  0.9197  0.2505
   54MPD2    H3  846   3.298   1.919  11.344 -0.9924 -0.0395  0.6319
   54MPD2     N  847   3.330   1.775  11.765  0.0050  0.2856  0.6401
   54MPD2    H5  848   3.229   1.772  11.768  0.0324 -0.6795  0.6056
   54MPD2    N1  849   3.727   1.879  11.503 -0.7323  0.1023 -0.2234
   54MPD2    H7  850   3.768   1.895  11.594  0.4814  0.3042 -0.8116
   55TMC2    C1  851   4.689   4.076  17.674 -0.3044 -0.1731 -0.0278
   55TMC2    C2  852   4.644   4.056  17.548 -0.1629 -0.5367  0.2549
   55TMC2    C3  853   4.627   3.930  17.508  0.4341  0.1483  0.0192
   55TMC2    C4  854   4.728   3.972  17.756  0.3779 -0.5731  0.4188
   55TMC2    C5  855   4.719   3.846  17.705 -0.2924  0.0026 -0.3338
   55TMC2    C6  856   4.668   3.821  17.577 -0.5576 -0.6503  0.4867
   55TMC2     C  857   4.690   4.208  17.743  0.1585  0.1579  0.5288
   55TMC2     O  858   4.661   4.200   0.106 -0.0953 -0.2484 -0.2069
   55TMC2     H  859   4.616   4.138  17.484  1.3935  0.2015  0.5217
   55TMC2    H1  860   0.044   3.997   0.089 -0.6350  0.6086  0.7161
   55TMC2    H2  861   4.674   3.723  17.531 -1.9202  0.1175 -1.2987
   55TMC2    C7  862   4.729   3.729   0.031  0.8111 -0.5860 -0.2389
   55TMC2    C8  863   4.582   3.908  17.369  0.2308 -0.1792 -0.1009
   55TMC2    O1  864   0.017   3.624  17.732  0.0100 -0.0872  0.6362
   55TMC2    O2  865   4.623   3.815  17.307  0.1456  0.3499  0.4965
   55TMC2    O5  866   4.510   4.004  17.316 -0.4503  0.0485  0.1301
   55TMC2    H5  867   4.452   4.046  17.382 -0.8748  2.2731 -1.6697
   56MPD2     C  868   4.611   4.531  17.605 -0.8892 -0.0238 -0.0283
   56MPD2    C1  869   4.631   4.438  17.698  0.3284 -0.2288  0.4200
   56MPD2    C2  870   4.601   4.472   0.080 -0.1175  0.2565 -0.4727
   56MPD2    C3  871   4.570   4.604   0.113 -0.5471 -0.1947  0.7034
   56MPD2    C4  872   4.539   4.687   0.014  0.0517  0.2100 -0.2616
   56MPD2    C5  873   4.558   4.656  17.640 -0.0297  0.4364  0.3429
   56MPD2     H  874   4.604   4.404   0.165 -0.6063 -1.4746 -1.8416
   56MPD2    H1  875   4.503   0.050   0.019  2.2840  0.8847  1.6474
   56MPD2    H2  876   4.625   4.512  17.500 -0.0739 -2.1005  0.4592
   56MPD2    H3  877   4.527   4.727  17.564 -0.3910  0.4245  0.4804
   56MPD2     N  878   4.544   4.633   0.243  0.2475 -0.7084 -0.8968
   56MPD2    H5  879   4.553   4.556   0.309  2.3858 -1.2110 -1.7874
   56MPD2    N1  880   4.674   4.313  17.658  0.8343 -0.6896 -0.2150
   56MPD2    H7  881   4.692   4.301  17.559  1.9648  1.1785 -0.2187
   57TMC2    C1  882   4.224   0.135  13.346  0.0557  0.2224 -0.1657
   57TMC2    C2  883   4.225   0.009  13.299 -0.4387 -0.3794  0.0407
   57TMC2    C3  884   4.297   4.715  13.180  0.7025  0.6377 -0.6492
   57TMC2    C4  885   4.291   0.234  13.283  0.5897  0.4064 -0.1349
   57TMC2    C5  886   4.345   0.203  13.162 -0.1396 -0.2845 -0.1333
   57TMC2    C6  887   4.353   0.074  13.107 -0.3440  0.4753  0.3469
   57TMC2     C  888   4.137   0.167  13.458  0.5591  0.2178 -0.3932
   57TMC2     O  889   4.103   0.284  13.468  0.6172 -0.1979  0.5259
   57TMC2     H  890   4.171   4.669  13.350  1.0482 -0.9121  0.7625
   57TMC2    H1  891   4.295   0.338  13.312 -1.1123  0.4312 -0.0161
   57TMC2    H2  892   4.390   0.046  13.010 -3.6146  1.5888 -1.2352
   57TMC2    C7  893   4.432   0.299  13.109  1.0532 -0.2811  0.0965
   57TMC2    C8  894   4.256   4.584  13.128  0.2138 -0.4656  0.4207
   57TMC2    O1  895   4.416   0.409  13.157 -0.1463  0.2659 -0.0081
   57TMC2    O2  896   4.180   4.517  13.194 -0.1936 -0.4857  0.4690
   57TMC2    O5  897   4.331   4.549  13.020 -0.0658  0.3717 -0.3983
   57TMC2    H5  898   4.405   4.606  12.992  0.8985  0.2268  1.8172
   58MPD2     C  899   3.836   0.053  13.872  0.1003  0.3677 -0.3660
   58MPD2    C1  900   3.851   0.170  13.801  0.5608  0.2388 -0.0111
   58MPD2    C2  901   3.940   0.177  13.692  0.8520 -0.3522 -0.3873
   58MPD2    C3  902   4.012   0.061  13.654 -0.6559  0.7728  0.2883
   58MPD2    C4  903   3.974   4.681  13.719 -0.9231 -0.1712  0.3158
   58MPD2    C5  904   3.884   4.679  13.821 -0.0129 -1.3267  0.4948
   58MPD2     H  905   3.943   0.268  13.633 -1.0846 -0.8362 -1.2088
   58MPD2    H1  906   4.008   4.582  13.689  1.9059  0.4003  1.6836
   58MPD2    H2  907   3.770   0.041  13.957 -0.4050 -0.0989 -0.8261
   58MPD2    H3  908   3.856   4.592  13.878 -1.7978 -0.3520  1.1199
   58MPD2     N  909   4.107   0.062  13.545  0.9316  0.0322  0.3954
   58MPD2    H5  910   4.145   4.710  13.524  2.8659  1.1720 -1.1365
   58MPD2    N1  911   3.781   0.282  13.841 -0.0307  0.5842  0.5757
   58MPD2    H7  912   3.823   0.370  13.813 -1.8100  0.7321 -1.5927
   59TMC2    C1  913   1.763   0.130  12.663 -0.1545 -1.0745  0.3419
   59TMC2    C2  914   1.651   0.052  12.650  0.0686 -0.2762 -0.0498
   59TMC2    C3  915   1.557   0.113  12.572  0.2336  0.0743 -0.2015
   59TMC2    C4  916   1.786   0.245  12.594 -0.6325  0.3837 -0.1498
   59TMC2    C5  917   1.685   0.286  12.505  0.6163 -0.3312  0.3471
   59TMC2    C6  918   1.567   0.230  12.503  0.0558 -0.7440  0.2767
   59TMC2     C  919   1.858   0.084  12.760  0.9152  0.3413 -0.0699
   59TMC2     O  920   1.859   4.704  12.784  0.3684 -0.7367 -0.0706
   59TMC2     H  921   1.613   4.710  12.712 -2.4393  0.5079 -0.5432
   59TMC2    H1  922   1.876   0.303  12.607 -0.5896  0.5816 -1.2958
   59TMC2    H2  923   1.480   0.264  12.448 -0.5930 -2.0998  0.4816
   59TMC2    C7  924   1.686   0.432  12.490 -0.5542  0.6768 -0.5305
   59TMC2    C8  925   1.418   0.077  12.600 -0.2431 -0.2284 -0.8965
   59TMC2    O1  926   1.790   0.493  12.464 -0.2322  0.0720 -0.4092
   59TMC2    O2  927   1.336   0.164  12.619 -0.3817  0.0207 -1.0795
   59TMC2    O5  928   1.405   4.686  12.636 -0.3244 -0.1683 -0.3258
   59TMC2    H5  929   1.479   4.626  12.610 -0.5480 -0.3925 -0.4441
   60MPD2     C  930   2.103   0.054  12.922 -0.1890 -1.0615 -0.8798
   60MPD2    C1  931   2.051   0.176  12.883  0.5849  0.6571  0.0259
   60MPD2    C2  932   2.106   0.296  12.939 -0.2335  0.5381  0.4435
   60MPD2    C3  933   2.221   0.289  13.015  0.0163  0.4754 -0.4461
   60MPD2    C4  934   2.269   0.162  13.048 -0.3188 -0.2607  0.5508
   60MPD2    C5  935   2.210   0.048  13.004 -0.2979  0.0664 -0.2163
   60MPD2     H  936   2.062   0.392  12.913  0.0468  0.2503 -1.1247
   60MPD2    H1  937   2.364   0.146  13.097 -0.9002 -1.6260  1.2329
   60MPD2    H2  938   2.075   4.700  12.875  0.7385 -2.2249  0.8822
   60MPD2    H3  939   2.242   4.688  13.034 -1.7661 -0.3293  0.0041
   60MPD2     N  940   2.293   0.405  13.065  0.3723  0.2957 -0.5866
   60MPD2    H5  941   2.385   0.385  13.104  0.2893 -0.3633 -0.7276
   60MPD2    N1  942   1.930   0.184  12.816 -0.2597  0.2958 -0.5321
   60MPD2    H7  943   1.895   0.278  12.801 -1.5549 -0.3110 -1.3285
   61TMC2    C1  944   1.221   1.884  15.594  0.2192  0.3819 -0.3521
   61TMC2    C2  945   1.251   1.817  15.712  0.4400 -0.5107 -0.4378
   61TMC2    C3  946   1.189   1.859  15.825  0.0075  0.7329  0.0523
   61TMC2    C4  947   1.135   1.990  15.595 -0.5082  0.2012 -0.4218
   61TMC2    C5  948   1.074   2.028  15.704 -0.0135  0.0729  0.7126
   61TMC2    C6  949   1.107   1.963  15.822  0.5154  0.5993  0.2160
   61TMC2     C  950   1.233   1.814  15.471 -0.5491  0.4267  0.2052
   61TMC2     O  951   1.294   1.708  15.472 -0.0583  0.1999 -0.8284
   61TMC2     H  952   1.323   1.737  15.711  1.0897  0.0703  0.7895
   61TMC2    H1  953   1.120   2.053  15.508  0.4105  0.5144 -0.3588
   61TMC2    H2  954   1.089   2.012  15.918 -1.8608  1.8284 -0.8609
   61TMC2    C7  955   1.017   2.161  15.716  0.1778  0.1383  0.0864
   61TMC2    C8  956   1.267   1.828  15.948  0.6294 -0.1760 -0.2551
   61TMC2    O1  957   1.001   2.227  15.614  0.0686 -0.2778  0.6535
   61TMC2    O2  958   1.298   1.918  16.026 -0.4960 -0.0812 -0.1990
   61TMC2    O5  959   1.266   1.696  15.971 -0.1976  0.4596 -0.0762
   61TMC2    H5  960   1.209   1.637  15.916  1.2045 -0.7950 -0.1885
   62MPD2     C  961   1.208   1.705  15.208  0.4085 -0.6083  0.4903
   62MPD2    C1  962   1.232   1.834  15.232  0.0701 -0.9091 -0.1798
   62MPD2    C2  963   1.255   1.917  15.125  0.2281  0.1369 -0.7623
   62MPD2    C3  964   1.258   1.869  14.994 -0.8065 -0.8779 -0.4250
   62MPD2    C4  965   1.220   1.740  14.973  0.2702  0.0030 -0.2861
   62MPD2    C5  966   1.210   1.656  15.078  0.2594  0.5194  0.4053
   62MPD2     H  967   1.263   2.021  15.154 -1.5154 -0.2560  1.1025
   62MPD2    H1  968   1.210   1.700  14.873  0.3788 -0.2307 -0.2019
   62MPD2    H2  969   1.189   1.629  15.284 -1.1955 -0.6652  0.0376
   62MPD2    H3  970   1.195   1.551  15.056  0.5403  0.4245  0.6534
   62MPD2     N  971   1.287   1.940  14.876  0.4131 -0.3413  0.0281
   62MPD2    H5  972   1.277   1.890  14.789 -1.0478  0.0666 -0.0269
   62MPD2    N1  973   1.209   1.886  15.357 -0.4648  0.1901 -0.0209
   62MPD2    H7  974   1.173   1.981  15.360 -0.3205  0.3276 -2.0293
   63TMC2    C1  975   0.300   2.029  10.779 -0.3651 -0.4541 -0.5527
   63TMC2    C2  976   0.239   2.133  10.842  0.1191  0.1706 -0.4973
   63TMC2    C3  977   0.290   2.258  10.842  0.3063 -0.0957  0.0963
   63TMC2    C4  978   0.408   2.059  10.702 -0.4482  0.1121 -0.1102
   63TMC2    C5  979   0.457   2.189  10.699 -0.3646 -0.0246 -0.6614
   63TMC2    C6  980   0.403   2.288  10.777 -0.6080 -0.0148 -0.0847
   63TMC2     C  981   0.214   1.941  10.710 -0.0084 -0.3447  0.4453
   63TMC2     O  982   0.107   1.988  10.672  0.0699  0.5966  0.2490
   63TMC2     H  983   0.145   2.107  10.890  0.3472  0.2453 -0.0119
   63TMC2    H1  984   0.453   1.996  10.627  1.5221  0.9165  0.3944
   63TMC2    H2  985   0.452   2.384  10.781  1.6236 -1.0782 -1.6753
   63TMC2    C7  986   0.538   2.220  10.582  0.0108 -0.2661  0.3121
   63TMC2    C8  987   0.246   2.338  10.946 -0.0475 -0.4164  0.2546
   63TMC2    O1  988   0.585   2.130  10.516  0.5525 -0.3428 -0.6154
   63TMC2    O2  989   0.174   2.302  11.037  0.3695  0.1658  0.4559
   63TMC2    O5  990   0.274   2.462  10.921  0.2767  0.3520  0.4753
   63TMC2    H5  991   0.294   2.473  10.826  0.2783 -0.8858  0.3335
   64MPD2     C  992   0.098   1.485  10.505 -0.1958 -0.4307 -0.2655
   64MPD2    C1  993   0.206   1.465  10.584 -0.0346 -0.4954  0.3561
   64MPD2    C2  994   0.276   1.580  10.624  0.3542  0.4104  0.6410
   64MPD2    C3  995   0.213   1.704  10.612 -0.2336 -0.0932  0.0908
   64MPD2    C4  996   0.094   1.719  10.539 -0.3059  1.0065  0.4790
   64MPD2    C5  997   0.037   1.606  10.483 -0.1090 -0.6414 -0.3923
   64MPD2     H  998   0.356   1.570  10.697  0.3709  1.2917  0.7396
   64MPD2    H1  999   0.060   1.819  10.514  0.2670  1.1101  0.1031
   64MPD2    H2 1000   0.052   1.404  10.451 -0.5094 -0.9346  0.7599
   64MPD2    H3 1001   4.696   1.623  10.414  1.3521  2.4964 -1.3359
   64MPD2     N 1002   0.272   1.812  10.683 -0.2110  0.4640 -0.3643
   64MPD2    H5 1003   0.364   1.801  10.725 -1.4866  0.3543  2.4284
   64MPD2    N1 1004   0.256   1.344  10.632 -0.6503  0.4275  0.1907
   64MPD2    H7 1005   0.349   1.340  10.674 -0.1921  4.0558 -0.4659
   65TMC2    C1 1006   1.817   1.756  15.515 -0.1268  0.1406  0.1069
   65TMC2    C2 1007   1.908   1.723  15.420  0.5140 -0.2818  0.1034
   65TMC2    C3 1008   1.916   1.811  15.316 -0.3209  0.4106  0.6870
   65TMC2    C4 1009   1.723   1.856  15.502  0.1110 -0.4656  0.4322
   65TMC2    C5 1010   1.722   1.916  15.378  0.0038  0.1687 -0.1241
   65TMC2    C6 1011   1.817   1.902  15.286  1.2186  0.1296 -0.1575
   65TMC2     C 1012   1.794   1.670  15.627 -0.4963 -1.1456 -0.4431
   65TMC2     O 1013   1.775   1.733  15.733 -0.2764 -0.1643 -0.2281
   65TMC2     H 1014   1.967   1.634  15.433  0.6713 -0.3328 -0.9868
   65TMC2    H1 1015   1.636   1.845  15.565  0.3089  0.6601  0.9000
   65TMC2    H2 1016   1.826   1.961  15.196  0.4124  3.4034  1.9168
   65TMC2    C7 1017   1.635   2.034  15.369  0.8902 -0.2725  0.2930
   65TMC2    C8 1018   2.000   1.765  15.217  0.1860  0.3694  0.7185
   65TMC2    O1 1019   1.626   2.092  15.261  0.3555  0.6157  0.8035
   65TMC2    O2 1020   1.977   1.712  15.109  0.3416  0.5274 -0.0674
   65TMC2    O5 1021   2.117   1.767  15.273 -0.0101 -0.5263 -0.3322
   65TMC2    H5 1022   2.121   1.799  15.366  0.7941 -1.8365  0.0835
   66MPD2     C 1023   1.741   1.447  15.819  0.0836  0.9239  0.2810
   66MPD2    C1 1024   1.782   1.432  15.691 -0.3521 -0.2106  0.9563
   66MPD2    C2 1025   1.788   1.303  15.635  0.8401  0.1408  0.6600
   66MPD2    C3 1026   1.751   1.195  15.706  1.0272  0.2365 -0.3847
   66MPD2    C4 1027   1.717   1.209  15.839  0.5619  0.4008 -0.3811
   66MPD2    C5 1028   1.711   1.336  15.892 -0.1048 -0.9366 -0.0847
   66MPD2     H 1029   1.813   1.301  15.529 -0.6910 -0.2546  0.3034
   66MPD2    H1 1030   1.687   1.126  15.901 -1.2307  1.9813  0.8529
   66MPD2    H2 1031   1.728   1.542  15.869  0.6635  1.7749 -1.2032
   66MPD2    H3 1032   1.685   1.350  15.996 -0.4359  0.2767 -0.3334
   66MPD2     N 1033   1.748   1.062  15.647 -0.2080 -0.0434 -0.2493
   66MPD2    H5 1034   1.711   0.984  15.702  0.7712  1.1517  2.1020
   66MPD2    N1 1035   1.806   1.537  15.596  0.2936 -0.6082 -0.0383
   66MPD2    H7 1036   1.828   1.509  15.501 -1.4532  1.4621 -1.0364
   67TMC2    C1 1037   2.138   0.635  14.342 -0.5886  0.3125 -0.1527
   67TMC2    C2 1038   2.050   0.729  14.386 -0.6884  0.4930 -0.1631
   67TMC2    C3 1039   2.071   0.775  14.515  0.0114  0.0052 -0.3759
   67TMC2    C4 1040   2.232   0.583  14.426  0.1775  0.2673  0.0908
   67TMC2    C5 1041   2.248   0.623  14.556  0.1050  0.2882  0.0422
   67TMC2    C6 1042   2.172   0.731  14.594  0.5486  0.1266  0.1964
   67TMC2     C 1043   2.117   0.558  14.217 -0.1914  0.2852 -0.1379
   67TMC2     O 1044   2.173   0.453  14.210  0.2348  0.6210  0.2920
   67TMC2     H 1045   1.969   0.759  14.321 -1.9216 -0.5803  0.8980
   67TMC2    H1 1046   2.302   0.509  14.388 -1.1321 -1.0923  0.3294
   67TMC2    H2 1047   2.186   0.775  14.692 -2.3269  1.1404  0.1569
   67TMC2    C7 1048   2.369   0.579  14.631  0.2623 -1.0333  0.6059
   67TMC2    C8 1049   2.013   0.903  14.550  0.1559  0.0875  0.0202
   67TMC2    O1 1050   2.468   0.572  14.566  0.5933 -0.5553 -0.2311
   67TMC2    O2 1051   2.025   0.941  14.666  0.3786 -0.0729 -0.5655
   67TMC2    O5 1052   1.940   0.962  14.459  0.3492  0.4515 -0.1905
   67TMC2    H5 1053   1.953   0.934  14.366 -0.8535 -0.7274 -0.0013
   68MPD2     C 1054   2.033   0.468  13.941 -0.0762 -0.1232  0.0849
   68MPD2    C1 1055   2.004   0.586  14.006  0.5415  0.1870 -0.0816
   68MPD2    C2 1056   1.903   0.666  13.956  0.8922 -0.4212 -0.3799
   68MPD2    C3 1057   1.837   0.619  13.845 -0.3354 -0.9465 -0.6901
   68MPD2    C4 1058   1.894   0.518  13.767 -0.6634 -0.7928  0.0011
   68MPD2    C5 1059   1.987   0.440  13.821  0.0482 -0.1211 -0.0451
   68MPD2     H 1060   1.871   0.757  14.007  0.4413 -0.5631 -0.4132
   68MPD2    H1 1061   1.846   0.482  13.676  0.4403 -1.4445 -0.3302
   68MPD2    H2 1062   2.100   0.398  13.990  0.7500  1.4912  1.2660
   68MPD2    H3 1063   2.022   0.348  13.776 -1.7219 -1.2186  0.7853
   68MPD2     N 1064   1.720   0.677  13.800 -0.0667  0.6774 -0.0887
   68MPD2    H5 1065   1.687   0.654  13.707  2.5864 -0.3555 -0.7727
   68MPD2    N1 1066   2.051   0.630  14.122  0.0781 -0.0841 -0.0054
   68MPD2    H7 1067   2.037   0.728  14.147 -0.8883  0.6211 -3.3397
   69TMC2    C1 1068   4.199   1.990  12.473  0.6622 -0.3596 -0.1236
   69TMC2    C2 1069   4.110   2.090  12.433  0.0286 -0.0118 -0.3300
   69TMC2    C3 1070   4.134   2.160  12.321  0.8563 -0.1206 -0.0692
   69TMC2    C4 1071   4.291   1.941  12.382  1.1314  0.7665 -0.3161
   69TMC2    C5 1072   4.301   2.007  12.261 -0.1847  0.3286 -0.2436
   69TMC2    C6 1073   4.229   2.126  12.235 -0.0757 -0.3678 -0.0461
   69TMC2     C 1074   4.184   1.939  12.608 -0.2450 -0.0548 -0.1019
   69TMC2     O 1075   4.096   1.981  12.681  0.0636  0.3537 -1.0542
   69TMC2     H 1076   4.029   2.117  12.500 -1.2201 -1.5773 -1.2146
   69TMC2    H1 1077   4.348   1.849  12.391  0.4365  0.6501  2.8883
   69TMC2    H2 1078   4.242   2.184  12.145 -2.1159 -2.2405 -1.5215
   69TMC2    C7 1079   4.366   1.942  12.149  0.1613 -0.6731 -0.1463
   69TMC2    C8 1080   4.097   2.298  12.345 -0.3706  0.1732 -0.2253
   69TMC2    O1 1081   4.433   1.845  12.168  0.6195 -0.3930 -0.3137
   69TMC2    O2 1082   4.016   2.329  12.427 -0.0028 -0.3021  0.1066
   69TMC2    O5 1083   4.212   2.360  12.309  0.1445  0.4471 -0.3648
   69TMC2    H5 1084   4.290   2.300  12.304  0.6492  1.0679  0.0313
   70MPD2     C 1085   4.410   1.704  12.767  0.3905  0.0213  0.3311
   70MPD2    C1 1086   4.302   1.796  12.769 -0.2902  0.6920 -0.1197
   70MPD2    C2 1087   4.221   1.799  12.879 -0.1138  0.7083 -0.0588
   70MPD2    C3 1088   4.248   1.726  12.993  0.3276 -0.1045  0.0842
   70MPD2    C4 1089   4.357   1.641  12.986  0.0809 -0.5796 -1.6221
   70MPD2    C5 1090   4.438   1.634  12.881  0.5908 -0.5706  0.3123
   70MPD2     H 1091   4.135   1.865  12.885 -1.7650 -1.5470  0.8511
   70MPD2    H1 1092   4.372   1.582  13.076 -1.6000  1.3615 -0.0611
   70MPD2    H2 1093   4.477   1.683  12.685 -0.0381  1.0914 -0.2977
   70MPD2    H3 1094   4.524   1.568  12.879 -0.1862 -1.5879 -0.2085
   70MPD2     N 1095   4.165   1.719  13.111  0.0947  0.9187 -0.3147
   70MPD2    H5 1096   4.206   1.674  13.193  0.2104  0.8830 -0.3909
   70MPD2    N1 1097   4.287   1.858  12.648 -0.4758 -0.0176  0.3863
   70MPD2    H7 1098   4.360   1.842  12.579 -0.3529  1.4816  0.1515
   71TMC2    C1 1099   1.027   1.954   1.205 -0.6756 -0.0025  0.0588
   71TMC2    C2 1100   1.140   2.027   1.230 -0.0086 -0.2264  0.4199
   71TMC2    C3 1101   1.149   2.081   1.354  0.1263  0.2435  0.8281
   71TMC2    C4 1102   0.934   1.930   1.296  0.1573  0.4842 -0.3023
   71TMC2    C5 1103   0.940   1.992   1.411 -0.6187  0.6622  0.2998
   71TMC2    C6 1104   1.050   2.060   1.451  0.1702 -0.7974 -0.4773
   71TMC2     C 1105   1.012   1.919   1.069 -0.5098 -0.0967  0.2531
   71TMC2     O 1106   1.115   1.912   1.006  0.1058  0.3771  0.0881
   71TMC2     H 1107   1.205   2.069   1.154 -2.0240  0.3944 -0.9569
   71TMC2    H1 1108   0.873   1.841   1.283  0.6769  0.1532 -0.4624
   71TMC2    H2 1109   1.069   2.096   1.551 -3.0895  0.8557 -0.4793
   71TMC2    C7 1110   0.832   1.980   1.511  1.2913 -0.6742  0.2508
   71TMC2    C8 1111   1.261   2.166   1.392 -0.0649 -0.0604 -0.7697
   71TMC2    O1 1112   0.866   2.013   1.623  0.4252 -0.2854 -0.0539
   71TMC2    O2 1113   1.259   2.246   1.484 -0.1293  0.2108  0.3844
   71TMC2    O5 1114   1.369   2.113   1.329  0.1448  0.1172  0.4896
   71TMC2    H5 1115   1.356   2.025   1.287  0.1077 -0.0660  0.8879
   72MPD2     C 1116   0.734   1.765   0.664  0.3255  0.1185 -0.0950
   72MPD2    C1 1117   0.869   1.804   0.669  0.0659  0.1930  0.5446
   72MPD2    C2 1118   0.920   1.839   0.793 -0.4272  0.1039 -1.2686
   72MPD2    C3 1119   0.841   1.834   0.906 -0.5426  0.3066 -0.9756
   72MPD2    C4 1120   0.711   1.792   0.895 -0.2399  0.1674 -0.5782
   72MPD2    C5 1121   0.652   1.762   0.777  0.1673  0.4836 -0.6844
   72MPD2     H 1122   1.022   1.873   0.789 -0.1480 -0.7273 -1.3462
   72MPD2    H1 1123   0.656   1.788   0.989 -0.1975  0.0522 -0.5586
   72MPD2    H2 1124   0.677   1.737   0.576 -0.7727 -1.8723  1.2407
   72MPD2    H3 1125   0.546   1.739   0.767  0.3946 -0.8160 -0.1031
   72MPD2     N 1126   0.883   1.879   1.036 -0.0684  0.3505  0.5220
   72MPD2    H5 1127   0.813   1.877   1.110 -0.3684 -0.4431  0.2191
   72MPD2    N1 1128   0.948   1.815   0.558  0.3114  0.1197 -0.0999
   72MPD2    H7 1129   1.046   1.837   0.574 -0.0992  2.1117 -0.3787
   73TMC2    C1 1130   0.815   4.108  13.785 -0.0486 -0.4958 -0.2119
   73TMC2    C2 1131   0.759   4.083  13.906 -0.1251  0.2184 -0.8333
   73TMC2    C3 1132   0.821   3.997  13.993 -0.9380  0.2320  0.2019
   73TMC2    C4 1133   0.933   4.048  13.743  0.4436  1.4312  0.0379
   73TMC2    C5 1134   0.999   3.965  13.840  0.3622 -0.7472 -0.2301
   73TMC2    C6 1135   0.941   3.936  13.958  0.8243  0.1734 -0.7444
   73TMC2     C 1136   0.827   4.244  13.744 -0.2048 -0.3989  0.5241
   73TMC2     O 1137   0.931   4.272  13.689  0.3709  0.2464  0.3409
   73TMC2     H 1138   0.675   4.141  13.943  0.7815  0.5924  0.6143
   73TMC2    H1 1139   0.982   4.065  13.648  0.1192 -0.6595 -0.5117
   73TMC2    H2 1140   0.999   3.878  14.029  0.1422 -0.9529 -1.1016
   73TMC2    C7 1141   1.134   4.004  13.858 -0.0968 -0.2121  0.0977
   73TMC2    C8 1142   0.740   3.971  14.106  0.0130 -0.2828  0.0054
   73TMC2    O1 1143   1.204   3.916  13.904  1.0499  0.1278  0.1555
   73TMC2    O2 1144   0.705   4.064  14.177  0.0094 -0.1400  0.1169
   73TMC2    O5 1145   0.780   3.852  14.152 -0.0684  0.5601  0.2107
   73TMC2    H5 1146   0.821   3.790  14.088 -2.6418 -1.1071  0.1773
   74MPD2     C 1147   0.690   4.733  13.680 -0.0049 -0.2308  0.8477
   74MPD2    C1 1148   0.814   4.677  13.705 -0.1303 -0.2178  0.1851
   74MPD2    C2 1149   0.827   4.537  13.724 -0.5872 -0.1373  0.6642
   74MPD2    C3 1150   0.714   4.461  13.732  0.4263  0.5088 -0.6999
   74MPD2    C4 1151   0.591   4.522  13.710  1.1776 -0.0955  0.3561
   74MPD2    C5 1152   0.578   4.659  13.684  0.2392 -0.1917  0.0499
   74MPD2     H 1153   0.923   4.489  13.744 -0.2294  1.0457  1.8047
   74MPD2    H1 1154   0.499   4.464  13.712  0.6619  0.6933 -0.0631
   74MPD2    H2 1155   0.698   0.098  13.649  0.7580 -0.2509  0.9670
   74MPD2    H3 1156   0.480   4.704  13.668  0.5221  1.0908  1.9324
   74MPD2     N 1157   0.714   4.321  13.758  0.2020  0.9734  0.3253
   74MPD2    H5 1158   0.625   4.274  13.770 -0.1725  1.5691 -0.0994
   74MPD2    N1 1159   0.922   0.032  13.706  0.1952  0.1771 -1.2494
   74MPD2    H7 1160   0.912   0.131  13.684  2.3797  0.2965 -1.7908
   75TMC2    C1 1161   1.495   0.739  13.847  0.1412  0.3773 -0.2923
   75TMC2    C2 1162   1.399   0.750  13.945 -0.2975 -1.2379 -0.2731
   75TMC2    C3 1163   1.281   0.812  13.920 -0.3476  0.1096  0.0033
   75TMC2    C4 1164   1.473   0.793  13.725 -0.4289  0.0739  0.3734
   75TMC2    C5 1165   1.356   0.859  13.704 -0.1907 -0.2980 -0.0749
   75TMC2    C6 1166   1.260   0.872  13.800  0.5734  0.1678  0.3494
   75TMC2     C 1167   1.629   0.728  13.892 -0.4627  0.2327 -0.6603
   75TMC2     O 1168   1.631   0.734  14.012 -0.0233  0.8299 -0.5504
   75TMC2     H 1169   1.398   0.711  14.046 -1.6280 -0.4071  0.0355
   75TMC2    H1 1170   1.546   0.795  13.645  1.5591 -0.1330  2.1843
   75TMC2    H2 1171   1.167   0.920  13.774  0.2129 -1.5310 -1.4867
   75TMC2    C7 1172   1.323   0.897  13.573 -0.8398 -0.4364  0.1907
   75TMC2    C8 1173   1.205   0.854  14.042  0.4258  0.8857 -0.2489
   75TMC2    O1 1174   1.380   0.834  13.481  0.1405 -0.5001  0.1795
   75TMC2    O2 1175   1.257   0.857  14.155  0.4552  0.7654 -0.4057
   75TMC2    O5 1176   1.079   0.818  14.008  0.2741 -0.2203  0.1844
   75TMC2    H5 1177   1.076   0.771  13.922  3.8636 -1.4978  0.7653
   76TMC2    C1 1178   0.820   1.342  12.384 -0.3406 -0.6941  0.0484
   76TMC2    C2 1179   0.805   1.225  12.454  0.0561 -0.2246 -0.3113
   76TMC2    C3 1180   0.867   1.216  12.575  0.2680  0.2784  0.6188
   76TMC2    C4 1181   0.881   1.453  12.445 -0.2995 -0.2537  0.4196
   76TMC2    C5 1182   0.952   1.435  12.561 -0.4999 -0.1886 -0.4468
   76TMC2    C6 1183   0.942   1.316  12.634  0.0479 -0.6034 -0.2419
   76TMC2     C 1184   0.746   1.362  12.256 -0.3829 -0.4341 -0.2515
   76TMC2     O 1185   0.707   1.474  12.236  0.3600 -0.0454 -0.6595
   76TMC2     H 1186   0.748   1.142  12.413 -1.0638  1.5753 -2.4205
   76TMC2    H1 1187   0.863   1.551  12.404 -0.6549  0.2370  1.7274
   76TMC2    H2 1188   0.976   1.301  12.736  0.6171 -2.2191 -0.6625
   76TMC2    C7 1189   1.042   1.540  12.600 -0.2449  0.0632  0.6003
   76TMC2    C8 1190   0.819   1.115  12.670  0.5680  0.4854  0.2643
   76TMC2    O1 1191   1.066   1.617  12.510  0.5622  0.0435 -0.3441
   76TMC2    O2 1192   0.699   1.099  12.685  0.1417  0.1287 -0.1176
   76TMC2    O5 1193   0.917   1.074  12.752 -0.1390  0.2633  0.2135
   76TMC2    H5 1194   1.003   1.112  12.726 -0.3378  2.3466  2.5950
   77MPD2     C 1195   0.449   1.183  11.871 -0.4127  0.4930  0.5043
   77MPD2    C1 1196   0.467   1.315  11.918  0.1544 -0.8536  0.2262
   77MPD2    C2 1197   0.554   1.332  12.027  0.1080 -0.2863 -0.0455
   77MPD2    C3 1198   0.618   1.225  12.087 -0.1287 -0.3621  0.5427
   77MPD2    C4 1199   0.605   1.099  12.034 -0.1805 -0.1610 -0.0310
   77MPD2    C5 1200   0.523   1.084  11.925  0.3574 -0.9690 -0.5397
   77MPD2     H 1201   0.563   1.433  12.065 -0.2291  0.0179 -0.7596
   77MPD2    H1 1202   0.647   1.009  12.078 -0.1015  0.2709  0.7676
   77MPD2    H2 1203   0.372   1.152  11.802  1.2956 -0.3350 -1.0464
   77MPD2    H3 1204   0.512   0.984  11.885 -2.5934 -0.8141 -0.0990
   77MPD2     N 1205   0.711   1.243  12.195  0.0680  0.2853 -0.6163
   77MPD2    H5 1206   0.751   1.159  12.236 -0.9269 -0.2582 -0.7777
   77MPD2    N1 1207   0.395   1.426  11.868  0.2736  0.2740 -0.0006
   77MPD2    H7 1208   0.424   1.515  11.907  1.6800 -0.4464  0.5975
   78TMC2    C1 1209   1.024   1.135   1.449 -0.5292  0.0155 -0.5927
   78TMC2    C2 1210   1.049   1.004   1.407 -0.4777 -0.8522 -0.1221
   78TMC2    C3 1211   1.162   0.989   1.324 -0.3759  0.0504  0.3340
   78TMC2    C4 1212   1.100   1.240   1.410  0.2809 -0.3589  0.2569
   78TMC2    C5 1213   1.204   1.216   1.321 -0.1597  0.3027  0.2384
   78TMC2    C6 1214   1.232   1.092   1.265  0.5755  0.5638 -0.1118
   78TMC2     C 1215   0.902   1.169   1.505  0.1878 -0.3941 -0.7860
   78TMC2     O 1216   0.875   1.287   1.507  0.0171 -0.0515 -0.7810
   78TMC2     H 1217   0.992   0.916   1.435 -1.3382 -0.1719  0.2556
   78TMC2    H1 1218   1.078   1.341   1.441 -0.4340 -1.1860  2.4236
   78TMC2    H2 1219   1.317   1.074   1.200  0.6720 -1.1762  0.4989
   78TMC2    C7 1220   1.313   1.312   1.297 -0.7253  1.0484  0.0347
   78TMC2    C8 1221   1.197   0.860   1.268  0.4508  0.2628 -0.5768
   78TMC2    O1 1222   1.381   1.286   1.196 -0.3975  0.2675 -0.2991
   78TMC2    O2 1223   1.251   0.841   1.159 -0.1271  0.1807  0.2398
   78TMC2    O5 1224   1.197   0.781   1.378  0.1238  0.1095  0.0476
   78TMC2    H5 1225   1.184   0.832   1.461 -1.1773  2.0448 -1.3523
   79MPD1     C 1226   0.525   1.065   1.827 -0.2587  0.2285  0.2134
   79MPD1    C1 1227   0.556   1.185   1.763 -0.2104  0.3405 -0.7039
   79MPD1    C2 1228   0.661   1.185   1.672  0.3902 -0.6206  0.0326
   79MPD1    C3 1229   0.748   1.082   1.673  0.4994 -0.8465  0.6556
   79MPD1    C4 1230   0.714   0.968   1.749 -0.2636  0.2912  0.8791
   79MPD1    C5 1231   0.600   0.959   1.819  0.1240 -0.4985  0.3221
   79MPD1     H 1232   0.682   1.276   1.616  6.4757 -1.2477  1.3439
   79MPD1    H1 1233   0.776   0.878   1.749  0.0973  0.5452 -1.2898
   79MPD1    H2 1234   0.434   1.056   1.886 -0.0038 -0.7518  0.4641
   79MPD1    H3 1235   0.579   0.865   1.868 -0.6439 -1.0609 -1.0932
   79MPD1     N 1236   0.854   1.071   1.586 -0.3458  0.4803 -0.3964
   79MPD1    H5 1237   0.892   0.978   1.576 -2.6367 -0.5187  0.4210
   79MPD1    N1 1238   0.451   1.282   1.755  0.0426  0.3656  0.1835
   79MPD1    H6 1239   0.382   1.286   1.830  2.2420  0.5482  2.1817
   79MPD1    H7 1240   0.496   1.373   1.758  1.5870 -0.3286 -1.5907
   80TMC2    C1 1241   3.606   1.152  12.091  0.0051 -0.0364 -0.1614
   80TMC2    C2 1242   3.603   1.178  11.960 -0.2068 -0.4261  0.8946
   80TMC2    C3 1243   3.532   1.099  11.878 -0.2629  0.4306 -0.2310
   80TMC2    C4 1244   3.545   1.042  12.145  0.4928 -0.0593 -0.5551
   80TMC2    C5 1245   3.497   0.951  12.054  0.1712  0.5802  0.0990
   80TMC2    C6 1246   3.470   0.990  11.930  0.2901 -0.0780  0.1552
   80TMC2     C 1247   3.706   1.228  12.162 -0.4905 -0.1235 -0.2600
   80TMC2     O 1248   3.684   1.254  12.281  1.0148  0.0721 -0.1561
   80TMC2     H 1249   3.657   1.262  11.917  0.3155 -0.2539  1.8944
   80TMC2    H1 1250   3.544   1.037  12.253  0.9888  1.4120 -0.4830
   80TMC2    H2 1251   3.434   0.909  11.866 -1.5515  1.2439 -0.4852
   80TMC2    C7 1252   3.422   0.838  12.099 -0.0038 -0.3651 -0.0636
   80TMC2    C8 1253   3.537   1.120  11.737  0.1056  0.3406 -0.2507
   80TMC2    O1 1254   3.331   0.795  12.028 -0.0238  0.3278 -0.6195
   80TMC2    O2 1255   3.635   1.182  11.691  0.1283  0.2745 -0.9038
   80TMC2    O5 1256   3.425   1.077  11.672 -0.1122 -0.1296  0.1639
   80TMC2    H5 1257   3.358   1.037  11.731  0.1162 -2.8195 -1.4544
   81MPD2     C 1258   4.066   1.253  12.075 -0.2474 -0.8249 -0.1787
   81MPD2    C1 1259   3.954   1.288  12.145 -0.7819  0.4091 -0.0165
   81MPD2    C2 1260   3.973   1.331  12.274  0.7706  0.5254  0.2066
   81MPD2    C3 1261   4.105   1.357  12.323 -0.5411 -0.6816  0.3492
   81MPD2    C4 1262   4.214   1.320  12.249  0.2145 -0.0847 -0.0153
   81MPD2    C5 1263   4.192   1.268  12.123  0.3946  0.3506 -0.1874
   81MPD2     H 1264   3.888   1.361  12.334  0.4465 -0.3143  0.1698
   81MPD2    H1 1265   4.320   1.323  12.272  0.2432  0.6078 -0.2327
   81MPD2    H2 1266   4.048   1.208  11.979  1.2709 -0.9817 -0.3874
   81MPD2    H3 1267   4.284   1.244  12.071  0.6150 -2.0799  1.3332
   81MPD2     N 1268   4.132   1.410  12.450 -0.5730  0.7724  0.5476
   81MPD2    H5 1269   4.228   1.410  12.481 -0.0965  0.4649 -0.9134
   81MPD2    N1 1270   3.828   1.234  12.103 -0.7758 -0.8826 -0.6068
   81MPD2    H7 1271   3.829   1.180  12.017 -0.9592 -1.3667 -0.2979
   82TMC2    C1 1272   2.248   4.259  10.871  0.1316 -0.5806 -0.6495
   82TMC2    C2 1273   2.235   4.245  10.738 -0.3890  0.1381 -0.2546
   82TMC2    C3 1274   2.176   4.129  10.686 -0.6845  0.0271 -0.2029
   82TMC2    C4 1275   2.230   4.156  10.960  0.1520 -0.2260  0.3383
   82TMC2    C5 1276   2.179   4.041  10.906  0.1954 -0.2321  0.4223
   82TMC2    C6 1277   2.146   4.028  10.774  0.2290 -0.1012 -0.2817
   82TMC2     C 1278   2.222   4.392  10.915 -0.3601  0.2567 -0.0393
   82TMC2     O 1279   2.286   4.433  11.008 -0.4175  0.6370 -0.2242
   82TMC2     H 1280   2.260   4.332  10.679 -0.2172  0.1260 -0.1993
   82TMC2    H1 1281   2.229   4.173  11.067 -2.3776  2.2078 -0.0487
   82TMC2    H2 1282   2.105   3.935  10.736 -0.0992  0.5461 -1.5080
   82TMC2    C7 1283   2.081   3.980  10.995 -0.2032  0.3866 -0.0234
   82TMC2    C8 1284   2.178   4.102  10.546  0.0556  0.4677  0.6741
   82TMC2    O1 1285   2.041   4.051  11.084 -0.3444 -0.5315  0.1740
   82TMC2    O2 1286   2.241   4.178  10.476 -0.2749  0.1059  0.3228
   82TMC2    O5 1287   2.109   3.988  10.507  0.2177 -0.2239  0.0380
   82TMC2    H5 1288   2.053   3.939  10.571 -0.9655 -1.9884 -2.3656
   83MPD2     C 1289   2.005   0.101  10.830 -0.3893  0.5917  0.3341
   83MPD2    C1 1290   1.963   0.009  10.738  0.3440  0.8551 -0.9894
   83MPD2    C2 1291   1.993   4.615  10.745 -0.4271  0.2690 -0.2570
   83MPD2    C3 1292   2.080   4.580  10.848 -0.0683  0.5671  0.5307
   83MPD2    C4 1293   2.122   4.670  10.942  0.5000 -0.3102  0.9634
   83MPD2    C5 1294   2.086   0.059  10.936  0.0456 -0.3880 -0.8693
   83MPD2     H 1295   1.956   4.543  10.672 -0.1914  1.2125 -1.3122
   83MPD2    H1 1296   2.174   4.636  11.031  3.7371 -2.7661 -1.8287
   83MPD2    H2 1297   1.981   0.206  10.826  0.9100  0.8846  0.1952
   83MPD2    H3 1298   2.137   0.129  11.002  0.2572 -2.0294  0.7014
   83MPD2     N 1299   2.114   4.443  10.846  0.2760 -0.3022  0.2892
   83MPD2    H5 1300   2.076   4.384  10.773  1.4184  0.4311 -0.9064
   83MPD2    N1 1301   1.878   0.057  10.637  0.9905  0.5899  0.0676
   83MPD2    H7 1302   1.847   0.153  10.652  0.8208  0.2282  1.9432
   84TMC2    C1 1303   2.831   4.640  10.828 -0.1368  0.9301 -0.4962
   84TMC2    C2 1304   2.712   4.573  10.811 -0.5670 -0.1696 -0.1974
   84TMC2    C3 1305   2.674   4.523  10.687 -0.2321  0.5525  0.0400
   84TMC2    C4 1306   2.900   4.669  10.714 -0.8293 -0.7612 -0.5310
   84TMC2    C5 1307   2.867   4.613  10.594 -0.0797 -0.0370 -0.0880
   84TMC2    C6 1308   2.756   4.539  10.578 -0.4581  0.0835 -0.4486
   84TMC2     C 1309   2.879   4.689  10.960 -0.0756 -0.0083  0.0634
   84TMC2     O 1310   2.805   4.740  11.046 -0.3262  0.0709 -0.6528
   84TMC2     H 1311   2.652   4.555  10.899 -0.4747 -0.0955 -0.1187
   84TMC2    H1 1312   2.985   4.736  10.727  0.6642 -2.3787 -1.8932
   84TMC2    H2 1313   2.729   4.492  10.484 -0.1057 -0.9045 -0.0595
   84TMC2    C7 1314   2.972   4.594  10.490  0.6692  0.7577  0.4318
   84TMC2    C8 1315   2.547   4.459  10.662 -0.1249 -0.0123  0.1328
   84TMC2    O1 1316   2.963   4.504  10.408  0.2764 -0.2850  0.0906
   84TMC2    O2 1317   2.531   4.386  10.564 -0.3070  0.3568  0.0859
   84TMC2    O5 1318   2.449   4.549  10.710  0.3653  0.0209  0.0939
   84TMC2    H5 1319   2.488   4.619  10.765  0.0087  0.5660 -0.3524
   85TMC2    C1 1320   3.903   2.851  15.879  0.0169  0.0432  0.0113
   85TMC2    C2 1321   3.812   2.794  15.794  0.7523  0.3739  0.1448
   85TMC2    C3 1322   3.757   2.887  15.707 -0.2089  0.2672  0.2498
   85TMC2    C4 1323   3.940   2.989  15.891  0.0826 -0.3005 -0.8604
   85TMC2    C5 1324   3.881   3.069  15.795  0.9775  0.1177 -0.4002
   85TMC2    C6 1325   3.791   3.017  15.706  0.4199  0.0062  0.0489
   85TMC2     C 1326   3.959   2.766  15.982 -0.8398  0.2153  0.3537
   85TMC2     O 1327   4.065   2.801  16.034 -0.2520 -0.0215  0.1505
   85TMC2     H 1328   3.799   2.687  15.778 -0.0022  0.9561 -3.2642
   85TMC2    H1 1329   4.020   3.023  15.955 -0.3115  1.1916 -1.1529
   85TMC2    H2 1330   3.762   3.070  15.616 -0.1213 -0.3911 -0.0092
   85TMC2    C7 1331   3.975   3.152  15.720  0.1704 -0.0318 -0.8445
   85TMC2    C8 1332   3.732   2.839  15.568  0.5295  0.6361  0.3896
   85TMC2    O1 1333   3.933   3.229  15.634 -0.2687  0.0880 -0.6108
   85TMC2    O2 1334   3.787   2.890  15.472  0.0844  0.1594 -0.2340
   85TMC2    O5 1335   3.676   2.720  15.568 -0.2827 -0.3111  0.4434
   85TMC2    H5 1336   3.632   2.701  15.654  0.2521 -0.9631  0.5749
   86MPD2     C 1337   3.953   2.344  16.262  0.3914 -0.1370  0.0947
   86MPD2    C1 1338   3.833   2.344  16.189  0.3323  0.2711  0.0676
   86MPD2    C2 1339   3.811   2.459  16.111  0.0457  0.4369 -0.4694
   86MPD2    C3 1340   3.906   2.558  16.103 -0.2387 -0.0641 -0.1954
   86MPD2    C4 1341   4.026   2.551  16.173 -0.3355 -0.2513  0.4085
   86MPD2    C5 1342   4.051   2.435  16.240 -0.9523 -0.0285 -0.5430
   86MPD2     H 1343   3.724   2.460  16.046 -0.7563 -0.2947  0.6013
   86MPD2    H1 1344   4.110   2.619  16.158 -1.6006  0.9885 -1.1473
   86MPD2    H2 1345   3.981   2.268  16.334  0.1984 -0.2920  0.0059
   86MPD2    H3 1346   4.153   2.427  16.277 -0.1130  0.8308 -2.6528
   86MPD2     N 1347   3.872   2.668  16.020  0.2088  0.6313  0.0120
   86MPD2    H5 1348   3.777   2.680  15.986  1.0061  1.8143 -1.8198
   86MPD2    N1 1349   3.747   2.233  16.186  0.0788 -0.7129  0.0913
   86MPD2    H7 1350   3.668   2.239  16.123 -0.7131 -0.3263  1.1372
   87TMC2    C1 1351   1.244   0.440   0.971  0.1779 -0.1490 -1.2130
   87TMC2    C2 1352   1.327   0.404   1.069 -0.7953  0.1181 -0.1864
   87TMC2    C3 1353   1.290   0.435   1.198  0.5197  0.3844  0.1840
   87TMC2    C4 1354   1.116   0.476   1.000  0.0046 -0.4947  0.3700
   87TMC2    C5 1355   1.076   0.498   1.132  0.2208  1.1990 -0.0884
   87TMC2    C6 1356   1.165   0.485   1.233  0.6754  0.0817  0.0673
   87TMC2     C 1357   1.274   0.427   0.822 -0.1829 -0.9865 -0.1444
   87TMC2     O 1358   1.171   0.453   0.756  0.3762  0.1703 -0.1396
   87TMC2     H 1359   1.423   0.361   1.045 -1.0223 -0.3792 -0.1991
   87TMC2    H1 1360   1.047   0.505   0.922  0.7132 -1.2983 -0.5623
   87TMC2    H2 1361   1.140   0.530   1.329 -2.4095  0.4915 -0.9517
   87TMC2    C7 1362   0.968   0.591   1.159  0.2398 -0.2308 -0.0064
   87TMC2    C8 1363   1.395   0.503   1.271 -0.3331  0.8322  0.0907
   87TMC2    O1 1364   0.937   0.666   1.070  0.2554 -0.2548 -0.7972
   87TMC2    O2 1365   1.506   0.539   1.224 -0.1090 -0.1409 -1.0947
   87TMC2    O5 1366   1.374   0.460   1.395 -0.1954  0.2364  0.1885
   87TMC2    H5 1367   1.284   0.423   1.413 -0.8165  1.0540 -1.2162
   88MPD2     C 1368   0.722   0.559   1.418  0.2192  0.7752 -0.1932
   88MPD2    C1 1369   0.776   0.617   1.311 -0.1509  0.1258 -0.3618
   88MPD2    C2 1370   0.751   0.749   1.284 -0.3336  0.6137 -0.9443
   88MPD2    C3 1371   0.653   0.818   1.355 -0.7964  0.3126  0.2524
   88MPD2    C4 1372   0.588   0.750   1.460 -0.2972 -0.0294 -0.2225
   88MPD2    C5 1373   0.621   0.618   1.487 -0.4742  0.1959 -0.1829
   88MPD2     H 1374   0.810   0.798   1.208 -0.7756  0.5708 -1.3144
   88MPD2    H1 1375   0.512   0.806   1.513 -1.0263 -0.2717 -1.0057
   88MPD2    H2 1376   0.764   0.470   1.463  0.8343  1.2544  0.1883
   88MPD2    H3 1377   0.582   0.571   1.577 -0.9923  0.8193 -0.0813
   88MPD2     N 1378   0.615   0.952   1.323 -0.5224  0.1940  0.4529
   88MPD2    H5 1379   0.538   0.995   1.374 -1.1280  1.5892 -1.6317
   88MPD2    N1 1380   0.886   0.546   1.258  0.3580 -0.2363  0.2148
   88MPD2    H7 1381   0.910   0.452   1.289 -0.4318 -0.8953 -1.1898
   89TMC2    C1 1382   2.560   3.337   1.289 -0.3427  0.0237  0.3012
   89TMC2    C2 1383   2.630   3.434   1.354  0.1304  0.4848 -0.7097
   89TMC2    C3 1384   2.588   3.560   1.337  0.3877 -0.6303  0.0451
   89TMC2    C4 1385   2.444   3.361   1.217  0.2693  0.4280  0.2596
   89TMC2    C5 1386   2.422   3.491   1.190 -0.4326  0.4871 -0.1454
   89TMC2    C6 1387   2.486   3.594   1.252 -0.2591  0.2807 -0.2772
   89TMC2     C 1388   2.600   3.204   1.325  0.4663 -0.0573  0.4090
   89TMC2     O 1389   2.704   3.200   1.396  0.1088 -0.0118 -0.4366
   89TMC2     H 1390   2.707   3.411   1.428  0.2381  2.5364 -0.1701
   89TMC2    H1 1391   2.410   3.295   1.138 -0.2104  1.1727 -0.1625
   89TMC2    H2 1392   2.450   3.696   1.255  2.4342  1.2847 -1.9759
   89TMC2    C7 1393   2.316   3.532   1.111  0.1836  1.0803 -0.4097
   89TMC2    C8 1394   2.652   3.665   1.415  0.3372 -0.1551  0.5025
   89TMC2    O1 1395   2.213   3.469   1.135 -0.2032 -0.4734 -0.3731
   89TMC2    O2 1396   2.731   3.654   1.511 -0.0085  0.1778  0.0129
   89TMC2    O5 1397   2.644   3.776   1.339  0.1373  0.7097 -0.0555
   89TMC2    H5 1398   2.615   3.759   1.247 -0.1239 -1.5655  0.4316
   90MPD2     C 1399   2.510   2.723   1.431 -0.5794  0.0393  0.0448
   90MPD2    C1 1400   2.393   2.787   1.431  0.3730 -0.3218 -0.0613
   90MPD2    C2 1401   2.387   2.919   1.391  0.0846  0.0253 -0.0424
   90MPD2    C3 1402   2.500   2.982   1.359 -0.4815 -0.6628  0.9096
   90MPD2    C4 1403   2.621   2.914   1.365  0.0665 -0.6709  0.3142
   90MPD2    C5 1404   2.629   2.785   1.393 -0.2509 -0.0909  0.0781
   90MPD2     H 1405   2.292   2.970   1.380  0.5324  1.5372  2.8588
   90MPD2    H1 1406   2.717   2.961   1.344 -1.3330  1.9443 -0.3459
   90MPD2    H2 1407   2.503   2.617   1.450  0.4957 -0.0024  0.2355
   90MPD2    H3 1408   2.721   2.729   1.407 -0.6514 -1.0010 -1.0130
   90MPD2     N 1409   2.492   3.115   1.314 -0.2401 -0.9039  0.3786
   90MPD2    H5 1410   2.403   3.157   1.292 -0.1876 -0.7769  0.4037
   90MPD2    N1 1411   2.273   2.714   1.465  0.0143  0.2038  0.4871
   90MPD2    H7 1412   2.293   2.626   1.513  3.0744  0.7714  0.2650
   91TMC2    C1 1413   3.781   3.738  16.158 -1.0863  0.9013  0.3782
   91TMC2    C2 1414   3.817   3.849  16.226  0.1133 -0.8950 -0.3523
   91TMC2    C3 1415   3.722   3.899  16.302  0.3220 -0.2573 -0.8646
   91TMC2    C4 1416   3.662   3.673  16.170  0.1437 -0.2822 -0.5252
   91TMC2    C5 1417   3.582   3.714  16.273  0.1031 -0.4432  0.1324
   91TMC2    C6 1418   3.610   3.832  16.341 -0.1051  0.3190 -0.8781
   91TMC2     C 1419   3.874   3.667  16.077 -0.0856 -0.4043  0.6729
   91TMC2     O 1420   3.819   3.586  16.004  0.1560  0.2372  0.2440
   91TMC2     H 1421   3.905   3.912  16.212  0.5414 -1.1790  1.0411
   91TMC2    H1 1422   3.641   3.577  16.123  1.6237 -1.4561  1.2267
   91TMC2    H2 1423   3.550   3.873  16.422  2.2680  0.7556  0.6660
   91TMC2    C7 1424   3.449   3.660  16.299  0.0887 -0.4067  0.4997
   91TMC2    C8 1425   3.764   3.998  16.400 -0.7415  0.7987 -0.0581
   91TMC2    O1 1426   3.400   3.702  16.401 -0.2640  0.1166  0.0187
   91TMC2    O2 1427   3.776   4.114  16.356  0.3416 -0.2771  0.4147
   91TMC2    O5 1428   3.861   3.927  16.464 -0.0644  0.5680  0.4462
   91TMC2    H5 1429   3.833   3.837  16.491 -2.3679  0.6387 -1.7987
   92MPD2     C 1430   4.101   3.537  15.933 -0.2930  0.0074  0.9198
   92MPD2    C1 1431   4.117   3.614  16.044 -0.7844 -0.0729 -0.4897
   92MPD2    C2 1432   4.250   3.628  16.087  0.1472  0.9017 -0.1948
   92MPD2    C3 1433   4.359   3.574  16.022  0.6836  0.5478 -0.1107
   92MPD2    C4 1434   4.340   3.500  15.905  1.2414 -0.1220 -0.5981
   92MPD2    C5 1435   4.209   3.485  15.867 -0.9095  0.0164 -0.2731
   92MPD2     H 1436   4.258   3.705  16.162  1.8369 -0.3067  0.8755
   92MPD2    H1 1437   4.418   3.440  15.860  0.6012 -0.0198 -1.8466
   92MPD2    H2 1438   4.003   3.520  15.889  0.7578  0.9833 -1.8385
   92MPD2    H3 1439   4.195   3.424  15.778 -1.0938  1.1092 -0.9923
   92MPD2     N 1440   4.487   3.586  16.086  0.0197 -0.0612 -0.0378
   92MPD2    H5 1441   4.496   3.646  16.168  0.5456  3.5974 -2.7655
   92MPD2    N1 1442   4.008   3.677  16.114  0.2544  0.5766 -0.3273
   92MPD2    H7 1443   4.027   3.734  16.196  0.7248  1.1906 -0.8552
   93TMC2    C1 1444   1.114   3.276  14.067 -0.4019  0.3669  0.0689
   93TMC2    C2 1445   1.098   3.169  13.976  0.1230  0.4999  0.2482
   93TMC2    C3 1446   1.213   3.124  13.918  0.6083  0.9411 -0.2016
   93TMC2    C4 1447   1.234   3.336  14.092 -0.7317  0.4493 -0.2031
   93TMC2    C5 1448   1.344   3.275  14.038  0.2997 -0.6307 -0.9189
   93TMC2    C6 1449   1.337   3.173  13.948 -0.0517 -0.0840  0.0254
   93TMC2     C 1450   0.987   3.326  14.125 -0.0073  0.0016  0.0966
   93TMC2     O 1451   1.004   3.393  14.224  0.5242 -0.0920  0.1950
   93TMC2     H 1452   1.005   3.115  13.962  0.3075  0.3765 -0.4842
   93TMC2    H1 1453   1.224   3.428  14.148  1.1929 -0.0486  0.9561
   93TMC2    H2 1454   1.423   3.131  13.899 -0.6503 -0.2373 -0.8818
   93TMC2    C7 1455   1.465   3.349  14.033  0.2365 -0.1006 -0.1704
   93TMC2    C8 1456   1.198   3.010  13.830 -0.1530 -0.2812  0.0854
   93TMC2    O1 1457   1.554   3.286  13.980 -0.3332  0.1794  0.3030
   93TMC2    O2 1458   1.297   2.956  13.792 -0.6275 -0.3718 -0.0988
   93TMC2    O5 1459   1.079   3.013  13.750 -0.2362 -0.1430  0.2267
   93TMC2    H5 1460   1.014   3.082  13.776  1.0608  1.1934 -0.0639
   94MPD2     C 1461   0.723   3.451  14.178  0.2040  0.2911 -1.1000
   94MPD2    C1 1462   0.753   3.383  14.063 -0.3878 -0.1325 -0.5762
   94MPD2    C2 1463   0.666   3.381  13.956 -0.1803  0.8524 -0.4167
   94MPD2    C3 1464   0.537   3.438  13.972 -0.5977  0.6558 -0.2215
   94MPD2    C4 1465   0.515   3.515  14.086 -0.1365 -0.0162 -0.4887
   94MPD2    C5 1466   0.606   3.515  14.189 -0.8937  0.0153  0.3785
   94MPD2     H 1467   0.706   3.339  13.865 -0.2522 -0.5697  0.2142
   94MPD2    H1 1468   0.421   3.566  14.103  0.2243  1.4542 -2.9812
   94MPD2    H2 1469   0.792   3.451  14.261  0.9874  1.2526 -1.7600
   94MPD2    H3 1470   0.595   3.558  14.288  0.7945  2.5169 -0.5148
   94MPD2     N 1471   0.433   3.425  13.877 -0.0810 -0.3057 -0.0211
   94MPD2    H5 1472   0.347   3.470  13.906  0.3165 -0.6635  1.6717
   94MPD2    N1 1473   0.877   3.317  14.046 -0.1689  0.3133 -0.3320
   94MPD2    H7 1474   0.891   3.263  13.961 -0.4866 -0.1066 -0.1198
   95TMC2    C1 1475   0.944   0.818  16.045  0.5569  0.0379 -0.2204
   95TMC2    C2 1476   0.894   0.707  16.107  0.8397  0.1060 -0.0659
   95TMC2    C3 1477   0.868   0.723  16.241 -0.9678  0.5892 -0.1945
   95TMC2    C4 1478   0.972   0.935  16.109  0.2150 -0.1675  0.9883
   95TMC2    C5 1479   0.954   0.943  16.245 -0.1616 -0.1666  0.6632
   95TMC2    C6 1480   0.899   0.837  16.311  0.2780  0.1749  0.1161
   95TMC2     C 1481   1.004   0.802  15.916 -0.8084 -0.5977  0.3566
   95TMC2     O 1482   1.061   0.896  15.868 -0.0054  0.0965 -0.8802
   95TMC2     H 1483   0.870   0.614  16.058 -2.4735 -0.1342  1.9989
   95TMC2    H1 1484   1.032   1.013  16.064 -3.7457  1.1626 -1.9414
   95TMC2    H2 1485   0.894   0.841  16.420 -1.4416 -1.3762  0.0986
   95TMC2    C7 1486   0.988   1.057  16.329  0.3658  0.0873  0.2777
   95TMC2    C8 1487   0.808   0.602  16.297  0.2518  0.2592  0.3852
   95TMC2    O1 1488   0.997   1.030  16.448  0.4156 -0.5043  0.1271
   95TMC2    O2 1489   0.810   0.496  16.244 -0.3879 -0.1072  0.0740
   95TMC2    O5 1490   0.713   0.638  16.389  0.1013 -0.2189 -0.1314
   95TMC2    H5 1491   0.735   0.727  16.426  2.9318 -1.0440  0.2159
   96MPD2     C 1492   1.163   0.466  15.561  0.2851  0.2174  0.4487
   96MPD2    C1 1493   1.203   0.591  15.592  0.2909  0.7502  0.0357
   96MPD2    C2 1494   1.138   0.663  15.690 -0.2077 -0.9373  0.7327
   96MPD2    C3 1495   1.023   0.617  15.753  0.0262  0.9833 -0.0501
   96MPD2    C4 1496   0.982   0.488  15.721  0.2421  0.2711  0.1628
   96MPD2    C5 1497   1.055   0.415  15.629  0.1271  0.4351 -0.4407
   96MPD2     H 1498   1.179   0.759  15.719  1.3310 -1.9599  1.9489
   96MPD2    H1 1499   0.885   0.449  15.751 -0.5364  0.3145 -2.2346
   96MPD2    H2 1500   1.204   0.400  15.485 -1.5414  0.9864 -1.1886
   96MPD2    H3 1501   1.035   0.313  15.598  0.1619  0.9498 -2.1719
   96MPD2     N 1502   0.961   0.689  15.857  0.0889  0.2588  0.7466
   96MPD2    H5 1503   0.875   0.645  15.889  0.0772 -0.8819 -0.8639
   96MPD2    N1 1504   1.316   0.638  15.521  0.4514  0.0011 -0.4267
   96MPD2    H7 1505   1.370   0.570  15.468 -0.0428 -1.1880  0.5713
   97TMC2    C1 1506   3.119   3.226  17.383 -0.4097  0.2476 -0.2897
   97TMC2    C2 1507   3.040   3.265  17.279 -0.1933  0.4331  0.1481
   97TMC2    C3 1508   3.050   3.394  17.232 -0.0112  0.1811 -1.1326
   97TMC2    C4 1509   3.211   3.316  17.431 -0.0451 -0.5430 -0.2365
   97TMC2    C5 1510   3.216   3.446  17.380 -0.1236 -1.1861  0.2400
   97TMC2    C6 1511   3.122   3.491  17.288  0.2798  0.1532 -0.7587
   97TMC2     C 1512   3.125   3.092  17.432 -1.5309  0.8657  0.5990
   97TMC2     O 1513   3.168   3.076  17.544 -0.4507 -0.8987  0.3372
   97TMC2     H 1514   2.958   3.200  17.252  1.0841 -1.5030  0.9675
   97TMC2    H1 1515   3.288   3.284  17.500  0.7413  0.0546 -0.8404
   97TMC2    H2 1516   3.125   3.596  17.261  0.6414  0.1652 -0.6672
   97TMC2    C7 1517   3.298   3.539  17.454 -0.5612  0.6944  0.2910
   97TMC2    C8 1518   2.938   3.425  17.142 -0.1951 -0.0824  0.3660
   97TMC2    O1 1519   3.322   3.505  17.570  0.0271  0.3561  0.0273
   97TMC2    O2 1520   2.840   3.353  17.129 -0.1817 -0.4771 -0.2997
   97TMC2    O5 1521   2.963   3.543  17.087  0.4299 -0.1805  0.7949
   97TMC2    H5 1522   3.056   3.574  17.094  0.4943 -0.4135  0.9793
   98MPD2     C 1523   2.977   2.599  17.407 -0.0603  0.0065 -0.5602
   98MPD2    C1 1524   3.006   2.674  17.518 -0.1902 -0.5020  0.1666
   98MPD2    C2 1525   3.053   2.804  17.504  0.4068  0.2795  0.3979
   98MPD2    C3 1526   3.054   2.859  17.376 -0.3383  0.1295 -0.5875
   98MPD2    C4 1527   3.023   2.781  17.263  0.4994 -0.7026  0.1500
   98MPD2    C5 1528   2.987   2.651  17.281  0.6787 -0.0052 -0.2632
   98MPD2     H 1529   3.094   2.861  17.587 -1.4777 -0.5587  1.9180
   98MPD2    H1 1530   3.023   2.827  17.165  1.4896 -1.0428 -0.0183
   98MPD2    H2 1531   2.955   2.493  17.410 -0.1201  0.0103 -0.8344
   98MPD2    H3 1532   2.962   2.589  17.196  2.9666 -0.1693 -0.8007
   98MPD2     N 1533   3.080   3.000  17.348  0.6097  0.7062  0.7719
   98MPD2    H5 1534   3.071   3.032  17.252  0.2705  0.9312  0.8806
   98MPD2    N1 1535   3.003   2.600  17.640 -0.0622 -0.1538  0.1928
   98MPD2    H7 1536   2.974   2.502  17.635 -1.0620  0.1926 -0.8370
   99TMC2    C1 1537   2.260   0.090   1.710  0.1641  0.0296  0.3566
   99TMC2    C2 1538   2.361   0.130   1.789 -0.3133 -0.0331 -0.4556
   99TMC2    C3 1539   2.322   0.167   1.913 -0.3599  0.4234  1.1936
   99TMC2    C4 1540   2.132   0.070   1.747  0.2289 -0.6421  0.3742
   99TMC2    C5 1541   2.099   0.104   1.879 -0.1527 -0.4278 -0.3630
   99TMC2    C6 1542   2.196   0.147   1.966 -0.2901  0.1480 -0.4105
   99TMC2     C 1543   2.288   0.093   1.564 -0.5912  0.1528 -0.5884
   99TMC2     O 1544   2.386   0.161   1.528  0.4570  0.3551 -0.3215
   99TMC2     H 1545   2.458   0.156   1.749  0.5095 -2.3257  0.0283
   99TMC2    H1 1546   2.050   0.057   1.678  0.9377  2.5936 -1.0830
   99TMC2    H2 1547   2.171   0.171   2.068  0.4961  1.6642 -0.5770
   99TMC2    C7 1548   1.964   0.088   1.931 -0.2247  0.3200  0.4341
   99TMC2    C8 1549   2.419   0.210   2.013 -0.1830  0.7736  0.8130
   99TMC2    O1 1550   1.932   0.166   2.019  0.0033  0.4159  0.7180
   99TMC2    O2 1551   2.391   0.255   2.121  0.0154  0.0123  0.8221
   99TMC2    O5 1552   2.534   0.145   1.986 -0.3349 -0.2002 -0.6536
   99TMC2    H5 1553   2.528   0.091   1.904  0.4876 -0.4207 -0.5770
  100MPD2     C 1554   2.250   0.115   1.268 -0.0846 -0.5346  0.2938
  100MPD2    C1 1555   2.177   0.031   1.347  0.4593 -0.6032 -0.4530
  100MPD2    C2 1556   2.081   4.685   1.285 -0.5137 -0.4401 -0.3718
  100MPD2    C3 1557   2.051   4.689   1.152  0.0827 -0.0271  0.0897
  100MPD2    C4 1558   2.120   0.037   1.073  0.5010  0.0203 -0.4545
  100MPD2    C5 1559   2.210   0.126   1.136  0.0383  0.1766 -0.0094
  100MPD2     H 1560   2.027   4.618   1.350  1.6272 -1.3623  0.4847
  100MPD2    H1 1561   2.097   0.055   0.969 -2.0057 -0.4833  0.0002
  100MPD2    H2 1562   2.328   0.180   1.305 -0.4660 -0.4367  0.9222
  100MPD2    H3 1563   2.269   0.185   1.068 -0.0493  0.0108 -0.2315
  100MPD2     N 1564   1.953   4.602   1.099 -0.1324 -0.3809 -0.5205
  100MPD2    H5 1565   1.902   4.556   1.173  1.6254 -0.4683  0.6335
  100MPD2    N1 1566   2.193   0.028   1.486  0.3323  0.0156 -0.6741
  100MPD2    H7 1567   2.131   4.706   1.538 -0.7507 -0.2642 -2.2966
  101TMC2    C1 1568   2.977   1.439  13.285  0.3586  0.2149 -0.5134
  101TMC2    C2 1569   2.980   1.449  13.419 -0.0476 -0.0005  1.5206
  101TMC2    C3 1570   3.089   1.517  13.475 -0.6277 -0.4424  0.3178
  101TMC2    C4 1571   3.059   1.506  13.197  0.4406  0.5722  0.3256
  101TMC2    C5 1572   3.159   1.586  13.255 -0.3099  0.1935 -0.2670
  101TMC2    C6 1573   3.173   1.589  13.390 -0.1982  0.1554  0.0375
  101TMC2     C 1574   2.921   1.310  13.239  0.3477  0.3134 -0.3876
  101TMC2     O 1575   2.851   1.252  13.320 -0.1909  0.3257  0.7669
  101TMC2     H 1576   2.919   1.380  13.477  0.6985 -0.4866  1.7217
  101TMC2    H1 1577   3.040   1.496  13.091  0.2229 -0.9748  0.5138
  101TMC2    H2 1578   3.269   1.617  13.431 -1.4067  2.8322  1.0601
  101TMC2    C7 1579   3.262   1.642  13.167 -0.2830 -0.2087  0.0430
  101TMC2    C8 1580   3.134   1.497  13.608 -0.7367  0.3115 -0.2601
  101TMC2    O1 1581   3.241   1.635  13.045  0.2344 -0.1615 -0.1729
  101TMC2    O2 1582   3.254   1.481  13.614  0.1103  0.9638 -0.0997
  101TMC2    O5 1583   3.047   1.410  13.661  1.1542  0.6594  0.0582
  101TMC2    H5 1584   2.953   1.435  13.649  0.5312 -2.3286 -1.0299
  102MPD2     C 1585   3.037   1.068  12.977  0.3708 -0.0791 -0.9895
  102MPD2    C1 1586   2.950   1.133  13.063  0.5140  0.7048 -0.1380
  102MPD2    C2 1587   2.844   1.059  13.116  0.3366  0.1403 -0.5712
  102MPD2    C3 1588   2.807   0.935  13.062  0.4336 -0.0930  0.7373
  102MPD2    C4 1589   2.890   0.877  12.966  0.3900  0.0359 -0.2153
  102MPD2    C5 1590   3.005   0.942  12.931  0.3203  0.0307  0.1654
  102MPD2     H 1591   2.772   1.103  13.185  0.6412 -0.0813 -0.1120
  102MPD2    H1 1592   2.868   0.779  12.925  1.6346 -1.4932  2.7417
  102MPD2    H2 1593   3.135   1.109  12.953  0.0760  0.8606 -0.5971
  102MPD2    H3 1594   3.065   0.896  12.853 -1.1202  2.5344 -2.4403
  102MPD2     N 1595   2.700   0.871  13.122  0.0269  0.4523  0.1247
  102MPD2    H5 1596   2.641   0.927  13.182 -0.1720 -1.0758  1.3524
  102MPD2    N1 1597   2.987   1.257  13.126  0.2679  0.0369 -0.1295
  102MPD2    H7 1598   3.063   1.309  13.082 -0.2560  1.6732  0.8769
  103TMC2    C1 1599   1.162   1.697  13.384  0.4835  0.3926  0.5137
  103TMC2    C2 1600   1.132   1.826  13.394 -0.2004  0.5890 -0.5253
  103TMC2    C3 1601   1.100   1.881  13.516  0.0907  0.6085  0.1483
  103TMC2    C4 1602   1.160   1.615  13.495  0.8342 -0.4676  0.2066
  103TMC2    C5 1603   1.108   1.667  13.607 -0.1828 -0.3992 -0.7855
  103TMC2    C6 1604   1.083   1.797  13.625 -0.3199  0.2492  0.0908
  103TMC2     C 1605   1.174   1.640  13.250  0.3258 -0.7822  0.1301
  103TMC2     O 1606   1.113   1.533  13.236  0.5366 -0.7645  0.1411
  103TMC2     H 1607   1.146   1.897  13.313  0.1126  0.0266 -0.9636
  103TMC2    H1 1608   1.174   1.508  13.491  1.3010 -0.4442  1.1473
  103TMC2    H2 1609   1.073   1.840  13.724 -0.4265  0.6217 -0.0815
  103TMC2    C7 1610   1.092   1.584  13.724  0.2893 -0.3128  0.1629
  103TMC2    C8 1611   1.034   2.009  13.522 -0.1279  0.0404  0.0250
  103TMC2    O1 1612   0.991   1.606  13.785 -0.4257 -0.4116  0.4048
  103TMC2    O2 1613   1.045   2.086  13.615 -0.4801 -0.4623  0.2275
  103TMC2    O5 1614   0.931   2.008  13.431  0.4505 -0.6255 -0.2419
  103TMC2    H5 1615   0.931   1.922  13.384 -0.2634 -1.0003  0.4527
  104MPD2     C 1616   1.289   1.829  12.941  0.3473 -0.2193 -0.1866
  104MPD2    C1 1617   1.226   1.726  13.012  0.2659 -0.3720 -0.3739
  104MPD2    C2 1618   1.161   1.628  12.941  0.0592 -0.9988  0.0649
  104MPD2    C3 1619   1.148   1.634  12.800 -0.7283 -0.2639 -0.8739
  104MPD2    C4 1620   1.212   1.737  12.731  0.0488  0.0023  0.2747
  104MPD2    C5 1621   1.273   1.837  12.802  0.3219 -0.3814 -0.1286
  104MPD2     H 1622   1.132   1.538  12.993  1.1844 -1.0501  0.5934
  104MPD2    H1 1623   1.202   1.751  12.624  2.9570 -1.1930 -0.1550
  104MPD2    H2 1624   1.328   1.910  13.002  0.5232  0.2720 -0.9512
  104MPD2    H3 1625   1.306   1.926  12.750  0.1232 -0.7948 -0.9712
  104MPD2     N 1626   1.083   1.529  12.738 -0.0186 -0.2996 -0.6749
  104MPD2    H5 1627   1.043   1.452  12.792  3.4696 -0.4292  1.6986
  104MPD2    N1 1628   1.231   1.727  13.155  0.4604  0.8788 -0.0821
  104MPD2    H7 1629   1.279   1.808  13.192  2.2649 -1.1111  1.9635
  105TMC2    C1 1630   1.198   0.302  17.631  0.0193  0.8168 -0.4903
  105TMC2    C2 1631   1.079   0.246  17.681 -0.4209  0.5162 -0.0481
  105TMC2    C3 1632   1.052   0.283   0.057 -0.6106 -0.3962 -0.6060
  105TMC2    C4 1633   1.288   0.376  17.704 -0.5560 -0.0657  0.1028
  105TMC2    C5 1634   1.262   0.384   0.087 -0.9112 -0.0808  0.9272
  105TMC2    C6 1635   1.142   0.346   0.142  0.6714 -0.8409 -0.2345
  105TMC2     C 1636   1.224   0.258  17.497 -0.4962  0.6848  0.0813
  105TMC2     O 1637   1.162   0.174  17.437 -0.4117 -0.0122  0.1940
  105TMC2     H 1638   1.006   0.201  17.615 -0.2248 -0.4878  0.4230
  105TMC2    H1 1639   1.383   0.409  17.664  0.3661 -1.4989  1.0797
  105TMC2    H2 1640   1.120   0.356   0.248 -0.6203 -1.3720 -0.4527
  105TMC2    C7 1641   1.377   0.400   0.170  0.1365 -0.5141 -0.0932
  105TMC2    C8 1642   0.930   0.241   0.112  0.1192  0.6586  0.0123
  105TMC2    O1 1643   1.484   0.385   0.114 -0.4531  0.6821 -0.0870
  105TMC2    O2 1644   0.918   0.212   0.230  0.5405 -0.3014 -0.1783
  105TMC2    O5 1645   0.833   0.267   0.026  0.0755  0.6404 -0.5510
  105TMC2    H5 1646   0.861   0.319  17.703  0.8211 -0.6885 -1.1483
  106MPD2     C 1647   1.539   0.247  17.088  0.7785 -0.9423  0.2280
  106MPD2    C1 1648   1.554   0.370  17.158  0.4727  0.0752  0.3099
  106MPD2    C2 1649   1.482   0.385  17.273  0.3015  0.4134 -0.5630
  106MPD2    C3 1650   1.397   0.290  17.318  0.5059  0.0838  0.2177
  106MPD2    C4 1651   1.378   0.174  17.243 -0.6592  0.3622 -0.7657
  106MPD2    C5 1652   1.449   0.151  17.129 -0.1762 -0.1768  0.1867
  106MPD2     H 1653   1.489   0.481  17.323  0.2300  0.4887 -0.7008
  106MPD2    H1 1654   1.316   0.091  17.274  0.8161 -0.9492 -1.2879
  106MPD2    H2 1655   1.578   0.232  16.988 -0.5651 -1.6065 -0.1898
  106MPD2    H3 1656   1.426   0.071  17.060 -1.0623  1.6173 -1.5848
  106MPD2     N 1657   1.333   0.322  17.442  0.3466 -0.3754  0.6755
  106MPD2    H5 1658   1.356   0.415  17.475 -2.2488  1.2749 -2.1214
  106MPD2    N1 1659   1.641   0.472  17.115 -0.1082 -0.2260 -0.1748
  106MPD2    H7 1660   1.628   0.562  17.159 -1.8422  0.3115 -1.7768
  107TMC2    C1 1661   2.925   0.434  11.614 -0.0536 -0.2799 -0.6099
  107TMC2    C2 1662   2.966   0.561  11.658 -0.3108 -0.2615 -0.0776
  107TMC2    C3 1663   3.092   0.591  11.627  0.1497  0.0030  0.2325
  107TMC2    C4 1664   2.998   0.355  11.539  0.8162 -0.4849 -0.3408
  107TMC2    C5 1665   3.121   0.401  11.498  0.3278  0.3195 -0.0699
  107TMC2    C6 1666   3.176   0.517  11.541 -0.2118  0.0394 -0.5599
  107TMC2     C 1667   2.797   0.375  11.652  0.5893 -0.0159 -0.1951
  107TMC2     O 1668   2.768   0.257  11.634  0.2572  0.7788  0.1811
  107TMC2     H 1669   2.905   0.626  11.719 -0.3310 -1.7452  1.4901
  107TMC2    H1 1670   2.963   0.256  11.513  1.7172 -0.8090 -0.2804
  107TMC2    H2 1671   3.270   0.551  11.499 -0.2975  2.4271  1.1728
  107TMC2    C7 1672   3.193   0.324  11.397 -0.8997  0.4439  0.8107
  107TMC2    C8 1673   3.137   0.726  11.653  0.1330  0.1094 -0.4720
  107TMC2    O1 1674   3.307   0.350  11.380 -0.3862  0.1433 -0.2727
  107TMC2    O2 1675   3.057   0.813  11.681 -0.0851 -0.1378 -0.8544
  107TMC2    O5 1676   3.259   0.719  11.712 -0.6134 -0.4717  0.5785
  107TMC2    H5 1677   3.297   0.630  11.692  2.1838  1.2657 -1.8378
  108MPD2     C 1678   2.480   0.552  11.714  0.1365  0.0366 -0.0042
  108MPD2    C1 1679   2.574   0.449  11.723  0.0240 -0.6254  0.3321
  108MPD2    C2 1680   2.527   0.328  11.758  0.3056 -0.2516 -0.1484
  108MPD2    C3 1681   2.396   0.315  11.806 -0.0386  0.1121  0.2267
  108MPD2    C4 1682   2.306   0.415  11.795 -0.2224 -0.3745 -0.3810
  108MPD2    C5 1683   2.350   0.533  11.749  0.0883  0.0039  0.5227
  108MPD2     H 1684   2.598   0.249  11.779  0.6446  0.5771  1.9010
  108MPD2    H1 1685   2.210   0.402  11.844 -0.5304  0.5145 -0.7534
  108MPD2    H2 1686   2.508   0.653  11.686  0.9290 -0.6423 -1.6474
  108MPD2    H3 1687   2.279   0.616  11.748  0.8776  0.6240 -2.2462
  108MPD2     N 1688   2.349   0.193  11.864 -0.2588 -0.0152 -0.5652
  108MPD2    H5 1689   2.250   0.194  11.888  0.1964 -1.1070  1.3794
  108MPD2    N1 1690   2.710   0.481  11.690  0.1482  0.0548 -0.0886
  108MPD2    H7 1691   2.736   0.578  11.679 -1.8365  0.3956 -1.7136
  109TMC2    C1 1692   2.257   1.568  17.748 -0.2781  0.2411  0.4036
  109TMC2    C2 1693   2.281   1.557  17.610  0.3396  0.0189 -0.2584
  109TMC2    C3 1694   2.385   1.628  17.548 -0.5075 -0.2900 -0.3551
  109TMC2    C4 1695   2.319   1.675   0.051  0.0140  0.8388 -0.3250
  109TMC2    C5 1696   2.414   1.753  17.745  0.0559 -0.2537 -0.4201
  109TMC2    C6 1697   2.443   1.733  17.617  0.8202 -0.2373  0.2720
  109TMC2     C 1698   2.159   1.494   0.062 -0.4785 -0.5767 -0.0293
  109TMC2     O 1699   2.096   1.419  17.745  0.3201  0.2476 -0.5273
  109TMC2     H 1700   2.225   1.485  17.550 -2.4621  2.7165 -0.8846
  109TMC2    H1 1701   2.290   1.719   0.145 -0.3488 -1.1012  0.4691
  109TMC2    H2 1702   2.531   1.783  17.576 -0.5114  2.5387  0.8026
  109TMC2    C7 1703   2.485   1.851   0.062  0.0042 -0.2331  0.4245
  109TMC2    C8 1704   2.452   1.570  17.432 -0.7913  0.0355  0.1564
  109TMC2    O1 1705   2.532   1.944  17.752  0.4513 -0.0154  0.0406
  109TMC2    O2 1706   2.556   1.613  17.384  0.4388 -0.8683 -0.0048
  109TMC2    O5 1707   2.373   1.484  17.367  1.0365 -0.3104 -0.4063
  109TMC2    H5 1708   2.276   1.484  17.378  1.2579  1.3797  1.5628
  110MPD2     C 1709   1.869   1.350   0.468 -0.6485 -0.4094 -0.2779
  110MPD2    C1 1710   1.946   1.448   0.508  0.6524 -0.1270  0.2235
  110MPD2    C2 1711   2.039   1.495   0.417  0.6346 -0.7156  0.2697
  110MPD2    C3 1712   2.046   1.463   0.284  0.2143  0.5193  0.4382
  110MPD2    C4 1713   1.963   1.357   0.246  0.2895  0.1034  0.7882
  110MPD2    C5 1714   1.879   1.311   0.337  0.1678  0.2019  0.6995
  110MPD2     H 1715   2.096   1.584   0.441 -0.7624  0.3309 -0.2980
  110MPD2    H1 1716   1.971   1.308   0.150 -5.9961 -0.3418  0.4643
  110MPD2    H2 1717   1.797   1.296   0.529 -0.5474  0.7059  0.8255
  110MPD2    H3 1718   1.822   1.222   0.311  2.9994 -1.2826 -0.4428
  110MPD2     N 1719   2.139   1.521   0.198 -0.6320 -0.1660  0.2463
  110MPD2    H5 1720   2.206   1.581   0.245  0.2430 -0.0712 -1.0963
  110MPD2    N1 1721   1.942   1.490   0.645  0.1457 -0.3776 -0.1933
  110MPD2    H7 1722   1.872   1.446   0.703 -0.0441 -1.8018 -1.5022
  111TMC2    C1 1723   2.568   2.179  12.123  0.1631  0.6593 -0.0977
  111TMC2    C2 1724   2.474   2.111  12.197 -0.2284 -0.1057 -1.0364
  111TMC2    C3 1725   2.516   1.991  12.254 -0.1208  0.6016  0.2311
  111TMC2    C4 1726   2.699   2.140  12.118  0.3348  0.6029 -0.2074
  111TMC2    C5 1727   2.732   2.017  12.170 -0.6941  0.0069 -0.2482
  111TMC2    C6 1728   2.641   1.943  12.231  0.8362  0.3297 -0.0143
  111TMC2     C 1729   2.536   2.291  12.041 -0.3350 -0.5216 -0.2306
  111TMC2     O 1730   2.608   2.317  11.944  0.6952  0.6936 -0.5349
  111TMC2     H 1731   2.373   2.148  12.208  0.5644  1.3983  1.1524
  111TMC2    H1 1732   2.763   2.217  12.077  2.7347 -0.4347  1.5279
  111TMC2    H2 1733   2.678   1.843  12.251  0.8778  0.5163  0.8315
  111TMC2    C7 1734   2.869   1.965  12.154  0.2163 -0.3766 -1.0248
  111TMC2    C8 1735   2.415   1.920  12.324  0.2362 -0.1499 -0.7707
  111TMC2    O1 1736   2.916   1.889  12.239  0.3502  0.0748  0.2297
  111TMC2    O2 1737   2.297   1.936  12.299 -0.2128 -0.1443  0.0129
  111TMC2    O5 1738   2.473   1.819  12.400 -0.4220  0.2665 -0.2925
  111TMC2    H5 1739   2.570   1.834  12.410 -0.8119  1.2063  2.1676
  112MPD2     C 1740   2.196   2.649  11.886  0.1801  1.1451  0.1960
  112MPD2    C1 1741   2.315   2.607  11.822  0.4969 -0.3038  0.4275
  112MPD2    C2 1742   2.396   2.517  11.888 -0.7983 -0.6029 -0.8752
  112MPD2    C3 1743   2.359   2.464  12.012 -0.1172  1.0974 -0.5391
  112MPD2    C4 1744   2.234   2.507  12.064  0.0378  0.1174  0.1745
  112MPD2    C5 1745   2.154   2.599  12.007  0.2915  0.4154 -0.2817
  112MPD2     H 1746   2.489   2.495  11.838 -0.7192  0.6436 -1.2717
  112MPD2    H1 1747   2.191   2.453  12.147 -1.3541  2.8126  1.1985
  112MPD2    H2 1748   2.129   2.722  11.843  0.0020 -0.8075 -2.8247
  112MPD2    H3 1749   2.056   2.619  12.049 -0.8372  0.2083 -2.8071
  112MPD2     N 1750   2.428   2.361  12.082  0.4677 -0.1757 -0.6754
  112MPD2    H5 1751   2.390   2.338  12.173 -1.5571 -2.1959 -2.0356
  112MPD2    N1 1752   2.349   2.652  11.696 -0.2039  0.3766  0.0814
  112MPD2    H7 1753   2.445   2.643  11.665 -0.2719 -1.5671  0.4496
  113TMC2    C1 1754   0.296   4.510   0.583 -0.5963  0.2709  0.5825
  113TMC2    C2 1755   0.228   4.622   0.541 -0.0057 -0.4928 -0.0079
  113TMC2    C3 1756   0.177   4.619   0.417  0.1484 -0.1559 -0.2377
  113TMC2    C4 1757   0.304   4.392   0.510 -0.8116  0.6148  0.2114
  113TMC2    C5 1758   0.232   4.393   0.389 -0.0706  0.1856  0.9930
  113TMC2    C6 1759   0.160   4.503   0.349 -0.1778 -0.0932  0.4038
  113TMC2     C 1760   0.422   4.532   0.651  0.2023 -0.3118  0.3377
  113TMC2     O 1761   0.414   4.615   0.746  0.1536 -0.5468  0.2760
  113TMC2     H 1762   0.252   4.720   0.582 -2.9808 -0.0579  0.7323
  113TMC2    H1 1763   0.350   4.299   0.541  0.9681  1.9530  1.5448
  113TMC2    H2 1764   0.114   4.505   0.251 -3.6410 -0.7364  2.0385
  113TMC2    C7 1765   0.213   4.267   0.333 -0.2339  0.0979  0.2898
  113TMC2    C8 1766   0.103   4.728   0.381  0.1598 -0.1480 -0.1013
  113TMC2    O1 1767   0.195   4.275   0.211 -0.2149 -0.2614 -0.3813
  113TMC2    O2 1768   0.038   0.053   0.464 -0.0351  0.3110 -0.0751
  113TMC2    O5 1769   0.115   0.015   0.254  0.0646  0.3366 -0.3388
  113TMC2    H5 1770   0.189   4.709   0.208  0.2775 -0.4082  0.7377
  114MPD2     C 1771   0.918   4.443   0.703  0.6826  0.0511 -0.6486
  114MPD2    C1 1772   0.832   4.509   0.788 -0.8874 -0.3909  0.1590
  114MPD2    C2 1773   0.707   4.529   0.746 -0.4170 -0.5307  0.8563
  114MPD2    C3 1774   0.663   4.478   0.627 -0.0456 -0.7093  0.3730
  114MPD2    C4 1775   0.752   4.422   0.540 -0.2612 -0.1526  0.4669
  114MPD2    C5 1776   0.877   4.390   0.583 -0.1512 -0.4504 -0.4420
  114MPD2     H 1777   0.634   4.565   0.817 -0.1611  3.1407 -0.7729
  114MPD2    H1 1778   0.711   4.391   0.444  0.6148  0.7317 -0.1891
  114MPD2    H2 1779   1.025   4.436   0.722  0.1215 -3.3203  1.2265
  114MPD2    H3 1780   0.940   4.332   0.517 -2.2823 -0.4419 -2.4708
  114MPD2     N 1781   0.527   4.477   0.583  0.6381 -0.3819 -0.1776
  114MPD2    H5 1782   0.511   4.407   0.511  0.5823 -0.8116  0.2499
  114MPD2    N1 1783   0.870   4.576   0.913  0.6068  0.4543 -0.0403
  114MPD2    H7 1784   0.810   4.640   0.964 -0.0962 -0.2865  0.0631
  115TMC2    C1 1785   1.573   1.767  17.731 -0.4115  0.0960  0.2773
  115TMC2    C2 1786   1.699   1.753   0.015 -0.3001 -0.1207  0.2764
  115TMC2    C3 1787   1.759   1.855   0.092 -0.1961 -0.1776  0.0179
  115TMC2    C4 1788   1.500   1.877   0.014 -0.0673  0.1432 -0.4431
  115TMC2    C5 1789   1.568   1.980   0.071  0.1977 -0.4400  0.5362
  115TMC2    C6 1790   1.697   1.975   0.114  0.4669  0.5828  0.0856
  115TMC2     C 1791   1.518   1.676  17.628 -0.7854  0.1318  0.9507
  115TMC2     O 1792   1.595   1.626  17.546  0.3082  0.0626  0.2539
  115TMC2     H 1793   1.746   1.656   0.000 -0.8270 -0.4403  0.6907
  115TMC2    H1 1794   1.395   1.888  17.744  0.3001  4.3615 -0.1226
  115TMC2    H2 1795   1.745   2.046   0.180  1.1536  1.1732 -1.0495
  115TMC2    C7 1796   1.495   2.113   0.069 -0.2515  0.2608  0.0108
  115TMC2    C8 1797   1.902   1.876   0.107  0.0515  0.1209  0.2054
  115TMC2    O1 1798   1.376   2.100   0.036 -0.0251 -0.0499  0.2911
  115TMC2    O2 1799   1.952   1.947   0.194  0.2599  0.5878 -0.0811
  115TMC2    O5 1800   1.969   1.781   0.046  0.7715  0.3637 -0.4866
  115TMC2    H5 1801   1.934   1.741  17.719  0.2548 -1.2884  0.5293
  116MPD2     C 1802   1.148   1.375  17.450  0.3388  0.4022  0.2143
  116MPD2    C1 1803   1.269   1.406  17.394 -0.5365 -0.2469  0.8182
  116MPD2    C2 1804   1.351   1.496  17.452  0.4356  0.8380  0.3382
  116MPD2    C3 1805   1.319   1.540  17.583 -0.6328  0.6505  0.8622
  116MPD2    C4 1806   1.202   1.498  17.642 -1.3591 -0.0774  0.1734
  116MPD2    C5 1807   1.114   1.420  17.573  0.8053  0.0419 -0.2193
  116MPD2     H 1808   1.435   1.538  17.399  0.5084 -2.4001 -2.1299
  116MPD2    H1 1809   1.176   1.539  17.739 -0.8778  1.9477 -0.5670
  116MPD2    H2 1810   1.082   1.311  17.393  0.1769  0.8179 -0.0699
  116MPD2    H3 1811   1.025   1.383  17.623  1.4561  1.3770  1.9667
  116MPD2     N 1812   1.392   1.636  17.658 -0.3174  0.6615  0.2172
  116MPD2    H5 1813   1.341   1.672  17.739  0.2349  2.3682 -0.1847
  116MPD2    N1 1814   1.292   1.359  17.265  0.8943  0.2525  0.3815
  116MPD2    H7 1815   1.214   1.316  17.217  0.3712  1.0341  0.5245
  117TMC2    C1 1816   0.035   4.041  13.700  0.1619 -0.2086 -0.1585
  117TMC2    C2 1817   0.059   3.910  13.736 -0.0825  0.0284 -0.4882
  117TMC2    C3 1818   0.076   3.879  13.867 -0.2948  0.7336 -0.3065
  117TMC2    C4 1819   0.032   4.144  13.792  0.4484  0.4230  0.1196
  117TMC2    C5 1820   0.058   4.114  13.920  0.8131 -0.0559 -0.6684
  117TMC2    C6 1821   0.081   3.977  13.961 -0.3774 -0.4955  0.3229
  117TMC2     C 1822   0.050   4.083  13.557 -0.2181 -0.2899 -0.2328
  117TMC2     O 1823   0.005   4.189  13.524 -0.5433 -0.0424  0.0622
  117TMC2     H 1824   0.061   3.829  13.664  2.0275 -0.6254  0.3016
  117TMC2    H1 1825   0.017   4.246  13.760  1.9914  0.2979 -1.0453
  117TMC2    H2 1826   0.100   3.962  14.066 -2.5699  2.0422  1.0692
  117TMC2    C7 1827   0.134   4.216  13.985  0.7908 -0.0108  0.5471
  117TMC2    C8 1828   0.134   3.749  13.899 -0.1741 -0.1554  0.1148
  117TMC2    O1 1829   0.234   4.176  14.048  0.1020  0.6273 -0.2774
  117TMC2    O2 1830   0.240   3.712  13.851  1.0535 -0.7384 -0.0831
  117TMC2    O5 1831   0.083   3.714  14.023 -0.2476 -0.5774  0.3495
  117TMC2    H5 1832   0.015   3.783  14.037  0.7330  0.8236 -1.8142
  118MPD2     C 1833   0.065   4.566  13.964 -0.3986 -0.6043 -0.5857
  118MPD2    C1 1834   0.144   4.459  13.976 -0.1514 -0.2000 -0.6814
  118MPD2    C2 1835   0.278   4.470  14.002 -0.0102 -0.6029 -0.6761
  118MPD2    C3 1836   0.333   4.594  14.021  0.1483  0.1985 -0.4103
  118MPD2    C4 1837   0.252   4.706  14.018 -0.6316  0.2787  0.2171
  118MPD2    C5 1838   0.121   4.685  13.986 -0.2504  0.2563 -0.1518
  118MPD2     H 1839   0.340   4.381  14.003  0.3244 -0.3458  2.3719
  118MPD2    H1 1840   0.285   0.069  14.024  2.5450 -0.8064  1.2732
  118MPD2    H2 1841   4.702   4.576  13.930 -0.3007  1.1874 -0.3807
  118MPD2    H3 1842   0.063   0.033  13.958 -2.0085 -1.3874 -1.6170
  118MPD2     N 1843   0.470   4.611  14.047 -0.3749 -0.3843  0.8612
  118MPD2    H5 1844   0.503   4.707  14.037  0.3854 -0.7792 -0.3892
  118MPD2    N1 1845   0.080   4.335  13.957 -0.1414 -0.5262  0.1639
  118MPD2    H7 1846   4.723   4.345  13.928  0.1956 -1.5228 -1.2865
  119TMC2    C1 1847   3.299   0.306  13.650  0.3543  0.2438  0.0612
  119TMC2    C2 1848   3.371   0.196  13.702 -0.7869 -0.3436  0.3422
  119TMC2    C3 1849   3.293   0.100  13.762 -0.3289 -0.3220  0.1969
  119TMC2    C4 1850   3.169   0.325  13.666  0.6056 -0.0927  0.0248
  119TMC2    C5 1851   3.098   0.236  13.736  0.0432  0.8959  0.1197
  119TMC2    C6 1852   3.156   0.114  13.776  0.8736  0.2738  0.2127
  119TMC2     C 1853   3.374   0.428  13.633  0.4242  0.4520 -0.4467
  119TMC2     O 1854   3.323   0.534  13.661 -0.7270  0.6160  0.0271
  119TMC2     H 1855   3.477   0.189  13.684 -0.7702  0.8360  0.0144
  119TMC2    H1 1856   3.132   0.423  13.636 -0.4644 -0.2877  0.7017
  119TMC2    H2 1857   3.102   0.039  13.832  0.5979 -0.0855 -0.5364
  119TMC2    C7 1858   2.953   0.249  13.740 -0.3917 -0.4043  0.5947
  119TMC2    C8 1859   3.344   4.707  13.791  0.0023  0.4722 -0.3523
  119TMC2    O1 1860   2.889   0.275  13.642 -0.2044 -0.4267  0.4309
  119TMC2    O2 1861   3.279   4.604  13.775 -0.0573 -0.3154  0.4572
  119TMC2    O5 1862   3.479   4.713  13.798 -0.2966 -0.0753 -0.0386
  119TMC2    H5 1863   3.511   0.058  13.835  3.4925 -1.1798 -0.8257
  120MPD2     C 1864   3.837   0.657  13.574 -0.0468 -0.0252  0.7321
  120MPD2    C1 1865   3.743   0.666  13.674  0.6772 -0.5364  0.0564
  120MPD2    C2 1866   3.622   0.596  13.655  0.3639  0.1930  0.3501
  120MPD2    C3 1867   3.605   0.490  13.567  0.4151  1.0636 -0.7053
  120MPD2    C4 1868   3.710   0.472  13.484 -0.1047  0.6708  0.1700
  120MPD2    C5 1869   3.820   0.554  13.488  0.2117  0.2408 -0.0987
  120MPD2     H 1870   3.538   0.619  13.719 -0.3097 -1.6067  0.1186
  120MPD2    H1 1871   3.693   0.397  13.408 -1.6875  1.8928 -0.6846
  120MPD2    H2 1872   3.930   0.711  13.591 -0.2039  0.8493 -1.2090
  120MPD2    H3 1873   3.904   0.523  13.427  0.7978  1.4907  0.0839
  120MPD2     N 1874   3.495   0.405  13.567  0.4064  0.3093 -0.1545
  120MPD2    H5 1875   3.509   0.312  13.530  0.0204  1.2939 -2.8079
  120MPD2    N1 1876   3.759   0.766  13.775  0.5252  0.6284  0.0932
  120MPD2    H7 1877   3.813   0.846  13.744  0.8797  0.6973  0.8990
  121TMC2    C1 1878   4.394   2.401  14.342  0.4853  0.2956 -0.5965
  121TMC2    C2 1879   4.357   2.327  14.452  0.7836 -0.5338  0.5436
  121TMC2    C3 1880   4.224   2.297  14.465  0.3452  0.4136  0.4844
  121TMC2    C4 1881   4.311   2.433  14.248  0.6332 -0.2282 -0.1693
  121TMC2    C5 1882   4.181   2.389  14.261 -0.4122 -0.6081 -0.1752
  121TMC2    C6 1883   4.137   2.315  14.365  0.0832  0.2197 -0.2110
  121TMC2     C 1884   4.538   2.420  14.330 -0.8862  0.6644  0.7449
  121TMC2     O 1885   4.607   2.372  14.418  0.5117  0.0758 -0.1769
  121TMC2     H 1886   4.426   2.298  14.531  0.4882  0.0468  1.0147
  121TMC2    H1 1887   4.336   2.513  14.180  0.6441  0.0190  0.1238
  121TMC2    H2 1888   4.034   2.283  14.369 -0.0748  0.6388 -0.9614
  121TMC2    C7 1889   4.076   2.434  14.174  0.6301  0.4765 -0.7885
  121TMC2    C8 1890   4.186   2.203  14.561  0.4756 -0.2049 -0.0530
  121TMC2    O1 1891   3.963   2.426  14.220 -0.0401  0.1763  0.8966
  121TMC2    O2 1892   4.085   2.136  14.548 -0.0014 -0.7288  0.4246
  121TMC2    O5 1893   4.213   2.275  14.667 -0.2677  0.1297 -0.1967
  121TMC2    H5 1894   4.237   2.370  14.657  4.5165 -1.2012 -1.3253
  122MPD2     C 1895   0.077   2.481  14.254  0.8236 -0.2121 -0.5396
  122MPD2    C1 1896   4.707   2.488  14.171 -1.2098  0.3428 -0.0961
  122MPD2    C2 1897   4.732   2.520  14.037 -0.7378 -0.2646 -0.4089
  122MPD2    C3 1898   0.118   2.554  13.997 -0.3487  0.0584 -0.3921
  122MPD2    C4 1899   0.224   2.542  14.081  0.2873 -0.0967 -0.1933
  122MPD2    C5 1900   0.206   2.507  14.210  0.0192  0.6785 -0.2254
  122MPD2     H 1901   4.640   2.540  13.983  0.0339  2.4712 -0.7260
  122MPD2    H1 1902   0.318   2.584  14.048  0.6564 -2.6494 -2.3944
  122MPD2    H2 1903   0.062   2.435  14.351 -1.7627  0.0601 -0.8185
  122MPD2    H3 1904   0.291   2.499  14.277  0.4610  1.4238 -0.6919
  122MPD2     N 1905   0.145   2.592  13.858  0.1611  0.3074  0.0515
  122MPD2    H5 1906   0.243   2.612  13.841 -0.7607  4.3608 -0.5266
  122MPD2    N1 1907   4.575   2.461  14.209  0.2709 -0.0524 -0.7129
  122MPD2    H7 1908   4.500   2.473  14.141  0.2777  1.1083 -0.5236
  123TMC2    C1 1909   3.597   0.945  10.806  0.2560 -0.0493 -0.2425
  123TMC2    C2 1910   3.624   0.870  10.925  0.5516 -0.5701 -0.3105
  123TMC2    C3 1911   3.726   0.782  10.936 -0.1457 -0.6629  0.5876
  123TMC2    C4 1912   3.681   0.917  10.702  0.8351 -0.8816  0.5686
  123TMC2    C5 1913   3.782   0.828  10.707 -0.1940 -0.3939 -0.2355
  123TMC2    C6 1914   3.804   0.752  10.826  0.1712 -0.1991 -0.3117
  123TMC2     C 1915   3.452   0.949  10.778  0.2069 -0.1290  0.1051
  123TMC2     O 1916   3.387   0.958  10.882  0.0674 -0.5392 -0.0982
  123TMC2     H 1917   3.566   0.895  11.014 -0.6345 -0.1353 -1.1940
  123TMC2    H1 1918   3.661   0.963  10.606  0.3065 -1.7631  0.2610
  123TMC2    H2 1919   3.889   0.684  10.830 -0.5259 -1.0994 -0.8183
  123TMC2    C7 1920   3.800   0.745  10.589 -0.4435 -0.2388  0.2255
  123TMC2    C8 1921   3.761   0.758  11.073  0.1473 -0.6044  0.2060
  123TMC2    O1 1922   3.702   0.744  10.518  0.8172  0.4991  0.0772
  123TMC2    O2 1923   3.720   0.825  11.165 -0.1069 -0.0454  0.2291
  123TMC2    O5 1924   3.863   0.666  11.078 -0.1369  0.0647 -0.4173
  123TMC2    H5 1925   3.868   0.597  11.009 -1.5037  0.0272 -0.4815
  124MPD2     C 1926   3.040   0.844  10.518 -0.0855  0.7293  0.4137
  124MPD2    C1 1927   3.145   0.802  10.446  0.2739 -0.2213 -0.1471
  124MPD2    C2 1928   3.272   0.833  10.479 -0.1282 -0.3313  0.4841
  124MPD2    C3 1929   3.288   0.887  10.603  0.0345  0.1333  0.1961
  124MPD2    C4 1930   3.182   0.918  10.681 -0.5627 -0.6561  0.2893
  124MPD2    C5 1931   3.057   0.896  10.637  0.1078  0.3740  0.4495
  124MPD2     H 1932   3.360   0.816  10.418 -1.4046  1.7838 -1.9470
  124MPD2    H1 1933   3.180   0.970  10.776 -0.7955  0.4540 -0.3247
  124MPD2    H2 1934   2.938   0.824  10.485  0.4955  0.9412 -1.4969
  124MPD2    H3 1935   2.973   0.937  10.691 -0.0826 -0.8028  1.0555
  124MPD2     N 1936   3.420   0.909  10.646  0.0808 -0.0505  0.0329
  124MPD2    H5 1937   3.499   0.907  10.583 -0.6050  1.3160 -0.8673
  124MPD2    N1 1938   3.109   0.738  10.329 -0.3970  0.2476  0.2361
  124MPD2    H7 1939   3.011   0.730  10.303 -0.5247 -0.0977  0.8282
  125TMC2    C1 1940   3.743   2.856  10.196  0.4700  0.9543 -0.0308
  125TMC2    C2 1941   3.643   2.929  10.239 -0.4878 -0.0327  0.4630
  125TMC2    C3 1942   3.596   3.029  10.152  0.5045 -0.4072  0.4079
  125TMC2    C4 1943   3.795   2.872  10.070 -0.0067 -0.3293  0.1229
  125TMC2    C5 1944   3.762   2.976   9.995  0.2048  0.0297  0.6495
  125TMC2    C6 1945   3.656   3.059  10.036  0.0899  0.1869  0.4300
  125TMC2     C 1946   3.742   2.722  10.249 -0.2228  0.0912  0.1337
  125TMC2     O 1947   3.647   2.685  10.319  0.0795  0.0055  0.4972
  125TMC2     H 1948   3.590   2.915  10.333  0.6110 -3.3657  0.5746
  125TMC2    H1 1949   3.855   2.792  10.029  0.3045  0.1835 -0.4145
  125TMC2    H2 1950   3.616   3.144   9.983  0.6872  0.3814  0.2960
  125TMC2    C7 1951   3.785   2.976   9.856 -0.3902  0.7072 -0.4177
  125TMC2    C8 1952   3.478   3.101  10.197 -0.0317  0.6344 -0.2111
  125TMC2    O1 1953   3.698   3.035   9.791 -0.1221  0.1120  0.2390
  125TMC2    O2 1954   3.444   3.116  10.315  0.2209 -0.9644  0.4761
  125TMC2    O5 1955   3.399   3.119  10.089 -0.1332  0.8801 -0.1349
  125TMC2    H5 1956   3.427   3.076  10.005 -2.9823 -2.5398  0.6710
  126MPD1     C 1957   3.910   2.235  10.242  1.0513  0.1951  0.0547
  126MPD1    C1 1958   4.015   2.313  10.203  0.9139  0.5077  0.1277
  126MPD1    C2 1959   4.004   2.449  10.198 -0.1102 -0.0423 -0.4618
  126MPD1    C3 1960   3.880   2.510  10.239 -0.0485  0.5096  0.9653
  126MPD1    C4 1961   3.780   2.429  10.287 -0.1803  0.1029 -0.3484
  126MPD1    C5 1962   3.793   2.291  10.283 -0.0710  0.4538  0.2882
  126MPD1     H 1963   4.081   2.505  10.147 -0.6933 -0.4583 -1.7992
  126MPD1    H1 1964   3.682   2.464  10.315 -0.1136 -0.9317  1.2159
  126MPD1    H2 1965   3.924   2.129  10.258  0.9745  0.2066  0.1994
  126MPD1    H3 1966   3.714   2.223  10.314  1.6665 -1.1214  1.2037
  126MPD1     N 1967   3.848   2.641  10.207 -0.1005  0.0275  0.2493
  126MPD1    H5 1968   3.922   2.699  10.169 -0.4402 -1.5791 -2.8300
  126MPD1    N1 1969   4.129   2.248  10.157  0.5739  0.1069  0.9098
  126MPD1    H6 1970   4.147   2.159  10.203  1.0656 -0.9422 -1.3068
  126MPD1    H7 1971   4.214   2.304  10.162 -0.7093  2.0041  1.3407
  127TMC2    C1 1972   0.294   1.020  10.159 -0.0629  0.1106  0.0588
  127TMC2    C2 1973   0.399   0.950  10.206 -0.1944 -0.3211  0.2462
  127TMC2    C3 1974   0.383   0.873  10.317  0.3364 -0.4022 -0.1926
  127TMC2    C4 1975   0.169   1.011  10.221 -0.2130 -0.1495  0.0343
  127TMC2    C5 1976   0.155   0.919  10.324  0.5528 -0.0131 -0.1319
  127TMC2    C6 1977   0.260   0.854  10.372 -0.0805  0.1079 -0.2016
  127TMC2     C 1978   0.324   1.124  10.068  0.0060  0.4622 -0.4205
  127TMC2     O 1979   0.438   1.168  10.066  0.3889 -0.1610  0.0724
  127TMC2     H 1980   0.496   0.959  10.157 -1.2205 -2.3727 -2.1717
  127TMC2    H1 1981   0.083   1.068  10.187 -1.3077 -0.9189  1.5143
  127TMC2    H2 1982   0.259   0.797  10.465 -1.1775  1.8173  0.8381
  127TMC2    C7 1983   0.025   0.874  10.357 -0.5337  0.3754  0.4182
  127TMC2    C8 1984   0.506   0.823  10.377  0.2619  0.2496 -0.5857
  127TMC2    O1 1985   4.671   0.922  10.295  0.2024  0.0509  0.2132
  127TMC2    O2 1986   0.600   0.897  10.361 -0.6812 -0.2243  0.3568
  127TMC2    O5 1987   0.485   0.749  10.489 -0.1569  0.0508  0.2407
  127TMC2    H5 1988   0.393   0.713  10.496 -0.5746  1.5200  2.3452
  128MPD2     C 1989   0.077   1.320   9.876  0.2445  0.0985  0.6072
  128MPD2    C1 1990   0.199   1.288   9.932  0.9037  0.1954 -0.3703
  128MPD2    C2 1991   0.308   1.366   9.906  0.0527 -0.8512 -0.3416
  128MPD2    C3 1992   0.284   1.486   9.840  0.1935  0.4940 -0.2015
  128MPD2    C4 1993   0.160   1.523   9.793  0.2262 -0.8128  0.2606
  128MPD2    C5 1994   0.061   1.436   9.803  0.0916 -0.3648  0.3608
  128MPD2     H 1995   0.406   1.344   9.947 -0.0807 -3.1082 -1.2707
  128MPD2    H1 1996   0.141   1.610   9.731 -0.8014 -0.3392  1.2326
  128MPD2    H2 1997   4.731   1.259   9.903  0.3371  0.8251  2.6040
  128MPD2    H3 1998   4.704   1.451   9.756  0.0198 -1.4128  0.1615
  128MPD2     N 1999   0.393   1.578   9.832  0.1133  0.2139 -0.5607
  128MPD2    H5 2000   0.481   1.550   9.876 -1.0162 -0.2755  1.3976
  128MPD2    N1 2001   0.209   1.164   9.999 -0.4435  0.1070 -0.2757
  128MPD2    H7 2002   0.127   1.105  10.004 -1.1567  1.1817  0.7498
  129TMC2    C1 2003   3.848   0.917   1.738  0.2395 -0.6635 -0.0568
  129TMC2    C2 2004   3.785   0.970   1.850  0.2848  0.0090 -0.1496
  129TMC2    C3 2005   3.650   0.961   1.854  0.4949 -0.7732  0.0258
  129TMC2    C4 2006   3.787   0.872   1.629  0.0408  0.1383 -0.2896
  129TMC2    C5 2007   3.649   0.869   1.635  0.5160  0.2457 -0.0855
  129TMC2    C6 2008   3.578   0.916   1.745  0.0170 -0.0658  0.0936
  129TMC2     C 2009   3.971   0.982   1.711 -0.3015 -0.3888 -0.2113
  129TMC2     O 2010   4.056   0.918   1.647  0.2253 -0.5872 -0.4088
  129TMC2     H 2011   3.843   1.008   1.933  1.6123 -1.9524 -0.1718
  129TMC2    H1 2012   3.837   0.851   1.535 -0.3931  0.3574 -0.5663
  129TMC2    H2 2013   3.471   0.899   1.746 -0.0958  0.4654 -3.4549
  129TMC2    C7 2014   3.569   0.814   1.528  0.2040 -0.0089 -0.5753
  129TMC2    C8 2015   3.582   0.993   1.980 -0.1044  0.9713 -0.8608
  129TMC2    O1 2016   3.453   0.851   1.526 -0.0378  0.5101  0.1160
  129TMC2    O2 2017   3.611   0.944   2.091  0.2777 -0.4757  0.3484
  129TMC2    O5 2018   3.463   1.030   1.944  0.6688 -0.2459  0.3051
  129TMC2    H5 2019   3.478   1.055   1.850  1.9202 -0.3829  0.4661
  130MPD2     C 2020   4.192   1.183   1.667  0.0489 -0.4495  0.0128
  130MPD2    C1 2021   4.055   1.215   1.682  0.7051 -0.4729  0.1092
  130MPD2    C2 2022   4.017   1.340   1.639  0.0552  0.1602 -0.8028
  130MPD2    C3 2023   4.107   1.431   1.584 -0.4292 -1.0418 -0.7683
  130MPD2    C4 2024   4.240   1.395   1.565  0.4012  0.3782  0.3675
  130MPD2    C5 2025   4.277   1.271   1.610  0.7966  0.2668 -0.6052
  130MPD2     H 2026   3.913   1.373   1.642  0.0169 -0.0574  0.4839
  130MPD2    H1 2027   4.317   1.460   1.526  0.7564 -0.0888  0.2957
  130MPD2    H2 2028   4.227   1.092   1.715  0.5934  0.1583  0.7673
  130MPD2    H3 2029   4.386   1.263   1.608  0.8739  1.0852  0.4218
  130MPD2     N 2030   4.055   1.556   1.540  0.6350  0.0356 -0.1754
  130MPD2    H5 2031   3.956   1.564   1.558  0.1041 -2.4420 -2.0887
  130MPD2    N1 2032   3.957   1.123   1.722 -0.1400 -0.1017 -0.6436
  130MPD2    H7 2033   3.862   1.147   1.746  0.5804  0.4207  1.6692
  131TMC2    C1 2034   3.838   1.158   9.792 -0.0481  0.1525 -0.0176
  131TMC2    C2 2035   3.968   1.119   9.773  0.0145 -1.1168 -0.2779
  131TMC2    C3 2036   4.066   1.217   9.774  0.5608  0.2515  0.1285
  131TMC2    C4 2037   3.795   1.284   9.822 -0.5515 -0.5484 -0.2743
  131TMC2    C5 2038   3.895   1.380   9.823  0.4601  0.1527 -0.0831
  131TMC2    C6 2039   4.025   1.355   9.794  0.0551 -0.0309  0.4210
  131TMC2     C 2040   3.731   1.063   9.767 -0.0379 -0.1033 -0.4944
  131TMC2     O 2041   3.618   1.093   9.811  0.1564  0.2038 -0.0108
  131TMC2     H 2042   4.000   1.015   9.768  1.3687 -0.8535  3.2105
  131TMC2    H1 2043   3.689   1.305   9.835 -0.6074  0.3896 -2.1892
  131TMC2    H2 2044   4.095   1.432   9.826  0.4685  0.3424 -1.3789
  131TMC2    C7 2045   3.850   1.510   9.781 -0.3400  0.0255  1.0017
  131TMC2    C8 2046   4.205   1.188   9.795  0.4630  0.2018 -0.3563
  131TMC2    O1 2047   3.925   1.590   9.723  0.0397  0.3313  0.0576
  131TMC2    O2 2048   4.246   1.089   9.842  0.2912 -0.4278  0.3755
  131TMC2    O5 2049   4.275   1.281   9.719 -0.0874 -0.3548 -0.1569
  131TMC2    H5 2050   4.224   1.359   9.688 -0.3294  0.5678  2.5159
  132MPD2     C 2051   3.691   0.765   9.549 -0.2508 -0.0765 -0.8041
  132MPD2    C1 2052   3.672   0.842   9.663 -0.7613 -0.0347  0.1258
  132MPD2    C2 2053   3.567   0.813   9.752 -0.9443  0.3450  0.5920
  132MPD2    C3 2054   3.472   0.723   9.715 -0.0524  0.1923 -0.4502
  132MPD2    C4 2055   3.488   0.659   9.596  0.1345 -0.3696 -0.0902
  132MPD2    C5 2056   3.600   0.671   9.513  0.0803  0.2053 -0.0044
  132MPD2     H 2057   3.561   0.863   9.848  0.6535  0.9958  0.3582
  132MPD2    H1 2058   3.439   0.564   9.581 -0.2861 -0.1898  0.1619
  132MPD2    H2 2059   3.773   0.761   9.479 -0.2756 -1.9160 -0.7396
  132MPD2    H3 2060   3.625   0.595   9.440 -2.2851  1.9527 -2.6300
  132MPD2     N 2061   3.359   0.693   9.799  0.9057 -0.6790 -0.3675
  132MPD2    H5 2062   3.344   0.757   9.876  2.6305 -1.4952  0.6476
  132MPD2    N1 2063   3.758   0.956   9.682 -0.2170 -0.3648  0.5085
  132MPD2    H7 2064   3.845   0.958   9.630 -0.9484  0.6198 -0.6670
  133TMC2    C1 2065   2.643   2.261  10.171  0.6549 -0.1529  0.5615
  133TMC2    C2 2066   2.630   2.202  10.298  0.5206 -0.8045  0.0471
  133TMC2    C3 2067   2.686   2.261  10.403  0.0940  0.0635 -0.7601
  133TMC2    C4 2068   2.725   2.367  10.141 -0.1974 -0.3082 -0.1674
  133TMC2    C5 2069   2.785   2.415  10.248  0.1590 -0.1453 -0.5005
  133TMC2    C6 2070   2.768   2.370  10.378  0.1544 -0.0686  0.0608
  133TMC2     C 2071   2.587   2.182  10.064 -0.1326 -0.1913  0.1659
  133TMC2     O 2072   2.549   2.067  10.090 -0.0703  0.1512 -0.2516
  133TMC2     H 2073   2.557   2.125  10.319 -1.8952  1.0206 -1.6564
  133TMC2    H1 2074   2.757   2.389  10.040  1.1328  1.1062  0.5547
  133TMC2    H2 2075   2.821   2.421  10.457  2.2603 -0.6228 -1.0054
  133TMC2    C7 2076   2.876   2.521  10.236 -0.2113  0.6089 -0.6073
  133TMC2    C8 2077   2.702   2.173  10.515  0.0319 -0.3577  0.9909
  133TMC2    O1 2078   2.843   2.616  10.161 -0.2453 -0.1504 -0.4084
  133TMC2    O2 2079   2.670   2.056  10.503  0.0945 -0.1142  0.1761
  133TMC2    O5 2080   2.729   2.250  10.623 -0.2117 -0.0034  0.4309
  133TMC2    H5 2081   2.718   2.347  10.607 -1.2426 -0.1118  0.4899
  134MPD2     C 2082   2.566   2.277   9.714 -0.0434 -0.2314  0.0382
  134MPD2    C1 2083   2.566   2.188   9.819 -0.8606  0.2118  0.0071
  134MPD2    C2 2084   2.561   2.053   9.795  0.2934  0.1742  0.6260
  134MPD2    C3 2085   2.532   2.006   9.671  0.1243 -0.0920  0.1423
  134MPD2    C4 2086   2.528   2.097   9.563 -0.6527 -0.1447  0.1439
  134MPD2    C5 2087   2.551   2.239   9.585 -0.7414  0.2845  0.6847
  134MPD2     H 2088   2.567   1.982   9.876 -0.0509  1.8082  2.0971
  134MPD2    H1 2089   2.499   2.052   9.468  0.4875  1.8408 -1.1472
  134MPD2    H2 2090   2.586   2.383   9.730  0.5513 -0.3216 -0.0925
  134MPD2    H3 2091   2.552   2.305   9.499  0.7806  0.0695  0.5486
  134MPD2     N 2092   2.501   1.869   9.643  0.7256  0.1191 -0.2432
  134MPD2    H5 2093   2.465   1.841   9.553 -1.9419  1.1102  0.5174
  134MPD2    N1 2094   2.581   2.245   9.945  0.1064 -0.6009 -0.6943
  134MPD2    H7 2095   2.607   2.343   9.937  0.5971 -0.7857 -1.4281
  135TMC2    C1 2096   4.237   3.282   9.622  0.5621 -0.0981  0.4850
  135TMC2    C2 2097   4.183   3.297   9.498 -0.0490 -0.0480  0.0198
  135TMC2    C3 2098   4.045   3.292   9.505  0.1405  0.1435 -0.1909
  135TMC2    C4 2099   4.166   3.271   9.733 -0.2556  0.8323  0.2498
  135TMC2    C5 2100   4.031   3.261   9.734 -0.4480  0.4268  0.7720
  135TMC2    C6 2101   3.964   3.272   9.610 -0.4005 -0.4532 -0.2000
  135TMC2     C 2102   4.383   3.295   9.636 -1.0518  0.6623  0.7682
  135TMC2     O 2103   4.417   3.363   9.731 -1.0087 -0.4373 -0.4387
  135TMC2     H 2104   4.240   3.311   9.407  0.8373  0.5264  0.6536
  135TMC2    H1 2105   4.219   3.275   9.828  1.3162  1.6666 -0.6534
  135TMC2    H2 2106   3.856   3.277   9.609 -0.4308 -0.3703  3.0142
  135TMC2    C7 2107   3.954   3.256   9.853  1.1501 -0.2360  0.5119
  135TMC2    C8 2108   3.985   3.297   9.374  0.7974  0.6980  0.1582
  135TMC2    O1 2109   3.838   3.299   9.853  0.1402 -0.3448 -0.2000
  135TMC2    O2 2110   4.008   3.215   9.285  0.4580 -0.2165 -0.1919
  135TMC2    O5 2111   3.856   3.338   9.406 -0.0889 -0.1018  0.0342
  135TMC2    H5 2112   3.874   3.417   9.462 -3.3688  0.8603 -0.2755
  136MPD2     C 2113   4.676   3.250   9.671 -0.2614  0.9986  0.0952
  136MPD2    C1 2114   4.600   3.191   9.566 -0.4558  0.4387 -0.6436
  136MPD2    C2 2115   4.660   3.095   9.485 -0.4473  0.4261 -0.1312
  136MPD2    C3 2116   0.056   3.065   9.504 -0.1953  0.3290  1.4578
  136MPD2    C4 2117   0.131   3.120   9.607 -0.0540 -0.1128  0.4972
  136MPD2    C5 2118   0.073   3.212   9.688 -0.2006 -0.3642 -0.6454
  136MPD2     H 2119   4.603   3.025   9.424  0.5435 -2.0238  1.7673
  136MPD2    H1 2120   0.237   3.103   9.620  0.1250  1.4032  0.9977
  136MPD2    H2 2121   4.634   3.325   9.738 -2.1453  0.2585 -0.2775
  136MPD2    H3 2122   0.126   3.272   9.761 -1.5460 -0.2619  0.2407
  136MPD2     N 2123   0.096   2.966   9.415  0.1317  0.2236  0.3030
  136MPD2    H5 2124   0.026   2.940   9.346  0.7491  2.9581 -1.3483
  136MPD2    N1 2125   4.457   3.208   9.564 -0.7621  0.1760 -0.5918
  136MPD2    H7 2126   4.408   3.157   9.491 -0.7471 -1.2927  0.4288
  137TMC2    C1 2127   4.052   2.245   9.801  0.3447  0.4909  0.1597
  137TMC2    C2 2128   4.129   2.289   9.692 -0.4223 -1.1947 -0.3230
  137TMC2    C3 2129   4.095   2.408   9.632  0.3462 -0.4361  0.2118
  137TMC2    C4 2130   3.950   2.319   9.852 -0.0464 -0.2787 -0.5006
  137TMC2    C5 2131   3.934   2.445   9.804  0.5555  0.6026  0.4021
  137TMC2    C6 2132   4.007   2.496   9.692  0.1960 -0.2721 -0.4783
  137TMC2     C 2133   4.077   2.116   9.855  0.5608 -0.6426 -0.1356
  137TMC2     O 2134   4.187   2.063   9.838 -0.0382  0.0470  0.2271
  137TMC2     H 2135   4.212   2.229   9.657  1.8174  1.4899  0.3804
  137TMC2    H1 2136   3.904   2.297   9.948 -0.6514 -0.6017 -0.8627
  137TMC2    H2 2137   4.006   2.600   9.663 -1.4310  0.1022  0.9313
  137TMC2    C7 2138   3.811   2.518   9.826  0.5548  0.1117  0.8388
  137TMC2    C8 2139   4.187   2.457   9.526  0.1192  0.4313 -0.1204
  137TMC2    O1 2140   3.790   2.604   9.742 -0.2187  0.4837  0.1902
  137TMC2    O2 2141   4.299   2.416   9.499 -0.2126 -0.2409  0.1242
  137TMC2    O5 2142   4.130   2.557   9.461  0.8083 -0.7283 -0.4967
  137TMC2    H5 2143   4.036   2.559   9.488  1.1333  0.9064  0.5468
  138MPD2     C 2144   3.865   1.917  10.080  0.2109 -0.9666 -0.1759
  138MPD2    C1 2145   3.980   1.966  10.026  0.2706  0.0635 -0.6391
  138MPD2    C2 2146   4.099   1.922  10.085  0.0212 -0.2655  0.1786
  138MPD2    C3 2147   4.090   1.837  10.194  0.1957  0.1376 -0.0666
  138MPD2    C4 2148   3.976   1.787  10.242 -0.4275 -0.2047 -0.1320
  138MPD2    C5 2149   3.864   1.825  10.176 -0.5577 -0.5533 -0.3281
  138MPD2     H 2150   4.197   1.958  10.054  0.1310 -1.8770 -1.3414
  138MPD2    H1 2151   3.973   1.712  10.320  1.2214  0.3065  0.4241
  138MPD2    H2 2152   3.773   1.943  10.029  1.8729  0.8807 -2.1901
  138MPD2    H3 2153   3.775   1.767  10.198 -0.6870  0.2820  1.2776
  138MPD2     N 2154   4.213   1.802  10.264  0.2004  0.3518 -0.3564
  138MPD2    H5 2155   4.295   1.828  10.209  0.1035  0.0635 -0.6377
  138MPD2    N1 2156   3.970   2.060   9.920  0.4978 -0.4378 -0.0734
  138MPD2    H7 2157   3.880   2.103   9.904 -0.1117 -0.4955  3.1375
  139TMC2    C1 2158   0.285   0.268  13.332  0.2593 -0.0972  0.1656
  139TMC2    C2 2159   0.363   0.337  13.237  0.9161  0.5525 -0.0818
  139TMC2    C3 2160   0.311   0.450  13.180  0.3574 -0.0478 -0.3261
  139TMC2    C4 2161   0.158   0.302  13.355 -0.1363  0.0650 -0.1731
  139TMC2    C5 2162   0.102   0.404  13.277  0.4680 -0.0939  0.2570
  139TMC2    C6 2163   0.176   0.489  13.197 -0.3529  0.2028 -0.2169
  139TMC2     C 2164   0.311   0.128  13.353  0.3147 -0.2639 -0.3846
  139TMC2     O 2165   0.393   0.089  13.270  0.0556  0.2724 -0.0115
  139TMC2     H 2166   0.459   0.299  13.204  0.8728  1.5422 -1.3279
  139TMC2    H1 2167   0.100   0.231  13.413  0.3753  1.3944  1.9622
  139TMC2    H2 2168   0.122   0.558  13.134 -1.8596 -1.0649 -0.3099
  139TMC2    C7 2169   4.723   0.465  13.337  0.3770  0.7216 -0.8749
  139TMC2    C8 2170   0.379   0.472  13.048 -0.5908  0.3876  0.6805
  139TMC2    O1 2171   4.722   0.591  13.342  0.2729  0.1114  0.1847
  139TMC2    O2 2172   0.452   0.386  12.999  0.3662  0.2355 -0.5711
  139TMC2    O5 2173   0.335   0.592  13.008  0.3984 -0.6881 -0.6287
  139TMC2    H5 2174   0.297   0.635  13.089  0.6748 -1.8896  0.1343
  140MPD2     C 2175   0.177   4.597  13.575  0.0672 -0.8893  0.1100
  140MPD2    C1 2176   0.256   4.662  13.482  0.0500 -0.7934  1.0680
  140MPD2    C2 2177   0.339   4.572  13.416  0.4014  0.2838 -0.2757
  140MPD2    C3 2178   0.360   4.439  13.444  0.7519  0.8437  0.0913
  140MPD2    C4 2179   0.284   4.384  13.537  0.8725 -0.1294  0.0731
  140MPD2    C5 2180   0.190   4.461  13.592  0.1811 -0.7825 -0.2711
  140MPD2     H 2181   0.408   4.609  13.341  0.8346 -0.7964 -0.4078
  140MPD2    H1 2182   0.286   4.277  13.557 -2.4461 -0.4272 -1.1740
  140MPD2    H2 2183   0.101   4.651  13.630 -0.3138 -0.0422 -1.2270
  140MPD2    H3 2184   0.127   4.418  13.669  0.6784 -3.6363 -1.4789
  140MPD2     N 2185   0.472   4.378  13.378  0.2173  0.0207 -0.1412
  140MPD2    H5 2186   0.514   4.437  13.307  2.5964 -0.9189  0.4698
  140MPD2    N1 2187   0.241   0.061  13.450 -0.6142  0.0968  0.0541
  140MPD2    H7 2188   0.183   0.111  13.518  0.0637 -0.5072  1.0686
  141TMC2    C1 2189   0.425   1.958  14.023 -0.4314 -0.4174  0.1986
  141TMC2    C2 2190   0.350   1.999  13.922 -0.2617  0.1522 -0.6339
  141TMC2    C3 2191   0.361   2.132  13.878 -0.2145 -0.1713 -1.1886
  141TMC2    C4 2192   0.508   2.043  14.089 -0.4499 -0.0132  0.3221
  141TMC2    C5 2193   0.516   2.171  14.039  0.9537  0.8136  0.2724
  141TMC2    C6 2194   0.439   2.224  13.938 -0.0065  0.1331  0.3554
  141TMC2     C 2195   0.430   1.819  14.060  0.1442  1.0227 -0.7366
  141TMC2     O 2196   0.518   1.786  14.135  0.8617  0.3515  0.2966
  141TMC2     H 2197   0.283   1.933  13.869 -2.7345  0.5675  1.9798
  141TMC2    H1 2198   0.560   2.010  14.179  1.0050  1.0495 -0.1400
  141TMC2    H2 2199   0.428   2.329  13.912  1.3126  0.1325 -0.2133
  141TMC2    C7 2200   0.616   2.262  14.093 -0.0685 -0.1067 -0.3163
  141TMC2    C8 2201   0.263   2.184  13.780  0.1568 -0.2620 -0.6515
  141TMC2    O1 2202   0.628   2.365  14.031  0.7381 -0.1124 -0.7962
  141TMC2    O2 2203   0.267   2.288  13.717  0.4655 -0.1240 -0.4756
  141TMC2    O5 2204   0.144   2.127  13.807  0.0700 -0.3142 -0.1896
  141TMC2    H5 2205   0.133   2.058  13.876 -1.0257 -0.0307 -0.0835
  142TMC2    C1 2206   3.440   0.246   9.926  0.3151  0.7740 -0.4124
  142TMC2    C2 2207   3.497   0.286   9.809  0.0261  0.0891 -0.6268
  142TMC2    C3 2208   3.623   0.339   9.821 -0.0456 -0.4758 -0.2626
  142TMC2    C4 2209   3.507   0.256  10.045 -0.5306 -0.2536 -0.4257
  142TMC2    C5 2210   3.627   0.316  10.059  0.0009 -0.1725 -0.7401
  142TMC2    C6 2211   3.685   0.353   9.940  0.1914  0.3731 -0.9413
  142TMC2     C 2212   3.298   0.206   9.926 -0.4799 -0.2244  0.1627
  142TMC2     O 2213   3.256   0.181   9.814 -0.3555 -0.5079 -0.6607
  142TMC2     H 2214   3.450   0.290   9.712  0.2896 -0.2633 -0.7683
  142TMC2    H1 2215   3.462   0.215  10.135  0.5661 -0.1775  0.1476
  142TMC2    H2 2216   3.791   0.374   9.931  0.9075 -1.4240  3.1672
  142TMC2    C7 2217   3.673   0.373  10.188  0.1367 -0.2020 -0.6304
  142TMC2    C8 2218   3.694   0.371   9.702  0.2641  0.1432  0.3591
  142TMC2    O1 2219   3.607   0.358  10.287  0.7838  0.0432 -0.1743
  142TMC2    O2 2220   3.670   0.316   9.591  0.2402 -0.0533 -0.1636
  142TMC2    O5 2221   3.751   0.493   9.725  0.2484  0.1108  0.2870
  142TMC2    H5 2222   3.752   0.526   9.818  0.2201  0.6708  0.0875
  143MPD2     C 2223   2.878   0.052  10.196 -0.0297  0.4807 -0.3235
  143MPD2    C1 2224   2.931   0.006  10.075 -0.1257 -0.0809 -0.4199
  143MPD2    C2 2225   3.042   0.067  10.021 -0.1737  0.1922 -0.1675
  143MPD2    C3 2226   3.103   0.168  10.082 -0.0143  0.0280 -0.3985
  143MPD2    C4 2227   3.048   0.212  10.198  0.0508  0.1139  0.2060
  143MPD2    C5 2228   2.938   0.155  10.255  0.6235 -0.3101 -0.0238
  143MPD2     H 2229   3.094   0.018   9.940 -1.3044 -1.0737 -0.1265
  143MPD2    H1 2230   3.093   0.293  10.256 -2.7893  0.2601  2.2096
  143MPD2    H2 2231   2.782   0.011  10.224 -0.0234  2.0698  1.9834
  143MPD2    H3 2232   2.903   0.195  10.349 -0.1128 -2.5780  0.6681
  143MPD2     N 2233   3.236   0.224  10.046 -0.2760  0.1724  0.2566
  143MPD2    H5 2234   3.270   0.286  10.119  2.7181  2.1490 -2.8406
  143MPD2    N1 2235   2.867   4.634  10.019  0.6238 -0.6108 -0.2132
  143MPD2    H7 2236   2.789   4.599  10.074  2.2114 -1.2241  1.6743
  144TMC2    C1 2237   1.295   3.401   0.878  0.7588  0.9690  0.9784
  144TMC2    C2 2238   1.348   3.276   0.873 -0.0792  0.2680  0.3432
  144TMC2    C3 2239   1.483   3.273   0.912 -0.8114  0.7238  0.0198
  144TMC2    C4 2240   1.371   3.510   0.905  0.0608  0.2008  1.0847
  144TMC2    C5 2241   1.505   3.499   0.935 -0.5892 -1.0371 -0.6303
  144TMC2    C6 2242   1.562   3.375   0.949  1.0834  0.2626  0.3925
  144TMC2     C 2243   1.188   3.424   0.788  0.3553 -0.5280 -0.0452
  144TMC2     O 2244   1.188   3.533   0.729 -0.0303 -0.3661 -0.5608
  144TMC2     H 2245   1.295   3.189   0.835  2.5913 -1.2322  0.0529
  144TMC2    H1 2246   1.318   3.604   0.894 -0.1571  0.0405  0.7649
  144TMC2    H2 2247   1.670   3.375   0.940  1.1320  0.4323  0.9759
  144TMC2    C7 2248   1.577   3.604   1.004 -0.9200 -0.0686  0.0732
  144TMC2    C8 2249   1.549   3.147   0.922 -1.0730  0.9034 -0.1199
  144TMC2    O1 2250   1.692   3.576   1.016 -0.2549 -0.0503  0.2253
  144TMC2    O2 2251   1.517   3.037   0.872  0.0402  0.0108  0.1919
  144TMC2    O5 2252   1.613   3.153   1.040 -0.0620  0.0406  0.5343
  144TMC2    H5 2253   1.606   3.240   1.085  0.3824 -0.1538  0.9678
  145MPD2     C 2254   0.800   3.221   0.506  0.0009 -0.3227 -0.4566
  145MPD2    C1 2255   0.887   3.326   0.480  0.3117 -0.8756  0.2299
  145MPD2    C2 2256   0.980   3.371   0.573 -0.0703 -0.7669  0.8187
  145MPD2    C3 2257   0.994   3.304   0.696  0.0529 -0.1527 -0.2678
  145MPD2    C4 2258   0.913   3.197   0.727 -0.0774  1.3474 -0.6161
  145MPD2    C5 2259   0.821   3.161   0.627 -0.7507  0.4816  0.1959
  145MPD2     H 2260   1.038   3.460   0.552 -0.0571 -1.0457 -0.2972
  145MPD2    H1 2261   0.925   3.140   0.818 -1.8889  0.7928 -0.7236
  145MPD2    H2 2262   0.725   3.180   0.439 -1.9901  1.7464  0.5009
  145MPD2    H3 2263   0.754   3.080   0.656  2.3360 -2.3043 -0.3890
  145MPD2     N 2264   1.090   3.328   0.791 -0.7485  0.3894  0.5204
  145MPD2    H5 2265   1.086   3.264   0.869 -1.3685 -0.6314 -0.3566
  145MPD2    N1 2266   0.887   3.395   0.352 -0.3825  0.0004  0.2647
  145MPD2    H7 2267   0.971   3.452   0.340  0.7320 -2.3148 -2.8265
  146TMC2    C1 2268   2.421   2.929  12.148  0.2780  0.5979 -0.1777
  146TMC2    C2 2269   2.345   2.983  12.052 -0.4778 -0.1353  0.4005
  146TMC2    C3 2270   2.390   2.951  11.926 -0.1511  0.4556 -1.2060
  146TMC2    C4 2271   2.533   2.846  12.134  0.1988 -0.3483 -0.0802
  146TMC2    C5 2272   2.581   2.841  12.002 -0.0697  0.2345 -0.6135
  146TMC2    C6 2273   2.512   2.892  11.900 -0.1748 -0.0500  0.0959
  146TMC2     C 2274   2.383   2.964  12.284 -0.3951  0.4014  0.1077
  146TMC2     O 2275   2.331   3.078  12.291 -0.8000  0.3065  0.5787
  146TMC2     H 2276   2.267   3.055  12.072 -0.1759  0.8515 -2.0534
  146TMC2    H1 2277   2.594   2.816  12.219 -1.8285 -1.6950  0.8876
  146TMC2    H2 2278   2.561   2.888  11.804 -0.3335 -2.0427  0.1036
  146TMC2    C7 2279   2.689   2.748  11.972  0.4847  0.1530 -0.0834
  146TMC2    C8 2280   2.319   2.998  11.815 -0.3533 -0.4299  0.7028
  146TMC2    O1 2281   2.731   2.742  11.859  0.3446  0.2467 -0.0821
  146TMC2    O2 2282   2.359   2.979  11.703 -0.1108 -0.7536  0.0011
  146TMC2    O5 2283   2.192   2.980  11.847 -0.4277 -0.6012 -0.6770
  146TMC2    H5 2284   2.176   2.958  11.941  0.7545 -1.9693 -0.8109
  147MPD2     C 2285   3.030   2.394  12.127  0.4177 -0.5346  0.2150
  147MPD2    C1 2286   2.927   2.390  12.212 -0.1677 -0.4280 -0.3174
  147MPD2    C2 2287   2.824   2.477  12.193  0.5143 -0.2804 -0.4183
  147MPD2    C3 2288   2.821   2.566  12.090 -0.2958 -0.0113 -1.2095
  147MPD2    C4 2289   2.925   2.565  11.999 -0.3436 -0.0575  0.2216
  147MPD2    C5 2290   3.026   2.474  12.020  0.3458  0.5258  0.6337
  147MPD2     H 2291   2.747   2.491  12.268  1.3978  0.0014  0.4384
  147MPD2    H1 2292   2.920   2.621  11.906 -2.4337 -1.3956 -0.4607
  147MPD2    H2 2293   3.112   2.323  12.135 -0.1042 -1.0853  0.6631
  147MPD2    H3 2294   3.094   2.461  11.937  2.3396  1.0058  2.1886
  147MPD2     N 2295   2.714   2.664  12.077 -0.4248 -0.0783 -0.4269
  147MPD2    H5 2296   2.644   2.656  12.150 -0.3318 -0.6813 -0.4062
  147MPD2    N1 2297   2.949   2.295  12.313 -0.5663 -0.1646  0.1096
  147MPD2    H7 2298   3.039   2.247  12.310  0.2214  1.2410  1.0850
  148TMC2    C1 2299   2.603   1.223  10.666  0.2231  0.0476 -0.2490
  148TMC2    C2 2300   2.674   1.293  10.759  0.7364  0.6421 -0.5428
  148TMC2    C3 2301   2.754   1.216  10.845 -0.1149 -0.2473 -0.1829
  148TMC2    C4 2302   2.620   1.091  10.639 -0.2675  0.1680 -0.4761
  148TMC2    C5 2303   2.700   1.021  10.728 -0.5037 -0.4251 -0.3230
  148TMC2    C6 2304   2.772   1.083  10.830 -0.0228 -0.1116 -0.1802
  148TMC2     C 2305   2.506   1.311  10.603 -0.1615 -0.6058  0.5279
  148TMC2     O 2306   2.515   1.433  10.612  0.0999  0.5117 -0.3185
  148TMC2     H 2307   2.650   1.392  10.797  0.5376  0.5207 -0.3512
  148TMC2    H1 2308   2.553   1.030  10.580  0.1361 -0.0851 -0.6697
  148TMC2    H2 2309   2.840   1.036  10.900 -0.6027 -1.9491 -0.8568
  148TMC2    C7 2310   2.705   0.877  10.702  0.5966 -0.6490 -0.2235
  148TMC2    C8 2311   2.816   1.274  10.962  0.5995  0.3040  0.4205
  148TMC2    O1 2312   2.683   0.844  10.585  0.5358 -0.3443  0.6872
  148TMC2    O2 2313   2.923   1.226  11.000 -0.4543  0.1366  0.4611
  148TMC2    O5 2314   2.716   1.310  11.042 -0.4387 -0.5829 -0.4542
  148TMC2    H5 2315   2.630   1.318  10.995 -0.2435 -1.5694 -0.9724
  149MPD2     C 2316   2.254   1.393  10.438 -0.3424 -0.0391  0.1186
  149MPD2    C1 2317   2.317   1.273  10.451 -0.8994 -1.3434 -0.6339
  149MPD2    C2 2318   2.267   1.171  10.381  0.2397 -0.0316 -0.3250
  149MPD2    C3 2319   2.151   1.172  10.310  0.0889  0.5888 -0.0081
  149MPD2    C4 2320   2.091   1.291  10.292 -0.8293  0.9938 -0.6285
  149MPD2    C5 2321   2.136   1.397  10.368  0.3464 -0.3025 -0.1625
  149MPD2     H 2322   2.329   1.082  10.381 -0.1555 -0.2950  2.0089
  149MPD2    H1 2323   2.008   1.307  10.225  0.1430  1.2625 -1.7662
  149MPD2    H2 2324   2.288   1.485  10.483 -3.2112  1.1294 -0.1069
  149MPD2    H3 2325   2.090   1.493  10.348  0.1411 -0.2067  0.7564
  149MPD2     N 2326   2.099   1.064  10.237  0.1267 -0.2868  0.5662
  149MPD2    H5 2327   2.013   1.081  10.186  1.0981 -0.4516 -1.1458
  149MPD2    N1 2328   2.437   1.234  10.510  0.4593 -0.4920  0.1352
  149MPD2    H7 2329   2.476   1.145  10.480  1.7812 -0.0383  0.4892
  150TMC2    C1 2330   0.291   0.800  12.311  0.6358 -0.2049  0.1634
  150TMC2    C2 2331   0.231   0.919  12.290 -0.0150  0.4107  0.7354
  150TMC2    C3 2332   0.314   1.028  12.284  0.1578 -0.6824 -0.7913
  150TMC2    C4 2333   0.418   0.790  12.351 -0.4153 -0.1716 -0.5245
  150TMC2    C5 2334   0.495   0.900  12.363  0.6734 -0.3685 -1.1951
  150TMC2    C6 2335   0.444   1.022  12.334 -0.4280 -0.2744  0.5015
  150TMC2     C 2336   0.221   0.676  12.290 -0.5244  0.3109 -0.1383
  150TMC2     O 2337   0.276   0.570  12.327 -0.7181 -0.3133 -0.2119
  150TMC2     H 2338   0.127   0.929  12.263  0.1980  2.0808  0.5727
  150TMC2    H1 2339   0.457   0.691  12.372  0.2418  0.6161  1.9884
  150TMC2    H2 2340   0.495   1.117  12.343 -0.0587 -0.4862  0.6285
  150TMC2    C7 2341   0.637   0.886  12.378 -0.2853  0.4122 -0.1581
  150TMC2    C8 2342   0.243   1.158  12.286  0.0820 -0.1520 -0.1647
  150TMC2    O1 2343   0.710   0.952  12.306  0.1978 -0.2927 -0.3882
  150TMC2    O2 2344   0.283   1.262  12.337 -0.4237  0.0545  0.1856
  150TMC2    O5 2345   0.155   1.155  12.182  0.3691  0.5040  0.2324
  150TMC2    H5 2346   0.167   1.082  12.118  0.4597 -0.1475  0.9917
  151MPD2     C 2347   4.594   0.398  12.057 -0.5681  0.1657  0.0794
  151MPD2    C1 2348   4.543   0.527  12.089  0.6640  0.3221 -0.1285
  151MPD2    C2 2349   4.631   0.621  12.139  0.2304  0.6702 -0.1464
  151MPD2    C3 2350   0.022   0.594  12.174 -0.0404  0.4897 -0.4568
  151MPD2    C4 2351   0.063   0.465  12.147  0.5061 -0.2248 -0.7447
  151MPD2    C5 2352   4.723   0.368  12.091  0.2227  0.0003  0.5581
  151MPD2     H 2353   4.592   0.720  12.162 -0.6163  0.2253  0.3205
  151MPD2    H1 2354   0.164   0.428  12.160  1.4565  1.8603 -2.0766
  151MPD2    H2 2355   4.535   0.328  11.999 -0.1361  0.4676 -0.7223
  151MPD2    H3 2356   0.023   0.271  12.064  1.7119  0.4191  1.2265
  151MPD2     N 2357   0.099   0.696  12.225 -0.4445  0.4301 -0.2081
  151MPD2    H5 2358   0.065   0.790  12.213 -0.1561  0.8453  2.3882
  151MPD2    N1 2359   4.412   0.556  12.044  0.4766  0.2603  0.6230
  151MPD2    H7 2360   4.358   0.480  12.003  2.5347 -0.6387 -0.4629
  152TMC2    C1 2361   4.478   0.390  12.646 -0.3406 -0.1397  0.9122
  152TMC2    C2 2362   4.521   0.300  12.556 -0.2538 -0.0956 -0.4678
  152TMC2    C3 2363   4.642   0.327  12.484 -0.6139  0.0525  0.1995
  152TMC2    C4 2364   4.535   0.519  12.651 -0.0050 -0.4373  0.2706
  152TMC2    C5 2365   4.649   0.543  12.577 -0.4196  0.0645  0.1962
  152TMC2    C6 2366   4.711   0.444  12.501 -0.4875 -0.5801  0.5016
  152TMC2     C 2367   4.362   0.359  12.732  0.8328 -0.8014 -0.2942
  152TMC2     O 2368   4.296   0.456  12.772 -0.4459 -0.3801  0.0908
  152TMC2     H 2369   4.474   0.203  12.540 -1.3667  0.5747 -1.2492
  152TMC2    H1 2370   4.487   0.594  12.712  2.0375 -0.4946  1.9642
  152TMC2    H2 2371   0.060   0.463  12.442 -0.8876  0.6997  0.3203
  152TMC2    C7 2372   4.710   0.677  12.588  0.0700  0.0890 -0.2952
  152TMC2    C8 2373   4.712   0.227  12.411  0.4190  0.5807  0.3044
  152TMC2    O1 2374   4.643   0.782  12.587  0.0447  0.4451  0.7175
  152TMC2    O2 2375   0.092   0.236  12.412  0.1048 -0.2539 -0.5623
  152TMC2    O5 2376   4.649   0.109  12.432  0.1986  0.0298 -0.2771
  152TMC2    H5 2377   4.555   0.122  12.409 -0.5517 -3.8232  0.5769
  153MPD2     C 2378   4.202   0.039  12.802  0.0038 -0.2094 -0.3194
  153MPD2    C1 2379   4.221   0.172  12.808 -0.0983 -0.3590 -0.2292
  153MPD2    C2 2380   4.123   0.242  12.869  0.6800  0.2551  0.0307
  153MPD2    C3 2381   3.992   0.196  12.894 -0.8209  0.3100  0.3729
  153MPD2    C4 2382   3.977   0.060  12.882  0.6950  0.3912 -0.1333
  153MPD2    C5 2383   4.086   4.728  12.846 -0.1955 -0.1136  0.0418
  153MPD2     H 2384   4.138   0.347  12.893  1.0277  0.1264  0.3710
  153MPD2    H1 2385   3.884   0.010  12.906 -0.0213  0.3867 -2.9472
  153MPD2    H2 2386   4.279   4.708  12.774  1.9540  1.7879 -0.0175
  153MPD2    H3 2387   4.067   4.621  12.838  3.6417 -0.8730  1.2687
  153MPD2     N 2388   3.896   0.285  12.940 -0.0100 -0.0521  0.0201
  153MPD2    H5 2389   3.926   0.382  12.952  0.2189 -0.1862  0.5250
  153MPD2    N1 2390   4.339   0.223  12.754 -0.6659 -0.7858  0.1747
  153MPD2    H7 2391   4.413   0.161  12.720 -1.8851 -0.8723 -2.3041
  154TMC2    C1 2392   1.042   0.061   0.598 -0.5812 -0.1476  0.0080
  154TMC2    C2 2393   1.103   0.045   0.723  0.0101 -0.6726 -0.2844
  154TMC2    C3 2394   1.239   0.054   0.729 -0.0220  0.4254  0.3645
  154TMC2    C4 2395   1.115   0.086   0.484  0.3268 -0.2918  0.1115
  154TMC2    C5 2396   1.256   0.090   0.493 -0.0160 -0.1409 -0.4734
  154TMC2    C6 2397   1.318   0.072   0.619  0.4646 -0.4293  0.5966
  154TMC2     C 2398   0.894   0.059   0.598  0.1200  0.2002  0.4637
  154TMC2     O 2399   0.837   0.080   0.706 -0.3624 -0.4752  0.6910
  154TMC2     H 2400   1.049   0.008   0.809  0.0265 -0.3480 -0.1328
  154TMC2    H1 2401   1.072   0.088   0.385  0.5082  0.6714  0.0577
  154TMC2    H2 2402   1.426   0.071   0.619  0.4761  0.4524  0.1975
  154TMC2    C7 2403   1.330   0.070   0.371  0.5023 -0.0881 -0.0961
  154TMC2    C8 2404   1.298   0.024   0.859 -0.0725 -0.0164 -0.8072
  154TMC2    O1 2405   1.456   0.075   0.377 -0.2658 -0.3312 -0.4143
  154TMC2    O2 2406   1.408   4.718   0.868 -0.2434  0.4306 -0.1196
  154TMC2    O5 2407   1.247   0.104   0.956  0.1489  0.0183  0.0055
  154TMC2    H5 2408   1.165   0.149   0.926  1.2690  0.5892 -2.2682
  155MPD2     C 2409   0.666   0.030   0.307 -0.1951  0.1322  0.0243
  155MPD2    C1 2410   0.705   0.042   0.440 -0.3212  0.0662 -0.8325
  155MPD2    C2 2411   0.615   0.090   0.530  0.0635 -0.1628 -0.1604
  155MPD2    C3 2412   0.488   0.137   0.494  0.2794 -0.0509  0.5090
  155MPD2    C4 2413   0.446   0.119   0.363 -0.4406 -0.2203  0.7660
  155MPD2    C5 2414   0.539   0.064   0.268  0.0662  0.0366 -0.0035
  155MPD2     H 2415   0.633   0.104   0.636 -0.5793 -1.7982  0.1685
  155MPD2    H1 2416   0.354   0.157   0.321  1.5980  2.2262 -1.5021
  155MPD2    H2 2417   0.743   4.739   0.238  0.8892  1.4677  0.6506
  155MPD2    H3 2418   0.512   0.039   0.166 -1.7819  0.2864  0.4263
  155MPD2     N 2419   0.396   0.184   0.596 -0.9219  0.3452  0.2446
  155MPD2    H5 2420   0.427   0.183   0.693 -1.9617  3.4005  0.6209
  155MPD2    N1 2421   0.842   0.025   0.476 -1.0152  0.3416 -0.3729
  155MPD2    H7 2422   0.902   0.005   0.397  1.2092 -1.1438  1.7071
  156TMC2    C1 2423   4.420   2.669  11.776 -0.6595  0.1883  0.6454
  156TMC2    C2 2424   4.377   2.540  11.792  0.4646  0.0078 -0.0924
  156TMC2    C3 2425   4.242   2.524  11.804 -0.2541  0.2133  0.0376
  156TMC2    C4 2426   4.336   2.776  11.755 -0.9667  0.1704 -0.2918
  156TMC2    C5 2427   4.201   2.748  11.762  0.3202 -0.1791  0.2415
  156TMC2    C6 2428   4.150   2.628  11.799  0.0513 -0.4845 -0.1198
  156TMC2     C 2429   4.560   2.698  11.754  0.2406  0.1024  0.2021
  156TMC2     O 2430   4.589   2.798  11.691  0.4313  0.1268  0.2058
  156TMC2     H 2431   4.438   2.453  11.769 -1.0710 -1.4106  1.1157
  156TMC2    H1 2432   4.371   2.876  11.730 -0.7764  0.2517  0.2830
  156TMC2    H2 2433   4.043   2.611  11.805  0.1955 -1.6561 -0.7797
  156TMC2    C7 2434   4.125   2.867  11.786  0.4576 -0.4111 -1.1537
  156TMC2    C8 2435   4.181   2.400  11.851  0.6047 -0.1070 -0.3300
  156TMC2    O1 2436   4.157   2.967  11.725 -0.1315 -0.4752  0.1832
  156TMC2    O2 2437   4.061   2.384  11.834 -0.2275 -0.1151 -0.0590
  156TMC2    O5 2438   4.257   2.360  11.952  0.3929 -0.3682  0.1805
  156TMC2    H5 2439   4.353   2.379  11.938  1.2454 -2.4723  3.2633
  157MPD2     C 2440   0.094   2.557  11.958  0.0014  0.1832 -0.1093
  157MPD2    C1 2441   0.027   2.640  11.868  0.6138 -0.6394 -0.3952
  157MPD2    C2 2442   0.100   2.745  11.813 -0.0519 -0.6460  0.3490
  157MPD2    C3 2443   0.231   2.754  11.838  0.0863  0.7677  0.0032
  157MPD2    C4 2444   0.293   2.680  11.932  0.0456  0.8443 -0.0488
  157MPD2    C5 2445   0.225   2.572  11.986 -0.1512 -0.5665  0.3006
  157MPD2     H 2446   0.061   2.816  11.741  0.0437 -1.6978 -0.7503
  157MPD2    H1 2447   0.399   2.689  11.955  0.0461 -0.6723  0.5584
  157MPD2    H2 2448   0.042   2.474  12.005  1.1105 -1.5511 -1.9749
  157MPD2    H3 2449   0.263   2.522  12.074 -0.2622  1.2399  1.3607
  157MPD2     N 2450   0.300   2.865  11.780  0.5690 -0.7002  0.1159
  157MPD2    H5 2451   0.240   2.933  11.734  0.5188 -0.1304  1.0291
  157MPD2    N1 2452   4.635   2.613  11.827 -0.8320 -0.1600  0.0768
  157MPD2    H7 2453   4.580   2.543  11.875 -1.6491  0.9683  0.7781
  158TMC2    C1 2454   0.650   1.507  13.504  0.3088  0.6610  0.0899
  158TMC2    C2 2455   0.725   1.601  13.443 -0.0785 -0.4528  0.8753
  158TMC2    C3 2456   0.650   1.689  13.364  0.1674  0.3062  0.3914
  158TMC2    C4 2457   0.513   1.503  13.505  0.0379  0.1999 -0.0759
  158TMC2    C5 2458   0.451   1.611  13.451 -0.2878 -0.8138  0.3096
  158TMC2    C6 2459   0.514   1.699  13.371  0.3389 -0.3752 -0.2797
  158TMC2     C 2460   0.735   1.417  13.582 -0.7282 -0.5399  0.0132
  158TMC2     O 2461   0.855   1.430  13.575 -0.3866 -0.2238 -0.1311
  158TMC2     H 2462   0.833   1.604  13.451 -0.0967 -0.2269  1.0577
  158TMC2    H1 2463   0.466   1.416  13.549  2.0194 -1.2126 -0.7904
  158TMC2    H2 2464   0.460   1.778  13.320  1.4211 -0.5152 -1.6573
  158TMC2    C7 2465   0.308   1.602  13.441  0.3331 -0.4894  0.0348
  158TMC2    C8 2466   0.725   1.782  13.283  0.8815  1.0664  0.5632
  158TMC2    O1 2467   0.258   1.672  13.357 -0.0908 -0.4652 -0.4608
  158TMC2    O2 2468   0.846   1.802  13.296  0.1886  0.0318 -0.2134
  158TMC2    O5 2469   0.651   1.829  13.175 -0.1091  0.1933 -0.0157
  158TMC2    H5 2470   0.555   1.814  13.163 -0.2205  1.7259 -1.0910
  159MPD2     C 2471   0.795   1.000  13.877  0.3809 -0.5004  0.1662
  159MPD2    C1 2472   0.661   1.026  13.869  0.3236 -0.3784 -0.0647
  159MPD2    C2 2473   0.616   1.138  13.813 -0.1217  0.8077 -0.1004
  159MPD2    C3 2474   0.706   1.220  13.745  0.0884  0.0343 -0.6957
  159MPD2    C4 2475   0.834   1.184  13.740 -0.0222 -0.2425  0.3615
  159MPD2    C5 2476   0.879   1.075  13.804  0.7228  0.2329  0.5048
  159MPD2     H 2477   0.512   1.169  13.812 -0.9613 -2.0310 -0.9997
  159MPD2    H1 2478   0.907   1.234  13.678  1.0606 -2.3937 -0.0838
  159MPD2    H2 2479   0.834   0.910  13.923 -0.7213 -0.1647  1.7383
  159MPD2    H3 2480   0.981   1.040  13.796 -0.5175 -3.1045 -0.5827
  159MPD2     N 2481   0.659   1.333  13.668 -0.0340 -0.8156  0.5319
  159MPD2    H5 2482   0.561   1.355  13.684  0.3216  0.4967  0.9730
  159MPD2    N1 2483   0.576   0.928  13.925 -0.2779  0.5871 -0.4659
  159MPD2    H7 2484   0.625   0.849  13.966 -4.2548 -1.6585 -0.0194
  160TMC2    C1 2485   4.199   3.685   1.291 -0.2628  0.9611 -0.4851
  160TMC2    C2 2486   4.181   3.551   1.305  0.1954  0.0878 -0.1884
  160TMC2    C3 2487   4.287   3.474   1.258 -0.2257 -0.6387  0.3910
  160TMC2    C4 2488   4.312   3.742   1.236  0.1178 -0.5769 -0.0956
  160TMC2    C5 2489   4.413   3.659   1.193 -0.8085 -0.1520  0.0817
  160TMC2    C6 2490   4.410   3.525   1.214  0.2688 -0.6026 -0.3883
  160TMC2     C 2491   4.088   3.771   1.349  0.0591 -0.0998 -0.1043
  160TMC2     O 2492   4.016   3.711   1.429  0.0693  0.3079  0.2416
  160TMC2     H 2493   4.097   3.501   1.352  0.5106  0.8333  1.1650
  160TMC2    H1 2494   4.323   3.850   1.234  0.7341 -0.6260  0.4838
  160TMC2    H2 2495   4.487   3.460   1.176  0.5997 -1.1855  1.2515
  160TMC2    C7 2496   4.540   3.720   1.148 -0.0994 -0.3110 -0.4771
  160TMC2    C8 2497   4.287   3.330   1.280  0.3145 -0.1573 -0.2646
  160TMC2    O1 2498   4.626   3.637   1.115  0.4751  0.1107  0.4592
  160TMC2    O2 2499   4.386   3.261   1.291 -0.0972  0.3941 -0.8780
  160TMC2    O5 2500   4.164   3.278   1.289 -0.2736  0.2275  0.7146
  160TMC2    H5 2501   4.095   3.341   1.260 -0.7094 -0.3999  0.3742
  161MPD2     C 2502   3.908   3.994   1.423  0.4206  0.3790 -0.0895
  161MPD2    C1 2503   3.961   3.972   1.292 -0.0017 -0.9162 -0.4634
  161MPD2    C2 2504   3.924   4.060   1.189  0.3613 -0.9011  0.1469
  161MPD2    C3 2505   3.827   4.155   1.202 -0.4932 -0.3752  0.2425
  161MPD2    C4 2506   3.773   4.174   1.328  0.6836 -0.0062  0.1884
  161MPD2    C5 2507   3.818   4.093   1.438 -0.4372 -0.5784 -0.3869
  161MPD2     H 2508   3.970   4.041   1.093  1.9099 -3.0443  1.3215
  161MPD2    H1 2509   3.696   4.249   1.342 -2.7270 -3.1166 -2.1785
  161MPD2    H2 2510   3.918   3.929   1.509 -3.5658 -0.6580 -0.4091
  161MPD2    H3 2511   3.776   4.103   1.537  0.7993 -0.8633  0.1601
  161MPD2     N 2512   3.785   4.241   1.093 -0.1287 -0.2812  0.3715
  161MPD2    H5 2513   3.718   4.314   1.114 -0.0189 -0.4671  1.3686
  161MPD2    N1 2514   4.064   3.879   1.266  0.4929 -0.0065  0.0768
  161MPD2    H7 2515   4.119   3.901   1.183 -0.4432 -1.0097 -0.8105
  162TMC2    C1 2516   2.240   1.398   1.133  1.2826  0.5241  1.2609
  162TMC2    C2 2517   2.151   1.449   1.222  0.7148  0.6268  0.0738
  162TMC2    C3 2518   2.206   1.512   1.329 -0.3782 -0.3666  0.3807
  162TMC2    C4 2519   2.372   1.409   1.146 -0.2134 -0.0522 -0.0789
  162TMC2    C5 2520   2.426   1.454   1.261 -0.4081 -0.3444  0.2440
  162TMC2    C6 2521   2.340   1.513   1.352  0.0796 -0.3162  0.3949
  162TMC2     C 2522   2.203   1.364   0.998  0.7735 -0.0473  0.2988
  162TMC2     O 2523   2.275   1.398   0.910  0.6321  0.2863  0.2386
  162TMC2     H 2524   2.043   1.450   1.205  0.6959 -1.6486  0.0376
  162TMC2    H1 2525   2.440   1.372   1.070 -2.3306  0.3938 -2.1923
  162TMC2    H2 2526   2.383   1.569   1.434 -0.2782  1.3592 -0.5725
  162TMC2    C7 2527   2.558   1.430   1.312 -0.3757 -0.0450  0.3473
  162TMC2    C8 2528   2.116   1.591   1.403 -0.9963  0.8499  0.3357
  162TMC2    O1 2529   2.588   1.460   1.424 -0.6175 -0.0398 -0.4080
  162TMC2    O2 2530   2.023   1.652   1.351  0.1754 -0.2444 -0.1752
  162TMC2    O5 2531   2.154   1.608   1.531  0.0795  0.0681  0.1300
  162TMC2    H5 2532   2.208   1.532   1.561 -0.3976 -0.5377 -0.5522
  163MPD2     C 2533   1.909   1.075   0.681  0.0574 -0.5712 -0.6555
  163MPD2    C1 2534   2.030   1.139   0.660  0.6631 -0.0785  0.2361
  163MPD2    C2 2535   2.086   1.208   0.764 -0.0491 -0.4341 -0.2737
  163MPD2    C3 2536   2.019   1.229   0.882 -0.1798 -0.4692  0.8573
  163MPD2    C4 2537   1.900   1.163   0.897  0.2129  0.3284 -0.1286
  163MPD2    C5 2538   1.842   1.091   0.802 -0.2115 -0.5215  0.3340
  163MPD2     H 2539   2.178   1.265   0.756  0.0647 -0.2282  2.4651
  163MPD2    H1 2540   1.842   1.170   0.988  0.1475 -0.0113 -0.1462
  163MPD2    H2 2541   1.866   1.014   0.603  0.0049  0.9898 -1.8390
  163MPD2    H3 2542   1.743   1.049   0.817 -0.7325  0.6939  0.2645
  163MPD2     N 2543   2.077   1.297   0.991 -0.7543 -0.4715  0.2766
  163MPD2    H5 2544   2.019   1.299   1.074  0.5462 -0.0443  1.1826
  163MPD2    N1 2545   2.107   1.118   0.536  0.0249 -0.1890 -0.3467
  163MPD2    H7 2546   2.058   1.062   0.466 -0.9567 -0.5906  0.6435
  164TMC2    C1 2547   3.243   1.251  11.186  0.8572  0.5097  0.4639
  164TMC2    C2 2548   3.269   1.246  11.051  0.2751 -0.1512 -1.0900
  164TMC2    C3 2549   3.231   1.351  10.973 -0.0081 -0.4023  1.0003
  164TMC2    C4 2550   3.191   1.366  11.246  0.8090 -0.5379  0.2558
  164TMC2    C5 2551   3.148   1.457  11.158 -0.7704  0.2111 -0.5132
  164TMC2    C6 2552   3.165   1.457  11.022 -0.1075  0.3560  0.0839
  164TMC2     C 2553   3.274   1.138  11.264  0.3939 -0.0904 -0.0592
  164TMC2     O 2554   3.299   1.160  11.378 -0.0681 -0.2384 -0.2392
  164TMC2     H 2555   3.341   1.175  11.010  1.2152  1.3197 -1.9716
  164TMC2    H1 2556   3.171   1.383  11.351  0.4530 -2.1189  0.4366
  164TMC2    H2 2557   3.115   1.533  10.962 -1.6320 -0.8236 -0.1365
  164TMC2    C7 2558   3.075   1.571  11.213  0.1923  0.3142  1.0402
  164TMC2    C8 2559   3.291   1.370  10.844 -1.7648 -0.3362 -0.3189
  164TMC2    O1 2560   3.114   1.608  11.321 -0.1378  0.1287 -0.0584
  164TMC2    O2 2561   3.327   1.289  10.761 -0.1876 -0.5505  0.9355
  164TMC2    O5 2562   3.342   1.494  10.855 -0.1784 -0.6855 -0.1873
  164TMC2    H5 2563   3.314   1.544  10.935 -0.1280  1.0740 -1.2797
  165TMC2    C1 2564   3.922   3.020   0.525 -0.6971 -0.1461 -0.5290
  165TMC2    C2 2565   3.855   3.127   0.459 -0.1317 -0.6446  0.0878
  165TMC2    C3 2566   3.933   3.232   0.420  0.9259 -0.0310 -1.1781
  165TMC2    C4 2567   4.062   3.031   0.549  0.7980  0.4560 -0.3269
  165TMC2    C5 2568   4.127   3.144   0.505  0.6814 -0.0146 -0.3785
  165TMC2    C6 2569   4.068   3.247   0.441 -0.0739 -0.8705 -0.2076
  165TMC2     C 2570   3.836   2.947   0.612  0.2552  0.3469  0.4441
  165TMC2     O 2571   3.878   2.894   0.716  0.5923 -0.8154  0.6118
  165TMC2     H 2572   3.748   3.137   0.466 -0.2149 -0.6967 -1.2101
  165TMC2    H1 2573   4.114   2.961   0.614 -0.9050  0.5133  1.1161
  165TMC2    H2 2574   4.120   3.341   0.426 -0.0525 -0.9409 -0.5700
  165TMC2    C7 2575   4.269   3.164   0.525  0.2208 -0.5363 -0.4493
  165TMC2    C8 2576   3.866   3.333   0.346 -0.5784  0.2245  0.5183
  165TMC2    O1 2577   4.313   3.276   0.517  0.0584 -0.1629  0.3288
  165TMC2    O2 2578   3.746   3.319   0.324  0.0857  0.0411  0.0852
  165TMC2    O5 2579   3.971   3.362   0.257 -0.2341 -0.3253 -0.3845
  165TMC2    H5 2580   4.059   3.367   0.300 -0.0065 -1.1645 -0.7638
  166MPD2     C 2581   3.393   2.712   0.709  0.2883 -0.4349  0.3614
  166MPD2    C1 2582   3.498   2.725   0.791 -0.0160 -0.2800  0.3319
  166MPD2    C2 2583   3.611   2.789   0.740 -0.0108  0.1815 -0.6777
  166MPD2    C3 2584   3.609   2.847   0.620  0.6134 -0.0578 -0.5812
  166MPD2    C4 2585   3.509   2.822   0.535 -0.3063 -0.3399  0.0244
  166MPD2    C5 2586   3.402   2.755   0.573  0.1927  0.3184  0.7298
  166MPD2     H 2587   3.702   2.780   0.798 -0.9649 -2.6701  0.3741
  166MPD2    H1 2588   3.516   2.853   0.431 -2.6870  0.9673  0.2537
  166MPD2    H2 2589   3.306   2.653   0.736 -0.9606  1.2088 -0.0296
  166MPD2    H3 2590   3.317   2.744   0.506  0.6380  1.3213  0.0090
  166MPD2     N 2591   3.709   2.921   0.561  0.1376 -0.4761  1.1904
  166MPD2    H5 2592   3.692   2.957   0.467 -0.4652 -2.5403  0.4834
  166MPD2    N1 2593   3.485   2.677   0.923  0.2051  0.3273 -0.3973
  166MPD2    H7 2594   3.396   2.632   0.940  2.0334 -2.5884  1.5017
  167TMC2    C1 2595   2.716   1.496  12.805 -0.3098 -0.4476 -0.5513
  167TMC2    C2 2596   2.729   1.585  12.909  0.6318 -0.4731 -0.4054
  167TMC2    C3 2597   2.704   1.532  13.031  0.2671  0.2561 -0.1398
  167TMC2    C4 2598   2.676   1.364  12.816 -0.4442  0.0013  0.1906
  167TMC2    C5 2599   2.644   1.319  12.943  0.0832  0.0394  0.3739
  167TMC2    C6 2600   2.663   1.404  13.049  0.1672  0.5433 -0.5060
  167TMC2     C 2601   2.759   1.546  12.683  1.2666  0.4815 -0.2008
  167TMC2     O 2602   2.819   1.655  12.682 -0.0787  0.0215 -0.2758
  167TMC2     H 2603   2.754   1.690  12.897  2.3145 -0.7993  0.1894
  167TMC2    H1 2604   2.689   1.289  12.740 -1.1128 -0.2247  0.3031
  167TMC2    H2 2605   2.661   1.352  13.144  1.4376 -3.4608 -2.6357
  167TMC2    C7 2606   2.565   1.197  12.967 -0.0993 -0.2080 -0.2406
  167TMC2    C8 2607   2.729   1.617  13.148  0.7540 -0.3449 -0.7400
  167TMC2    O1 2608   2.505   1.198  13.076  0.7994  0.4221  0.6731
  167TMC2    O2 2609   2.813   1.701  13.151  0.3241 -0.5525 -0.3477
  167TMC2    O5 2610   2.670   1.567  13.254 -0.1050 -0.7410 -0.2209
  167TMC2    H5 2611   2.607   1.493  13.244 -0.7055  0.0185 -2.2601
  168MPD2     C 2612   2.805   1.580  12.391  0.0769 -0.1170 -0.3128
  168MPD2    C1 2613   2.703   1.505  12.446  0.7156  0.4344  0.0955
  168MPD2    C2 2614   2.603   1.448  12.364  0.1108 -0.3712  0.0374
  168MPD2    C3 2615   2.610   1.470  12.227  0.2929 -0.9370 -0.4107
  168MPD2    C4 2616   2.703   1.557  12.172  0.3070  0.3343  0.3750
  168MPD2    C5 2617   2.801   1.608  12.254 -0.2188  0.6492 -0.1539
  168MPD2     H 2618   2.523   1.397  12.417  0.8941 -0.1620  1.4415
  168MPD2    H1 2619   2.715   1.589  12.069 -1.9384  0.3495  0.1297
  168MPD2    H2 2620   2.894   1.613  12.441  0.2858 -0.0561 -0.7215
  168MPD2    H3 2621   2.888   1.654  12.208  0.5019  1.5888  2.1867
  168MPD2     N 2622   2.518   1.414  12.137  0.2484 -0.1258 -0.2807
  168MPD2    H5 2623   2.531   1.435  12.038 -1.1710  2.7148  0.1328
  168MPD2    N1 2624   2.686   1.485  12.585 -0.0063  0.1100  0.1587
  168MPD2    H7 2625   2.607   1.428  12.615 -0.3442  0.5684  0.1283
  169MPD1     C 2626   0.037   1.980   9.050  0.1092 -0.0360  0.3060
  169MPD1    C1 2627   4.714   1.957   9.167 -0.2027  0.0808 -0.1979
  169MPD1    C2 2628   0.024   1.852   9.246  0.7397 -0.3310  0.3022
  169MPD1    C3 2629   0.125   1.772   9.203  0.3384 -0.0195  0.3234
  169MPD1    C4 2630   0.194   1.796   9.082  0.4751 -0.5730  0.1954
  169MPD1    C5 2631   0.140   1.899   9.003 -0.1527  0.1419 -0.3092
  169MPD1     H 2632   4.728   1.825   9.345 -1.5313  1.1489 -0.1238
  169MPD1    H1 2633   0.272   1.731   9.045 -0.5675 -2.5306  1.3945
  169MPD1    H2 2634   4.739   2.053   8.978  0.0048  0.6327  1.0392
  169MPD1    H3 2635   0.180   1.918   8.904 -0.9026 -0.2762 -0.6887
  169MPD1     N 2636   0.171   1.672   9.293 -0.5066  0.4161 -0.0458
  169MPD1    H5 2637   0.115   1.645   9.373 -0.5166  1.7377  0.3928
  169MPD1    N1 2638   4.627   2.050   9.210 -0.3535 -0.3068  0.5497
  169MPD1    H6 2639   4.565   2.021   9.285 -0.4661  0.2052  0.6519
  169MPD1    H7 2640   4.575   2.091   9.133  2.2628 -0.9667 -1.5586
  170MPD1     C 2641   2.967   3.674  12.906 -0.2073 -0.0819 -0.5561
  170MPD1    C1 2642   3.053   3.777  12.919  0.3196 -0.1378  0.5386
  170MPD1    C2 2643   3.132   3.772  13.031  0.1602 -0.1540  0.1544
  170MPD1    C3 2644   3.112   3.698  13.139  0.3020 -0.4465 -0.4750
  170MPD1    C4 2645   3.013   3.602  13.131 -0.4199 -0.1755  0.0165
  170MPD1    C5 2646   2.936   3.596  13.017  0.1390 -0.7264  0.6787
  170MPD1     H 2647   3.217   3.840  13.029  1.1840 -1.4241  0.5203
  170MPD1    H1 2648   2.992   3.521  13.200 -0.3653 -0.1299  0.0868
  170MPD1    H2 2649   2.917   3.643  12.815 -4.1855  0.3916  1.4637
  170MPD1    H3 2650   2.861   3.519  13.001  1.2780 -1.8189  0.6391
  170MPD1     N 2651   3.198   3.711  13.244  0.4606  0.0002  0.2400
  170MPD1    H5 2652   3.276   3.774  13.228 -0.7684  1.5272  0.2590
  170MPD1    N1 2653   3.093   3.842  12.800 -0.3335 -0.0019  0.3744
  170MPD1    H6 2654   3.133   3.931  12.829 -1.0763  0.1738  0.8597
  170MPD1    H7 2655   3.008   3.863  12.748  0.3567  1.2308 -0.2479
  171MPD1     C 2656   1.641   4.061  15.268  0.2290  0.1535  0.6983
  171MPD1    C1 2657   1.621   4.124  15.387 -0.0650 -0.0383  0.5726
  171MPD1    C2 2658   1.732   4.138  15.467 -0.0381  0.1584 -0.0907
  171MPD1    C3 2659   1.853   4.091  15.416  0.5560 -0.0657 -0.4956
  171MPD1    C4 2660   1.867   4.038  15.289 -0.0867  0.4864 -0.1318
  171MPD1    C5 2661   1.759   4.029  15.216 -0.2607  0.5619  0.4712
  171MPD1     H 2662   1.720   4.194  15.559 -2.2262  0.6657 -0.6837
  171MPD1    H1 2663   1.953   3.991  15.244  0.5024  1.7046 -0.2514
  171MPD1    H2 2664   1.560   4.034  15.202 -0.0109 -1.3336  1.5912
  171MPD1    H3 2665   1.771   4.001  15.112 -1.5340 -1.8386  0.9842
  171MPD1     N 2666   1.970   4.098  15.490 -0.3696  0.3681 -0.4470
  171MPD1    H5 2667   2.050   4.048  15.452 -1.5922 -1.1658 -0.9960
  171MPD1    N1 2668   1.491   4.148  15.425 -0.2969 -0.2708 -0.1555
  171MPD1    H6 2669   1.452   4.175  15.335 -0.1568  0.3638 -0.0256
  171MPD1    H7 2670   1.486   4.223  15.494  2.3096  1.3447 -1.7767
  172MPD1     C 2671   1.343   3.011   0.491 -0.3449 -0.4481  0.7311
  172MPD1    C1 2672   1.229   3.077   0.439 -0.3143  0.3263 -0.0865
  172MPD1    C2 2673   1.235   3.218   0.434  0.9590  0.2032  0.5311
  172MPD1    C3 2674   1.349   3.289   0.462  0.4377 -0.4541  0.3857
  172MPD1    C4 2675   1.458   3.219   0.513 -0.0911  0.2556 -0.6539
  172MPD1    C5 2676   1.450   3.082   0.526  0.1434 -0.3715  0.8057
  172MPD1     H 2677   1.141   3.268   0.412  0.1020 -1.4541  0.4178
  172MPD1    H1 2678   1.537   3.282   0.553 -0.9830  0.5733  0.5744
  172MPD1    H2 2679   1.327   2.911   0.529 -0.1313 -1.1761 -1.1170
  172MPD1    H3 2680   1.537   3.029   0.563  0.2498  0.6664  2.0548
  172MPD1     N 2681   1.362   3.428   0.439  0.4773 -0.3252 -0.2431
  172MPD1    H5 2682   1.444   3.475   0.477 -0.9096  1.0888  1.0133
  172MPD1    N1 2683   1.106   3.004   0.421  0.1411 -0.1994 -0.3103
  172MPD1    H6 2684   1.032   3.049   0.367 -0.5869 -0.1779  0.7023
  172MPD1    H7 2685   1.128   2.917   0.373 -2.4231 -1.2075  0.2971
  173MPD1     C 2686   3.173   3.684  13.874  0.0727 -0.2383  0.6609
  173MPD1    C1 2687   3.038   3.666  13.900  0.0125 -0.7568 -0.3085
  173MPD1    C2 2688   3.006   3.607  14.017  0.3830 -0.8252  0.1569
  173MPD1    C3 2689   3.109   3.571  14.112  0.0788  0.2867 -0.7197
  173MPD1    C4 2690   3.240   3.588  14.083  0.2945 -0.8097 -0.0654
  173MPD1    C5 2691   3.266   3.652  13.966 -0.2465  0.2137  0.2446
  173MPD1     H 2692   2.899   3.602  14.037  0.1469  1.4289 -0.6053
  173MPD1    H1 2693   3.320   3.536  14.135 -1.4891 -1.2232  2.2542
  173MPD1    H2 2694   3.189   3.736  13.781 -1.4316 -1.1809 -0.1233
  173MPD1    H3 2695   3.370   3.666  13.938 -0.3829  0.2888 -0.2200
  173MPD1     N 2696   3.066   3.528  14.238 -0.3145 -0.4978 -0.3584
  173MPD1    H5 2697   2.967   3.509  14.247 -0.1585 -2.1196 -1.9663
  173MPD1    N1 2698   2.930   3.728  13.833  0.0400 -0.6907 -0.2186
  173MPD1    H6 2699   2.845   3.671  13.832 -2.0572  2.4209  1.5349
  173MPD1    H7 2700   2.955   3.748  13.736 -0.0906  2.4858  0.4093
  174MPD1     C 2701   3.517   2.822  14.753  0.5735  0.0941  0.7160
  174MPD1    C1 2702   3.404   2.839  14.822  0.2264  0.5547 -0.7420
  174MPD1    C2 2703   3.306   2.918  14.768 -0.4805 -0.1396  0.1837
  174MPD1    C3 2704   3.324   2.985  14.647  0.4349  0.5833 -0.0349
  174MPD1    C4 2705   3.438   2.954  14.573  0.1477  0.3587 -1.1025
  174MPD1    C5 2706   3.532   2.881  14.633 -0.3491 -0.3209 -0.2530
  174MPD1     H 2707   3.208   2.918  14.814 -0.5396 -1.1412  0.0651
  174MPD1    H1 2708   3.464   2.997  14.477 -1.6279  3.5826 -0.1519
  174MPD1    H2 2709   3.604   2.773  14.795  0.7735 -0.0322  0.1453
  174MPD1    H3 2710   3.627   2.882  14.581  1.7209 -0.1764  3.5800
  174MPD1     N 2711   3.240   3.085  14.594  0.1470 -0.1524  0.5258
  174MPD1    H5 2712   3.285   3.137  14.519 -2.2639  2.2693  0.7704
  174MPD1    N1 2713   3.395   2.790  14.949  0.2008  0.1124  0.2642
  174MPD1    H6 2714   3.302   2.763  14.980 -0.4590  0.8346 -1.1151
  174MPD1    H7 2715   3.466   2.719  14.963  0.5962  1.0041  2.8085
  175MPD1     C 2716   0.425   0.170  15.109  0.0982 -0.0983  0.3395
  175MPD1    C1 2717   0.537   0.093  15.138  0.2154  0.0650  0.2738
  175MPD1    C2 2718   0.548   0.062  15.274  0.0309 -0.8853  0.3638
  175MPD1    C3 2719   0.468   0.112  15.374  0.3878  0.0358  0.3681
  175MPD1    C4 2720   0.361   0.186  15.336 -0.6680  0.5671  0.0193
  175MPD1    C5 2721   0.341   0.226  15.205 -0.0512  0.3164 -0.0989
  175MPD1     H 2722   0.633   4.738  15.296 -0.9377 -1.6339  1.9529
  175MPD1    H1 2723   0.298   0.236  15.409  0.5206  0.2354  1.2747
  175MPD1    H2 2724   0.403   0.190  15.005 -1.9015 -3.8372  0.0490
  175MPD1    H3 2725   0.261   0.286  15.164 -1.5728 -0.0472  2.3507
  175MPD1     N 2726   0.475   0.078  15.510  0.0753  0.0649  0.1193
  175MPD1    H5 2727   0.412   0.122  15.577 -0.3831 -0.0229 -0.2538
  175MPD1    N1 2728   0.610   0.026  15.038 -0.0718 -0.0103  0.0458
  175MPD1    H6 2729   0.617   0.086  14.956  3.4334 -1.8026 -0.9605
  175MPD1    H7 2730   0.702   0.007  15.075  0.2973  0.9356 -0.3681
  176MPD1     C 2731   2.519   0.961  17.132 -0.0433  0.7207 -0.0200
  176MPD1    C1 2732   2.455   1.026  17.236 -0.2926 -0.2034  0.2551
  176MPD1    C2 2733   2.441   1.162  17.218  0.7386 -0.0026 -0.3019
  176MPD1    C3 2734   2.507   1.237  17.122  0.1811 -0.2323  0.4766
  176MPD1    C4 2735   2.574   1.171  17.021 -0.8669 -0.1441 -0.5377
  176MPD1    C5 2736   2.583   1.032  17.031  0.0652 -0.9833 -0.4664
  176MPD1     H 2737   2.377   1.213  17.289 -1.2443 -4.6732  1.2685
  176MPD1    H1 2738   2.611   1.214  16.929  0.8740  2.0204  1.1561
  176MPD1    H2 2739   2.514   0.853  17.133 -1.9643  0.7985 -1.4916
  176MPD1    H3 2740   2.636   0.981  16.951 -0.4981 -0.8641 -0.9170
  176MPD1     N 2741   2.499   1.381  17.123  0.1904 -0.0109  0.6381
  176MPD1    H5 2742   2.444   1.417  17.200  0.1956 -0.5762  0.9079
  176MPD1    N1 2743   2.382   0.945  17.322  0.0317 -0.4484 -0.6825
  176MPD1    H6 2744   2.359   0.987  17.412  2.9599 -0.1107 -0.0961
  176MPD1    H7 2745   2.428   0.860  17.355 -2.0025 -1.1018  0.4609
  177MPD1     C 2746   1.143   1.432  10.156  0.3537  0.1652 -0.2517
  177MPD1    C1 2747   1.051   1.378  10.076  0.0641 -0.2456  0.0418
  177MPD1    C2 2748   0.943   1.455  10.042  0.4805 -0.4837  0.4935
  177MPD1    C3 2749   0.922   1.585  10.094  0.5065  0.8041  0.2762
  177MPD1    C4 2750   1.017   1.642  10.178  0.4411  0.8449 -0.0365
  177MPD1    C5 2751   1.128   1.557  10.205  0.1263  0.8562  0.3443
  177MPD1     H 2752   0.867   1.424   9.972  2.2548  0.4577 -1.8413
  177MPD1    H1 2753   1.006   1.737  10.229 -2.1943 -0.1402  1.2337
  177MPD1    H2 2754   1.234   1.378  10.181  0.1235  0.4467  1.1932
  177MPD1    H3 2755   1.206   1.580  10.277  1.2590  0.2831 -0.6922
  177MPD1     N 2756   0.802   1.657  10.060  0.3760 -0.0416  0.1138
  177MPD1    H5 2757   0.739   1.604  10.000 -0.4850 -0.1157  1.0840
  177MPD1    N1 2758   1.086   1.257  10.007 -0.3581  0.3496  0.4184
  177MPD1    H6 2759   1.142   1.193  10.063 -2.4453 -0.6537  1.3567
  177MPD1    H7 2760   1.004   1.207   9.973  0.7067  0.1627 -1.9200
  178MPD1     C 2761   3.405   2.342   0.437  1.0272 -0.4620  0.3817
  178MPD1    C1 2762   3.366   2.235   0.367 -0.4857  0.3421  0.1105
  178MPD1    C2 2763   3.342   2.244   0.229 -0.0250 -0.3977  0.2569
  178MPD1    C3 2764   3.356   2.367   0.158 -0.2325 -0.4905 -1.0750
  178MPD1    C4 2765   3.407   2.470   0.228  0.1189  0.2468 -0.2032
  178MPD1    C5 2766   3.426   2.455   0.362  0.5327  0.9941  0.0424
  178MPD1     H 2767   3.322   2.148   0.182 -0.5124  0.5834 -1.5538
  178MPD1    H1 2768   3.438   2.558   0.173 -0.9667  2.0843  2.1218
  178MPD1    H2 2769   3.429   2.336   0.543  0.4562 -1.1019  0.4817
  178MPD1    H3 2770   3.480   2.535   0.411 -1.5212  3.0915 -1.1276
  178MPD1     N 2771   3.353   2.392   0.018  0.1664 -0.1571  0.2417
  178MPD1    H5 2772   3.365   2.488  17.744 -0.2838 -0.0884  0.2748
  178MPD1    N1 2773   3.351   2.114   0.440  0.2339  0.1637 -0.5292
  178MPD1    H6 2774   3.422   2.111   0.512  0.7876  2.9074 -0.9696
  178MPD1    H7 2775   3.367   2.029   0.386  3.0032 -0.7745  1.8177
  179MPD1     C 2776   3.050   1.066  14.872 -0.6743 -0.1737 -0.3458
  179MPD1    C1 2777   3.131   1.093  14.981 -0.2790 -0.2811  0.5019
  179MPD1    C2 2778   3.089   1.055  15.107  0.0158 -0.8154 -0.3613
  179MPD1    C3 2779   2.964   1.016  15.135 -0.1131  0.0479  0.4720
  179MPD1    C4 2780   2.882   1.004  15.029  0.0454 -0.2347  0.2609
  179MPD1    C5 2781   2.919   1.024  14.898  0.2268 -0.5708  0.0852
  179MPD1     H 2782   3.161   1.053  15.188  0.4286 -0.0718 -0.7173
  179MPD1    H1 2783   2.782   0.966  15.049 -0.6402  1.0656 -0.7055
  179MPD1    H2 2784   3.090   1.072  14.771  0.4729  1.2756  0.2011
  179MPD1    H3 2785   2.847   1.017  14.817  0.5482 -0.0839 -0.2428
  179MPD1     N 2786   2.913   0.985  15.265  0.2257 -0.0810  0.4518
  179MPD1    H5 2787   2.818   0.952  15.270  0.6574 -1.6162 -1.5049
  179MPD1    N1 2788   3.268   1.122  14.966 -0.0692 -0.4584 -0.0184
  179MPD1    H6 2789   3.276   1.178  14.881  1.5940 -0.6029  0.0294
  179MPD1    H7 2790   3.316   1.163  15.046  0.8333  0.0038 -0.7998
  180MPD1     C 2791   2.230   2.158  15.319 -0.1090 -0.5723  0.0529
  180MPD1    C1 2792   2.342   2.224  15.257  0.3758 -0.4690  0.9177
  180MPD1    C2 2793   2.350   2.212  15.126 -0.0423  0.2979 -0.4139
  180MPD1    C3 2794   2.255   2.147  15.050 -0.0509 -0.0074  0.1441
  180MPD1    C4 2795   2.151   2.084  15.113  1.0009 -0.4777  0.3132
  180MPD1    C5 2796   2.134   2.099  15.247  0.8469 -0.1371 -0.0752
  180MPD1     H 2797   2.429   2.267  15.076  0.6867 -2.1200 -1.9416
  180MPD1    H1 2798   2.084   2.017  15.061 -0.6851  2.1544 -0.8865
  180MPD1    H2 2799   2.219   2.154  15.427 -0.7190  0.8313  0.0554
  180MPD1    H3 2800   2.053   2.048  15.295  1.7063 -2.1901 -0.8199
  180MPD1     N 2801   2.269   2.149  14.907 -0.7566  0.4267 -0.1344
  180MPD1    H5 2802   2.339   2.215  14.875 -1.3324  0.5102 -1.2029
  180MPD1    N1 2803   2.435   2.301  15.333  0.0131 -0.3142 -0.5078
  180MPD1    H6 2804   2.441   2.266  15.428 -0.1630 -0.3548 -0.5114
  180MPD1    H7 2805   2.530   2.293  15.296  0.2327  0.5401 -0.1370
  181MPD1     C 2806   4.066   3.631   9.368 -0.3569  0.4413 -0.0556
  181MPD1    C1 2807   3.998   3.643   9.488 -0.0418 -0.3540 -0.0530
  181MPD1    C2 2808   4.074   3.645   9.609 -0.4164  0.7661  0.0484
  181MPD1    C3 2809   4.210   3.665   9.604  0.7307  0.5018 -0.2622
  181MPD1    C4 2810   4.277   3.677   9.481  0.0233  0.2901 -0.6364
  181MPD1    C5 2811   4.201   3.658   9.366 -0.3217  0.2022 -0.1015
  181MPD1     H 2812   4.022   3.641   9.704  0.7501 -0.7945  0.6080
  181MPD1    H1 2813   4.385   3.670   9.473  0.0218  1.0438 -1.3740
  181MPD1    H2 2814   4.028   3.604   9.270 -1.1367  2.5419 -0.3254
  181MPD1    H3 2815   4.249   3.639   9.270  1.7223 -1.8339  1.3322
  181MPD1     N 2816   4.292   3.680   9.717 -0.2892  0.2295 -0.6291
  181MPD1    H5 2817   4.387   3.711   9.696 -1.3561  4.5605  0.9981
  181MPD1    N1 2818   3.864   3.601   9.501  0.4688  0.0336  0.8113
  181MPD1    H6 2819   3.819   3.612   9.411 -1.2573  2.4995  1.9808
  181MPD1    H7 2820   3.815   3.656   9.570  0.1351  1.0985 -0.2817
  182MPD1     C 2821   0.756   2.321   1.446  0.2598 -0.2620 -0.5278
  182MPD1    C1 2822   0.628   2.321   1.497  1.0434 -0.3711  0.1600
  182MPD1    C2 2823   0.533   2.307   1.402 -0.2678 -0.1803 -0.1288
  182MPD1    C3 2824   0.558   2.279   1.272 -0.3776 -0.4077 -0.0574
  182MPD1    C4 2825   0.686   2.286   1.234 -0.0216  0.1859 -0.2379
  182MPD1    C5 2826   0.792   2.300   1.318  0.3856 -0.5129  0.5910
  182MPD1     H 2827   0.428   2.315   1.426  0.6944  2.5705  3.1611
  182MPD1    H1 2828   0.712   2.259   1.132  0.7398 -0.2799  0.0798
  182MPD1    H2 2829   0.842   2.336   1.510 -0.9669 -0.8945  1.2512
  182MPD1    H3 2830   0.894   2.289   1.284 -0.1067 -1.8436 -0.4456
  182MPD1     N 2831   0.458   2.264   1.180 -0.1783 -0.7228 -0.2986
  182MPD1    H5 2832   0.495   2.260   1.086  0.4329  2.7598 -0.2037
  182MPD1    N1 2833   0.599   2.376   1.624  0.6361  0.1131 -0.3948
  182MPD1    H6 2834   0.505   2.355   1.657  0.5918 -1.2665 -1.3797
  182MPD1    H7 2835   0.669   2.350   1.693  1.3839  3.2991  0.0503
  183MPD1     C 2836   0.749   4.157   9.207 -0.4293  1.2040 -0.1745
  183MPD1    C1 2837   0.624   4.202   9.248 -0.4592  0.3369 -0.2641
  183MPD1    C2 2838   0.563   4.127   9.341  0.0314  0.3998  0.0329
  183MPD1    C3 2839   0.629   4.019   9.404  0.9059  0.4356  0.1436
  183MPD1    C4 2840   0.753   3.988   9.365  0.6132  0.2666  0.4334
  183MPD1    C5 2841   0.820   4.061   9.279  0.2813  0.3689 -0.3988
  183MPD1     H 2842   0.460   4.136   9.373 -0.5969 -0.6994 -1.7018
  183MPD1    H1 2843   0.804   3.897   9.396 -2.3879 -0.2340  3.8911
  183MPD1    H2 2844   0.792   4.196   9.115  0.1948  0.6255 -0.1222
  183MPD1    H3 2845   0.915   4.033   9.235  0.6384  0.6768  0.1819
  183MPD1     N 2846   0.557   3.944   9.496 -0.0268  0.1218 -0.4147
  183MPD1    H5 2847   0.472   3.991   9.524 -1.0779 -1.1749 -1.4006
  183MPD1    N1 2848   0.558   4.295   9.172  0.0995 -0.0006 -0.6056
  183MPD1    H6 2849   0.624   4.367   9.142  2.7591 -1.2543  2.1309
  183MPD1    H7 2850   0.485   4.340   9.227 -0.3903 -2.7742  1.0486
  184MPD1     C 2851   4.095   1.394  10.207  0.5581 -1.0235  0.7273
  184MPD1    C1 2852   4.229   1.373  10.215 -0.5578  0.4355 -0.4582
  184MPD1    C2 2853   4.301   1.437  10.114 -0.0054 -0.3691 -0.7112
  184MPD1    C3 2854   4.245   1.538  10.027  0.1428  0.6130 -0.4317
  184MPD1    C4 2855   4.106   1.563  10.040 -0.3095  0.6796  0.4034
  184MPD1    C5 2856   4.034   1.488  10.130  0.3256 -0.9097  0.3332
  184MPD1     H 2857   4.405   1.405  10.116  0.1564  0.0529 -2.2108
  184MPD1    H1 2858   4.054   1.619   9.964  1.2804  1.1042 -0.3808
  184MPD1    H2 2859   4.031   1.335  10.272 -1.4699  1.0694  0.6455
  184MPD1    H3 2860   3.927   1.503  10.126  0.5273 -0.1479 -2.1980
  184MPD1     N 2861   4.321   1.612   9.933  0.3043  0.1288  0.1812
  184MPD1    H5 2862   4.278   1.679   9.870  0.3184 -0.1891 -0.1645
  184MPD1    N1 2863   4.283   1.265  10.288 -0.4341 -0.6629  0.2395
  184MPD1    H6 2864   4.383   1.266  10.305 -0.3388 -0.8159 -0.2899
  184MPD1    H7 2865   4.236   1.258  10.377 -0.4153 -1.6839  0.1693
  185MPD1     C 2866   4.032   2.132   9.312 -0.5848  0.0895 -0.2241
  185MPD1    C1 2867   4.167   2.174   9.307 -0.8910 -0.4067 -0.3154
  185MPD1    C2 2868   4.262   2.118   9.389 -0.0294  0.2139 -0.1455
  185MPD1    C3 2869   4.217   2.029   9.485  0.0004 -0.8421 -0.0995
  185MPD1    C4 2870   4.080   2.005   9.499  0.0636  0.4019 -0.8337
  185MPD1    C5 2871   3.990   2.043   9.404 -0.0159 -0.1235 -0.1585
  185MPD1     H 2872   4.366   2.143   9.374 -0.1712  0.6896 -0.3177
  185MPD1    H1 2873   4.051   1.930   9.571  0.2355  0.1938 -0.9841
  185MPD1    H2 2874   3.966   2.154   9.229 -0.8271  0.2944  0.0228
  185MPD1    H3 2875   3.886   2.013   9.414  0.9179 -2.3528  2.7435
  185MPD1     N 2876   4.300   1.957   9.571  0.6891  0.0590  0.3914
  185MPD1    H5 2877   4.254   1.901   9.643  0.0994 -3.4902 -2.7369
  185MPD1    N1 2878   4.205   2.254   9.201 -0.1508  0.1467  0.4893
  185MPD1    H6 2879   4.134   2.314   9.159  0.5908 -0.4591 -1.6148
  185MPD1    H7 2880   4.289   2.310   9.215  0.8004 -0.6450 -2.0685
  186MPD1     C 2881   2.928   1.944  16.208 -0.3307  0.3937  1.0158
  186MPD1    C1 2882   2.905   1.867  16.323  1.0678 -0.1553  0.5333
  186MPD1    C2 2883   2.973   1.747  16.339 -0.0521  0.3753 -0.0614
  186MPD1    C3 2884   3.054   1.700  16.239  0.4775  0.6497 -0.0547
  186MPD1    C4 2885   3.080   1.783  16.131 -0.5302  0.6957 -0.4135
  186MPD1    C5 2886   3.015   1.898  16.119  0.8388  0.0167 -0.1087
  186MPD1     H 2887   2.975   1.685  16.428  0.8684  0.0932 -0.2791
  186MPD1    H1 2888   3.148   1.756  16.051  1.0189 -1.1045  1.5045
  186MPD1    H2 2889   2.874   2.036  16.190  1.8185  1.3490 -0.5367
  186MPD1    H3 2890   3.048   1.961  16.037 -0.7181  0.2385 -0.5692
  186MPD1     N 2891   3.121   1.573  16.236 -1.0639  0.0469  0.1378
  186MPD1    H5 2892   3.187   1.563  16.159  0.5211  0.7805  1.4192
  186MPD1    N1 2893   2.836   1.917  16.431  1.0458  0.0707 -0.3098
  186MPD1    H6 2894   2.786   1.847  16.486  0.7317  2.3129  2.2953
  186MPD1    H7 2895   2.777   1.998  16.412 -0.1258 -1.2198 -2.1846
  187MPD1     C 2896   2.649   2.445   0.400 -0.5704  0.3871 -0.1352
  187MPD1    C1 2897   2.596   2.349   0.312 -0.9208  0.7592 -0.0719
  187MPD1    C2 2898   2.590   2.390   0.175 -0.2715  0.1543  0.6173
  187MPD1    C3 2899   2.637   2.515   0.133 -0.2980  0.0701 -0.3440
  187MPD1    C4 2900   2.704   2.597   0.227 -0.3956  0.2420  0.0455
  187MPD1    C5 2901   2.702   2.568   0.361  0.3823  0.2846  0.0072
  187MPD1     H 2902   2.549   2.314   0.110  1.8474  1.2700 -2.0222
  187MPD1    H1 2903   2.737   2.697   0.203  3.8687 -1.3595 -0.6729
  187MPD1    H2 2904   2.654   2.425   0.507 -2.3232  1.8599  0.2289
  187MPD1    H3 2905   2.740   2.631   0.440 -0.2411  0.1027  0.4463
  187MPD1     N 2906   2.635   2.554  17.752  0.6557  0.0305 -0.1739
  187MPD1    H5 2907   2.655   2.651  17.729  0.7725 -0.2439 -1.2098
  187MPD1    N1 2908   2.533   2.234   0.357 -0.2913  0.5087  0.9463
  187MPD1    H6 2909   2.546   2.156   0.292 -1.2497  1.4669 -0.3970
  187MPD1    H7 2910   2.572   2.201   0.445  0.1583 -0.5412  0.3624
  188MPD1     C 2911   3.119   2.275  11.254  1.2157  0.0580 -0.1613
  188MPD1    C1 2912   3.001   2.329  11.204  0.4366  0.1695  0.2533
  188MPD1    C2 2913   2.935   2.257  11.105  0.6977 -0.2200 -0.4879
  188MPD1    C3 2914   2.979   2.127  11.066  0.2925  0.3020 -0.4053
  188MPD1    C4 2915   3.089   2.076  11.125 -0.3804  0.4847 -0.1142
  188MPD1    C5 2916   3.170   2.162  11.212 -0.3239 -0.0856  0.4475
  188MPD1     H 2917   2.862   2.306  11.041 -0.0831 -1.7270 -0.7588
  188MPD1    H1 2918   3.141   1.986  11.094  1.0764  1.5740 -0.8233
  188MPD1    H2 2919   3.183   2.336  11.317  0.6881  0.3469  0.0993
  188MPD1    H3 2920   3.260   2.122  11.257 -0.0859  2.0058  1.8655
  188MPD1     N 2921   2.915   2.049  10.963  0.3297  0.1007 -0.0422
  188MPD1    H5 2922   2.946   1.954  10.948 -0.8725  0.0995 -2.5894
  188MPD1    N1 2923   2.940   2.442  11.263  0.2604  0.7301 -0.1716
  188MPD1    H6 2924   3.005   2.515  11.292 -0.8087  1.7682 -0.4163
  188MPD1    H7 2925   2.875   2.496  11.206 -2.6240 -0.1047  2.3399
  189MPD1     C 2926   4.309   3.515   0.339 -0.3650  0.0804  0.3861
  189MPD1    C1 2927   4.239   3.510   0.221 -0.2482  0.0421 -0.0387
  189MPD1    C2 2928   4.136   3.598   0.212  0.2501  0.1545 -0.0382
  189MPD1    C3 2929   4.087   3.668   0.322  0.4199  0.1862  0.0910
  189MPD1    C4 2930   4.147   3.647   0.447  0.3123 -0.0281 -0.5809
  189MPD1    C5 2931   4.269   3.590   0.450 -0.1563  0.4137 -0.0227
  189MPD1     H 2932   4.096   3.622   0.114 -1.3657 -0.1948  0.5350
  189MPD1    H1 2933   4.117   3.692   0.541  1.0282 -0.5370 -0.1016
  189MPD1    H2 2934   4.402   3.459   0.353 -1.0939 -1.3067 -0.3533
  189MPD1    H3 2935   4.325   3.572   0.541 -0.5525  1.1501  0.3698
  189MPD1     N 2936   3.974   3.752   0.310  0.3319  0.0163  0.1454
  189MPD1    H5 2937   3.930   3.769   0.220  0.9767 -5.0808 -1.1257
  189MPD1    N1 2938   4.291   3.453   0.112 -0.4307  0.7278 -0.2050
  189MPD1    H6 2939   4.354   3.376   0.136  0.3092  0.9152 -1.4989
  189MPD1    H7 2940   4.220   3.406   0.057  0.5589 -0.5903 -0.3691
  190MPD1     C 2941   2.815   1.690  15.192  0.1952 -1.0360 -0.6001
  190MPD1    C1 2942   2.897   1.767  15.119  0.0045 -0.0794 -0.0069
  190MPD1    C2 2943   3.020   1.805  15.177 -0.1369  0.1005  0.3270
  190MPD1    C3 2944   3.050   1.792  15.313 -0.1762  0.3908 -0.2232
  190MPD1    C4 2945   2.954   1.720  15.384 -0.5679  0.0717  0.2515
  190MPD1    C5 2946   2.841   1.671  15.319 -0.1335 -0.1308 -0.0276
  190MPD1     H 2947   3.087   1.871  15.123 -1.6254  0.8661 -0.5977
  190MPD1    H1 2948   2.949   1.711  15.492  0.8682  2.7642  0.5434
  190MPD1    H2 2949   2.721   1.649  15.157 -1.8822  1.4583  1.9951
  190MPD1    H3 2950   2.766   1.618  15.377 -0.9114  0.7604 -0.2098
  190MPD1     N 2951   3.141   1.877  15.376  0.3675  0.4813  0.8300
  190MPD1    H5 2952   3.197   1.929  15.310  0.4476 -0.8451 -0.1415
  190MPD1    N1 2953   2.873   1.778  14.981  0.7227 -0.2100 -0.3050
  190MPD1    H6 2954   2.928   1.851  14.936 -0.8348  0.9139 -0.4073
  190MPD1    H7 2955   2.772   1.785  14.974  0.8322  1.4631 -0.2729
  191MPD1     C 2956   2.503   3.823  12.988 -0.2412 -0.0545 -0.0506
  191MPD1    C1 2957   2.427   3.912  12.910  0.2159 -0.1959 -0.3836
  191MPD1    C2 2958   2.471   3.950  12.785  0.2843  0.3954  0.3716
  191MPD1    C3 2959   2.583   3.888  12.729  0.5972 -0.7871 -0.4134
  191MPD1    C4 2960   2.646   3.795  12.800  0.3096  0.3333  0.1932
  191MPD1    C5 2961   2.609   3.763  12.928  0.1184 -0.1312 -0.8617
  191MPD1     H 2962   2.414   4.026  12.732 -0.6946 -0.5495  0.0899
  191MPD1    H1 2963   2.735   3.746  12.762 -0.4485 -0.2686 -0.8019
  191MPD1    H2 2964   2.480   3.787  13.087  0.8196  1.3918  0.7226
  191MPD1    H3 2965   2.664   3.692  12.989 -1.0147  0.3715  0.7847
  191MPD1     N 2966   2.640   3.937  12.611  0.1387  0.3320  0.2850
  191MPD1    H5 2967   2.576   3.996  12.559  0.6808 -0.3305 -1.1469
  191MPD1    N1 2968   2.311   3.973  12.966  0.6905  0.6102 -0.2959
  191MPD1    H6 2969   2.232   3.988  12.903  1.9325  1.7865 -1.5588
  191MPD1    H7 2970   2.272   3.938  13.053 -0.8909 -1.5101 -1.8238
  192MPD1     C 2971   2.365   4.385  11.781  0.1332  0.4233 -0.0855
  192MPD1    C1 2972   2.304   4.301  11.876  0.1681  0.1566  0.3010
  192MPD1    C2 2973   2.390   4.242  11.971 -0.1228 -0.4287 -0.0232
  192MPD1    C3 2974   2.532   4.247  11.959 -0.2027  0.1934 -0.2496
  192MPD1    C4 2975   2.585   4.311  11.848 -0.4978  0.0466 -0.2938
  192MPD1    C5 2976   2.506   4.388  11.769  0.6536 -0.0824  0.1769
  192MPD1     H 2977   2.342   4.177  12.043  1.0548 -1.3239 -0.0519
  192MPD1    H1 2978   2.689   4.294  11.822 -0.2849  0.8666  0.0386
  192MPD1    H2 2979   2.311   4.461  11.725  0.5434  0.9039  0.1759
  192MPD1    H3 2980   2.546   4.456  11.695  0.0635  0.3547  0.2586
  192MPD1     N 2981   2.625   4.188  12.042 -0.0771 -0.0465  0.2895
  192MPD1    H5 2982   2.717   4.213  12.007 -0.7187  0.9821 -0.6547
  192MPD1    N1 2983   2.169   4.296  11.874 -0.1276 -0.1558 -0.3977
  192MPD1    H6 2984   2.141   4.212  11.924  0.4392 -1.7944 -2.8637
  192MPD1    H7 2985   2.118   4.309  11.787 -0.2681 -2.1309 -0.5937
  193MPD1     C 2986   1.551   4.170  16.008  0.5539  0.1520  0.1779
  193MPD1    C1 2987   1.540   4.206  16.138 -0.0072  0.2564 -0.3164
  193MPD1    C2 2988   1.624   4.308  16.178 -0.2170 -0.0551  0.7600
  193MPD1    C3 2989   1.697   4.384  16.090  0.0002  0.4905 -0.1224
  193MPD1    C4 2990   1.712   4.342  15.962 -0.4984  0.0372 -0.3371
  193MPD1    C5 2991   1.633   4.236  15.928  0.7989 -0.0506  0.0586
  193MPD1     H 2992   1.629   4.329  16.284 -0.5566  1.6650  0.4355
  193MPD1    H1 2993   1.764   4.404  15.889  1.5765 -1.0396  0.2266
  193MPD1    H2 2994   1.499   4.079  15.978 -2.0737  0.3901  4.0487
  193MPD1    H3 2995   1.638   4.196  15.828  0.3253 -1.8299  0.7571
  193MPD1     N 2996   1.774   4.490  16.128  0.1047 -0.0424  0.4998
  193MPD1    H5 2997   1.824   4.535  16.052 -0.3004 -1.7123 -0.7485
  193MPD1    N1 2998   1.473   4.127  16.232  0.5078  0.0477  0.1196
  193MPD1    H6 2999   1.438   4.183  16.309  0.2273 -3.6213  2.6757
  193MPD1    H7 3000   1.387   4.091  16.191 -0.4236  0.7673  1.4284
  194MPD1     C 3001   4.002   1.417  17.298  0.7968 -0.4500  0.4077
  194MPD1    C1 3002   3.987   1.318  17.390  0.3983  0.4292 -0.2063
  194MPD1    C2 3003   4.061   1.203  17.374  0.6771 -0.2672 -0.1336
  194MPD1    C3 3004   4.138   1.172  17.261  0.0066 -0.0789  0.6727
  194MPD1    C4 3005   4.140   1.272  17.166  0.2316  0.9659 -0.0265
  194MPD1    C5 3006   4.080   1.395  17.190 -0.0014  0.3126 -0.5895
  194MPD1     H 3007   4.078   1.141  17.462 -1.2165  0.0948  0.4956
  194MPD1    H1 3008   4.203   1.254  17.079  0.2924  1.9380 -0.1821
  194MPD1    H2 3009   3.953   1.512  17.319  2.0446  0.7371 -2.0956
  194MPD1    H3 3010   4.086   1.478  17.120 -0.7882  0.1905 -0.7923
  194MPD1     N 3011   4.208   1.049  17.241 -0.2154  0.0125 -0.5407
  194MPD1    H5 3012   4.266   1.035  17.159  0.8079 -0.1163  0.2119
  194MPD1    N1 3013   3.934   1.348  17.517 -0.2487 -0.0366 -0.2593
  194MPD1    H6 3014   3.914   1.262  17.569 -0.7677 -0.5580 -1.3153
  194MPD1    H7 3015   3.848   1.402  17.520 -0.6556 -0.8312  2.3624
  195MPD1     C 3016   2.442   2.995  17.683 -0.2856  0.4591 -0.0715
  195MPD1    C1 3017   2.449   2.944   0.056  0.3885  0.8078  0.2108
  195MPD1    C2 3018   2.406   2.817   0.083 -0.6124 -0.2982 -0.7022
  195MPD1    C3 3019   2.327   2.746  17.750 -0.1707 -0.7451  0.5865
  195MPD1    C4 3020   2.319   2.802  17.621 -0.3472  0.2758 -0.0097
  195MPD1    C5 3021   2.366   2.927  17.589  0.3334 -0.2717 -0.6249
  195MPD1     H 3022   2.424   2.773   0.180  2.5919  1.0843 -0.6693
  195MPD1    H1 3023   2.254   2.753  17.549 -1.1528 -0.2579  1.0853
  195MPD1    H2 3024   2.481   3.093  17.659 -0.4780  0.5793  0.1031
  195MPD1    H3 3025   2.341   2.983  17.500 -0.8754 -1.4960 -1.0560
  195MPD1     N 3026   2.257   2.619   0.020  0.1162 -0.1220 -0.3040
  195MPD1    H5 3027   2.205   2.578  17.699  0.1423 -0.9181  0.0978
  195MPD1    N1 3028   2.535   3.009   0.138  0.3577 -0.2287  0.7551
  195MPD1    H6 3029   2.518   2.981   0.234  1.9135 -0.0934  1.0657
  195MPD1    H7 3030   2.527   3.110   0.132  0.5371 -0.2271  0.5469
  196MPD1     C 3031   1.264   1.865  17.288 -0.7182 -0.0661  0.1107
  196MPD1    C1 3032   1.162   1.793  17.346  0.0182  0.0579  0.4807
  196MPD1    C2 3033   1.120   1.823  17.471 -0.1569  0.2643  0.1551
  196MPD1    C3 3034   1.184   1.920  17.546 -0.1425  0.1407  0.2996
  196MPD1    C4 3035   1.299   1.978  17.493 -0.0759  0.3190  0.3225
  196MPD1    C5 3036   1.333   1.952  17.365  0.4017  0.3236 -0.3057
  196MPD1     H 3037   1.026   1.782  17.507  0.2591 -1.6875 -0.9686
  196MPD1    H1 3038   1.362   2.057  17.533  1.4744 -0.9364  0.3937
  196MPD1    H2 3039   1.287   1.852  17.183 -0.9884 -4.7125  0.6248
  196MPD1    H3 3040   1.413   2.014  17.324 -0.0636  1.9612  1.2409
  196MPD1     N 3041   1.152   1.958  17.673 -0.5960 -0.2581 -0.2531
  196MPD1    H5 3042   1.212   2.022  17.723  0.8508 -1.0149 -1.0108
  196MPD1    N1 3043   1.081   1.708  17.268  0.2930  0.2176 -0.2860
  196MPD1    H6 3044   1.138   1.655  17.203  1.0696 -0.4075  0.8840
  196MPD1    H7 3045   1.025   1.641  17.321  2.1315 -1.7261 -0.7668
  197MPD1     C 3046   0.440   4.263  17.013  0.1199  0.0283  0.1976
  197MPD1    C1 3047   0.524   4.349  17.075  0.8550  0.2873  0.4198
  197MPD1    C2 3048   0.574   4.464  17.024 -0.0937 -0.6798  0.4534
  197MPD1    C3 3049   0.541   4.484  16.890  0.0640  0.5766 -0.0484
  197MPD1    C4 3050   0.469   4.392  16.815 -0.2852  0.3272  0.4666
  197MPD1    C5 3051   0.410   4.286  16.880 -0.3690  0.0321 -0.4995
  197MPD1     H 3052   0.621   4.548  17.072 -0.9078 -0.5819  1.0862
  197MPD1    H1 3053   0.454   4.410  16.709  0.8655  0.5935  0.3427
  197MPD1    H2 3054   0.397   4.180  17.068 -1.1895  1.3379  1.1759
  197MPD1    H3 3055   0.360   4.215  16.815 -0.5663  0.6482 -1.0254
  197MPD1     N 3056   0.591   4.585  16.809 -0.2946  0.4343 -0.2023
  197MPD1    H5 3057   0.556   4.572  16.715 -0.4646 -1.0213  0.0553
  197MPD1    N1 3058   0.546   4.324  17.212 -0.2779 -0.5116 -0.6099
  197MPD1    H6 3059   0.511   4.231  17.235 -1.5741 -0.1162 -1.0092
  197MPD1    H7 3060   0.642   4.343  17.240 -1.4964  3.1756  1.0009
  198MPD1     C 3061   2.561   2.673  15.234  0.5213 -0.1841 -0.3925
  198MPD1    C1 3062   2.555   2.670  15.370  0.1945  0.3473  0.8139
  198MPD1    C2 3063   2.617   2.774  15.440 -0.8532  0.1544  0.3073
  198MPD1    C3 3064   2.697   2.867  15.375  0.3166 -0.8653 -0.0100
  198MPD1    C4 3065   2.713   2.857  15.239 -0.7475 -0.5693  0.1823
  198MPD1    C5 3066   2.638   2.765  15.168 -0.4840 -0.6048  0.7398
  198MPD1     H 3067   2.616   2.767  15.548  0.5032  0.0848  0.3229
  198MPD1    H1 3068   2.785   2.919  15.186 -0.0215 -0.8931  0.8106
  198MPD1    H2 3069   2.487   2.615  15.180  1.0362  0.3147 -1.6353
  198MPD1    H3 3070   2.641   2.757  15.060  0.9003 -0.2643  0.7472
  198MPD1     N 3071   2.784   2.952  15.446  0.4388 -0.1075 -0.0313
  198MPD1    H5 3072   2.850   3.004  15.387 -0.3190  1.5008  0.5275
  198MPD1    N1 3073   2.463   2.584  15.426 -0.2152 -0.8262 -0.4867
  198MPD1    H6 3074   2.485   2.564  15.523 -1.8820 -1.2599 -0.1961
  198MPD1    H7 3075   2.447   2.496  15.377  1.8871  0.5906 -3.7395
  199MPD1     C 3076   0.415   0.249  10.778  0.4563 -0.3718  0.5708
  199MPD1    C1 3077   0.403   0.377  10.750 -0.7055  0.3766 -0.2888
  199MPD1    C2 3078   0.368   0.412  10.617 -0.2199  0.0126 -0.0472
  199MPD1    C3 3079   0.344   0.312  10.518 -0.7031  0.4512  0.6724
  199MPD1    C4 3080   0.355   0.184  10.558  0.1012  0.1159  0.4532
  199MPD1    C5 3081   0.387   0.155  10.687 -0.5213  0.3715 -0.0597
  199MPD1     H 3082   0.356   0.515  10.588 -1.9571  0.5475  2.5618
  199MPD1    H1 3083   0.353   0.096  10.495  2.1322 -0.6637  1.4746
  199MPD1    H2 3084   0.437   0.215  10.878 -0.0899 -1.9320  0.1776
  199MPD1    H3 3085   0.404   0.052  10.714 -4.4992  0.2358  1.9235
  199MPD1     N 3086   0.295   0.339  10.384  0.0591 -0.1750  0.4260
  199MPD1    H5 3087   0.293   0.255  10.327 -0.6719 -0.1731  0.4555
  199MPD1    N1 3088   0.431   0.478  10.847  0.0425 -0.4642  0.2254
  199MPD1    H6 3089   0.390   0.460  10.938 -1.7715  0.7362 -0.3431
  199MPD1    H7 3090   0.388   0.566  10.817  2.8581  0.9194  0.2123
  200MPD1     C 3091   3.354   0.312  14.702 -0.5040  0.0284  0.1756
  200MPD1    C1 3092   3.445   0.209  14.707  0.0119 -0.2081 -0.2043
  200MPD1    C2 3093   3.393   0.087  14.685 -0.0312  0.3653 -0.3574
  200MPD1    C3 3094   3.266   0.062  14.643  0.5852  0.4277 -0.2812
  200MPD1    C4 3095   3.180   0.168  14.627  0.0801 -0.3637  0.1460
  200MPD1    C5 3096   3.225   0.294  14.658 -0.6702  0.6470 -0.3213
  200MPD1     H 3097   3.459   0.001  14.682  1.0267  1.1186  1.2884
  200MPD1    H1 3098   3.081   0.150  14.586 -0.8281 -0.3482  2.3381
  200MPD1    H2 3099   3.367   0.416  14.726  3.1026 -0.7300  1.5248
  200MPD1    H3 3100   3.148   0.370  14.665 -0.8293  0.2535  2.0186
  200MPD1     N 3101   3.230   4.667  14.618  0.2445  0.0848  0.5409
  200MPD1    H5 3102   3.302   4.598  14.639  0.6748  0.1764 -0.6160
  200MPD1    N1 3103   3.584   0.228  14.700  0.3674  0.4574  0.0544
  200MPD1    H6 3104   3.635   0.159  14.754 -1.3935 -0.1667  0.9204
  200MPD1    H7 3105   3.608   0.321  14.734  0.0063  0.3971  0.4736
  201MPD1     C 3106   1.031   3.457  13.612  0.0998  0.8295 -0.6964
  201MPD1    C1 3107   0.983   3.361  13.533 -0.6908 -0.2758 -0.4048
  201MPD1    C2 3108   1.066   3.251  13.504  0.2095 -0.4260  0.6241
  201MPD1    C3 3109   1.197   3.246  13.552 -0.0481  0.2829  0.2511
  201MPD1    C4 3110   1.238   3.349  13.639 -0.1376  0.0034 -0.0215
  201MPD1    C5 3111   1.154   3.451  13.668  0.0904 -0.1092  0.3341
  201MPD1     H 3112   1.037   3.170  13.438  0.6342 -0.0449 -0.0321
  201MPD1    H1 3113   1.335   3.352  13.687 -0.0539  1.0251 -0.2359
  201MPD1    H2 3114   0.962   3.538  13.629 -0.4875 -0.2063  1.9147
  201MPD1    H3 3115   1.188   3.536  13.726 -1.8958  0.8275  0.1446
  201MPD1     N 3116   1.271   3.130  13.514  0.2743  0.4609 -0.0267
  201MPD1    H5 3117   1.226   3.049  13.472 -1.0334  1.1789  0.0053
  201MPD1    N1 3118   0.846   3.361  13.505 -0.2550  0.4312 -0.2300
  201MPD1    H6 3119   0.819   3.298  13.429  0.0268 -2.2257  1.8677
  201MPD1    H7 3120   0.809   3.449  13.471  0.8685  0.2916 -1.8504
  202MPD1     C 3121   0.833   3.233   9.097  0.0207 -0.1013 -0.3346
  202MPD1    C1 3122   0.812   3.099   9.117  0.0374 -0.9297 -0.1542
  202MPD1    C2 3123   0.885   3.055   9.231 -0.3593  0.1537 -0.1725
  202MPD1    C3 3124   0.953   3.126   9.323 -0.4529 -0.1916  0.2404
  202MPD1    C4 3125   0.943   3.262   9.310 -0.1762  0.0017  0.4006
  202MPD1    C5 3126   0.886   3.308   9.197  0.1442  0.2775  0.5645
  202MPD1     H 3127   0.896   2.947   9.230 -0.2732  0.1729 -1.4034
  202MPD1    H1 3128   0.972   3.337   9.383  3.2607 -0.3938 -0.5794
  202MPD1    H2 3129   0.795   3.274   9.004  2.5307  0.1758 -1.2360
  202MPD1    H3 3130   0.867   3.414   9.191  1.3359  0.3911 -1.2852
  202MPD1     N 3131   1.033   3.068   9.421  0.0846  0.1122 -0.7677
  202MPD1    H5 3132   1.070   3.125   9.497  1.3475 -0.8245 -0.6726
  202MPD1    N1 3133   0.786   3.010   9.007  0.2273 -0.0952 -0.2252
  202MPD1    H6 3134   0.756   2.920   9.043  1.9128 -0.9834 -1.0444
  202MPD1    H7 3135   0.712   3.051   8.951 -0.0085  1.5113  1.2764
  203MPD1     C 3136   0.431   3.809  12.170  1.1451  0.6553 -0.3765
  203MPD1    C1 3137   0.395   3.683  12.133 -0.1814 -0.0214  0.4399
  203MPD1    C2 3138   0.421   3.582  12.232 -0.8613  0.5328  0.2558
  203MPD1    C3 3139   0.445   3.609  12.368 -0.3715  0.0318 -0.5411
  203MPD1    C4 3140   0.468   3.739  12.403 -0.3701  0.3190  0.6059
  203MPD1    C5 3141   0.466   3.835  12.304  0.1207 -0.2628  0.6734
  203MPD1     H 3142   0.415   3.478  12.202  0.2895 -0.0620  2.0471
  203MPD1    H1 3143   0.483   3.767  12.506  0.1330 -0.7695  0.8208
  203MPD1    H2 3144   0.410   3.893  12.106  1.8693  1.0209 -0.1257
  203MPD1    H3 3145   0.485   3.939  12.327  0.1238 -0.2893  0.7911
  203MPD1     N 3146   0.448   3.500  12.455  0.1007  0.7781 -0.1371
  203MPD1    H5 3147   0.412   3.411  12.422 -0.2787  1.3517 -1.2445
  203MPD1    N1 3148   0.365   3.640  12.000  0.4119  0.3371 -0.9109
  203MPD1    H6 3149   0.299   3.701  11.954 -0.0996  0.0289 -0.5914
  203MPD1    H7 3150   0.320   3.549  12.004  2.4402 -0.5043  2.7047
  204MPD1     C 3151   4.080   0.367   0.227 -0.0209 -0.3213  0.1744
  204MPD1    C1 3152   4.155   0.394   0.112 -0.1862  0.9663 -0.7496
  204MPD1    C2 3153   4.177   0.281   0.030  0.4376 -0.0973 -0.3979
  204MPD1    C3 3154   4.144   0.150   0.057 -0.2411 -0.4028  0.0299
  204MPD1    C4 3155   4.066   0.131   0.175  0.5868  0.2724 -0.2282
  204MPD1    C5 3156   4.037   0.238   0.254  0.0838 -0.0391 -0.0432
  204MPD1     H 3157   4.241   0.302  17.701 -1.6880  2.0018 -1.4991
  204MPD1    H1 3158   4.035   0.032   0.206 -0.7338  0.5290 -0.7570
  204MPD1    H2 3159   4.071   0.443   0.304 -1.0748 -1.5530  1.2571
  204MPD1    H3 3160   3.974   0.224   0.342 -0.9340  0.8374 -0.6376
  204MPD1     N 3161   4.186   0.055  17.726  0.3365  0.2237  0.0967
  204MPD1    H5 3162   4.229   0.086  17.640  0.6598 -1.1204 -0.2276
  204MPD1    N1 3163   4.231   0.509   0.107 -0.8025 -0.3351  0.8022
  204MPD1    H6 3164   4.190   0.589   0.156  1.4795  1.2372  0.1681
  204MPD1    H7 3165   4.266   0.538   0.016  0.3911 -1.2006  0.9712
  205MPD1     C 3166   4.026   3.619  16.764  0.6679  0.2716  1.1110
  205MPD1    C1 3167   3.952   3.522  16.829 -0.1179 -0.2677  0.3999
  205MPD1    C2 3168   3.982   3.505  16.967  0.6507 -0.0382  0.2453
  205MPD1    C3 3169   4.089   3.562  17.024  0.1304 -0.7339 -0.4981
  205MPD1    C4 3170   4.172   3.650  16.956 -0.6390 -0.0661  0.1848
  205MPD1    C5 3171   4.139   3.680  16.826 -0.1974  0.5128  0.0998
  205MPD1     H 3172   3.906   3.451  17.024 -0.3596  0.6003 -0.4927
  205MPD1    H1 3173   4.264   3.697  16.989 -0.4815 -2.4152  3.1007
  205MPD1    H2 3174   4.004   3.650  16.663  0.3423  3.6873  2.2385
  205MPD1    H3 3175   4.200   3.746  16.765  1.1866  0.8982  1.9092
  205MPD1     N 3176   4.132   3.537  17.159 -0.4929 -0.5028 -0.6595
  205MPD1    H5 3177   4.206   3.599  17.188 -0.5036  0.0311 -1.7517
  205MPD1    N1 3178   3.836   3.471  16.763  0.9081 -0.0644  0.5267
  205MPD1    H6 3179   3.859   3.474  16.663 -1.7623  2.4551 -0.0484
  205MPD1    H7 3180   3.820   3.378  16.800  0.7155  0.5536  1.9978
  206MPD1     C 3181   0.032   1.941  16.839 -0.7110 -0.1593 -0.2152
  206MPD1    C1 3182   4.687   2.041  16.793 -0.0838 -0.0593 -0.1565
  206MPD1    C2 3183   4.633   2.032  16.671  0.1139  0.3736  0.1367
  206MPD1    C3 3184   4.691   1.945  16.578  0.6348 -0.3089 -0.3445
  206MPD1    C4 3185   0.037   1.848  16.622 -0.4383  0.4611  0.1971
  206MPD1    C5 3186   0.080   1.848  16.756  0.3190 -0.5969 -0.3698
  206MPD1     H 3187   4.563   2.110  16.643  0.1424  0.3151 -0.0995
  206MPD1    H1 3188   0.078   1.780  16.548 -3.1976 -1.5236  0.4661
  206MPD1    H2 3189   0.063   1.937  16.942 -3.1200  1.0575  0.5681
  206MPD1    H3 3190   0.140   1.770  16.801 -0.8752 -1.8092 -0.8554
  206MPD1     N 3191   4.649   1.935  16.444 -0.1093 -0.0542  0.7178
  206MPD1    H5 3192   4.696   1.869  16.383 -1.2017 -0.1185 -0.0469
  206MPD1    N1 3193   4.632   2.133  16.883  0.0479 -0.5115  0.0573
  206MPD1    H6 3194   4.597   2.218  16.837  1.7019 -0.1646 -0.5608
  206MPD1    H7 3195   4.680   2.156  16.970  3.0983 -3.1971 -0.9435
  207MPD1     C 3196   2.462   4.117   9.134 -0.1901 -0.1347  0.2765
  207MPD1    C1 3197   2.552   4.227   9.144 -0.1031  0.2743  0.3672
  207MPD1    C2 3198   2.613   4.249   9.268 -0.0576  0.0520 -0.2214
  207MPD1    C3 3199   2.570   4.183   9.386 -0.6565  0.2952  0.2636
  207MPD1    C4 3200   2.483   4.083   9.368  0.2456 -0.1173  0.2024
  207MPD1    C5 3201   2.428   4.049   9.247  0.2469  0.0168 -0.1591
  207MPD1     H 3202   2.691   4.324   9.274  0.9757 -1.2221  2.1337
  207MPD1    H1 3203   2.438   4.032   9.452  0.9446 -1.7241 -0.3936
  207MPD1    H2 3204   2.411   4.089   9.043  1.8258 -2.0343 -0.2802
  207MPD1    H3 3205   2.356   3.968   9.240 -0.2285  0.5047 -1.0332
  207MPD1     N 3206   2.614   4.209   9.512 -0.2941  0.0855 -0.2579
  207MPD1    H5 3207   2.572   4.153   9.586  1.2994  1.1090  1.4261
  207MPD1    N1 3208   2.600   4.292   9.030  0.2227  0.3744 -0.3134
  207MPD1    H6 3209   2.538   4.290   8.949 -0.1200 -0.6073 -0.0299
  207MPD1    H7 3210   2.615   4.389   9.057 -1.6442 -0.1467  2.6317
  208MPD1     C 3211   0.400   2.988  17.161 -0.4381 -0.4456  0.6906
  208MPD1    C1 3212   0.268   3.016  17.207 -0.0980  0.0072  0.2337
  208MPD1    C2 3213   0.227   2.948  17.318 -0.4410  0.0421  0.3076
  208MPD1    C3 3214   0.293   2.835  17.369 -0.6074 -0.9867 -0.2249
  208MPD1    C4 3215   0.408   2.793  17.306 -0.2730 -0.0803 -0.8307
  208MPD1    C5 3216   0.468   2.879  17.213  0.1897 -0.4636 -0.5332
  208MPD1     H 3217   0.133   2.975  17.364  0.1638  0.2053  1.4602
  208MPD1    H1 3218   0.462   2.707  17.343  0.2182 -0.0662 -1.5196
  208MPD1    H2 3219   0.452   3.034  17.078 -0.0284  0.7960  1.6231
  208MPD1    H3 3220   0.570   2.854  17.184  0.2194 -1.6459  0.5640
  208MPD1     N 3221   0.243   2.763  17.484 -0.6003  0.3437  0.3573
  208MPD1    H5 3222   0.159   2.808  17.520  0.2865 -0.0997  3.0289
  208MPD1    N1 3223   0.201   3.122  17.150  0.1423 -0.5398 -0.1338
  208MPD1    H6 3224   0.100   3.112  17.158 -0.1789  1.2372 -2.1807
  208MPD1    H7 3225   0.223   3.134  17.052  2.1201  0.1667  0.3885
  209MPD1     C 3226   2.933   2.994  10.749  0.3359 -0.1473 -0.4184
  209MPD1    C1 3227   2.832   3.055  10.679 -0.2347  0.4740 -0.6030
  209MPD1    C2 3228   2.843   3.193  10.657  0.1334 -0.1449  0.3707
  209MPD1    C3 3229   2.947   3.268  10.713 -0.1469  0.1515 -0.3029
  209MPD1    C4 3230   3.049   3.197  10.769  0.2301 -0.0067  0.2190
  209MPD1    C5 3231   3.033   3.064  10.795  0.5295  1.2216 -0.2925
  209MPD1     H 3232   2.766   3.244  10.600  0.8979  1.0372  0.4015
  209MPD1    H1 3233   3.136   3.250  10.808 -0.1208  2.0558 -1.7591
  209MPD1    H2 3234   2.936   2.889  10.776 -0.6947  0.0345  0.4462
  209MPD1    H3 3235   3.102   3.015  10.863  0.5733  1.8122  0.0889
  209MPD1     N 3236   2.960   3.408  10.680 -0.0221 -0.1859  0.6937
  209MPD1    H5 3237   2.879   3.460  10.647  0.9752  0.6671 -0.4226
  209MPD1    N1 3238   2.709   2.991  10.650  0.1341  0.4589 -0.4171
  209MPD1    H6 3239   2.732   2.894  10.626  0.6230  0.6334 -0.6587
  209MPD1    H7 3240   2.672   3.031  10.564 -0.7378  0.6071  0.0285
  210MPD1     C 3241   3.312   4.129  11.272 -0.3443  0.3267 -0.1389
  210MPD1    C1 3242   3.257   4.201  11.167 -0.4913 -0.3761  0.3197
  210MPD1    C2 3243   3.209   4.127  11.058 -0.0106  0.3868  0.1379
  210MPD1    C3 3244   3.228   3.988  11.052  0.6831  0.1974  0.3863
  210MPD1    C4 3245   3.290   3.924  11.152 -0.4881  0.0658 -0.9972
  210MPD1    C5 3246   3.329   3.991  11.259 -0.1754 -0.4005 -0.0548
  210MPD1     H 3247   3.157   4.181  10.980  0.2418 -0.7091 -0.7891
  210MPD1    H1 3248   3.315   3.819  11.143 -0.7017  0.1052 -2.1327
  210MPD1    H2 3249   3.348   4.173  11.364  1.4272  5.0781 -3.1147
  210MPD1    H3 3250   3.368   3.928  11.339  0.1705  2.7100  2.2236
  210MPD1     N 3251   3.177   3.904  10.948 -0.3021  0.2605 -0.3751
  210MPD1    H5 3252   3.209   3.808  10.943  0.2811  0.4659 -0.5599
  210MPD1    N1 3253   3.218   4.334  11.188 -0.7808 -0.3648  0.9881
  210MPD1    H6 3254   3.294   4.384  11.232  0.1610 -1.0065  0.0791
  210MPD1    H7 3255   3.201   4.390  11.105  0.5777 -0.7279  0.4610
  211MPD1     C 3256   0.671   3.036  16.253 -0.0430 -0.0630  0.1643
  211MPD1    C1 3257   0.585   3.042  16.154 -0.3080 -0.0471 -0.1633
  211MPD1    C2 3258   0.497   3.149  16.147 -0.1130  0.0555 -0.4725
  211MPD1    C3 3259   0.490   3.238  16.252 -0.1607  0.4810  0.1410
  211MPD1    C4 3260   0.577   3.227  16.362 -0.3742  0.4008  0.0110
  211MPD1    C5 3261   0.664   3.131  16.354 -0.8230  0.0067 -0.5094
  211MPD1     H 3262   0.442   3.157  16.053  1.5959  2.4313 -1.2972
  211MPD1    H1 3263   0.567   3.301  16.440 -1.2190  0.2874  0.0031
  211MPD1    H2 3264   0.753   2.966  16.261  0.3676  0.5553  1.3123
  211MPD1    H3 3265   0.735   3.130  16.435  1.4577 -0.5093 -2.5115
  211MPD1     N 3266   0.386   3.336  16.261  0.3623  0.0346  0.5123
  211MPD1    H5 3267   0.384   3.392  16.346  1.5354  2.7399 -1.2646
  211MPD1    N1 3268   0.591   2.952  16.047  0.1439 -0.1088  0.3469
  211MPD1    H6 3269   0.631   2.864  16.077  0.3870  0.3046  1.2147
  211MPD1    H7 3270   0.507   2.945  15.990  0.4055  0.9225 -0.1718
  212MPD1     C 3271   4.175   1.865  16.712  1.1561 -0.7321  0.2152
  212MPD1    C1 3272   4.268   1.764  16.708  0.3963 -0.5381 -0.5917
  212MPD1    C2 3273   4.226   1.631  16.743  0.5310  0.4657 -0.6161
  212MPD1    C3 3274   4.088   1.608  16.775  1.3017  0.1791 -0.8134
  212MPD1    C4 3275   3.998   1.711  16.768  0.5313  1.2638 -0.2768
  212MPD1    C5 3276   4.042   1.837  16.739  0.0143 -0.4016 -0.3169
  212MPD1     H 3277   4.301   1.553  16.748  1.5001  1.6792  4.1629
  212MPD1    H1 3278   3.896   1.702  16.802  0.2415 -1.9206 -1.9768
  212MPD1    H2 3279   4.203   1.967  16.687 -0.0647 -0.9538 -2.0319
  212MPD1    H3 3280   3.975   1.920  16.756 -0.7689 -0.2897 -4.0308
  212MPD1     N 3281   4.030   1.482  16.806 -0.4293 -0.6713 -0.3547
  212MPD1    H5 3282   3.930   1.481  16.825 -0.2470 -1.1753  0.5648
  212MPD1    N1 3283   4.398   1.798  16.665  0.3914  0.4477  0.1927
  212MPD1    H6 3284   4.471   1.733  16.697 -0.0616 -1.3648 -2.4753
  212MPD1    H7 3285   4.421   1.896  16.681 -2.0178  1.3133 -1.8160
  213MPD1     C 3286   1.736   1.698  14.865  0.3600  0.1468  0.0169
  213MPD1    C1 3287   1.627   1.752  14.926 -0.3711 -0.2949  0.1160
  213MPD1    C2 3288   1.649   1.872  14.997 -0.0443 -0.5263 -0.2177
  213MPD1    C3 3289   1.740   1.969  14.962  0.1590 -0.5519  0.2955
  213MPD1    C4 3290   1.838   1.920  14.876 -0.1182 -0.1129  0.6594
  213MPD1    C5 3291   1.836   1.787  14.828  0.1084 -0.5017 -0.0092
  213MPD1     H 3292   1.576   1.901  15.071 -0.4227 -2.2100  0.0705
  213MPD1    H1 3293   1.925   1.982  14.857 -0.1786 -0.1339  0.3126
  213MPD1    H2 3294   1.760   1.603  14.818  2.5099  1.3283 -1.2790
  213MPD1    H3 3295   1.927   1.749  14.782 -1.5644 -3.9583 -0.5162
  213MPD1     N 3296   1.731   2.105  15.008  0.3087  0.2982 -0.3381
  213MPD1    H5 3297   1.667   2.119  15.085  0.7433  0.7170 -0.0602
  213MPD1    N1 3298   1.527   1.662  14.973 -0.0460  0.2529  0.3533
  213MPD1    H6 3299   1.444   1.710  15.006 -0.0824 -0.1074  0.7892
  213MPD1    H7 3300   1.505   1.594  14.900  0.6989  0.3391  0.0484
  214MPD1     C 3301   0.937   2.448  14.976  0.3318 -0.2242  1.1996
  214MPD1    C1 3302   1.006   2.567  14.992  0.2757 -0.1859  0.0958
  214MPD1    C2 3303   1.141   2.565  14.987  0.0196 -0.2882  0.6240
  214MPD1    C3 3304   1.210   2.444  14.995  0.3022 -0.3638 -1.0649
  214MPD1    C4 3305   1.137   2.327  14.999  0.0853  1.0381  0.9275
  214MPD1    C5 3306   1.004   2.329  14.981  0.1443 -0.1622 -0.3783
  214MPD1     H 3307   1.198   2.657  14.994 -2.0261  0.9106  1.2627
  214MPD1    H1 3308   1.185   2.230  15.004  0.4130  1.1996  0.9220
  214MPD1    H2 3309   0.829   2.442  14.984  0.2357  0.0711  0.1681
  214MPD1    H3 3310   0.951   2.235  14.990  0.4508 -0.4799 -1.8043
  214MPD1     N 3311   1.356   2.432  15.001  0.8123  0.6891  0.0523
  214MPD1    H5 3312   1.387   2.338  15.024  0.0170  0.5388  0.5112
  214MPD1    N1 3313   0.936   2.692  14.996  0.6003  0.1154  0.2850
  214MPD1    H6 3314   0.989   2.770  15.036 -1.7728 -0.5141  4.5182
  214MPD1    H7 3315   0.840   2.693  15.028  0.2416  2.3511 -0.8597
  215MPD1     C 3316   1.608   3.110  11.090  0.5209 -0.2440  0.2285
  215MPD1    C1 3317   1.701   3.129  11.192  0.6030 -0.7796 -0.4954
  215MPD1    C2 3318   1.820   3.196  11.157 -0.6265 -0.1416  0.9452
  215MPD1    C3 3319   1.844   3.223  11.023  0.0532 -0.1239 -0.0741
  215MPD1    C4 3320   1.757   3.182  10.922  0.0095  0.3092  0.4387
  215MPD1    C5 3321   1.637   3.127  10.959  0.0356 -0.3702 -0.0118
  215MPD1     H 3322   1.898   3.204  11.231 -0.5402 -1.5418  1.0103
  215MPD1    H1 3323   1.773   3.195  10.815  0.4733 -0.8958  0.3638
  215MPD1    H2 3324   1.508   3.072  11.109 -0.6008  2.1480 -0.8964
  215MPD1    H3 3325   1.559   3.108  10.887 -2.3148  0.0375  2.4361
  215MPD1     N 3326   1.970   3.281  11.000 -0.3092  0.0371 -0.4864
  215MPD1    H5 3327   2.017   3.308  11.086 -1.5203 -0.2851  0.2672
  215MPD1    N1 3328   1.660   3.114  11.322  0.1510 -0.4091 -0.0391
  215MPD1    H6 3329   1.601   3.031  11.318  0.7090 -0.7911 -0.3564
  215MPD1    H7 3330   1.729   3.092  11.393  0.9672  1.4063 -0.2933
  216MPD1     C 3331   3.791   1.713   0.567 -0.5489  0.3438  0.1871
  216MPD1    C1 3332   3.733   1.597   0.628  0.3025  0.6653 -0.2269
  216MPD1    C2 3333   3.722   1.485   0.555 -0.9027 -0.5021  0.3649
  216MPD1    C3 3334   3.772   1.476   0.428  0.2278  0.2285  1.1803
  216MPD1    C4 3335   3.826   1.588   0.365 -0.6298  0.1054 -0.5508
  216MPD1    C5 3336   3.832   1.707   0.438  0.7616 -0.2851 -0.5065
  216MPD1     H 3337   3.677   1.395   0.595 -0.0472 -0.2223  1.9902
  216MPD1    H1 3338   3.873   1.600   0.267 -0.9121  3.8572 -0.2107
  216MPD1    H2 3339   3.793   1.816   0.601 -0.7021 -0.1274  1.5935
  216MPD1    H3 3340   3.872   1.794   0.386  0.3745  0.7985  1.0017
  216MPD1     N 3341   3.744   1.358   0.353  0.3517 -0.2696 -0.1739
  216MPD1    H5 3342   3.699   1.282   0.403  0.3926 -0.1355  0.0697
  216MPD1    N1 3343   3.698   1.598   0.768  0.0721 -0.3000 -0.0202
  216MPD1    H6 3344   3.621   1.537   0.795 -1.1388  0.7979 -1.0211
  216MPD1    H7 3345   3.691   1.692   0.807  0.7472 -0.2013 -0.1317
  217MPD1     C 3346   4.617   2.898   8.591 -0.2027  0.8038 -0.3534
  217MPD1    C1 3347   4.707   2.789   8.597 -1.1228 -0.3444  0.4030
  217MPD1    C2 3348   0.020   2.748   8.725 -0.4482 -0.1048 -0.3271
  217MPD1    C3 3349   4.715   2.804   8.838 -0.6621 -0.0978 -0.4470
  217MPD1    C4 3350   4.645   2.916   8.830 -0.1546 -0.3930  0.7393
  217MPD1    C5 3351   4.587   2.960   8.709 -0.2384  0.0474  0.2151
  217MPD1     H 3352   0.084   2.660   8.721 -0.1671  0.1289 -0.9139
  217MPD1    H1 3353   4.610   2.970   8.918 -2.1217 -1.1049  0.3873
  217MPD1    H2 3354   4.576   2.930   8.496 -1.8421 -0.1465  0.0406
  217MPD1    H3 3355   4.511   3.037   8.706  0.0623  0.4503  2.4229
  217MPD1     N 3356   0.020   2.775   8.971  0.3696  0.0303  0.0039
  217MPD1    H5 3357   4.721   2.837   9.042 -0.7978 -0.0083 -0.5949
  217MPD1    N1 3358   0.010   2.735   8.469 -0.1196 -0.2318 -0.5437
  217MPD1    H6 3359   0.057   2.645   8.474  1.8580  0.7266 -2.0008
  217MPD1    H7 3360   4.680   2.716   8.397 -0.4198 -0.5991 -0.1623
  218MPD1     C 3361   1.968   3.953  12.822 -0.4845  0.0659  0.8144
  218MPD1    C1 3362   1.995   3.823  12.866  0.3383  0.3893  0.1942
  218MPD1    C2 3363   2.079   3.744  12.789  0.0927  0.2890 -0.0596
  218MPD1    C3 3364   2.143   3.795  12.677  0.5437 -0.3215  0.1928
  218MPD1    C4 3365   2.126   3.930  12.647 -0.3824 -0.1828  0.0010
  218MPD1    C5 3366   2.041   4.006  12.725  0.2486 -0.1236  0.5555
  218MPD1     H 3367   2.119   3.644  12.800 -1.2116 -0.2098  0.0455
  218MPD1    H1 3368   2.164   3.976  12.556  1.3897  0.1042  0.8910
  218MPD1    H2 3369   1.895   4.018  12.868 -1.3856 -0.2830 -0.1310
  218MPD1    H3 3370   2.026   4.111  12.704 -1.8826 -0.4023  0.7112
  218MPD1     N 3371   2.233   3.704  12.605 -0.2794  0.2460 -0.2562
  218MPD1    H5 3372   2.231   3.612  12.648 -0.6460  1.5735  2.5503
  218MPD1    N1 3373   1.909   3.782  12.964 -0.8044  0.0030 -0.0133
  218MPD1    H6 3374   1.959   3.710  13.015 -0.7579 -1.2625 -1.8807
  218MPD1    H7 3375   1.889   3.869  13.014 -1.9374 -0.3503  0.1450
  219MPD1     C 3376   2.794   3.701  11.732 -0.8843 -0.1429 -0.1147
  219MPD1    C1 3377   2.866   3.742  11.840 -0.6518 -0.1682  0.9507
  219MPD1    C2 3378   2.818   3.712  11.966  0.0852 -0.4612  0.0751
  219MPD1    C3 3379   2.694   3.654  11.983  0.0262  0.0917 -0.1329
  219MPD1    C4 3380   2.629   3.615  11.875 -0.3043  0.0697 -0.1149
  219MPD1    C5 3381   2.678   3.630  11.751 -0.7453 -0.4517  0.2191
  219MPD1     H 3382   2.879   3.748  12.048 -0.5836 -0.3825  0.5367
  219MPD1    H1 3383   2.531   3.571  11.889  0.5913 -1.3692  1.6469
  219MPD1    H2 3384   2.830   3.709  11.630 -0.3615  1.2138  0.1793
  219MPD1    H3 3385   2.616   3.593  11.670  0.4733  2.2210 -1.9020
  219MPD1     N 3386   2.626   3.629  12.103 -0.3210  0.6296 -0.5254
  219MPD1    H5 3387   2.536   3.584  12.108  0.0409 -0.3117 -2.3560
  219MPD1    N1 3388   2.989   3.800  11.807  0.4183 -0.3548  0.0807
  219MPD1    H6 3389   2.991   3.849  11.718 -1.5986  1.0635  0.8324
  219MPD1    H7 3390   3.023   3.860  11.882  2.9187 -3.2722  1.3177
  220MPD1     C 3391   1.641   3.906   9.247  0.5604  0.2539  0.5555
  220MPD1    C1 3392   1.592   3.779   9.239 -0.1060  0.6238 -0.0787
  220MPD1    C2 3393   1.653   3.671   9.315 -1.1056 -0.1555 -0.2401
  220MPD1    C3 3394   1.742   3.711   9.418  0.3971 -0.2686  0.6132
  220MPD1    C4 3395   1.781   3.845   9.423 -0.7955  0.1649 -0.6867
  220MPD1    C5 3396   1.738   3.932   9.333  0.7958 -0.1808 -0.1056
  220MPD1     H 3397   1.629   3.566   9.298  1.7149 -0.3976 -2.6262
  220MPD1    H1 3398   1.838   3.888   9.504 -1.8552 -0.4129  0.3677
  220MPD1    H2 3399   1.607   3.974   9.170  1.0903 -0.8789 -0.6785
  220MPD1    H3 3400   1.776   4.033   9.332  0.0809  0.0956  0.8191
  220MPD1     N 3401   1.790   3.613   9.500  0.1098  0.2422 -0.5102
  220MPD1    H5 3402   1.741   3.525   9.504 -1.6469  1.2868  1.3706
  220MPD1    N1 3403   1.502   3.753   9.134 -0.0319 -0.0323 -0.3260
  220MPD1    H6 3404   1.448   3.835   9.108 -0.4712  0.2578  1.5387
  220MPD1    H7 3405   1.446   3.670   9.150  1.7816 -0.4511  3.8103
  221MPD1     C 3406   4.100   2.871  16.387  0.4307  0.1179 -0.5810
  221MPD1    C1 3407   4.159   2.990  16.425 -0.1723 -0.1086  0.4729
  221MPD1    C2 3408   4.274   2.969  16.495 -0.5209 -0.5700  0.2275
  221MPD1    C3 3409   4.322   2.845  16.532  0.0115  0.0293 -0.2824
  221MPD1    C4 3410   4.253   2.734  16.496  0.0010  0.3128  0.4401
  221MPD1    C5 3411   4.143   2.751  16.418 -0.2929  0.6619  0.3715
  221MPD1     H 3412   4.334   3.050  16.533 -0.0652 -0.6426 -0.3276
  221MPD1    H1 3413   4.289   2.637  16.529  0.5315 -0.1902 -1.5854
  221MPD1    H2 3414   4.005   2.873  16.336  0.0905  0.3689  0.0569
  221MPD1    H3 3415   4.087   2.662  16.391  0.8025 -0.6972  2.5978
  221MPD1     N 3416   4.441   2.825  16.610  0.0089 -0.1565 -0.2722
  221MPD1    H5 3417   4.479   2.731  16.619  1.1341  0.4301  1.0521
  221MPD1    N1 3418   4.099   3.120  16.409 -0.8669  0.2711 -0.1527
  221MPD1    H6 3419   4.159   3.202  16.406  0.4811 -0.6372  1.4885
  221MPD1    H7 3420   4.042   3.126  16.325 -1.3655  0.3647  0.1927
  222MPD1     C 3421   3.359   0.920  17.636 -1.0551  0.4980  0.7610
  222MPD1    C1 3422   3.411   1.030  17.574  0.6834  0.7738  0.4340
  222MPD1    C2 3423   3.396   1.146  17.645  0.2968  0.8054  0.9579
  222MPD1    C3 3424   3.352   1.143   0.023 -0.1297 -0.7267  0.4609
  222MPD1    C4 3425   3.303   1.024   0.080 -1.0870  0.1451  0.2527
  222MPD1    C5 3426   3.296   0.914   0.001  0.1008  0.4729  0.3089
  222MPD1     H 3427   3.428   1.240  17.600 -1.8722  1.1150  0.0852
  222MPD1    H1 3428   3.261   1.029   0.180 -3.6413 -0.8524 -0.7660
  222MPD1    H2 3429   3.345   0.823  17.587 -1.7399  0.8154  0.3204
  222MPD1    H3 3430   3.243   0.829   0.040 -0.2112  0.7461  0.4795
  222MPD1     N 3431   3.355   1.253   0.116 -1.0486 -0.2458  0.6080
  222MPD1    H5 3432   3.329   1.235   0.213 -1.3494 -1.3616  0.3196
  222MPD1    N1 3433   3.446   1.032  17.438 -0.4645  0.0020 -0.0927
  222MPD1    H6 3434   3.522   1.094  17.410 -0.6978 -0.6806 -2.2180
  222MPD1    H7 3435   3.458   0.939  17.399 -0.1409 -0.4188  1.0050
  223MPD1     C 3436   3.420   1.524   1.062 -0.4850 -0.7480 -0.1762
  223MPD1    C1 3437   3.359   1.636   1.008 -0.0932  0.0229  0.4427
  223MPD1    C2 3438   3.335   1.632   0.872 -0.6661 -0.4281 -0.7157
  223MPD1    C3 3439   3.348   1.509   0.798  0.0865  0.0246 -0.3728
  223MPD1    C4 3440   3.409   1.400   0.859 -0.2015  0.1842  0.0581
  223MPD1    C5 3441   3.444   1.409   0.993 -0.2653 -0.2413  0.0915
  223MPD1     H 3442   3.304   1.723   0.823  0.5473 -1.5533 -3.5841
  223MPD1    H1 3443   3.425   1.308   0.804  0.6013 -0.2576  1.0426
  223MPD1    H2 3444   3.457   1.532   1.163 -0.9807  1.5677 -0.1838
  223MPD1    H3 3445   3.495   1.328   1.043 -0.6423 -1.4942 -1.5466
  223MPD1     N 3446   3.322   1.523   0.662 -0.0625  0.0457 -0.8871
  223MPD1    H5 3447   3.276   1.608   0.631 -2.1981 -0.7966 -0.1076
  223MPD1    N1 3448   3.359   1.760   1.069  0.4332 -0.0044 -0.0659
  223MPD1    H6 3449   3.281   1.821   1.044 -0.9317 -0.3656  3.3718
  223MPD1    H7 3450   3.355   1.756   1.171  0.7555  1.8685  0.0250
  224MPD1     C 3451   0.368   2.931   8.901 -0.3085 -0.1650  0.3749
  224MPD1    C1 3452   0.358   3.064   8.929 -1.0125 -0.9028  0.5486
  224MPD1    C2 3453   0.404   3.108   9.054  0.7043 -0.1813  0.3187
  224MPD1    C3 3454   0.450   3.012   9.144  0.2376 -0.0503 -0.3644
  224MPD1    C4 3455   0.467   2.881   9.107 -0.4440 -0.1915  0.2962
  224MPD1    C5 3456   0.414   2.837   8.987 -0.4707 -0.0760  0.7805
  224MPD1     H 3457   0.380   3.208   9.089 -0.1299  0.0430 -0.9079
  224MPD1    H1 3458   0.491   2.801   9.175  0.4912  2.4474  3.0919
  224MPD1    H2 3459   0.332   2.903   8.802  0.3119 -1.6402  0.5716
  224MPD1    H3 3460   0.396   2.731   8.970 -0.4351  0.1535 -0.7225
  224MPD1     N 3461   0.483   3.045   9.279  0.3456  0.9324  0.1395
  224MPD1    H5 3462   0.530   2.971   9.331 -0.0260  0.7483  0.2099
  224MPD1    N1 3463   0.342   3.147   8.817  0.1591  0.4187 -0.4609
  224MPD1    H6 3464   0.316   3.244   8.830 -1.3425  0.1185 -1.2254
  224MPD1    H7 3465   0.291   3.102   8.741 -2.7536  1.7535  0.7029
  225MPD1     C 3466   2.055   0.107  12.404 -0.2371 -0.4426  0.7440
  225MPD1    C1 3467   2.067   4.727  12.468 -0.2051  0.6338 -0.1294
  225MPD1    C2 3468   2.000   4.620  12.406 -0.6824  0.0086 -0.5367
  225MPD1    C3 3469   1.903   4.640  12.310  0.0045 -0.3715 -0.7607
  225MPD1    C4 3470   1.868   0.020  12.264 -0.4052 -0.4861  0.6789
  225MPD1    C5 3471   1.957   0.122  12.302 -0.1807 -0.1449  0.1514
  225MPD1     H 3472   2.023   4.521  12.445  1.6178 -0.1715 -2.3164
  225MPD1    H1 3473   1.786   0.024  12.193 -0.4320  0.3721  0.7570
  225MPD1    H2 3474   2.108   0.200  12.423 -1.3186 -0.1890  2.5560
  225MPD1    H3 3475   1.948   0.221  12.259  1.2999  0.3399  0.9911
  225MPD1     N 3476   1.830   4.534  12.255  0.0892 -0.8946  0.5505
  225MPD1    H5 3477   1.740   4.555  12.213  0.8683 -0.4704 -0.9052
  225MPD1    N1 3478   2.170   4.710  12.564  0.6395  0.0062  0.0562
  225MPD1    H6 3479   2.194   0.060  12.604  2.1221  0.0759 -0.9819
  225MPD1    H7 3480   2.147   4.639  12.633 -1.5707 -0.0676 -0.7583
  226MPD1     C 3481   3.569   3.991  10.397 -0.7082 -0.0162  0.8080
  226MPD1    C1 3482   3.665   4.090  10.406  0.4260 -0.3426  0.6727
  226MPD1    C2 3483   3.759   4.087  10.306  0.0767  0.2176  0.8641
  226MPD1    C3 3484   3.753   4.012  10.190 -0.6275  0.4699 -0.4693
  226MPD1    C4 3485   3.643   3.934  10.170  0.4357 -0.5150  0.0336
  226MPD1    C5 3486   3.559   3.917  10.278  0.2169  0.5855  0.5642
  226MPD1     H 3487   3.844   4.152  10.324  0.4371 -0.5336  1.8397
  226MPD1    H1 3488   3.612   3.891  10.075 -1.3504 -2.7179  1.6102
  226MPD1    H2 3489   3.485   3.982  10.464 -1.7485  1.2544 -0.3217
  226MPD1    H3 3490   3.477   3.846  10.274  0.9480 -0.3347  2.0741
  226MPD1     N 3491   3.856   4.014  10.094 -0.4214  0.2876  0.6131
  226MPD1    H5 3492   3.932   4.069  10.132  0.6065 -0.0889 -0.8805
  226MPD1    N1 3493   3.684   4.165  10.524 -0.5824 -0.0007 -0.0088
  226MPD1    H6 3494   3.736   4.250  10.504 -3.4128  1.5536 -0.9142
  226MPD1    H7 3495   3.601   4.183  10.581 -1.2316 -2.3660 -0.2170
  227MPD1     C 3496   3.877   3.968   9.118  0.7655  0.0018 -0.3829
  227MPD1    C1 3497   3.789   3.922   9.211  0.6084 -0.5999  0.1740
  227MPD1    C2 3498   3.839   3.923   9.347 -0.2054  0.6897 -0.6600
  227MPD1    C3 3499   3.964   3.971   9.379 -0.5063 -0.2611  0.1487
  227MPD1    C4 3500   4.043   4.019   9.280 -0.5260  0.2082 -0.1675
  227MPD1    C5 3501   4.003   4.011   9.154 -0.8331  0.6005 -0.0893
  227MPD1     H 3502   3.766   3.900   9.424  0.7077 -0.7935 -0.2373
  227MPD1    H1 3503   4.133   4.076   9.298 -0.7432  0.1046  1.2827
  227MPD1    H2 3504   3.853   3.972   9.013 -2.2917  2.6964  0.4585
  227MPD1    H3 3505   4.065   4.049   9.074  0.8468 -0.5290  0.6729
  227MPD1     N 3506   3.989   3.980   9.512  0.2026  0.5602  0.4349
  227MPD1    H5 3507   3.916   3.952   9.576 -0.8255 -1.4649 -1.6569
  227MPD1    N1 3508   3.659   3.877   9.175 -0.2749 -0.6641 -0.4467
  227MPD1    H6 3509   3.636   3.916   9.084  0.5310 -1.8979 -1.1720
  227MPD1    H7 3510   3.581   3.886   9.239  0.8000 -1.6694  1.0070
  228MPD1     C 3511   3.723   2.272  12.668 -0.0949 -0.7614 -0.4177
  228MPD1    C1 3512   3.664   2.290  12.549 -0.4204 -0.3652 -0.6481
  228MPD1    C2 3513   3.525   2.281  12.536 -0.8940 -0.4338 -0.1691
  228MPD1    C3 3514   3.449   2.250  12.648  0.2716 -0.1195 -0.3302
  228MPD1    C4 3515   3.512   2.217  12.764 -0.4484  0.1533  0.6832
  228MPD1    C5 3516   3.644   2.234  12.773  0.3544 -0.1189 -0.4209
  228MPD1     H 3517   3.476   2.288  12.439 -0.5243 -1.9881 -0.4740
  228MPD1    H1 3518   3.462   2.189  12.856 -1.2756  0.3835  0.3029
  228MPD1    H2 3519   3.828   2.254  12.688 -0.0004 -0.2844 -0.4811
  228MPD1    H3 3520   3.683   2.189  12.863 -0.7410  0.7595  0.4748
  228MPD1     N 3521   3.309   2.233  12.632 -0.3163 -0.4889  0.0729
  228MPD1    H5 3522   3.275   2.244  12.537 -1.0684 -1.9051  0.1842
  228MPD1    N1 3523   3.730   2.320  12.429 -0.3429 -0.3928  0.0818
  228MPD1    H6 3524   3.687   2.396  12.376  0.0957 -1.3159 -1.5989
  228MPD1    H7 3525   3.821   2.365  12.439 -0.2322 -0.5936 -0.0235
  229MPD1     C 3526   3.121   1.362  14.691 -0.2776  0.2441  0.9310
  229MPD1    C1 3527   3.141   1.269  14.589 -0.1843 -0.3305  0.0678
  229MPD1    C2 3528   3.260   1.202  14.590 -0.2378  0.2704 -0.5171
  229MPD1    C3 3529   3.364   1.239  14.671  0.7381  0.5084 -0.2122
  229MPD1    C4 3530   3.346   1.330  14.760  0.4099 -0.4220 -0.3996
  229MPD1    C5 3531   3.224   1.391  14.773 -0.6699  0.7875 -0.1439
  229MPD1     H 3532   3.282   1.123  14.518 -0.7350 -0.8495  0.5534
  229MPD1    H1 3533   3.417   1.360  14.836  0.7200 -0.0020 -0.8549
  229MPD1    H2 3534   3.025   1.412  14.702 -0.8392 -0.4947 -0.4716
  229MPD1    H3 3535   3.209   1.466  14.850  1.5057  0.2080  0.8416
  229MPD1     N 3536   3.483   1.171  14.671  0.1222  0.7994 -0.1706
  229MPD1    H5 3537   3.559   1.201  14.731  0.1316  1.0239 -0.2956
  229MPD1    N1 3538   3.032   1.243  14.505 -0.1091 -0.4739  0.1162
  229MPD1    H6 3539   3.058   1.237  14.407 -1.0671 -1.9148 -0.0447
  229MPD1    H7 3540   2.964   1.319  14.515 -0.2938 -0.7817  1.2370
  230MPD1     C 3541   4.026   0.808  15.395  0.6644  0.1401 -0.8906
  230MPD1    C1 3542   4.044   0.713  15.297  0.3075  0.2706 -0.2688
  230MPD1    C2 3543   3.956   0.706  15.190  0.1224  0.6415 -0.4742
  230MPD1    C3 3544   3.859   0.800  15.165 -0.1642 -0.2089  0.4947
  230MPD1    C4 3545   3.839   0.891  15.260 -0.2702 -0.3361  0.0296
  230MPD1    C5 3546   3.920   0.892  15.370 -0.2531 -0.0485  0.1482
  230MPD1     H 3547   3.963   0.629  15.114 -0.5990  0.5133 -0.4109
  230MPD1    H1 3548   3.763   0.968  15.258  0.9382  0.7674 -3.5266
  230MPD1    H2 3549   4.084   0.815  15.486  1.4323 -0.7579 -1.3119
  230MPD1    H3 3550   3.902   0.965  15.449 -3.1780 -0.0290 -0.5216
  230MPD1     N 3551   3.812   0.800  15.033  0.2715 -0.2626 -0.0366
  230MPD1    H5 3552   3.852   0.734  14.967 -0.4708  0.3133 -1.0568
  230MPD1    N1 3553   4.135   0.609  15.326  0.3293  0.0682  0.7725
  230MPD1    H6 3554   4.221   0.642  15.368  2.3513 -0.7833 -2.7468
  230MPD1    H7 3555   4.103   0.550  15.403  1.7151  0.2722  1.5023
  231MPD1     C 3556   1.269   2.863  15.237 -0.1110  0.4077 -0.2695
  231MPD1    C1 3557   1.234   2.954  15.136  0.3291 -0.1030 -0.3425
  231MPD1    C2 3558   1.345   3.012  15.072  0.0196  0.4829  0.5187
  231MPD1    C3 3559   1.469   2.956  15.088 -0.4240 -0.4120  0.5048
  231MPD1    C4 3560   1.494   2.867  15.189  0.2151 -0.7495 -0.1093
  231MPD1    C5 3561   1.394   2.804  15.253 -0.2758  0.4412  0.3459
  231MPD1     H 3562   1.340   3.088  14.995  2.6496  0.0223 -0.1196
  231MPD1    H1 3563   1.594   2.836  15.217  0.2609 -0.0956  0.4528
  231MPD1    H2 3564   1.192   2.816  15.296 -0.5054  0.3238 -0.8545
  231MPD1    H3 3565   1.414   2.718  15.317  0.5624  0.2063 -0.2249
  231MPD1     N 3566   1.576   2.998  15.004  0.2269 -0.0939 -0.1160
  231MPD1    H5 3567   1.551   3.062  14.929  3.3386  1.8771  0.5408
  231MPD1    N1 3568   1.104   3.011  15.118 -0.2922 -0.3137  0.4141
  231MPD1    H6 3569   1.086   3.064  15.033 -1.3634 -0.9233  0.2524
  231MPD1    H7 3570   1.034   2.945  15.152  0.8585 -1.0533  1.3176
  232MPD1     C 3571   3.094   0.150   0.060 -0.3801 -0.7034 -0.1666
  232MPD1    C1 3572   3.038   0.067  17.715 -0.2773  0.0227 -0.4452
  232MPD1    C2 3573   2.911   0.099  17.670 -0.0223  0.0796 -0.2323
  232MPD1    C3 3574   2.844   0.203  17.729  0.2167 -0.1051 -0.8501
  232MPD1    C4 3575   2.903   0.284   0.065  0.1557  0.5162  0.7503
  232MPD1    C5 3576   3.026   0.254   0.110 -0.2149 -0.8997 -0.7129
  232MPD1     H 3577   2.859   0.037  17.597  0.6221  0.0017 -0.6314
  232MPD1    H1 3578   2.856   0.371   0.110 -1.6120  0.1891 -0.4583
  232MPD1    H2 3579   3.192   0.127   0.102 -0.3603  0.5151  0.4563
  232MPD1    H3 3580   3.065   0.313   0.191 -2.4676 -1.1049  0.5068
  232MPD1     N 3581   2.704   0.217  17.680 -0.5032  0.3418  0.3614
  232MPD1    H5 3582   2.684   0.156  17.601 -0.6333 -1.0226  1.4555
  232MPD1    N1 3583   3.108   4.699  17.662 -0.0461  0.7279  0.6512
  232MPD1    H6 3584   3.050   4.625  17.624  2.1316  0.5148 -2.3028
  232MPD1    H7 3585   3.194   4.667  17.707 -0.1313 -1.9370 -1.0771
  233MPD1     C 3586   3.407   2.021   0.742  0.0613  0.1563 -0.0458
  233MPD1    C1 3587   3.529   2.073   0.702  0.9153  0.0015 -0.0666
  233MPD1    C2 3588   3.586   2.171   0.784  0.4172 -0.3267  0.5649
  233MPD1    C3 3589   3.530   2.211   0.898 -0.1585  0.2920 -0.0460
  233MPD1    C4 3590   3.409   2.152   0.933 -0.2054  0.0864  1.2404
  233MPD1    C5 3591   3.352   2.057   0.863  0.9995  0.0372 -0.0143
  233MPD1     H 3592   3.686   2.203   0.756  0.5263 -0.1115  1.1936
  233MPD1    H1 3593   3.370   2.165   1.034  2.2757  0.5587  2.1384
  233MPD1    H2 3594   3.365   1.934   0.693  0.0057  0.9948 -1.4729
  233MPD1    H3 3595   3.265   2.000   0.892  0.1860 -0.2143 -2.9963
  233MPD1     N 3596   3.597   2.297   0.996  0.2526  0.1631 -0.3535
  233MPD1    H5 3597   3.556   2.314   1.087  0.8179 -0.6718  0.0514
  233MPD1    N1 3598   3.609   2.015   0.606 -0.4543 -0.2109 -0.0471
  233MPD1    H6 3599   3.558   1.975   0.527  1.4082  2.0287 -2.3588
  233MPD1    H7 3600   3.668   2.086   0.564  0.3102  0.4759  2.2180
  234MPD1     C 3601   1.314   1.484   9.662  0.4882 -0.4625  0.4595
  234MPD1    C1 3602   1.242   1.527   9.548  0.1846 -0.3431 -0.1488
  234MPD1    C2 3603   1.163   1.636   9.570 -0.0728 -0.1462 -0.6129
  234MPD1    C3 3604   1.133   1.683   9.698 -0.1156 -0.9622  0.1885
  234MPD1    C4 3605   1.182   1.623   9.808  0.2114 -0.0162  0.4424
  234MPD1    C5 3606   1.275   1.523   9.788 -0.0141  0.0474  0.0089
  234MPD1     H 3607   1.106   1.683   9.490  2.4274  0.5575 -1.9841
  234MPD1    H1 3608   1.159   1.654   9.909  0.6974  5.1128 -1.0529
  234MPD1    H2 3609   1.398   1.416   9.659  1.6181  0.8768  1.4621
  234MPD1    H3 3610   1.327   1.476   9.871 -2.3667 -0.2134  1.3277
  234MPD1     N 3611   1.059   1.803   9.687  0.1496 -0.6228  0.0409
  234MPD1    H5 3612   1.040   1.838   9.593  1.8343 -1.0499 -0.4553
  234MPD1    N1 3613   1.271   1.494   9.414 -0.6373  0.4792  0.0661
  234MPD1    H6 3614   1.282   1.393   9.408  0.7583  0.7887 -2.6367
  234MPD1    H7 3615   1.195   1.510   9.349 -0.2064  0.3560 -0.4685
  235MPD1     C 3616   2.488   0.199   9.741 -0.5783 -0.0593  0.3847
  235MPD1    C1 3617   2.609   0.170   9.696 -0.1133  0.4653 -0.6514
  235MPD1    C2 3618   2.719   0.242   9.735 -0.4679  0.8008 -0.0146
  235MPD1    C3 3619   2.708   0.343   9.831  0.5571  0.1851  0.2534
  235MPD1    C4 3620   2.583   0.371   9.875  0.1130  0.2986  0.5187
  235MPD1    C5 3621   2.474   0.299   9.835 -0.1340  0.0250  0.6643
  235MPD1     H 3622   2.819   0.217   9.699 -0.3977  0.4746  0.4037
  235MPD1    H1 3623   2.563   0.452   9.945 -1.1496  0.1865  0.2795
  235MPD1    H2 3624   2.404   0.162   9.684  0.3045  0.6746 -1.4178
  235MPD1    H3 3625   2.378   0.336   9.866 -1.0781 -0.6578 -1.4497
  235MPD1     N 3626   2.827   0.409   9.867  0.8614 -0.3910  0.8890
  235MPD1    H5 3627   2.917   0.387   9.825  0.2099  0.4438 -0.9681
  235MPD1    N1 3628   2.615   0.102   9.569 -0.0734  0.1404 -0.7576
  235MPD1    H6 3629   2.552   0.022   9.567  1.4847 -1.2143  2.8271
  235MPD1    H7 3630   2.703   0.060   9.540 -0.9629 -2.5203  0.3613
  236MPD1     C 3631   1.635   0.803   9.511 -1.3772  0.7471 -0.5738
  236MPD1    C1 3632   1.611   0.691   9.585  0.5889 -0.7344 -0.2336
  236MPD1    C2 3633   1.668   0.682   9.711 -0.4068  0.2224 -0.6875
  236MPD1    C3 3634   1.733   0.791   9.765  0.8282 -0.2589 -0.2574
  236MPD1    C4 3635   1.745   0.910   9.693  0.0712  0.4869  0.4683
  236MPD1    C5 3636   1.694   0.912   9.562  0.5727 -0.5133 -0.0955
  236MPD1     H 3637   1.642   0.599   9.777 -2.1100  1.4341  0.1512
  236MPD1    H1 3638   1.780   1.000   9.742  0.6055 -0.2816  1.4997
  236MPD1    H2 3639   1.592   0.819   9.413 -0.1460  0.8907 -1.0821
  236MPD1    H3 3640   1.698   1.008   9.512 -0.6610 -2.0521 -3.1061
  236MPD1     N 3641   1.772   0.794   9.903  0.4013  0.1108  1.0125
  236MPD1    H5 3642   1.800   0.880   9.949  1.4027  1.2672 -1.7720
  236MPD1    N1 3643   1.557   0.584   9.516  0.6962 -0.4195 -0.0636
  236MPD1    H6 3644   1.493   0.614   9.443  1.8329  1.3209 -0.3502
  236MPD1    H7 3645   1.507   0.519   9.577  0.3497  0.5719  0.7180
  237MPD1     C 3646   1.979   3.691  15.521  0.3660 -0.2185 -0.5897
  237MPD1    C1 3647   1.959   3.705  15.659  0.5531  0.5644  0.5072
  237MPD1    C2 3648   1.836   3.753  15.698  0.0498  0.2592  0.3004
  237MPD1    C3 3649   1.745   3.792  15.604 -0.5660  0.1883  0.1410
  237MPD1    C4 3650   1.779   3.793  15.469 -0.0361  0.2778 -1.2243
  237MPD1    C5 3651   1.895   3.737  15.428 -0.3673  0.0246 -0.2455
  237MPD1     H 3652   1.807   3.764  15.802  1.7674 -1.6519  0.9868
  237MPD1    H1 3653   1.706   3.832  15.399 -1.1236  0.8605  0.2059
  237MPD1    H2 3654   2.069   3.637  15.494 -0.8252 -4.0140  2.9782
  237MPD1    H3 3655   1.912   3.737  15.321  0.0817 -0.9171 -0.1717
  237MPD1     N 3656   1.613   3.837  15.626 -0.0066 -0.2196  0.6181
  237MPD1    H5 3657   1.551   3.849  15.547 -2.3352  0.9842  2.6487
  237MPD1    N1 3658   2.053   3.654  15.751 -0.1827 -0.1437  0.4490
  237MPD1    H6 3659   2.058   3.706  15.839  1.7326  2.0415 -0.9215
  237MPD1    H7 3660   2.143   3.679  15.710 -0.9350 -1.4784 -1.9790
  238MPD1     C 3661   4.159   2.679  14.447  0.0481 -1.0989 -0.3989
  238MPD1    C1 3662   4.131   2.619  14.566 -0.3791 -0.5106 -0.0636
  238MPD1    C2 3663   4.001   2.593  14.595 -0.2629 -0.3533 -0.4431
  238MPD1    C3 3664   3.895   2.622  14.513 -1.1254 -0.5150  0.4728
  238MPD1    C4 3665   3.919   2.681  14.394 -0.5507 -0.6394  0.4271
  238MPD1    C5 3666   4.051   2.713  14.358  0.5507 -0.1140  0.4242
  238MPD1     H 3667   3.974   2.520  14.671  0.5707  0.2514  0.4218
  238MPD1    H1 3668   3.845   2.705  14.319 -0.8126 -1.3010  0.4787
  238MPD1    H2 3669   4.258   2.698  14.409 -1.7380  3.7296 -2.5777
  238MPD1    H3 3670   4.066   2.768  14.266 -2.3258 -1.4844 -0.8559
  238MPD1     N 3671   3.757   2.595  14.543 -0.1273  0.1288  0.1072
  238MPD1    H5 3672   3.696   2.635  14.473  0.8006 -1.2837 -1.5255
  238MPD1    N1 3673   4.234   2.561  14.639 -0.0962  0.8161 -0.1057
  238MPD1    H6 3674   4.218   2.563  14.740  0.6013  3.9545 -0.0560
  238MPD1    H7 3675   4.328   2.598  14.624  0.5492 -0.4246  0.9274
  239MPD1     C 3676   3.927   2.725  15.062 -0.6525  0.1320 -0.0193
  239MPD1    C1 3677   3.828   2.807  15.109  0.1973  0.1365 -1.1139
  239MPD1    C2 3678   3.784   2.899  15.023 -0.5416  0.5241  1.0332
  239MPD1    C3 3679   3.826   2.923  14.896  0.2697 -0.5473 -0.4854
  239MPD1    C4 3680   3.929   2.843  14.854  0.7710 -0.5838  0.4221
  239MPD1    C5 3681   3.981   2.750  14.940 -0.8351 -0.2154  0.4633
  239MPD1     H 3682   3.700   2.952  15.068  0.5982  1.4782  2.0418
  239MPD1    H1 3683   3.964   2.851  14.752  2.3382  1.2571  1.1106
  239MPD1    H2 3684   3.969   2.640  15.115 -0.0531  1.2207  1.2586
  239MPD1    H3 3685   4.056   2.681  14.903 -1.7015 -1.3470  0.8144
  239MPD1     N 3686   3.779   3.026  14.813  0.2356 -0.4366  0.2357
  239MPD1    H5 3687   3.823   3.037  14.722  1.0962  0.6886  0.7997
  239MPD1    N1 3688   3.747   2.774  15.216 -0.8332 -0.0268  0.6114
  239MPD1    H6 3689   3.684   2.849  15.243 -1.0993  0.4215 -1.2775
  239MPD1    H7 3690   3.794   2.741  15.300  1.4743  0.3862 -0.5186
  240MPD1     C 3691   3.219   3.196  14.104 -0.4385 -0.1515  0.3520
  240MPD1    C1 3692   3.282   3.096  14.181 -0.6045 -0.0662  0.8468
  240MPD1    C2 3693   3.207   3.013  14.261  0.9458 -0.4605 -0.3605
  240MPD1    C3 3694   3.067   3.033  14.278  0.0467 -0.0336  0.1578
  240MPD1    C4 3695   3.008   3.137  14.212  0.6740  0.2700 -0.2573
  240MPD1    C5 3696   3.089   3.213  14.130  0.1819  1.0110  0.6986
  240MPD1     H 3697   3.255   2.938  14.322  0.1746  0.5581  1.4782
  240MPD1    H1 3698   2.905   3.163  14.231  0.2711 -1.0246 -0.6517
  240MPD1    H2 3699   3.267   3.273  14.045  0.7353  0.7618  2.4736
  240MPD1    H3 3700   3.049   3.297  14.074 -0.3950  1.5550  1.9291
  240MPD1     N 3701   3.003   2.942  14.364 -0.6087  0.2946  0.1739
  240MPD1    H5 3702   3.062   2.869  14.402 -0.9762  0.9946  2.0747
  240MPD1    N1 3703   3.421   3.087  14.193 -0.5736  0.5895 -0.2944
  240MPD1    H6 3704   3.453   2.997  14.228 -1.7490  0.1348 -0.4060
  240MPD1    H7 3705   3.472   3.102  14.106  2.1230  0.0360  1.1807
  241MPD1     C 3706   3.162   2.870  15.244  0.1259  0.4509  0.3182
  241MPD1    C1 3707   3.126   2.752  15.197 -0.4934 -0.0816 -0.6493
  241MPD1    C2 3708   3.048   2.742  15.083  0.3532  0.1636  0.0433
  241MPD1    C3 3709   3.015   2.854  15.012  0.0230 -0.6739  0.6300
  241MPD1    C4 3710   3.053   2.975  15.059  0.3221 -0.3167 -0.5827
  241MPD1    C5 3711   3.135   2.979  15.170  0.1803 -0.9132 -0.0067
  241MPD1     H 3712   3.017   2.643  15.053 -0.1761  0.1331  0.6944
  241MPD1    H1 3713   3.031   3.060  14.997  3.0112  0.2887 -0.7339
  241MPD1    H2 3714   3.217   2.883  15.337  1.5481  0.7765 -0.5656
  241MPD1    H3 3715   3.164   3.080  15.197 -2.3649 -1.0346  3.2357
  241MPD1     N 3716   2.954   2.851  14.885  0.3520  0.0231  0.6270
  241MPD1    H5 3717   2.954   2.939  14.835 -0.1811 -0.5667 -0.4166
  241MPD1    N1 3718   3.155   2.631  15.272  0.2265  0.5657 -0.0417
  241MPD1    H6 3719   3.186   2.568  15.198 -2.7137  0.3359 -1.0793
  241MPD1    H7 3720   3.220   2.644  15.349 -1.6124  1.9289  1.2960
  242MPD1     C 3721   2.909   1.209  15.919 -0.2723 -0.4065  0.0857
  242MPD1    C1 3722   2.805   1.203  15.831  0.1350  0.1944 -0.5038
  242MPD1    C2 3723   2.825   1.247  15.703 -0.4361 -0.3477  0.3451
  242MPD1    C3 3724   2.936   1.308  15.662  0.4105  0.2341 -0.1833
  242MPD1    C4 3725   3.039   1.311  15.750 -1.0980  0.1388 -0.6318
  242MPD1    C5 3726   3.027   1.258  15.870  0.4625  0.4724 -0.0532
  242MPD1     H 3727   2.743   1.223  15.635  0.5345 -0.8208 -0.6596
  242MPD1    H1 3728   3.135   1.358  15.728 -0.4761 -0.6739  0.3544
  242MPD1    H2 3729   2.917   1.167  16.019  2.7138  1.4631  0.6264
  242MPD1    H3 3730   3.113   1.259  15.936 -1.2618  2.5614  2.1560
  242MPD1     N 3731   2.954   1.353  15.527 -0.5804  0.5037  0.3051
  242MPD1    H5 3732   3.044   1.398  15.516 -0.2338 -1.0796 -3.4647
  242MPD1    N1 3733   2.690   1.123  15.858 -0.0268 -0.3626  0.1353
  242MPD1    H6 3734   2.611   1.139  15.796 -0.7485 -1.4417  0.7755
  242MPD1    H7 3735   2.667   1.134  15.957 -0.5143  1.3479 -0.1640
  243MPD1     C 3736   2.846   4.375  17.323  0.9604 -0.3775  0.2562
  243MPD1    C1 3737   2.910   4.269  17.383  0.0527  0.1418 -0.6058
  243MPD1    C2 3738   3.038   4.299  17.426  0.0684 -0.0429  0.2311
  243MPD1    C3 3739   3.099   4.420  17.393  0.2763  0.6742  0.2041
  243MPD1    C4 3740   3.032   4.523  17.328 -0.3346  0.1269  0.0525
  243MPD1    C5 3741   2.906   4.500  17.292  0.0839 -0.2852 -0.4829
  243MPD1     H 3742   3.095   4.230  17.487  0.4898 -2.1007 -2.4970
  243MPD1    H1 3743   3.080   4.617  17.300  1.2092 -1.0164 -1.1646
  243MPD1    H2 3744   2.741   4.371  17.297  1.7187  1.6722 -2.9934
  243MPD1    H3 3745   2.851   4.572  17.232 -0.6398 -1.2032 -0.9183
  243MPD1     N 3746   3.234   4.423  17.432 -0.0894 -0.0294 -0.4934
  243MPD1    H5 3747   3.270   4.338  17.476 -1.8148  1.0358  2.9286
  243MPD1    N1 3748   2.834   4.159  17.420 -0.0056 -0.0734 -0.3219
  243MPD1    H6 3749   2.888   4.075  17.440  0.7166 -0.2182 -2.9578
  243MPD1    H7 3750   2.780   4.132  17.339  0.6405  0.8490 -1.0693
  244MPD1     C 3751   4.065   4.070   0.097 -0.7302 -0.0912 -0.8766
  244MPD1    C1 3752   4.048   4.189   0.173  0.5759 -0.0303  0.1662
  244MPD1    C2 3753   3.958   4.276   0.116 -0.3539 -0.1703 -0.1049
  244MPD1    C3 3754   3.869   4.241   0.021 -0.6788 -1.0466  0.1654
  244MPD1    C4 3755   3.873   4.118  17.717  0.7566 -0.3315  0.2818
  244MPD1    C5 3756   3.978   4.041  17.751 -0.2029 -0.8056 -0.2314
  244MPD1     H 3757   3.947   4.371   0.167 -2.0594 -0.5636  0.2596
  244MPD1    H1 3758   3.813   4.077  17.637  0.9329  0.5140 -0.2848
  244MPD1    H2 3759   4.140   3.996   0.122 -0.1024  0.5322 -0.8968
  244MPD1    H3 3760   3.996   3.943  17.707  1.9655 -0.9481  0.9681
  244MPD1     N 3761   3.774   4.338  17.732  0.1859 -0.1484  0.2668
  244MPD1    H5 3762   3.787   4.431   0.014 -1.8488 -0.4380  1.6590
  244MPD1    N1 3763   4.154   4.230   0.259 -0.3161  0.5815  0.0951
  244MPD1    H6 3764   4.197   4.161   0.320  0.4630  1.1555  0.2049
  244MPD1    H7 3765   4.143   4.312   0.318 -2.9830  0.9769 -0.9519
  245MPD1     C 3766   1.878   0.221  13.254 -0.4410 -0.0140  0.3457
  245MPD1    C1 3767   1.918   0.201  13.383  0.2298 -0.3068  0.3302
  245MPD1    C2 3768   1.951   0.317  13.450  1.0217 -0.7707 -0.1038
  245MPD1    C3 3769   1.945   0.441  13.388 -0.0826 -0.0477 -0.9095
  245MPD1    C4 3770   1.908   0.451  13.256  0.3004 -0.2858 -0.4591
  245MPD1    C5 3771   1.879   0.339  13.192  0.2440  0.1195 -0.0589
  245MPD1     H 3772   1.970   0.313  13.556  0.1401 -1.8571  0.0238
  245MPD1    H1 3773   1.900   0.542  13.197 -0.2637  0.7055  1.1686
  245MPD1    H2 3774   1.830   0.143  13.195  0.5840 -2.4335  2.7251
  245MPD1    H3 3775   1.839   0.338  13.091  0.9455 -0.4162 -0.3289
  245MPD1     N 3776   1.969   0.566  13.462 -0.0725 -0.1317 -0.1249
  245MPD1    H5 3777   1.999   0.547  13.557 -0.1768 -1.7130 -0.3984
  245MPD1    N1 3778   1.895   0.085  13.462  0.5645 -0.4671 -0.5592
  245MPD1    H6 3779   1.920   4.735  13.421  0.3744 -0.2554 -1.1347
  245MPD1    H7 3780   1.940   0.084  13.554  0.3579 -2.1245 -0.4731
  246MPD1     C 3781   3.331   2.732  10.313  0.0734 -0.2116  0.0656
  246MPD1    C1 3782   3.328   2.613  10.371  0.5979 -0.1696  0.4383
  246MPD1    C2 3783   3.213   2.542  10.372  0.0937  0.6421  0.2251
  246MPD1    C3 3784   3.108   2.582  10.293  0.2302  0.2683  0.5002
  246MPD1    C4 3785   3.109   2.703  10.223 -0.2946 -0.1767  0.2913
  246MPD1    C5 3786   3.221   2.778  10.243 -0.3297  0.0305 -0.2205
  246MPD1     H 3787   3.198   2.452  10.429 -1.3664  1.0316  0.4517
  246MPD1    H1 3788   3.035   2.755  10.163  0.0123 -0.8894 -0.6906
  246MPD1    H2 3789   3.419   2.794  10.308  0.3735 -0.5042  1.8205
  246MPD1    H3 3790   3.229   2.871  10.188 -0.4983  0.7908  1.0198
  246MPD1     N 3791   2.997   2.499  10.299  0.3785 -0.1511  0.5980
  246MPD1    H5 3792   3.002   2.413  10.353 -1.3071 -0.0729  0.8854
  246MPD1    N1 3793   3.436   2.563  10.450  0.1616 -0.2511  0.3079
  246MPD1    H6 3794   3.441   2.461  10.447 -1.5132 -0.3566  1.4669
  246MPD1    H7 3795   3.524   2.595  10.410  0.6106 -2.0300 -0.1726
  247MPD1     C 3796   1.016   1.555  16.432  0.1632 -0.3004  0.1784
  247MPD1    C1 3797   1.054   1.452  16.509 -0.3860  0.3865  0.1745
  247MPD1    C2 3798   1.033   1.322  16.458 -0.2878 -0.1652 -0.4008
  247MPD1    C3 3799   1.000   1.309  16.325 -0.2425  0.1075  0.7071
  247MPD1    C4 3800   0.994   1.417  16.241  0.3346  0.2398  0.9538
  247MPD1    C5 3801   0.983   1.542  16.299 -0.3086 -0.3984 -0.2707
  247MPD1     H 3802   1.043   1.237  16.524  4.4861 -0.4617 -1.5571
  247MPD1    H1 3803   0.976   1.394  16.136  0.6290  1.5223  0.6294
  247MPD1    H2 3804   1.009   1.656  16.472 -0.0412 -0.7090  1.1785
  247MPD1    H3 3805   0.960   1.634  16.248  0.9574  0.1818  0.1964
  247MPD1     N 3806   0.975   1.177  16.267 -0.3020 -0.6376 -0.0633
  247MPD1    H5 3807   0.948   1.173  16.170 -1.9268 -0.7501  0.3970
  247MPD1    N1 3808   1.078   1.468  16.645  0.4418  0.2823  0.0528
  247MPD1    H6 3809   1.138   1.547  16.666  3.0248 -2.0957  1.5034
  247MPD1    H7 3810   1.122   1.384  16.681  0.6939 -0.2638 -1.5297
  248MPD1     C 3811   1.392   4.707  17.621 -0.2806 -0.2427 -0.0844
  248MPD1    C1 3812   1.260   4.672  17.662  0.4459 -0.1089  0.0681
  248MPD1    C2 3813   1.225   4.682   0.043 -0.1164  0.0565  0.0743
  248MPD1    C3 3814   1.309   4.739   0.133 -0.2887 -0.3477  0.7505
  248MPD1    C4 3815   1.434   0.043   0.092 -0.0905 -0.1619  0.7768
  248MPD1    C5 3816   1.471   0.031  17.716  0.1721  0.3631 -0.5019
  248MPD1     H 3817   1.124   4.664   0.076 -0.6411  0.0431 -1.5523
  248MPD1    H1 3818   1.501   0.091   0.162 -1.0059 -0.8628  2.1335
  248MPD1    H2 3819   1.429   4.701  17.520 -1.0040  0.2870 -0.3898
  248MPD1    H3 3820   1.569   0.059  17.678  0.4242 -1.6855 -1.3663
  248MPD1     N 3821   1.258   0.027   0.262  0.2462  0.0948  0.1111
  248MPD1    H5 3822   1.163   0.003   0.288  0.8924 -1.8079  0.7240
  248MPD1    N1 3823   1.183   4.605  17.573  0.3090  0.5240 -0.2378
  248MPD1    H6 3824   1.212   4.637  17.481 -0.5794  0.1057 -0.6586
  248MPD1    H7 3825   1.089   4.636  17.595  1.2858  3.1047  0.3462
  249MPD1     C 3826   2.846   3.891   9.610  0.2149 -1.2758 -0.3713
  249MPD1    C1 3827   2.863   3.985   9.514 -0.7814 -0.3917 -0.3017
  249MPD1    C2 3828   2.953   4.084   9.537 -0.0175 -0.3989  0.0055
  249MPD1    C3 3829   3.013   4.097   9.662  0.6798  0.0392  0.1714
  249MPD1    C4 3830   2.991   4.001   9.762  0.1729  0.0467 -0.6015
  249MPD1    C5 3831   2.905   3.904   9.730 -0.9398  0.3203 -0.2085
  249MPD1     H 3832   2.977   4.151   9.455 -0.0186 -1.6824 -1.0508
  249MPD1    H1 3833   3.023   4.007   9.865 -1.4939  1.2279 -0.1472
  249MPD1    H2 3834   2.781   3.805   9.599 -2.9255  1.0264  0.0868
  249MPD1    H3 3835   2.894   3.827   9.806  0.5488 -2.4582 -2.7814
  249MPD1     N 3836   3.095   4.213   9.689 -0.0151  0.7329  0.4662
  249MPD1    H5 3837   3.120   4.261   9.603  0.8159 -1.3325 -0.4443
  249MPD1    N1 3838   2.812   3.964   9.386 -0.0576  0.1132  0.1554
  249MPD1    H6 3839   2.769   4.044   9.342 -0.1690  0.8900  1.6671
  249MPD1    H7 3840   2.747   3.887   9.370 -0.6870  0.8854 -0.9654
  250MPD2     C 3841   0.540   4.299  12.567 -0.4195  0.6147 -0.1803
  250MPD2    C1 3842   0.418   4.328  12.506  0.3014 -0.0316  0.3589
  250MPD2    C2 3843   0.321   4.231  12.488  0.0869  0.0442  0.1206
  250MPD2    C3 3844   0.346   4.104  12.539  0.3457 -0.4491 -0.1490
  250MPD2    C4 3845   0.468   4.078  12.601 -0.5958 -0.3299  0.8769
  250MPD2    C5 3846   0.561   4.175  12.614 -0.5703 -0.1756  0.0706
  250MPD2     H 3847   0.233   4.240  12.424 -0.2464  1.0861  0.7383
  250MPD2    H1 3848   0.498   3.982  12.641 -1.9690 -1.0924  0.0796
  250MPD2    H2 3849   0.617   4.375  12.574 -0.9824  1.0163  1.5998
  250MPD2    H3 3850   0.657   4.148  12.657  1.5955  2.5043 -3.1707
  250MPD2     N 3851   0.250   4.000  12.534 -0.3280 -0.4978 -0.1916
  250MPD2    H5 3852   0.275   3.913  12.580 -0.4970 -1.3810 -1.7668
  250MPD2    N1 3853   0.413   4.468  12.483  0.2126  0.2516 -0.3527
  250MPD2    H7 3854   0.486   4.534  12.508 -0.4589  1.2208 -0.9813
  251TMC3    C1 3855   0.306   4.670  12.432 -0.4039  0.4714 -0.3835
  251TMC3    C2 3856   0.211   4.719  12.512 -0.6019  0.5549 -0.2235
  251TMC3    C3 3857   0.237   0.072  12.610 -0.3379  0.2729 -0.8794
  251TMC3    C4 3858   0.430   4.712  12.451  0.2696 -0.3605  0.0867
  251TMC3    C5 3859   0.461   0.058  12.553 -0.1208  0.6128 -0.5618
  251TMC3    C6 3860   0.366   0.109  12.638  0.0568 -0.4369  0.2935
  251TMC3     C 3861   0.299   4.518  12.429 -0.4675  1.3576  0.2765
  251TMC3     O 3862   0.191   4.468  12.395 -0.3126  0.5189  0.8081
  251TMC3     H 3863   0.111   4.679  12.504 -0.0615 -1.0478  1.0887
  251TMC3    H1 3864   0.506   4.687  12.377  0.2446 -0.3446  0.0559
  251TMC3    H2 3865   0.385   0.181  12.717 -0.7078 -0.0672  0.1362
  251TMC3    C7 3866   0.578   0.013  12.620 -0.5956 -0.1489  0.1062
  251TMC3    C8 3867   0.134   0.110  12.700  0.0248 -0.1640  0.2562
  251TMC3    O1 3868   0.618   4.640  12.592  0.2833 -0.6591  0.0482
  251TMC3    O2 3869   0.043   0.032  12.709 -0.1564 -0.0153 -0.6237
  252TMC3    C1 3870   0.326   1.543   9.402  0.2957  0.0037 -0.2674
  252TMC3    C2 3871   0.456   1.533   9.431  0.3991 -0.5157  0.0821
  252TMC3    C3 3872   0.495   1.420   9.497 -0.7295  0.0220 -0.4998
  252TMC3    C4 3873   0.229   1.453   9.440 -0.1690 -0.3507 -0.0373
  252TMC3    C5 3874   0.271   1.333   9.498  0.4701 -0.3745  0.4097
  252TMC3    C6 3875   0.406   1.320   9.532 -0.1374  0.0531 -0.7167
  252TMC3     C 3876   0.303   1.635   9.291  0.1841 -0.8732  0.1551
  252TMC3     O 3877   0.404   1.675   9.232 -0.2596  0.3679 -0.2922
  252TMC3     H 3878   0.521   1.619   9.419  0.3672 -0.7682 -1.9591
  252TMC3    H1 3879   0.124   1.467   9.419 -0.0971  1.1535  0.6008
  252TMC3    H2 3880   0.435   1.239   9.598  1.5940  1.2051 -0.0645
  252TMC3    C7 3881   0.171   1.228   9.508  0.0959 -0.0034 -0.0814
  252TMC3    C8 3882   0.637   1.399   9.511 -0.2013  0.9980 -0.1049
  252TMC3    O1 3883   0.061   1.245   9.457  0.4802  0.3424  0.5590
  252TMC3    O2 3884   0.711   1.500   9.520  0.1748 -0.0834 -0.1347
  253MPD2     C 3885   1.183   4.220  15.847  0.6112 -0.3227 -0.1904
  253MPD2    C1 3886   1.072   4.159  15.783  0.0150  0.2222 -0.4154
  253MPD2    C2 3887   0.997   4.065  15.860  0.1143 -0.0264 -0.6310
  253MPD2    C3 3888   1.039   4.038  15.994  0.4289  0.7309 -0.3178
  253MPD2    C4 3889   1.149   4.104  16.053 -0.5254  0.0121  0.1418
  253MPD2    C5 3890   1.221   4.192  15.978  0.5320  0.3957 -0.0597
  253MPD2     H 3891   0.918   4.016  15.805  0.7149 -1.2913 -0.3651
  253MPD2    H1 3892   1.180   4.098  16.156  0.0796 -1.7629 -0.1546
  253MPD2    H2 3893   1.242   4.296  15.798 -0.5562  2.8031  3.2291
  253MPD2    H3 3894   1.294   4.252  16.030  2.9158 -1.0853 -1.6701
  253MPD2     N 3895   0.982   3.943  16.074 -0.0442  0.2695 -0.1659
  253MPD2    H5 3896   1.013   3.940  16.170  0.1159 -2.1457 -0.3020
  253MPD2    N1 3897   1.025   4.181  15.650  0.4267 -0.1313  0.0105
  253MPD2    H7 3898   0.939   4.137  15.619  0.1125  0.0855  0.5803
  254TMC3    C1 3899   0.830   3.762  16.133 -0.3401  0.4031 -0.3957
  254TMC3    C2 3900   0.706   3.714  16.114  0.2030  0.2520  0.2920
  254TMC3    C3 3901   0.644   3.644  16.212 -0.1184  0.3472  0.0597
  254TMC3    C4 3902   0.905   3.734  16.247 -0.5835 -0.0838 -0.9365
  254TMC3    C5 3903   0.836   3.658  16.341 -0.4261  0.4661  0.3085
  254TMC3    C6 3904   0.706   3.610  16.325  0.1017 -0.0031 -0.4410
  254TMC3     C 3905   0.878   3.860  16.032  0.6096 -0.1382  0.2360
  254TMC3     O 3906   0.819   3.843  15.926  0.4027  0.2224  0.1363
  254TMC3     H 3907   0.653   3.750  16.027 -2.1534 -0.9947  1.2215
  254TMC3    H1 3908   1.011   3.757  16.253 -1.0324  2.1878 -1.5127
  254TMC3    H2 3909   0.656   3.551  16.400  1.8065  1.6384  2.0029
  254TMC3    C7 3910   0.906   3.623  16.462  0.3220 -0.7153  0.0249
  254TMC3    C8 3911   0.506   3.670  16.239 -0.5274 -0.5477  0.3639
  254TMC3    O1 3912   0.858   3.529  16.529 -0.1064 -0.2297  0.2687
  254TMC3    O2 3913   0.451   3.648  16.344 -0.4482  0.3321  0.4078
  255MPD2     C 3914   4.502   2.514  10.736  0.0023 -0.0803 -0.2106
  255MPD2    C1 3915   4.393   2.448  10.685 -0.0596  0.0514 -0.1765
  255MPD2    C2 3916   4.410   2.311  10.661  0.7256  0.0470  0.4960
  255MPD2    C3 3917   4.527   2.242  10.681 -0.2239 -0.5180 -0.7027
  255MPD2    C4 3918   4.639   2.317  10.721 -0.4923  0.1754  0.0706
  255MPD2    C5 3919   4.620   2.450  10.756  0.2138  0.4328 -0.5442
  255MPD2     H 3920   4.324   2.266  10.614  1.6330 -1.3361  0.1793
  255MPD2    H1 3921   4.737   2.272  10.732 -0.4365  0.1029 -0.7195
  255MPD2    H2 3922   4.504   2.622  10.748 -1.8174 -0.1282  0.5985
  255MPD2    H3 3923   4.711   2.492  10.797  0.7345 -2.6543  1.4611
  255MPD2     N 3924   4.546   2.111  10.641  0.1478 -0.3456 -0.0928
  255MPD2    H5 3925   4.639   2.071  10.641 -0.0156 -0.7355 -1.0088
  255MPD2    N1 3926   4.280   2.512  10.644  0.1078  0.2512 -0.5304
  255MPD2    H7 3927   4.209   2.454  10.599 -0.8630  0.4831  0.6972
  256TMC3    C1 3928   4.119   2.675  10.632 -0.0027  0.7086  0.7239
  256TMC3    C2 3929   4.091   2.787  10.566  0.2100 -0.2139 -0.1888
  256TMC3    C3 3930   3.960   2.811  10.549 -0.2226  0.2634 -0.1398
  256TMC3    C4 3931   4.027   2.581  10.678  0.8765  0.6717  0.2160
  256TMC3    C5 3932   3.894   2.617  10.652  0.2949 -1.2685  0.4369
  256TMC3    C6 3933   3.857   2.729  10.588 -0.1436 -0.1711  0.2071
  256TMC3     C 3934   4.256   2.644  10.673  0.2244  0.4868 -1.3038
  256TMC3     O 3935   4.332   2.737  10.701 -0.4950 -0.0582 -0.0863
  256TMC3     H 3936   4.172   2.847  10.526 -0.6870  0.7136 -0.6278
  256TMC3    H1 3937   4.054   2.492  10.732 -1.4477 -0.4309 -0.4483
  256TMC3    H2 3938   3.752   2.752  10.571  0.4484  2.1660 -0.1668
  256TMC3    C7 3939   3.802   2.511  10.647  0.3514 -0.1854  0.4620
  256TMC3    C8 3940   3.912   2.937  10.495  0.3938  0.3547  0.4799
  256TMC3    O1 3941   3.711   2.521  10.568  0.3901  0.3701  0.0496
  256TMC3    O2 3942   3.808   2.981  10.538 -0.3894 -0.2338  0.8152
  257MPD2     C 3943   3.797   4.305  13.293 -0.8552 -0.5333 -0.2356
  257MPD2    C1 3944   3.735   4.226  13.202 -0.2850  0.5183  0.6771
  257MPD2    C2 3945   3.659   4.117  13.245  0.4126 -0.1891 -0.0625
  257MPD2    C3 3946   3.644   4.088  13.380 -0.1574  0.2453  0.0160
  257MPD2    C4 3947   3.714   4.162  13.476  0.7562  0.0154  0.1740
  257MPD2    C5 3948   3.784   4.271  13.428  0.3487 -0.0965 -0.4597
  257MPD2     H 3949   3.621   4.043  13.176  1.0115 -2.6537  2.2234
  257MPD2    H1 3950   3.710   4.133  13.580 -1.5880 -0.2929 -0.0061
  257MPD2    H2 3951   3.849   4.398  13.271  0.2229 -0.2525  3.4980
  257MPD2    H3 3952   3.833   4.336  13.499  0.2608 -1.3458  0.7406
  257MPD2     N 3953   3.558   3.977  13.410 -0.1361 -0.3666 -0.1426
  257MPD2    H5 3954   3.504   3.935  13.336 -1.9131  0.9284  0.4211
  257MPD2    N1 3955   3.760   4.249  13.065 -0.9500  0.0650  0.6168
  257MPD2    H7 3956   3.836   4.313  13.043  0.4939 -1.7238  0.4032
  258TMC3    C1 3957   3.456   3.810  13.551  0.2302 -0.6454  0.7541
  258TMC3    C2 3958   3.368   3.780  13.453 -0.4735 -0.2324  0.2868
  258TMC3    C3 3959   3.307   3.656  13.450  0.1587 -0.1082 -0.5376
  258TMC3    C4 3960   3.476   3.720  13.646  0.1538  0.2218  0.2003
  258TMC3    C5 3961   3.411   3.601  13.643 -0.6866  0.1107  0.2567
  258TMC3    C6 3962   3.320   3.561  13.547  0.0471  0.3075  0.2254
  258TMC3     C 3963   3.544   3.927  13.540  0.0790 -0.2128  0.0389
  258TMC3     O 3964   3.611   3.956  13.641 -0.1857  0.1765 -0.2022
  258TMC3     H 3965   3.342   3.856  13.381 -0.6773  0.4139  1.0488
  258TMC3    H1 3966   3.543   3.742  13.728  1.1212  0.9820 -0.7934
  258TMC3    H2 3967   3.263   3.469  13.548 -0.4419  0.6116  0.5833
  258TMC3    C7 3968   3.474   3.503  13.732  0.4578  0.0220  0.4939
  258TMC3    C8 3969   3.190   3.642  13.360 -1.0819 -0.4300  0.5295
  258TMC3    O1 3970   3.574   3.539  13.792 -0.1707 -0.2454  0.2965
  258TMC3    O2 3971   3.104   3.564  13.402 -0.2790 -0.3802  0.2860
  259MPD2     C 3972   1.379   0.730   0.707  0.3203  0.4560 -0.2352
  259MPD2    C1 3973   1.510   0.740   0.668  0.8091 -0.5764  0.1685
  259MPD2    C2 3974   1.540   0.757   0.535  0.5283 -0.7463  0.0181
  259MPD2    C3 3975   1.435   0.749   0.440 -0.3159 -0.1382  0.0235
  259MPD2    C4 3976   1.298   0.735   0.484 -0.2671 -0.9197 -0.2228
  259MPD2    C5 3977   1.272   0.728   0.616 -0.6391  0.3604 -0.0920
  259MPD2     H 3978   1.637   0.773   0.492 -0.3245 -0.8225 -1.9200
  259MPD2    H1 3979   1.216   0.733   0.414  1.6294  1.2054 -2.5017
  259MPD2    H2 3980   1.360   0.727   0.814  0.5717  0.4347 -0.1907
  259MPD2    H3 3981   1.166   0.719   0.640 -0.2942  0.1871  1.3802
  259MPD2     N 3982   1.474   0.753   0.304  0.0259 -0.4022 -0.7335
  259MPD2    H5 3983   1.574   0.763   0.288 -0.1230  2.4936 -0.0035
  259MPD2    N1 3984   1.604   0.724   0.763  0.2012  0.2650  0.3805
  259MPD2    H7 3985   1.573   0.712   0.858 -1.4986  3.0159  0.1657
  260TMC3    C1 3986   1.474   0.795   0.074 -0.1337 -0.3453  0.3006
  260TMC3    C2 3987   1.571   0.889   0.089  0.3652 -0.2008 -0.1730
  260TMC3    C3 3988   1.638   0.941  17.738 -0.0622  0.1009  0.2841
  260TMC3    C4 3989   1.450   0.741  17.702 -0.1244  0.9127 -0.0820
  260TMC3    C5 3990   1.533   0.776  17.601 -0.1092  0.2809 -0.5149
  260TMC3    C6 3991   1.618   0.888  17.614 -0.0315  0.2103 -0.3788
  260TMC3     C 3992   1.395   0.756   0.191 -0.8803 -0.2257  0.2381
  260TMC3     O 3993   1.275   0.751   0.182 -0.1688  0.2746  0.5396
  260TMC3     H 3994   1.603   0.909   0.190  0.6496  0.2364 -0.3535
  260TMC3    H1 3995   1.391   0.650  17.690 -0.0068  0.7163  0.8224
  260TMC3    H2 3996   1.678   0.932  17.535  0.2317  0.3995 -0.0751
  260TMC3    C7 3997   1.583   0.670  17.526  0.2716 -0.2498  0.3049
  260TMC3    C8 3998   1.779   0.983   0.016 -0.1601  0.3433  0.1697
  260TMC3    O1 3999   1.532   0.560  17.544 -0.1375 -0.1197 -0.0843
  260TMC3    O2 4000   1.799   1.062   0.107  0.1290 -0.1309  0.0457
  261MPD2     C 4001   4.175   3.903  12.603  0.6139  0.3706  0.0684
  261MPD2    C1 4002   4.268   3.941  12.509  0.0588  0.2408  0.3538
  261MPD2    C2 4003   4.234   4.048  12.429  0.1562  0.8166  0.5385
  261MPD2    C3 4004   4.102   4.095  12.419  0.0490 -0.1079  0.0282
  261MPD2    C4 4005   4.003   4.034  12.504  0.0430 -0.6588  1.0859
  261MPD2    C5 4006   4.046   3.944  12.601 -0.0073 -0.1835  0.2267
  261MPD2     H 4007   4.316   4.099  12.379  1.5647 -0.7938  1.1841
  261MPD2    H1 4008   3.901   4.071  12.499  0.3084 -0.3734 -1.8428
  261MPD2    H2 4009   4.200   3.825  12.674  1.8401 -0.0699 -0.8408
  261MPD2    H3 4010   3.972   3.907  12.671 -0.3682 -1.5071 -0.8338
  261MPD2     N 4011   4.064   4.191  12.320  0.2589  0.6962  0.5019
  261MPD2    H5 4012   4.143   4.212  12.260  0.0811  0.4790  0.1929
  261MPD2    N1 4013   4.402   3.885  12.503  0.0935 -0.2862  0.7394
  261MPD2    H7 4014   4.465   3.940  12.445 -0.6074 -0.2356  0.0193
  262TMC3    C1 4015   3.949   4.337  12.185  0.1256  0.4728 -0.3689
  262TMC3    C2 4016   3.895   4.462  12.220 -0.0112 -0.2699  0.3391
  262TMC3    C3 4017   3.948   4.560  12.130 -0.1559 -0.2983 -0.4429
  262TMC3    C4 4018   4.027   4.299  12.079  0.1417  0.0984 -0.3736
  262TMC3    C5 4019   4.054   4.393  11.987  0.0636 -0.0380  0.0291
  262TMC3    C6 4020   4.025   4.524  12.013 -0.3319  0.0937 -0.2801
  262TMC3     C 4021   3.935   4.241  12.290 -1.1237  0.4892 -0.0046
  262TMC3     O 4022   3.824   4.227  12.343  0.7089  0.1887  0.9652
  262TMC3     H 4023   3.828   4.484  12.302  0.3893  3.5285 -0.3817
  262TMC3    H1 4024   4.044   4.193  12.069 -1.7692 -0.1298 -1.1399
  262TMC3    H2 4025   4.056   4.594  11.936  0.3770 -0.2172 -0.2762
  262TMC3    C7 4026   4.121   4.339  11.862 -0.5918 -0.7319 -0.4827
  262TMC3    C8 4027   3.940   4.699  12.150  0.5248  0.4816  0.3551
  262TMC3    O1 4028   4.160   4.222  11.868 -0.4581  0.8462 -0.0607
  262TMC3    O2 4029   4.022   0.033  12.102  0.8326  0.4126  0.1248
  263MPD2     C 4030   0.630   3.337  11.770 -0.0129 -0.3099 -0.5402
  263MPD2    C1 4031   0.692   3.264  11.667 -0.1683  0.0464  0.1972
  263MPD2    C2 4032   0.657   3.279  11.538  0.0768 -0.2893  0.6250
  263MPD2    C3 4033   0.563   3.377  11.501 -0.0428  0.3869  0.3510
  263MPD2    C4 4034   0.498   3.442  11.607 -0.2368 -0.4432  0.5823
  263MPD2    C5 4035   0.534   3.427  11.735  0.1333  0.2828  0.9845
  263MPD2     H 4036   0.708   3.220  11.462  0.9340  0.6635  0.4621
  263MPD2    H1 4037   0.423   3.520  11.594  1.1048  0.8842  0.8479
  263MPD2    H2 4038   0.652   3.319  11.874  1.6900 -1.1610 -1.0292
  263MPD2    H3 4039   0.486   3.489  11.810  1.4513  1.8677  0.5080
  263MPD2     N 4040   0.535   3.385  11.361  0.5717 -0.2431  0.1157
  263MPD2    H5 4041   0.593   3.334  11.294  2.4184  0.4713  1.1720
  263MPD2    N1 4042   0.787   3.164  11.712  0.3539  0.3898  0.6879
  263MPD2    H7 4043   0.812   3.147  11.809 -1.2657  0.4922  1.1125
  264TMC3    C1 4044   0.434   3.508  11.182  0.3943  0.0819  0.1312
  264TMC3    C2 4045   0.403   3.639  11.172 -0.0409  0.0412 -1.1318
  264TMC3    C3 4046   0.354   3.686  11.051  0.0947  0.2833  0.4577
  264TMC3    C4 4047   0.439   3.421  11.072  1.1187 -0.1755  0.1806
  264TMC3    C5 4048   0.400   3.479  10.950 -0.0488  0.1330  0.1001
  264TMC3    C6 4049   0.345   3.604  10.942  0.0290 -0.3323 -0.3796
  264TMC3     C 4050   0.426   3.460  11.317 -0.2126 -0.6258 -0.5574
  264TMC3     O 4051   0.334   3.508  11.379 -0.2923  0.2368 -0.5387
  264TMC3     H 4052   0.429   3.705  11.254  0.6104 -0.5350 -0.8812
  264TMC3    H1 4053   0.480   3.321  11.078 -0.2074 -0.9371 -3.0779
  264TMC3    H2 4054   0.286   3.631  10.855  0.9318  1.6774 -0.3599
  264TMC3    C7 4055   0.484   3.449  10.835  0.7714 -0.3497  1.0303
  264TMC3    C8 4056   0.413   3.811  11.009 -0.6195 -0.2712 -0.2494
  264TMC3    O1 4057   0.523   3.333  10.828  0.6032  0.3710  0.0919
  264TMC3    O2 4058   0.439   3.820  10.890  0.1162 -0.1027  0.1131
  265MPD2     C 4059   2.484   3.608  15.695 -0.1793 -0.1382  0.0789
  265MPD2    C1 4060   2.409   3.666  15.592 -0.0483  0.1713  0.0666
  265MPD2    C2 4061   2.401   3.601  15.476 -0.0355 -0.0085  0.1079
  265MPD2    C3 4062   2.475   3.483  15.460  0.2370  0.5392  0.1973
  265MPD2    C4 4063   2.544   3.429  15.568  0.2236 -0.2855 -0.0360
  265MPD2    C5 4064   2.539   3.483  15.685 -0.6173 -0.2936  0.9156
  265MPD2     H 4065   2.343   3.644  15.394 -0.4391  0.7356  0.7828
  265MPD2    H1 4066   2.594   3.334  15.563 -0.1948 -0.5218  0.2510
  265MPD2    H2 4067   2.472   3.646  15.796 -0.5817 -0.0102 -0.0172
  265MPD2    H3 4068   2.599   3.437  15.763  1.1790 -1.0920 -0.9250
  265MPD2     N 4069   2.495   3.418  15.339 -0.2344  0.0561  0.1997
  265MPD2    H5 4070   2.554   3.335  15.343  0.8926  0.7505 -1.5459
  265MPD2    N1 4071   2.348   3.794  15.608 -0.1706 -0.2667  1.4806
  265MPD2    H7 4072   2.290   3.832  15.534  0.4373  1.1097  1.7060
  266TMC3    C1 4073   2.304   4.014  15.700  0.0665 -0.2934 -0.5589
  266TMC3    C2 4074   2.359   4.122  15.761 -0.0260 -0.0879 -0.0264
  266TMC3    C3 4075   2.288   4.245  15.776  0.7818 -0.0238  0.4362
  266TMC3    C4 4076   2.170   4.021  15.668 -1.2085  0.1640  0.3639
  266TMC3    C5 4077   2.109   4.145  15.672  0.0845  0.1760 -1.0969
  266TMC3    C6 4078   2.164   4.257  15.727  0.4006 -0.5499 -0.1206
  266TMC3     C 4079   2.377   3.885  15.708 -0.3958  0.3807  0.2053
  266TMC3     O 4080   2.467   3.877  15.791 -0.1285 -0.3143 -0.3912
  266TMC3     H 4081   2.463   4.113  15.790 -0.5033 -1.4483  1.2763
  266TMC3    H1 4082   2.118   3.931  15.640 -1.3744  0.7347 -1.1308
  266TMC3    H2 4083   2.114   4.353  15.723  1.9539  0.3681  3.2112
  266TMC3    C7 4084   1.978   4.154  15.617  1.0276 -0.4354  0.2540
  266TMC3    C8 4085   2.373   4.363  15.776 -0.3676  0.8181 -0.5352
  266TMC3    O1 4086   1.899   4.223  15.678  0.6474  0.4855 -0.3185
  266TMC3    O2 4087   2.483   4.353  15.725 -0.1304 -0.3618 -0.8288
  267MPD2     C 4088   3.826   0.371   0.491 -0.1093 -0.1099 -0.3958
  267MPD2    C1 4089   3.918   0.475   0.505  0.2266  0.4703  0.4101
  267MPD2    C2 4090   3.875   0.597   0.457  0.0880 -0.0090  0.1466
  267MPD2    C3 4091   3.755   0.622   0.394  0.0703 -0.3349 -0.2219
  267MPD2    C4 4092   3.675   0.508   0.370  0.3440  0.4065  0.2785
  267MPD2    C5 4093   3.707   0.393   0.427 -0.0399  0.1445 -0.2295
  267MPD2     H 4094   3.946   0.676   0.474  1.3493 -1.0643 -0.2002
  267MPD2    H1 4095   3.582   0.521   0.316  0.2916 -0.3662  0.1929
  267MPD2    H2 4096   3.848   0.271   0.526  1.6255  0.1622 -0.6901
  267MPD2    H3 4097   3.629   0.320   0.412 -0.1002  0.5898 -2.0975
  267MPD2     N 4098   3.727   0.741   0.331  0.8155  0.0389  0.3196
  267MPD2    H5 4099   3.650   0.739   0.265 -0.0174  1.4504  1.2317
  267MPD2    N1 4100   4.047   0.442   0.547 -0.0672 -0.2381 -0.3017
  267MPD2    H7 4101   4.066   0.343   0.558 -1.0245 -0.4145 -0.2452
  268TMC3    C1 4102   4.273   0.436   0.539 -0.1344 -0.0960  0.5115
  268TMC3    C2 4103   4.372   0.466   0.446 -0.1698 -0.0655 -0.2700
  268TMC3    C3 4104   4.502   0.442   0.476  0.1240 -0.1768 -0.4215
  268TMC3    C4 4105   4.309   0.378   0.659  0.0409  0.5733  0.1816
  268TMC3    C5 4106   4.444   0.344   0.679 -0.3775 -0.4412 -0.1883
  268TMC3    C6 4107   4.537   0.379   0.588 -0.7626  0.0795 -0.2928
  268TMC3     C 4108   4.159   0.524   0.536  0.2441  0.0970  0.0894
  268TMC3     O 4109   4.176   0.640   0.500  0.0967  0.2464 -0.1567
  268TMC3     H 4110   4.336   0.508   0.353 -3.0594 -0.3825  0.7276
  268TMC3    H1 4111   4.232   0.362   0.733  1.4920 -1.9643  1.1569
  268TMC3    H2 4112   4.636   0.334   0.587  0.5659  3.0163  0.7904
  268TMC3    C7 4113   4.485   0.265   0.786 -0.7890  0.1317  0.6607
  268TMC3    C8 4114   4.608   0.499   0.391 -0.3069 -0.0704  0.3772
  268TMC3    O1 4115   4.590   0.206   0.772 -0.3446  0.0026  0.1297
  268TMC3    O2 4116   4.724   0.499   0.442 -0.4224  0.3225  0.3598
  269MPD2     C 4117   0.211   4.351  15.607 -0.1106  0.2600 -0.0005
  269MPD2    C1 4118   0.088   4.361  15.668  0.2291  0.3949 -0.2394
  269MPD2    C2 4119   0.040   4.482  15.709 -0.0379  0.4422  0.4613
  269MPD2    C3 4120   0.116   4.600  15.682  0.6647  0.4690 -0.7518
  269MPD2    C4 4121   0.234   4.587  15.608  0.7419 -0.2542  0.1247
  269MPD2    C5 4122   0.286   4.462  15.586  0.1340  0.0308 -0.2825
  269MPD2     H 4123   4.686   4.497  15.761  0.7315  0.6245  1.8007
  269MPD2    H1 4124   0.298   4.669  15.578  0.5161 -0.9468 -2.2628
  269MPD2    H2 4125   0.243   4.255  15.570 -1.2846 -0.3601  0.5993
  269MPD2    H3 4126   0.387   4.454  15.546 -0.4272  1.2150 -1.9452
  269MPD2     N 4127   0.066   4.730  15.712 -0.5581  0.0898 -0.5893
  269MPD2    H5 4128   4.722   4.732  15.769 -1.1913 -0.8141 -1.4966
  269MPD2    N1 4129   0.022   4.237  15.681 -0.6091 -0.0866  0.0900
  269MPD2    H7 4130   0.053   4.154  15.631  0.8176  0.5820 -0.1116
  270TMC3    C1 4131   4.582   4.080  15.719 -0.1177  0.2833  0.1303
  270TMC3    C2 4132   4.444   4.067  15.709 -0.2393  0.6772  0.4578
  270TMC3    C3 4133   4.389   3.951  15.656 -0.0824 -0.3951  0.1262
  270TMC3    C4 4134   4.674   3.984  15.691 -0.3482 -0.1989  0.0251
  270TMC3    C5 4135   4.613   3.865  15.648 -0.0871 -0.8704  0.2892
  270TMC3    C6 4136   4.478   3.843  15.633 -0.7695 -0.4928 -0.2503
  270TMC3     C 4137   4.635   4.219  15.725 -0.0434 -0.2711  1.0751
  270TMC3     O 4138   4.549   4.301  15.745 -0.1389  0.3146 -0.2758
  270TMC3     H 4139   4.388   4.155  15.737 -1.7447 -0.8687  2.2878
  270TMC3    H1 4140   0.041   3.996  15.704 -0.5281  1.2732  0.2191
  270TMC3    H2 4141   4.434   3.747  15.609  1.3949 -0.9986 -2.1670
  270TMC3    C7 4142   4.696   3.748  15.615  0.0548 -0.3857 -0.2419
  270TMC3    C8 4143   4.256   3.911  15.706 -0.2800  0.2017  0.0387
  270TMC3    O1 4144   0.069   3.729  15.660  0.3787 -0.1822  0.2177
  270TMC3    O2 4145   4.240   3.947  15.819  0.4590 -0.5427  0.6891
  271MPD2     C 4146   4.001   3.938  13.981  0.7578 -0.5195 -0.5477
  271MPD2    C1 4147   3.922   3.872  14.076 -1.0016  1.4695 -0.4679
  271MPD2    C2 4148   3.785   3.882  14.071 -0.0513 -0.3964 -0.0019
  271MPD2    C3 4149   3.722   3.947  13.972  0.2873  0.8883 -0.1283
  271MPD2    C4 4150   3.798   4.022  13.880  0.2694  0.7371  0.4366
  271MPD2    C5 4151   3.933   4.024  13.894 -0.0238 -0.1243  0.3878
  271MPD2     H 4152   3.730   3.820  14.141  0.2988 -1.6555 -0.8498
  271MPD2    H1 4153   3.753   4.086  13.805 -1.7329 -2.9560 -1.4646
  271MPD2    H2 4154   4.109   3.931  13.976  0.7038 -0.9505 -1.1359
  271MPD2    H3 4155   3.986   4.089  13.826 -1.3328 -0.2394 -0.7459
  271MPD2     N 4156   3.583   3.973  13.954  0.4810  0.0872 -0.0137
  271MPD2    H5 4157   3.563   4.029  13.872 -3.0682 -1.6329 -0.2968
  271MPD2    N1 4158   3.975   3.823  14.199 -0.4996 -0.1963  0.0136
  271MPD2    H7 4159   3.904   3.779  14.257  0.2633 -3.5234 -1.5492
  272TMC3    C1 4160   4.150   3.752  14.354 -0.6131 -0.1874 -0.1101
  272TMC3    C2 4161   4.284   3.731  14.369  0.1549 -0.0451  0.2735
  272TMC3    C3 4162   4.334   3.700  14.491  0.0726 -0.2660  0.2581
  272TMC3    C4 4163   4.080   3.786  14.464  0.4460 -0.2335  0.1247
  272TMC3    C5 4164   4.135   3.776  14.587 -0.1284 -0.2828  0.0847
  272TMC3    C6 4165   4.263   3.721  14.607  0.6231 -0.3251 -0.1534
  272TMC3     C 4166   4.115   3.807  14.223  0.2051 -0.6618 -0.4769
  272TMC3     O 4167   4.207   3.812  14.143 -0.5303 -0.2206 -0.3457
  272TMC3     H 4168   4.358   3.730  14.289  0.1897  0.0354  0.3041
  272TMC3    H1 4169   3.977   3.817  14.456  0.8518  1.5625  1.7648
  272TMC3    H2 4170   4.315   3.715  14.702 -0.1149  0.1413  0.2802
  272TMC3    C7 4171   4.067   3.822  14.702 -0.4701 -0.2738  0.0379
  272TMC3    C8 4172   4.485   3.684  14.491 -0.6486  0.0278 -0.0914
  272TMC3    O1 4173   3.942   3.815  14.712  0.4403  0.2439  0.8286
  272TMC3    O2 4174   4.559   3.686  14.390  0.1104 -0.1390  0.1870
  273MPD2     C 4175   0.619   2.265  12.188 -0.1396  0.2155 -0.2296
  273MPD2    C1 4176   0.729   2.209  12.118  0.1519 -0.6976 -0.0472
  273MPD2    C2 4177   0.710   2.148  12.002 -0.1885 -0.7950  0.5788
  273MPD2    C3 4178   0.586   2.145  11.932  0.5374 -0.1708  0.8692
  273MPD2    C4 4179   0.487   2.216  11.997  0.3270 -0.1055 -0.5379
  273MPD2    C5 4180   0.501   2.278  12.123  0.3886  0.8088  0.5054
  273MPD2     H 4181   0.796   2.102  11.956 -0.2652 -0.5862  0.2185
  273MPD2    H1 4182   0.386   2.218  11.957  1.6927  4.0712 -3.7803
  273MPD2    H2 4183   0.630   2.305  12.289 -0.0517  0.8027 -0.4749
  273MPD2    H3 4184   0.422   2.325  12.180 -2.8144 -1.6178 -1.9397
  273MPD2     N 4185   0.560   2.075  11.813  0.4233  0.7776 -0.0802
  273MPD2    H5 4186   0.474   2.093  11.763 -0.4065 -1.4449  0.5675
  273MPD2    N1 4187   0.855   2.207  12.182 -0.0340  0.0456  0.7011
  273MPD2    H7 4188   0.852   2.259  12.269  2.4064 -0.4987  1.1310
  274TMC3    C1 4189   0.631   1.972  11.611 -0.0390 -0.0184 -0.0934
  274TMC3    C2 4190   0.501   1.939  11.553  0.4954 -0.4709  0.1444
  274TMC3    C3 4191   0.484   1.940  11.418 -0.2343 -0.5358  0.3165
  274TMC3    C4 4192   0.729   2.010  11.516  0.1869  1.0565 -0.1309
  274TMC3    C5 4193   0.707   2.015  11.378  0.0544  0.5647 -0.0947
  274TMC3    C6 4194   0.582   1.983  11.334  0.6375  0.0314 -0.3336
  274TMC3     C 4195   0.656   1.999  11.747 -0.4240 -0.2352 -0.1648
  274TMC3     O 4196   0.767   1.961  11.787  0.4051  0.2855  0.4505
  274TMC3     H 4197   0.419   1.916  11.620 -0.3514  0.1978 -0.6656
  274TMC3    H1 4198   0.835   2.015  11.539  0.0263  1.0540  0.6257
  274TMC3    H2 4199   0.556   2.012  11.233 -0.4436 -0.0459 -0.0707
  274TMC3    C7 4200   0.780   2.120  11.304  0.0305  0.3476  0.7736
  274TMC3    C8 4201   0.344   1.927  11.368 -0.0565  0.0112  0.7756
  274TMC3    O1 4202   0.784   2.127  11.180 -0.0967  0.4695 -0.2570
  274TMC3    O2 4203   0.258   1.940  11.451 -0.2452 -0.2190 -0.6563
  275MPD2     C 4204   0.965   4.616  14.479 -0.6147 -0.3061 -0.4438
  275MPD2    C1 4205   0.888   4.728  14.473  0.8280 -0.7601 -0.1945
  275MPD2    C2 4206   0.754   4.721  14.436 -0.8193 -0.0284  0.3140
  275MPD2    C3 4207   0.698   4.593  14.406  0.2303  0.5363  0.3027
  275MPD2    C4 4208   0.782   4.487  14.394  0.6269  0.4467  0.1719
  275MPD2    C5 4209   0.917   4.495  14.429  0.4870  0.1144  0.4177
  275MPD2     H 4210   0.697   0.073  14.445  1.0362  1.1503 -0.0097
  275MPD2    H1 4211   0.756   4.391  14.351  0.2878  0.3442  0.5967
  275MPD2    H2 4212   1.071   4.629  14.498 -1.2775  1.6439  1.8143
  275MPD2    H3 4213   0.984   4.412  14.410 -1.8116 -1.5474 -0.3912
  275MPD2     N 4214   0.562   4.576  14.376  0.8638  0.6122 -0.7075
  275MPD2    H5 4215   0.525   4.488  14.340  0.9314 -0.0141  0.7583
  275MPD2    N1 4216   0.932   0.112  14.509 -0.0763 -0.0556  0.3812
  275MPD2    H7 4217   0.866   0.190  14.509  0.6949  0.6018  0.1953
  276TMC3    C1 4218   1.047   0.283  14.609 -0.4451 -0.1529  0.1301
  276TMC3    C2 4219   0.957   0.302  14.706  0.2451 -0.0902 -0.7046
  276TMC3    C3 4220   0.976   0.409  14.788  0.9456  0.4675  0.5369
  276TMC3    C4 4221   1.159   0.362  14.590 -0.5728  0.3252 -0.3925
  276TMC3    C5 4222   1.166   0.473  14.680 -0.3473 -0.2179 -0.3186
  276TMC3    C6 4223   1.076   0.494  14.778 -0.3764 -0.7402  0.4449
  276TMC3     C 4224   1.056   0.150  14.551 -0.2853 -0.7639  0.0837
  276TMC3     O 4225   1.164   0.100  14.543 -0.1076 -0.1080 -0.2651
  276TMC3     H 4226   0.882   0.226  14.722  2.2324 -1.5512  1.6320
  276TMC3    H1 4227   1.236   0.354  14.514 -0.2544  0.3302 -0.0715
  276TMC3    H2 4228   1.097   0.585  14.833  1.8885 -0.7395 -0.4282
  276TMC3    C7 4229   1.289   0.545  14.693 -0.5722 -0.7417 -0.1519
  276TMC3    C8 4230   0.925   0.388  14.922  0.9726 -0.2625  0.4267
  276TMC3    O1 4231   1.291   0.662  14.727 -0.3886 -0.0097  0.9604
  276TMC3    O2 4232   0.907   0.488  14.985  0.0430  0.1290  0.0596
  277MPD2     C 4233   2.503   4.044  13.248  0.0555  0.2268 -0.0025
  277MPD2    C1 4234   2.373   4.071  13.298 -0.0150  0.9916 -0.5403
  277MPD2    C2 4235   2.328   4.008  13.413  0.4024 -0.4204  0.8391
  277MPD2    C3 4236   2.412   3.932  13.488 -0.4435  0.2799  0.1994
  277MPD2    C4 4237   2.540   3.902  13.444  0.4829  0.7228 -0.7709
  277MPD2    C5 4238   2.577   3.964  13.322  0.8156  0.5827  0.2900
  277MPD2     H 4239   2.221   4.009  13.432  0.3085  2.1614  0.1518
  277MPD2    H1 4240   2.608   3.828  13.486  0.6134  2.1063  1.4783
  277MPD2    H2 4241   2.548   4.089  13.160  4.1224 -0.4143  1.7259
  277MPD2    H3 4242   2.673   3.927  13.289  1.4247  1.0152  1.5746
  277MPD2     N 4243   2.361   3.876  13.602 -0.4201 -0.0491  0.8149
  277MPD2    H5 4244   2.261   3.889  13.613 -0.1686  1.5764  1.1698
  277MPD2    N1 4245   2.290   4.161  13.227  0.2239 -0.1202 -0.3053
  277MPD2    H7 4246   2.338   4.203  13.148 -1.5513 -0.3051 -1.5010
  278TMC3    C1 4247   2.338   3.727  13.777 -0.0463  0.0447  0.0190
  278TMC3    C2 4248   2.360   3.593  13.785 -0.1016 -0.1529  0.1375
  278TMC3    C3 4249   2.259   3.517  13.832  0.3186  0.1300 -1.0575
  278TMC3    C4 4250   2.215   3.780  13.810 -0.1314 -0.5623  0.0694
  278TMC3    C5 4251   2.117   3.696  13.860 -0.6471 -0.3770  0.6465
  278TMC3    C6 4252   2.141   3.559  13.870 -0.6542 -0.2684 -0.2531
  278TMC3     C 4253   2.428   3.801  13.695  0.1974 -0.1702  0.1688
  278TMC3     O 4254   2.543   3.756  13.695 -0.2989  0.5004 -0.4827
  278TMC3     H 4255   2.442   3.549  13.731 -2.7897  0.8360 -4.7853
  278TMC3    H1 4256   2.188   3.885  13.810 -0.2705 -0.5956 -0.5322
  278TMC3    H2 4257   2.084   3.489  13.930 -1.6907  2.3984  1.8822
  278TMC3    C7 4258   1.988   3.740  13.913  0.3190  0.2252 -0.0199
  278TMC3    C8 4259   2.273   3.373  13.811 -0.7284  0.4458  0.2553
  278TMC3    O1 4260   1.988   3.866  13.929 -0.0619  0.3523  0.0814
  278TMC3    O2 4261   2.384   3.323  13.797  0.7517 -0.1058  0.1040
  279MPD2     C 4262   1.709   4.133   0.065  0.2671 -0.1672 -0.2803
  279MPD2    C1 4263   1.661   4.003   0.074  0.4440  0.3826  0.4532
  279MPD2    C2 4264   1.625   3.931  17.714  0.6899 -0.6796 -0.6880
  279MPD2    C3 4265   1.637   3.993  17.590 -0.4997 -0.3160 -0.5350
  279MPD2    C4 4266   1.689   4.121  17.584 -0.9488  0.1581  0.0899
  279MPD2    C5 4267   1.732   4.194  17.692  1.1032  0.1284 -0.3199
  279MPD2     H 4268   1.589   3.829  17.723 -0.7703 -0.1020 -0.0609
  279MPD2    H1 4269   1.704   4.170  17.489 -0.6252 -0.0025  0.0589
  279MPD2    H2 4270   1.746   4.183   0.153 -1.1272  3.9544 -2.0429
  279MPD2    H3 4271   1.757   4.299  17.687  1.9497 -0.0350  0.3732
  279MPD2     N 4272   1.579   3.936  17.476  0.1112 -0.4351 -0.6777
  279MPD2    H5 4273   1.612   3.973  17.388 -1.9679  1.4226 -0.6414
  279MPD2    N1 4274   1.633   3.945   0.202 -0.4576 -0.1006 -0.3863
  279MPD2    H7 4275   1.621   4.001   0.286  2.3586 -1.8420  1.1581
  280TMC3    C1 4276   1.484   3.799   0.309  0.5685  0.1478 -0.1366
  280TMC3    C2 4277   1.447   3.670   0.340 -0.4098  0.4415  0.6776
  280TMC3    C3 4278   1.312   3.644   0.368 -0.2659  0.2671 -0.8595
  280TMC3    C4 4279   1.390   3.897   0.307  0.4086  0.4960 -0.0032
  280TMC3    C5 4280   1.259   3.870   0.332 -0.4250  0.6373  0.0238
  280TMC3    C6 4281   1.220   3.741   0.358  0.5625 -0.2750  0.2304
  280TMC3     C 4282   1.592   3.813   0.217  0.2311 -0.0607 -0.3211
  280TMC3     O 4283   1.643   3.708   0.169  0.3216 -0.3022  0.1650
  280TMC3     H 4284   1.520   3.590   0.339  1.2487  2.0000 -2.5425
  280TMC3    H1 4285   1.412   4.001   0.285 -0.1255  0.8285  1.0299
  280TMC3    H2 4286   1.115   3.716   0.361  0.2055  1.1791 -0.0657
  280TMC3    C7 4287   1.159   3.974   0.336 -0.3351 -0.6746 -0.9107
  280TMC3    C8 4288   1.272   3.504   0.372 -0.2096  0.3916  0.4679
  280TMC3    O1 4289   1.181   4.074   0.270 -0.0352 -0.6442 -0.4938
  280TMC3    O2 4290   1.169   3.480   0.317 -0.7542  0.7709  0.0185
  281TMC3    C1 4291   0.594   4.219  13.272 -0.7409 -0.6476  0.5643
  281TMC3    C2 4292   0.665   4.318  13.213 -0.3075 -0.0535  0.2217
  281TMC3    C3 4293   0.724   4.294  13.091  0.2434 -0.5234  0.3697
  281TMC3    C4 4294   0.573   4.101  13.205 -0.1203 -0.1479  0.2006
  281TMC3    C5 4295   0.627   4.083  13.081  0.4472  0.1316  0.3648
  281TMC3    C6 4296   0.703   4.176  13.028 -0.3079 -0.7364 -0.3484
  281TMC3     C 4297   0.510   4.242  13.385  0.1405  0.2159 -0.1133
  281TMC3     O 4298   0.463   4.150  13.453  0.0556  0.4792  0.0510
  281TMC3     H 4299   0.702   4.405  13.266  0.3647  0.5317 -1.1940
  281TMC3    H1 4300   0.500   4.034  13.248  0.9259  0.2242  2.5165
  281TMC3    H2 4301   0.745   4.174  12.928  1.0268 -2.8228  0.2521
  281TMC3    C7 4302   0.654   3.946  13.044 -0.2987 -0.1700 -0.1513
  281TMC3    C8 4303   0.737   4.412  13.003  0.4783  0.1352 -0.1348
  281TMC3    O1 4304   0.745   3.929  12.963  0.1694  0.3105  0.3562
  281TMC3    O2 4305   0.718   4.394  12.879  0.3086 -0.1243 -0.6020
  282MPD2     C 4306   2.619   0.721  15.053  0.6212  0.9461  0.3219
  282MPD2    C1 4307   2.479   0.745  15.067 -0.4215 -0.3504  0.2741
  282MPD2    C2 4308   2.396   0.688  14.975 -0.1515 -0.0682  0.3190
  282MPD2    C3 4309   2.441   0.633  14.857 -0.4603 -0.4724 -0.6474
  282MPD2    C4 4310   2.576   0.608  14.845  0.4577 -0.1034  0.0702
  282MPD2    C5 4311   2.661   0.654  14.938  0.6539  0.2846 -0.6971
  282MPD2     H 4312   2.290   0.710  14.977  0.2240  1.3876  3.2931
  282MPD2    H1 4313   2.623   0.563  14.758  2.3941 -2.0158  2.0960
  282MPD2    H2 4314   2.693   0.758  15.123  2.1819 -0.5859 -0.5247
  282MPD2    H3 4315   2.768   0.642  14.930  0.3707 -1.8649 -1.1015
  282MPD2     N 4316   2.342   0.601  14.759 -1.0511  0.8330  0.4630
  282MPD2    H5 4317   2.245   0.597  14.790 -1.5217 -1.2956 -1.3251
  282MPD2    N1 4318   2.413   0.825  15.171  0.1451  0.2464  0.2453
  282MPD2    H7 4319   2.312   0.818  15.167  0.0921  1.2762 -0.0840
  283TMC3    C1 4320   2.400   0.957  15.376  0.2681 -0.7609 -0.3346
  283TMC3    C2 4321   2.446   1.062  15.460  0.0900  0.1533 -0.4229
  283TMC3    C3 4322   2.377   1.090  15.575  0.3174 -0.2950 -0.1433
  283TMC3    C4 4323   2.284   0.885  15.411 -0.0493 -0.5841  0.5099
  283TMC3    C5 4324   2.225   0.915  15.531 -1.0304 -0.0157 -0.1952
  283TMC3    C6 4325   2.274   1.006  15.617 -0.4052 -0.3250 -0.3994
  283TMC3     C 4326   2.478   0.911  15.261 -0.0319  0.5679  0.3942
  283TMC3     O 4327   2.601   0.937  15.261  0.2855  0.0219 -0.4215
  283TMC3     H 4328   2.526   1.124  15.422 -1.2854  1.5569 -1.0164
  283TMC3    H1 4329   2.243   0.804  15.351  0.5398 -0.4693 -0.0610
  283TMC3    H2 4330   2.232   1.024  15.715 -0.1969 -1.1257 -0.1626
  283TMC3    C7 4331   2.098   0.852  15.570  0.1199  0.1893 -0.1641
  283TMC3    C8 4332   2.418   1.198  15.666 -0.6542  0.0195 -0.0459
  283TMC3    O1 4333   2.046   0.893  15.670 -0.8945 -0.0434  0.3127
  283TMC3    O2 4334   2.392   1.182  15.779  0.2687 -0.5031  0.2330
  284MPD2     C 4335   1.233   4.649  11.873 -0.3600 -0.7447  0.5248
  284MPD2    C1 4336   1.180   4.647  11.748 -0.1883  0.3413 -0.1142
  284MPD2    C2 4337   1.065   4.574  11.730  0.2072  0.1772  0.0347
  284MPD2    C3 4338   0.990   4.526  11.831  0.2519 -0.4205 -0.0252
  284MPD2    C4 4339   1.042   4.551  11.961 -0.3731 -0.1705  0.2254
  284MPD2    C5 4340   1.165   4.603  11.977 -0.5382 -0.2986 -0.0585
  284MPD2     H 4341   1.030   4.560  11.628 -0.4121  0.1588  0.2532
  284MPD2    H1 4342   1.003   4.500  12.048  0.6618  0.4321  1.0382
  284MPD2    H2 4343   1.333   4.679  11.899 -0.3929 -0.7797  0.6929
  284MPD2    H3 4344   1.223   4.591  12.068  1.1436 -0.6314 -1.1708
  284MPD2     N 4345   0.896   4.416  11.822 -0.5530  0.7076  0.2839
  284MPD2    H5 4346   0.874   4.377  11.913 -2.4798 -0.8036 -0.8207
  284MPD2    N1 4347   1.244   4.690  11.631 -0.5698 -0.3645  0.1017
  284MPD2    H7 4348   1.212   4.662  11.539  0.8566  2.0572 -1.1287
  285TMC3    C1 4349   1.438   0.025  11.520 -0.4814  0.1602  0.0575
  285TMC3    C2 4350   1.426   4.666  11.424 -0.4055 -0.3734 -0.0498
  285TMC3    C3 4351   1.508   4.672  11.315  0.0345 -0.8244 -1.1549
  285TMC3    C4 4352   1.533   0.127  11.522 -0.5043 -0.4005 -0.4373
  285TMC3    C5 4353   1.614   0.125  11.410  0.4249  0.6773 -1.3353
  285TMC3    C6 4354   1.598   0.035  11.304 -0.1539  0.6696  0.2066
  285TMC3     C 4355   1.352   0.038  11.633 -0.8720  0.3619  0.1478
  285TMC3     O 4356   1.382   0.107  11.726 -0.3518 -0.8143  0.5356
  285TMC3     H 4357   1.351   4.588  11.430 -0.7238  0.0880  1.9857
  285TMC3    H1 4358   1.535   0.205  11.597 -0.2426 -0.1494 -0.7072
  285TMC3    H2 4359   1.658   0.049  11.215  1.5989 -0.1743  1.2454
  285TMC3    C7 4360   1.701   0.239  11.389 -0.5880  0.1195  0.1819
  285TMC3    C8 4361   1.465   4.598  11.196 -0.6124 -0.2684  0.3137
  285TMC3    O1 4362   1.723   0.285  11.278 -0.3780 -0.3223  0.2182
  285TMC3    O2 4363   1.344   4.575  11.190  0.1157 -0.0540  0.1383
  286MPD2     C 4364   0.564   3.439   1.310 -0.0981 -0.4200  0.2727
  286MPD2    C1 4365   0.527   3.344   1.212  0.4340  0.4115  0.3356
  286MPD2    C2 4366   0.587   3.219   1.216 -0.1092 -0.5094 -0.0308
  286MPD2    C3 4367   0.685   3.186   1.311  0.5513 -0.4507  0.0434
  286MPD2    C4 4368   0.719   3.282   1.408  0.2672  0.3380 -0.1659
  286MPD2    C5 4369   0.657   3.410   1.409  0.3712 -0.2655  0.0533
  286MPD2     H 4370   0.561   3.146   1.140  1.2987  0.1891 -1.1796
  286MPD2    H1 4371   0.797   3.266   1.481  0.4742  2.2059  0.0084
  286MPD2    H2 4372   0.505   3.529   1.315 -0.6623 -0.7955  0.3604
  286MPD2    H3 4373   0.679   3.486   1.484 -0.9138  1.6955 -1.5616
  286MPD2     N 4374   0.756   3.066   1.320  0.2578  0.3042  0.0248
  286MPD2    H5 4375   0.831   3.059   1.387  0.3349  0.5614 -0.0329
  286MPD2    N1 4376   0.440   3.367   1.104 -0.2031 -0.2963  0.0801
  286MPD2    H7 4377   0.425   3.290   1.039  0.1572  2.1750 -2.8985
  287TMC3    C1 4378   0.813   2.844   1.275 -0.4096 -0.5325 -0.1994
  287TMC3    C2 4379   0.782   2.728   1.205 -0.5535  0.2725 -0.5444
  287TMC3    C3 4380   0.871   2.628   1.201 -0.0079 -0.0943 -0.1080
  287TMC3    C4 4381   0.923   2.845   1.361 -0.4573 -0.0818  0.1571
  287TMC3    C5 4382   1.010   2.742   1.347 -0.3961  0.2048  0.9051
  287TMC3    C6 4383   0.986   2.630   1.273 -0.0919 -0.6531 -0.0933
  287TMC3     C 4384   0.739   2.959   1.238 -0.3240  0.3329 -0.2965
  287TMC3     O 4385   0.658   2.942   1.149 -0.6668  0.3326 -0.1312
  287TMC3     H 4386   0.692   2.722   1.146 -0.8261 -0.4717 -0.0543
  287TMC3    H1 4387   0.951   2.941   1.401  0.2095  0.1106 -0.7678
  287TMC3    H2 4388   1.045   2.540   1.284  0.2621 -0.5523 -1.2250
  287TMC3    C7 4389   1.154   2.749   1.382  0.3643  0.4085 -0.5521
  287TMC3    C8 4390   0.857   2.533   1.093  0.0097 -0.4252 -0.6416
  287TMC3    O1 4391   1.229   2.654   1.359 -0.7406 -0.7913 -0.0817
  287TMC3    O2 4392   0.768   2.552   1.011  0.2690 -1.2136  0.1976
  288TMC3    C1 4393   3.054   3.241  14.572  0.3595  0.3687 -0.0623
  288TMC3    C2 4394   2.928   3.281  14.608  0.6026 -0.0041  0.2148
  288TMC3    C3 4395   2.875   3.400  14.556 -0.2969  0.0994 -0.5439
  288TMC3    C4 4396   3.135   3.321  14.496  0.1440  0.0297 -0.3067
  288TMC3    C5 4397   3.080   3.439  14.453 -0.3509 -0.3990  0.5178
  288TMC3    C6 4398   2.950   3.484  14.476 -0.0984 -0.0311 -0.6443
  288TMC3     C 4399   3.120   3.129  14.645  0.3834  0.4631  0.1361
  288TMC3     O 4400   3.052   3.076  14.734 -0.0759 -0.2680  0.8882
  288TMC3     H 4401   2.873   3.222  14.681  0.7233  0.9329  1.0680
  288TMC3    H1 4402   3.239   3.297  14.478  0.4372  0.3717  0.9465
  288TMC3    H2 4403   2.907   3.573  14.430 -1.8833 -1.8023 -2.3977
  288TMC3    C7 4404   3.152   3.492  14.344 -0.4861 -0.4293  0.1824
  288TMC3    C8 4405   2.744   3.441  14.596 -0.5603 -0.0310  0.1924
  288TMC3    O1 4406   3.277   3.488  14.351  0.0031  0.4501  0.8339
  288TMC3    O2 4407   2.720   3.561  14.571 -0.5806  0.1881 -0.1268
  289MPD2     C 4408   2.302   2.483  14.791  0.2493  0.1033  0.2268
  289MPD2    C1 4409   2.351   2.522  14.667  0.0748  0.4292  0.2799
  289MPD2    C2 4410   2.273   2.500  14.555  0.2133 -0.5046  0.2338
  289MPD2    C3 4411   2.145   2.441  14.560  0.5181  0.4963 -0.6228
  289MPD2    C4 4412   2.099   2.401  14.682 -0.7794 -1.0711 -0.1848
  289MPD2    C5 4413   2.177   2.424  14.794 -0.2052 -0.3164  0.4394
  289MPD2     H 4414   2.297   2.546  14.460 -0.2359 -0.7812 -0.0137
  289MPD2    H1 4415   2.004   2.350  14.695 -0.1899 -1.8584  0.9780
  289MPD2    H2 4416   2.365   2.487  14.879 -0.6288 -0.5267  0.8877
  289MPD2    H3 4417   2.140   2.394  14.892 -1.8631 -1.2758 -0.4897
  289MPD2     N 4418   2.062   2.421  14.446 -0.0287 -0.7382 -0.0844
  289MPD2    H5 4419   1.965   2.396  14.464 -0.0125  0.4439  1.6845
  289MPD2    N1 4420   2.468   2.600  14.662  0.6821  0.2998  0.0467
  289MPD2    H7 4421   2.509   2.606  14.755  1.5241  1.1088 -0.3795
  290TMC3    C1 4422   1.988   2.402  14.228 -0.1957  0.0324  0.5892
  290TMC3    C2 4423   1.971   2.484  14.117 -1.0512 -0.5455  0.0477
  290TMC3    C3 4424   1.863   2.464  14.038 -0.2390  0.3769 -0.1923
  290TMC3    C4 4425   1.900   2.307  14.267  0.0574 -0.3028  0.1881
  290TMC3    C5 4426   1.785   2.302  14.187 -0.7465  0.1711  1.2898
  290TMC3    C6 4427   1.772   2.366  14.065 -0.6442 -0.1194 -0.2752
  290TMC3     C 4428   2.097   2.441  14.320 -0.0684  0.1937 -0.0108
  290TMC3     O 4429   2.200   2.486  14.274  0.6132 -0.1942 -0.1209
  290TMC3     H 4430   2.048   2.561  14.111 -0.7859 -0.8145  0.0106
  290TMC3    H1 4431   1.913   2.256  14.362 -1.5325 -1.1837 -0.0482
  290TMC3    H2 4432   1.679   2.353  14.011 -1.1703  1.2203  0.2988
  290TMC3    C7 4433   1.682   2.204  14.214  0.8976  0.6663 -0.3753
  290TMC3    C8 4434   1.807   2.572  13.963 -0.5903  0.1677 -0.5186
  290TMC3    O1 4435   1.564   2.233  14.234 -0.1553  0.6113  0.3696
  290TMC3    O2 4436   1.704   2.555  13.898  0.0850 -0.4379  0.1885
  291MPD2     C 4437   1.963   2.208   0.914 -0.5749  0.3449 -0.3324
  291MPD2    C1 4438   1.893   2.136   0.815 -0.2653  0.4116  0.3610
  291MPD2    C2 4439   1.909   2.172   0.685 -0.2429  0.2269 -0.1070
  291MPD2    C3 4440   2.011   2.264   0.647  0.2887 -0.2720 -0.4553
  291MPD2    C4 4441   2.094   2.314   0.746  0.1867  0.9290 -0.1255
  291MPD2    C5 4442   2.061   2.296   0.876 -0.3640 -0.3373  0.2462
  291MPD2     H 4443   1.849   2.124   0.609  1.1591 -0.4620 -0.7581
  291MPD2    H1 4444   2.171   2.386   0.719  1.2076 -0.3991 -0.7879
  291MPD2    H2 4445   1.936   2.198   1.018 -2.5305  1.8326 -0.6954
  291MPD2    H3 4446   2.131   2.337   0.948  0.0635 -1.5645  0.5257
  291MPD2     N 4447   2.027   2.308   0.518  0.0363 -0.0484 -0.0234
  291MPD2    H5 4448   2.120   2.344   0.498 -0.4008 -0.1916 -2.3839
  291MPD2    N1 4449   1.788   2.045   0.849 -0.5487  0.8658 -0.4340
  291MPD2    H7 4450   1.738   2.001   0.773 -0.2776 -1.3420  0.6600
  292TMC3    C1 4451   1.643   1.904   0.961  0.0335  0.5477  0.7754
  292TMC3    C2 4452   1.560   1.883   1.074 -0.3794 -0.1123  0.4555
  292TMC3    C3 4453   1.465   1.782   1.059  0.1388  0.4851 -0.0418
  292TMC3    C4 4454   1.630   1.830   0.847 -0.1406 -0.1549 -0.1078
  292TMC3    C5 4455   1.541   1.726   0.843 -0.3194 -0.8456  0.2920
  292TMC3    C6 4456   1.453   1.705   0.946  0.0999 -0.2856 -0.0923
  292TMC3     C 4457   1.747   2.003   0.973  0.1413  0.1971 -0.3374
  292TMC3     O 4458   1.775   2.058   1.081  0.1720  0.1460 -0.3422
  292TMC3     H 4459   1.567   1.945   1.162 -0.9840 -1.9151  1.7711
  292TMC3    H1 4460   1.694   1.842   0.760  0.6488  0.0522  0.5045
  292TMC3    H2 4461   1.389   1.617   0.944  0.0913 -0.2308 -1.9965
  292TMC3    C7 4462   1.561   1.628   0.740  0.1443 -0.3937 -0.5612
  292TMC3    C8 4463   1.369   1.774   1.170 -0.4989  0.2020 -0.9537
  292TMC3    O1 4464   1.613   1.669   0.634  0.4080  0.3050  0.1935
  292TMC3    O2 4465   1.393   1.849   1.264 -0.0176 -0.1837  0.0421
  293MPD2     C 4466   3.348   3.485  13.001 -0.0997 -0.0371  0.1872
  293MPD2    C1 4467   3.442   3.574  12.963  0.2292  0.1879  0.2267
  293MPD2    C2 4468   3.554   3.595  13.041 -0.5575 -0.6472 -0.1255
  293MPD2    C3 4469   3.557   3.534  13.167 -0.4958  0.2094 -0.0540
  293MPD2    C4 4470   3.452   3.448  13.205 -0.5569  0.5943  0.0029
  293MPD2    C5 4471   3.349   3.424  13.121 -0.6735 -0.2684  0.1159
  293MPD2     H 4472   3.638   3.656  13.009  1.6751 -2.5864  2.0284
  293MPD2    H1 4473   3.449   3.392  13.298  0.1356  2.5431  1.2153
  293MPD2    H2 4474   3.257   3.465  12.945 -0.3193 -4.3076  2.1032
  293MPD2    H3 4475   3.266   3.359  13.146 -1.5859 -0.2311 -2.8561
  293MPD2     N 4476   3.661   3.568  13.258 -0.4065 -0.1205 -0.3097
  293MPD2    H5 4477   3.741   3.620  13.222 -0.7736  0.5792 -0.1213
  293MPD2    N1 4478   3.427   3.618  12.831  0.3091  0.0242 -0.1483
  293MPD2    H7 4479   3.339   3.599  12.784  0.0835 -2.2038  1.1711
  294TMC3    C1 4480   3.493   3.699  12.614 -0.4305 -0.1352  0.2458
  294TMC3    C2 4481   3.371   3.679  12.556  0.1665  0.7665 -0.3051
  294TMC3    C3 4482   3.359   3.715  12.427 -0.4176 -0.0501 -0.0031
  294TMC3    C4 4483   3.602   3.748  12.540 -0.1255 -0.2565 -0.0697
  294TMC3    C5 4484   3.581   3.784  12.408 -0.0928  0.0926 -0.3402
  294TMC3    C6 4485   3.457   3.769  12.342  0.5510 -0.2415  1.6186
  294TMC3     C 4486   3.524   3.685  12.758 -0.0552  0.1488 -0.1013
  294TMC3     O 4487   3.641   3.701  12.793 -0.4807  0.6112  0.1436
  294TMC3     H 4488   3.284   3.644  12.610  0.5194  0.0526 -0.1864
  294TMC3    H1 4489   3.699   3.761  12.587 -0.2585  0.9946 -0.1294
  294TMC3    H2 4490   3.433   3.809  12.244  1.9188 -3.5097 -0.0425
  294TMC3    C7 4491   3.695   3.828  12.334 -0.2989  0.3380 -0.1443
  294TMC3    C8 4492   3.255   3.647  12.357 -0.6057 -0.4032 -0.2695
  294TMC3    O1 4493   3.797   3.842  12.401  0.5868  0.1117 -0.0293
  294TMC3    O2 4494   3.214   3.700  12.257 -0.0341  0.7545  0.3453
  295MPD2     C 4495   4.261   2.291   0.824 -0.1856 -0.0162 -0.5263
  295MPD2    C1 4496   4.123   2.276   0.832  0.7780  0.0963  0.3361
  295MPD2    C2 4497   4.073   2.178   0.921  0.3538 -0.6565 -0.4061
  295MPD2    C3 4498   4.162   2.103   0.996  0.0858  0.0636  0.0365
  295MPD2    C4 4499   4.298   2.115   0.989 -0.1567  0.0100 -0.3724
  295MPD2    C5 4500   4.347   2.207   0.899  0.3586  0.0466  0.3662
  295MPD2     H 4501   3.967   2.156   0.928  0.1444 -0.0707 -1.7208
  295MPD2    H1 4502   4.367   2.048   1.039  1.6185  2.2574  0.2136
  295MPD2    H2 4503   4.317   2.345   0.748 -1.4194  0.4819 -1.0807
  295MPD2    H3 4504   4.451   2.235   0.890  0.4071 -0.6252 -1.2042
  295MPD2     N 4505   4.108   2.014   1.097 -0.4217  0.3122 -0.0430
  295MPD2    H5 4506   4.183   1.975   1.154 -1.0727  1.6280  1.7210
  295MPD2    N1 4507   4.031   2.347   0.749  0.4105  0.4809 -0.2702
  295MPD2    H7 4508   3.933   2.340   0.774 -0.1402 -0.5513 -2.7372
  296TMC3    C1 4509   3.965   1.908   1.254 -0.3759 -0.0718  0.2854
  296TMC3    C2 4510   3.849   1.941   1.333  0.4539 -0.8717 -0.2743
  296TMC3    C3 4511   3.842   1.880   1.452 -0.0727  0.0509 -0.6734
  296TMC3    C4 4512   4.059   1.816   1.294  0.3098  0.3057  0.0989
  296TMC3    C5 4513   4.035   1.750   1.412  0.6355 -0.0112 -0.2896
  296TMC3    C6 4514   3.932   1.784   1.499  0.9266  0.2108 -0.3517
  296TMC3     C 4515   3.976   1.992   1.132  0.5024  0.2149  0.5184
  296TMC3     O 4516   3.870   2.025   1.075  0.6671 -0.2641  0.3897
  296TMC3     H 4517   3.789   2.021   1.290 -0.4751 -1.8712 -0.8197
  296TMC3    H1 4518   4.137   1.776   1.229  0.1434  0.2215 -0.0480
  296TMC3    H2 4519   3.912   1.733   1.592 -1.1050  1.9211  0.1532
  296TMC3    C7 4520   4.118   1.643   1.450 -0.3473 -0.5804  0.2564
  296TMC3    C8 4521   3.715   1.903   1.530 -0.7041 -0.4215  0.2758
  296TMC3    O1 4522   4.223   1.628   1.384  0.2418 -0.2226 -0.2470
  296TMC3    O2 4523   3.727   1.886   1.648  0.2080 -0.0989 -0.6611
  297MPD2     C 4524   0.802   4.373  16.154 -0.2402  0.5932 -0.1349
  297MPD2    C1 4525   0.832   4.436  16.031 -0.6207  0.2072 -0.8333
  297MPD2    C2 4526   0.964   4.473  16.010  0.4531  0.4457 -0.0213
  297MPD2    C3 4527   1.059   4.457  16.113  0.6926 -0.0800  0.4833
  297MPD2    C4 4528   1.022   4.414  16.239  0.4168  0.2272  0.5768
  297MPD2    C5 4529   0.899   4.364  16.255 -0.0992  0.0760 -0.5279
  297MPD2     H 4530   1.001   4.512  15.916  2.2359  0.3006  0.6105
  297MPD2    H1 4531   1.087   4.412  16.326 -0.6352 -3.2127  1.2843
  297MPD2    H2 4532   0.706   4.334  16.183  0.2591  0.4573  1.3214
  297MPD2    H3 4533   0.871   4.328  16.353  1.9183 -0.9896 -0.3467
  297MPD2     N 4534   1.188   4.507  16.080 -0.0734 -0.3432 -0.2754
  297MPD2    H5 4535   1.205   4.534  15.984 -1.5239 -0.0476 -0.4421
  297MPD2    N1 4536   0.733   4.453  15.932  0.2468  0.6877  0.1756
  297MPD2    H7 4537   0.761   4.495  15.844 -0.1990  0.6876  0.0319
  298TMC3    C1 4538   0.536   4.554  15.883  0.1714 -0.6552  0.3919
  298TMC3    C2 4539   0.571   4.581  15.754 -0.8261 -0.1533  0.3287
  298TMC3    C3 4540   0.535   4.705  15.707 -0.4954 -0.7693 -0.5479
  298TMC3    C4 4541   0.451   4.634  15.956  0.3369  0.3827  0.4000
  298TMC3    C5 4542   0.434   0.016  15.908 -0.1745 -0.0072 -0.5926
  298TMC3    C6 4543   0.475   0.057  15.785  0.7059 -0.1110 -0.0289
  298TMC3     C 4544   0.594   4.442  15.951 -0.1437 -0.1352  0.2474
  298TMC3     O 4545   0.534   4.399  16.051  0.5246 -0.1232  0.6182
  298TMC3     H 4546   0.623   4.510  15.691 -0.1193  0.8009 -0.1495
  298TMC3    H1 4547   0.422   4.595  16.053  1.8631 -0.3222  0.5586
  298TMC3    H2 4548   0.444   0.155  15.749  3.8733  0.0013 -2.3228
  298TMC3    C7 4549   0.449   0.121  16.006 -0.1614  0.5730  0.1969
  298TMC3    C8 4550   0.567   4.737  15.565  0.3738  0.1325 -0.2405
  298TMC3    O1 4551   0.520   0.213  15.964  0.4053 -1.0027  0.3166
  298TMC3    O2 4552   0.640   4.659  15.502  0.0292 -0.6952  0.1942
  299MPD2     C 4553   1.858   3.500  10.240  0.4079  0.7438 -0.0441
  299MPD2    C1 4554   1.895   3.588  10.139  0.6945 -0.8311 -0.0346
  299MPD2    C2 4555   1.809   3.619  10.030 -0.2830  0.3630  0.5033
  299MPD2    C3 4556   1.683   3.568  10.028  0.6641  0.1044  0.5730
  299MPD2    C4 4557   1.651   3.468  10.122  0.2341 -0.0753  0.1886
  299MPD2    C5 4558   1.739   3.439  10.225 -0.3671 -0.1140 -0.3766
  299MPD2     H 4559   1.834   3.704   9.967 -0.0253 -0.3225 -0.3180
  299MPD2    H1 4560   1.552   3.426  10.133  0.0790  0.1445 -0.4230
  299MPD2    H2 4561   1.928   3.463  10.314  2.2683  0.0152 -2.2056
  299MPD2    H3 4562   1.702   3.367  10.297 -0.0634  0.7649  0.6547
  299MPD2     N 4563   1.575   3.611   9.941  0.7041 -0.4337  0.0970
  299MPD2    H5 4564   1.484   3.567   9.945 -0.6037  2.1850 -0.6037
  299MPD2    N1 4565   2.028   3.641  10.148  0.4266  0.3219  0.0604
  299MPD2    H7 4566   2.065   3.650  10.242 -0.4056  1.6606  0.2625
  300TMC3    C1 4567   1.456   3.742   9.770  0.2921 -0.5190 -0.6063
  300TMC3    C2 4568   1.475   3.798   9.647  0.2854 -0.0622 -0.7381
  300TMC3    C3 4569   1.372   3.870   9.593 -0.0363 -0.5289 -1.0759
  300TMC3    C4 4570   1.343   3.761   9.853 -0.6173 -0.0434 -0.2979
  300TMC3    C5 4571   1.244   3.841   9.792 -0.4446  0.2244 -0.0780
  300TMC3    C6 4572   1.248   3.879   9.659 -0.1028  0.1307  0.0907
  300TMC3     C 4573   1.588   3.712   9.841  0.4422 -0.6102  0.6198
  300TMC3     O 4574   1.684   3.777   9.799  0.1046 -0.1079 -0.9000
  300TMC3     H 4575   1.570   3.789   9.595 -0.1304 -0.3324 -1.4514
  300TMC3    H1 4576   1.342   3.724   9.955 -2.4193  0.7662 -0.0232
  300TMC3    H2 4577   1.170   3.945   9.623 -1.0918 -1.8406 -1.3397
  300TMC3    C7 4578   1.110   3.825   9.853 -0.0020 -0.0513 -0.3624
  300TMC3    C8 4579   1.429   3.996   9.544  0.7248  0.6088 -0.2828
  300TMC3    O1 4580   1.018   3.798   9.778  0.4583 -0.1026 -0.0770
  300TMC3    O2 4581   1.378   4.059   9.452  0.4439 -0.4716 -0.0476
  301MPD2     C 4582   3.974   0.335   0.882  0.5529  0.4590  0.3952
  301MPD2    C1 4583   3.834   0.321   0.853  0.3700 -0.5734  0.3614
  301MPD2    C2 4584   3.792   0.189   0.859 -0.6534  0.3181  0.7628
  301MPD2    C3 4585   3.872   0.085   0.893 -0.7102 -0.0593 -0.0093
  301MPD2    C4 4586   4.001   0.107   0.929 -0.0656 -0.3042  0.4654
  301MPD2    C5 4587   4.055   0.233   0.913 -0.0476 -0.0615 -0.1613
  301MPD2     H 4588   3.688   0.179   0.830  0.3107  1.1993 -3.0498
  301MPD2    H1 4589   4.063   0.022   0.952  2.0609  1.6876  2.0933
  301MPD2    H2 4590   4.029   0.427   0.867 -1.3149  1.0190 -3.0346
  301MPD2    H3 4591   4.160   0.240   0.937  0.1691 -1.0520 -0.8009
  301MPD2     N 4592   3.821   4.687   0.891  0.3351  0.3584  0.8631
  301MPD2    H5 4593   3.883   4.610   0.913  1.7728  0.9642 -0.9978
  301MPD2    N1 4594   3.745   0.422   0.811  0.0962  0.6948  0.6504
  301MPD2    H7 4595   3.654   0.385   0.789  0.9184 -0.3725 -0.9357
  302TMC3    C1 4596   3.685   4.518   0.833  0.3495  1.7142  0.0816
  302TMC3    C2 4597   3.763   4.433   0.906 -0.0968 -0.4941 -0.2974
  302TMC3    C3 4598   3.758   4.304   0.875 -0.2868 -0.5356  0.2287
  302TMC3    C4 4599   3.591   4.471   0.742 -0.0396  0.5964 -0.4744
  302TMC3    C5 4600   3.595   4.338   0.710 -0.2468 -0.2071 -0.2081
  302TMC3    C6 4601   3.675   4.255   0.778  0.1944 -0.7467  0.1399
  302TMC3     C 4602   3.692   4.661   0.851  0.5052 -0.1702  0.2229
  302TMC3     O 4603   3.594   4.732   0.833 -0.3355 -0.2064 -1.0528
  302TMC3     H 4604   3.829   4.460   0.987 -1.9795 -0.5005  1.2365
  302TMC3    H1 4605   3.532   4.542   0.686 -0.2858  0.7598 -0.0051
  302TMC3    H2 4606   3.673   4.148   0.762  1.6611 -0.1000 -4.3773
  302TMC3    C7 4607   3.504   4.279   0.609  0.0307 -0.2509  0.1487
  302TMC3    C8 4608   3.808   4.206   0.965  0.2862 -0.6433 -0.5967
  302TMC3    O1 4609   3.515   4.164   0.568 -0.3155  0.3963  0.4235
  302TMC3    O2 4610   3.840   4.095   0.916 -0.2552 -0.3999  0.5083
  303MPD2     C 4611   4.096   4.354  10.749  0.2299 -0.3318  0.2659
  303MPD2    C1 4612   4.063   4.244  10.674 -0.0203 -0.4505 -0.0306
  303MPD2    C2 4613   4.085   4.250  10.538  0.2892 -0.9660  0.5522
  303MPD2    C3 4614   4.157   4.354  10.481  0.4841  0.7301 -0.0335
  303MPD2    C4 4615   4.206   4.449  10.562 -0.6696  0.5004  0.3098
  303MPD2    C5 4616   4.176   4.450  10.695 -0.0393 -0.4824  0.0099
  303MPD2     H 4617   4.038   4.174  10.476  0.4099 -1.1323  0.6651
  303MPD2    H1 4618   4.249   4.539  10.520 -0.6324  0.6692  0.7146
  303MPD2    H2 4619   4.078   4.354  10.856  1.2041 -1.8115  0.4328
  303MPD2    H3 4620   4.199   4.540  10.751  1.1938 -0.5430 -0.3896
  303MPD2     N 4621   4.173   4.378  10.347  0.9755  0.5571  0.0598
  303MPD2    H5 4622   4.232   4.455  10.318  1.3098 -0.5728 -2.3013
  303MPD2    N1 4623   3.978   4.157  10.746 -0.2733 -0.0318  0.1257
  303MPD2    H7 4624   3.956   4.178  10.843 -1.7635  0.1438 -0.2414
  304TMC3    C1 4625   3.811   3.992  10.779  0.2210 -0.1873  0.0986
  304TMC3    C2 4626   3.760   4.078  10.872 -0.3664 -0.0712 -0.2625
  304TMC3    C3 4627   3.628   4.060  10.902 -0.0828 -0.1823  0.1724
  304TMC3    C4 4628   3.748   3.869  10.753 -0.6486 -0.0249  0.4861
  304TMC3    C5 4629   3.637   3.844  10.822  0.0103 -0.4204 -0.3818
  304TMC3    C6 4630   3.572   3.937  10.891 -0.1839 -1.2006  0.1536
  304TMC3     C 4631   3.922   4.041  10.701 -0.2247 -0.9789 -0.4337
  304TMC3     O 4632   3.957   3.972  10.605 -0.4161  0.0685 -0.1058
  304TMC3     H 4633   3.795   4.180  10.878 -0.2632 -0.1513  0.4440
  304TMC3    H1 4634   3.803   3.806  10.684 -1.8906 -3.5187  2.7021
  304TMC3    H2 4635   3.478   3.928  10.945 -1.2288  0.8534 -1.3131
  304TMC3    C7 4636   3.539   3.782  10.737 -0.1870 -0.0532  0.2922
  304TMC3    C8 4637   3.544   4.170  10.874  1.3410 -0.3335 -0.2668
  304TMC3    O1 4638   3.438   3.847  10.715  0.0017  0.2371 -0.2168
  304TMC3    O2 4639   3.595   4.279  10.884  0.3058 -0.6036 -0.1560
  305MPD2     C 4640   2.358   1.226  13.771  0.4248  0.2670  0.2174
  305MPD2    C1 4641   2.422   1.108  13.803  0.1347 -1.0086  0.1615
  305MPD2    C2 4642   2.429   1.019  13.695  0.5286 -0.3298  0.1546
  305MPD2    C3 4643   2.375   1.042  13.572 -0.0206 -0.2439 -0.8701
  305MPD2    C4 4644   2.297   1.151  13.551 -0.7641  0.4845  0.0131
  305MPD2    C5 4645   2.294   1.246  13.649 -0.7567 -0.1325 -0.1611
  305MPD2     H 4646   2.479   0.924  13.708  2.4357  0.2596 -3.0107
  305MPD2    H1 4647   2.252   1.180  13.456  1.9041 -0.1256 -1.4480
  305MPD2    H2 4648   2.354   1.310  13.839  2.4883  0.4019  0.2007
  305MPD2    H3 4649   2.231   1.330  13.624 -0.6767 -0.1273 -0.3501
  305MPD2     N 4650   2.394   0.938  13.480 -0.4951 -0.3828  0.0752
  305MPD2    H5 4651   2.451   0.857  13.504  0.5264 -0.2576 -1.9250
  305MPD2    N1 4652   2.492   1.105  13.926 -0.3593  0.1261 -0.3603
  305MPD2    H7 4653   2.471   1.182  13.989 -0.0385 -0.8575  0.9485
  306TMC3    C1 4654   2.654   1.036  14.082 -0.3551  0.5815 -0.3425
  306TMC3    C2 4655   2.775   0.978  14.091  0.3071 -0.2849  0.0475
  306TMC3    C3 4656   2.847   1.010  14.205 -0.8592  0.1562  0.9444
  306TMC3    C4 4657   2.593   1.103  14.181 -1.2789 -0.1438 -0.2654
  306TMC3    C5 4658   2.660   1.120  14.302  0.5702 -0.3573  0.0870
  306TMC3    C6 4659   2.791   1.082  14.308  0.0221 -1.1196 -0.9146
  306TMC3     C 4660   2.590   1.010  13.958 -0.1898  0.0606 -0.3798
  306TMC3     O 4661   2.621   0.908  13.902  0.6204  0.1226 -0.3322
  306TMC3     H 4662   2.818   0.916  14.014 -0.0775  1.1102 -1.2914
  306TMC3    H1 4663   2.490   1.132  14.171 -1.1196  0.2833 -0.6419
  306TMC3    H2 4664   2.857   1.115  14.388  0.4640  0.2357 -1.8213
  306TMC3    C7 4665   2.645   1.256  14.345  0.3944 -0.1744  0.4213
  306TMC3    C8 4666   2.948   0.913  14.235 -0.3838 -0.7573  0.3132
  306TMC3    O1 4667   2.606   1.330  14.258 -0.4054  0.3943  0.1200
  306TMC3    O2 4668   2.999   0.852  14.140  0.0044  0.7604 -0.1114
  307MPD2     C 4669   4.693   3.530   0.250  0.1941 -0.2540  0.3411
  307MPD2    C1 4670   4.677   3.668   0.263  0.2450  0.5317  0.2226
  307MPD2    C2 4671   4.633   3.704   0.388  0.4842  0.8092  0.9075
  307MPD2    C3 4672   4.610   3.609   0.493  0.6933 -0.0856  0.1940
  307MPD2    C4 4673   4.635   3.482   0.472 -0.2541  0.9526 -0.3681
  307MPD2    C5 4674   4.674   3.443   0.355  0.9980  0.3967 -0.4297
  307MPD2     H 4675   4.615   3.808   0.415 -1.3305  0.2500  1.8672
  307MPD2    H1 4676   4.601   3.411   0.546  0.7026  0.7346 -0.1433
  307MPD2    H2 4677   4.711   3.480   0.155  0.9351  1.3189 -0.3461
  307MPD2    H3 4678   4.679   3.335   0.340  0.7871  0.2826  0.3011
  307MPD2     N 4679   4.566   3.656   0.619  0.1163  0.0794  0.3392
  307MPD2    H5 4680   4.518   3.745   0.631  0.2841  0.2779 -0.4703
  307MPD2    N1 4681   4.688   3.760   0.159  0.2905  0.0386  0.0892
  307MPD2    H7 4682   4.661   3.856   0.174  1.6851  0.2377  1.2748
  308TMC3    C1 4683   4.231   3.572   0.888 -0.0180 -0.2221  0.1083
  308TMC3    C2 4684   4.206   3.703   0.913  0.7336 -0.1010 -0.2086
  308TMC3    C3 4685   4.308   3.792   0.879 -0.2574 -0.3341 -0.6496
  308TMC3    C4 4686   4.359   3.533   0.846  0.7382 -0.3081  0.8854
  308TMC3    C5 4687   4.453   3.622   0.816 -0.4841  0.5730 -0.4286
  308TMC3    C6 4688   4.434   3.752   0.838  0.4459  0.2598 -0.3063
  308TMC3     C 4689   4.118   3.490   0.842 -0.8382  0.0226  0.1352
  308TMC3     O 4690   4.140   3.370   0.848  0.3170  0.2810 -0.2776
  308TMC3     H 4691   4.111   3.746   0.944  1.3014  0.9167  0.0918
  308TMC3    H1 4692   4.376   3.432   0.811 -1.6454 -1.2876  2.5616
  308TMC3    H2 4693   4.512   3.824   0.815  0.4754  0.0742 -0.8070
  308TMC3    C7 4694   4.557   3.578   0.731  0.0594 -0.4765  0.5894
  308TMC3    C8 4695   4.298   3.917   0.950  0.4996  1.0147  0.0955
  308TMC3    O1 4696   4.600   3.465   0.758  0.2569  0.0875  0.3383
  308TMC3    O2 4697   4.204   3.939   1.026  0.1531  0.6591  0.5145
  309MPD2     C 4698   3.932   4.304  17.204 -0.9068 -0.0402  0.3878
  309MPD2    C1 4699   3.881   4.308  17.075  1.0240  0.4727 -0.1623
  309MPD2    C2 4700   3.749   4.288  17.051 -0.2118 -0.2690  0.3782
  309MPD2    C3 4701   3.664   4.261  17.162 -0.1419  0.6812  0.1603
  309MPD2    C4 4702   3.711   4.256  17.291  0.3905 -1.0050  0.2481
  309MPD2    C5 4703   3.850   4.281  17.311  0.8400  0.0777 -0.1223
  309MPD2     H 4704   3.715   4.279  16.949  2.4197 -0.4239 -0.4895
  309MPD2    H1 4705   3.642   4.227  17.369 -0.0522 -1.4523 -0.3106
  309MPD2    H2 4706   4.035   4.330  17.223 -0.5172 -0.0480 -1.6272
  309MPD2    H3 4707   3.895   4.285  17.409 -1.8649  1.7419  1.0482
  309MPD2     N 4708   3.526   4.242  17.150  0.1485 -0.2383 -0.5642
  309MPD2    H5 4709   3.463   4.217  17.226  1.1204 -2.5608 -0.5127
  309MPD2    N1 4710   3.970   4.317  16.975  0.4059 -0.1907 -0.1871
  309MPD2    H7 4711   3.929   4.307  16.883 -2.8867  2.4202  1.0141
  310TMC3    C1 4712   4.159   4.280  16.846 -0.4016 -0.6334  0.2119
  310TMC3    C2 4713   4.114   4.366  16.747 -0.6212 -0.2314 -0.9047
  310TMC3    C3 4714   4.130   4.322  16.617  0.5779 -0.3523  0.8607
  310TMC3    C4 4715   4.223   4.166  16.822 -0.4194 -0.0270  0.1258
  310TMC3    C5 4716   4.240   4.130  16.690  0.4707  1.0146  0.5384
  310TMC3    C6 4717   4.199   4.204  16.586 -0.4421  0.3033 -0.9819
  310TMC3     C 4718   4.108   4.296  16.978  0.3781  0.0521 -0.5764
  310TMC3     O 4719   4.182   4.260  17.069 -0.0378  0.5442 -0.1054
  310TMC3     H 4720   4.046   4.447  16.770 -0.4214 -0.5471  0.7844
  310TMC3    H1 4721   4.242   4.102  16.908 -0.5565 -1.8754 -1.2183
  310TMC3    H2 4722   4.213   4.177  16.482 -1.7416 -2.2986 -0.4802
  310TMC3    C7 4723   4.305   4.003  16.656 -0.2760  0.1796 -0.1277
  310TMC3    C8 4724   4.105   4.413  16.503  0.1289 -0.7778 -0.5601
  310TMC3    O1 4725   4.308   3.967  16.536  0.0428  0.5830  0.0877
  310TMC3    O2 4726   4.105   4.358  16.393 -0.3504 -0.3449 -0.3930
  311MPD2     C 4727   1.481   0.386  12.896 -1.0892 -0.7024  0.0682
  311MPD2    C1 4728   1.490   0.524  12.902 -0.0403 -0.1194  0.4885
  311MPD2    C2 4729   1.376   0.602  12.921 -0.2854  0.5157 -0.0251
  311MPD2    C3 4730   1.247   0.537  12.918 -0.0157 -0.2373 -0.7944
  311MPD2    C4 4731   1.240   0.403  12.907 -0.3651  0.0679  0.3189
  311MPD2    C5 4732   1.356   0.333  12.889 -0.1318 -0.1688 -0.2915
  311MPD2     H 4733   1.375   0.710  12.923  1.8973  0.6028 -2.4519
  311MPD2    H1 4734   1.149   0.345  12.913  0.3779 -1.4085 -2.4136
  311MPD2    H2 4735   1.569   0.325  12.879 -0.5421  0.1228 -0.0429
  311MPD2    H3 4736   1.349   0.226  12.874 -1.9389  0.3440 -3.1411
  311MPD2     N 4737   1.136   0.618  12.934 -0.0001  0.0697 -0.4080
  311MPD2    H5 4738   1.164   0.715  12.943  1.7534 -0.3387 -1.4021
  311MPD2    N1 4739   1.617   0.586  12.908  0.3134 -0.9459  0.1862
  311MPD2    H7 4740   1.612   0.686  12.922 -0.2171 -1.2438  2.0336
  312TMC3    C1 4741   0.904   0.685  12.947  0.9144  0.1936  0.3211
  312TMC3    C2 4742   0.781   0.661  12.895 -0.3630 -0.2334  0.2784
  312TMC3    C3 4743   0.699   0.771  12.895  0.0764  0.1465  0.5810
  312TMC3    C4 4744   0.946   0.802  13.005  0.2777 -0.3509 -0.3829
  312TMC3    C5 4745   0.849   0.901  13.009 -0.6208  0.5156  0.4135
  312TMC3    C6 4746   0.727   0.896  12.955  0.8178 -0.5292  0.5929
  312TMC3     C 4747   1.007   0.580  12.927 -0.3677  0.2155  0.5981
  312TMC3     O 4748   0.960   0.468  12.937 -0.3698 -0.0177  0.1125
  312TMC3     H 4749   0.761   0.583  12.822  2.2193 -0.8946  0.2847
  312TMC3    H1 4750   1.044   0.822  13.047 -0.0034  0.1270  0.0424
  312TMC3    H2 4751   0.646   0.968  12.966  0.4819 -0.9358  0.8066
  312TMC3    C7 4752   0.892   1.019  13.089  0.2276  0.8603  0.0121
  312TMC3    C8 4753   0.587   0.747  12.807 -0.2668  0.4896 -0.4501
  312TMC3    O1 4754   0.847   1.130  13.053  0.4404 -0.7574  0.5404
  312TMC3    O2 4755   0.558   0.636  12.771 -0.7819 -0.1040 -0.1387
  313MPD2     C 4756   0.619   4.623  10.841 -0.1549 -1.1307 -0.2973
  313MPD2    C1 4757   0.623   4.529  10.743  0.1801 -0.1929  0.8355
  313MPD2    C2 4758   0.538   4.421  10.752  0.3424  0.0249 -0.1054
  313MPD2    C3 4759   0.450   4.399  10.861 -0.4994 -0.0884 -0.8547
  313MPD2    C4 4760   0.453   4.495  10.965 -0.6659 -0.0399 -0.0805
  313MPD2    C5 4761   0.533   4.607  10.944  0.4390  0.2922  0.7682
  313MPD2     H 4762   0.535   4.357  10.665 -1.0854  0.5024 -0.3949
  313MPD2    H1 4763   0.400   4.494  11.060 -0.6956 -1.8777 -0.1112
  313MPD2    H2 4764   0.676   4.715  10.834 -3.1574  0.7901  0.4992
  313MPD2    H3 4765   0.535   4.682  11.023 -2.5308  0.6324  0.5400
  313MPD2     N 4766   0.364   4.282  10.866 -0.3375 -0.1563 -0.4760
  313MPD2    H5 4767   0.382   4.213  10.794  0.0267  0.1621 -0.6954
  313MPD2    N1 4768   0.709   4.539  10.630  0.3986  0.5098 -0.5619
  313MPD2    H7 4769   0.684   4.489  10.545  0.7559  0.1234 -0.4429
  314TMC3    C1 4770   0.877   4.647  10.498  0.2075 -0.6777  0.0827
  314TMC3    C2 4771   1.003   4.690  10.497 -0.8593 -0.4881  0.6824
  314TMC3    C3 4772   1.040   0.042  10.397  0.0320  0.3818  0.0964
  314TMC3    C4 4773   0.783   4.691  10.404  0.3360 -0.8042 -0.7239
  314TMC3    C5 4774   0.829   0.027  10.299 -0.3898 -0.0899 -0.6360
  314TMC3    C6 4775   0.959   0.076  10.292 -0.2615 -0.3463  0.1477
  314TMC3     C 4776   0.824   4.619  10.627 -0.0451  0.1327  0.3044
  314TMC3     O 4777   0.877   4.682  10.718  0.0659 -0.2984  0.8108
  314TMC3     H 4778   1.071   4.654  10.573 -0.6330 -1.4104  0.0420
  314TMC3    H1 4779   0.676   4.672  10.408  0.0115  1.4604  1.4279
  314TMC3    H2 4780   0.997   0.143  10.216  0.3132 -1.4933 -0.5815
  314TMC3    C7 4781   0.733   0.062  10.195  0.3663  0.1907  0.4604
  314TMC3    C8 4782   1.142   0.138  10.436  0.0192 -0.9939 -0.2342
  314TMC3    O1 4783   0.625   0.004  10.193  0.1757 -0.1354 -0.0802
  314TMC3    O2 4784   1.163   0.234  10.370  0.3992 -0.0284 -0.3046
  315MPD2     C 4785   0.412   3.631  17.555  0.9982 -0.2005  0.5454
  315MPD2    C1 4786   0.538   3.682  17.568 -0.6165  0.6911 -0.7405
  315MPD2    C2 4787   0.554   3.820  17.573 -0.4101  0.1718  0.3763
  315MPD2    C3 4788   0.449   3.905  17.571  0.3281  0.0462 -0.6603
  315MPD2    C4 4789   0.322   3.853  17.567  0.8696 -0.0186  0.1750
  315MPD2    C5 4790   0.307   3.716  17.548  0.2906  0.5789  0.2365
  315MPD2     H 4791   0.653   3.864  17.581 -0.1047 -0.1773 -1.4631
  315MPD2    H1 4792   0.230   3.911  17.569  1.2288  0.5864 -0.6948
  315MPD2    H2 4793   0.382   3.528  17.551 -0.8691  0.3693 -0.0235
  315MPD2    H3 4794   0.204   3.683  17.540  0.9759 -0.9787 -1.8959
  315MPD2     N 4795   0.476   4.037  17.596 -0.3044 -0.1906 -0.0340
  315MPD2    H5 4796   0.572   4.064  17.611 -1.2194  1.8563  2.1819
  315MPD2    N1 4797   0.655   3.610  17.595 -0.0781 -0.5532  1.0419
  315MPD2    H7 4798   0.745   3.656  17.602  0.2679 -0.8766 -1.1685
  316TMC3    C1 4799   0.430   4.255  17.660 -0.4604  0.3165 -0.0006
  316TMC3    C2 4800   0.529   4.240  17.754  0.1931  0.5231 -0.5333
  316TMC3    C3 4801   0.534   4.340   0.093 -1.3265  0.3412 -0.2600
  316TMC3    C4 4802   0.350   4.360  17.657 -0.4595 -0.0876 -0.3467
  316TMC3    C5 4803   0.369   4.463  17.748  0.4896 -0.5451  0.5614
  316TMC3    C6 4804   0.454   4.447   0.094  0.4494  0.8288  0.3494
  316TMC3     C 4805   0.377   4.133  17.611  0.2794  0.5491 -0.3048
  316TMC3     O 4806   0.260   4.129  17.583  0.0157 -0.4099  0.0450
  316TMC3     H 4807   0.584   4.148   0.017  2.0207  1.2655 -2.3311
  316TMC3    H1 4808   0.266   4.362  17.589 -0.2263 -1.7288 -0.6802
  316TMC3    H2 4809   0.460   4.516   0.177  0.8937 -0.5036  1.4240
  316TMC3    C7 4810   0.286   4.580  17.738  0.2050  0.3386  0.6434
  316TMC3    C8 4811   0.579   4.289   0.224  0.6450 -0.4099  0.3029
  316TMC3    O1 4812   0.279   4.649   0.083  0.0043 -0.2120  0.4206
  316TMC3    O2 4813   0.506   4.314   0.320  0.4884  0.0660  0.1554
  317MPD2     C 4814   2.399   3.041  12.561 -0.1477  0.3434 -0.0443
  317MPD2    C1 4815   2.425   2.913  12.525 -0.0619 -0.3081 -0.1780
  317MPD2    C2 4816   2.459   2.817  12.618 -0.4831  0.1913 -0.6715
  317MPD2    C3 4817   2.465   2.855  12.751 -0.3423 -0.0184  0.0729
  317MPD2    C4 4818   2.448   2.987  12.784 -0.6382 -0.3748  0.2110
  317MPD2    C5 4819   2.413   3.080  12.692  0.0662  0.1759  0.5936
  317MPD2     H 4820   2.492   2.719  12.587  0.4841  0.4334 -0.4112
  317MPD2    H1 4821   2.454   3.023  12.886 -0.5730 -0.3109  0.1848
  317MPD2    H2 4822   2.396   3.116  12.483 -0.6540  1.5906  1.1683
  317MPD2    H3 4823   2.406   3.187  12.710  2.6995  0.4914 -0.1663
  317MPD2     N 4824   2.486   2.753  12.850 -0.0977  0.1312  0.2068
  317MPD2    H5 4825   2.470   2.658  12.816  1.1650 -0.1486  0.3888
  317MPD2    N1 4826   2.426   2.884  12.387 -0.3715  0.5211  0.5965
  317MPD2    H7 4827   2.470   2.798  12.355  2.2350  0.9655  2.9344
  318TMC3    C1 4828   2.493   2.632  13.060  0.2837 -0.1216 -0.3544
  318TMC3    C2 4829   2.466   2.518  12.986 -0.1643  0.1086 -0.2352
  318TMC3    C3 4830   2.459   2.403  13.052  0.4241  0.3720 -0.2634
  318TMC3    C4 4831   2.489   2.625  13.202  0.1538  0.1238  0.2293
  318TMC3    C5 4832   2.484   2.503  13.265  0.3096 -0.5374  0.1648
  318TMC3    C6 4833   2.483   2.388  13.190 -0.4032  0.2096 -0.1428
  318TMC3     C 4834   2.488   2.763  12.989  0.2791 -0.0194  0.2925
  318TMC3     O 4835   2.481   2.867  13.059 -0.5402  0.3805  0.6999
  318TMC3     H 4836   2.438   2.511  12.882  1.7728  0.6298 -0.7990
  318TMC3    H1 4837   2.513   2.715  13.258  0.1415  1.0080 -1.2002
  318TMC3    H2 4838   2.469   2.289  13.234 -1.8994 -0.2969 -1.7785
  318TMC3    C7 4839   2.525   2.489  13.401  0.0849 -0.1488 -0.5567
  318TMC3    C8 4840   2.432   2.283  12.970 -0.2142 -0.1241 -0.1261
  318TMC3    O1 4841   2.474   2.567  13.476 -0.2895 -0.3354 -0.6468
  318TMC3    O2 4842   2.474   2.274  12.853  0.0264 -0.3796  0.3451
  319MPD2     C 4843   3.326   4.312  16.499 -0.9769 -0.1501  0.1240
  319MPD2    C1 4844   3.315   4.174  16.499 -0.0037  0.1898  0.3080
  319MPD2    C2 4845   3.212   4.108  16.428 -0.6307  0.4549  0.7779
  319MPD2    C3 4846   3.124   4.185  16.350 -0.8395  0.0261 -0.3325
  319MPD2    C4 4847   3.131   4.322  16.352 -0.3116  0.4942  0.0662
  319MPD2    C5 4848   3.235   4.383  16.422 -0.7536 -0.9251 -0.0475
  319MPD2     H 4849   3.201   4.000  16.427  3.3643  0.0397 -1.2289
  319MPD2    H1 4850   3.063   4.388  16.299  2.2080  2.0317 -1.2989
  319MPD2    H2 4851   3.394   4.373  16.556  0.3478 -0.9689 -0.5980
  319MPD2    H3 4852   3.236   4.490  16.440  2.4039 -1.2382  1.6290
  319MPD2     N 4853   3.029   4.125  16.262 -0.0114  0.4414 -0.2380
  319MPD2    H5 4854   2.983   4.194  16.203  2.3615  1.4391 -0.9023
  319MPD2    N1 4855   3.394   4.087  16.581  0.0863  0.1058 -0.0800
  319MPD2    H7 4856   3.374   3.987  16.577 -0.0445  0.1034  0.6621
  320TMC3    C1 4857   2.902   3.951  16.143  0.0770  0.0034  0.0078
  320TMC3    C2 4858   2.911   4.008  16.018  0.3193  0.2779  0.1898
  320TMC3    C3 4859   2.861   3.942  15.906  0.0780 -0.8765 -0.1066
  320TMC3    C4 4860   2.876   3.815  16.150 -0.1790 -0.5998 -0.4577
  320TMC3    C5 4861   2.840   3.749  16.031  0.1881 -0.2845  0.4069
  320TMC3    C6 4862   2.831   3.809  15.910 -0.4008 -0.0067 -0.2299
  320TMC3     C 4863   2.991   3.991  16.253  0.4073  0.0827 -0.1596
  320TMC3     O 4864   3.030   3.892  16.315  0.1143  0.1795 -0.0032
  320TMC3     H 4865   2.951   4.108  16.006  0.2636  0.0365 -1.9172
  320TMC3    H1 4866   2.861   3.765  16.245  1.3158  0.1170  0.1497
  320TMC3    H2 4867   2.807   3.759  15.818 -0.7275  1.7630 -1.1159
  320TMC3    C7 4868   2.776   3.610  16.044  0.6062 -0.1927  0.7313
  320TMC3    C8 4869   2.817   4.025  15.802 -0.0721 -0.3019 -0.0853
  320TMC3    O1 4870   2.785   3.532  15.948 -0.0688 -0.1708  0.3324
  320TMC3    O2 4871   2.792   4.140  15.835 -0.0579 -0.6497 -0.1180
  321TMC3    C1 4872   3.579   4.028  16.710  0.6242  0.4681 -0.2895
  321TMC3    C2 4873   3.507   3.916  16.748 -0.3561 -0.7303 -0.5225
  321TMC3    C3 4874   3.576   3.809  16.795  0.2363 -0.2160 -0.1040
  321TMC3    C4 4875   3.714   4.035  16.730 -0.2429 -0.5341  0.3081
  321TMC3    C5 4876   3.779   3.919  16.770  0.1417 -0.2404 -0.4643
  321TMC3    C6 4877   3.713   3.802  16.802  0.6625 -0.0875 -0.3173
  321TMC3     C 4878   3.514   4.132  16.635 -0.1513  0.3346  0.4551
  321TMC3     O 4879   3.582   4.227  16.607 -0.4771 -0.1454 -0.1001
  321TMC3     H 4880   3.400   3.923  16.762 -0.6579 -1.0696 -2.7324
  321TMC3    H1 4881   3.780   4.118  16.708 -0.1703  0.0376  2.6453
  321TMC3    H2 4882   3.752   3.702  16.813  0.2701 -0.1641  0.4217
  321TMC3    C7 4883   3.879   3.944  16.867 -0.6759 -0.3815 -1.0302
  321TMC3    C8 4884   3.527   3.749  16.921 -0.5947  0.8399 -0.6393
  321TMC3    O1 4885   3.964   4.025  16.838  0.2110 -0.1551 -0.0304
  321TMC3    O2 4886   3.562   3.812  17.018  0.4499 -0.0585 -0.0550
  322MPD2     C 4887   2.327   0.440  13.611 -0.2063  0.3350 -0.5854
  322MPD2    C1 4888   2.312   0.352  13.710 -0.0323  0.2431 -0.3862
  322MPD2    C2 4889   2.266   0.225  13.677 -0.1787 -0.8342 -0.2849
  322MPD2    C3 4890   2.266   0.182  13.546  0.1565  0.5524  0.0058
  322MPD2    C4 4891   2.271   0.278  13.449  0.0712  0.0505 -0.2099
  322MPD2    C5 4892   2.296   0.406  13.482  0.3450 -0.4730  0.3902
  322MPD2     H 4893   2.242   0.149  13.750 -0.6028 -0.7904 -0.3785
  322MPD2    H1 4894   2.252   0.254  13.345  3.4156  1.0454 -1.0799
  322MPD2    H2 4895   2.358   0.540  13.639  2.9658 -0.9124  0.4288
  322MPD2    H3 4896   2.310   0.475  13.400 -1.0798 -0.5956  0.0409
  322MPD2     N 4897   2.236   0.045  13.525 -0.4268  0.2633  0.7631
  322MPD2    H5 4898   2.208   4.730  13.606  1.4412  2.0037  2.5676
  322MPD2    N1 4899   2.361   0.383  13.839  0.5472 -0.1838  0.1161
  322MPD2    H7 4900   2.424   0.462  13.843  1.1932 -0.7531  1.1093
  323TMC3    C1 4901   2.443   0.340  14.054  0.2820  0.5710 -0.3336
  323TMC3    C2 4902   2.548   0.421  14.027 -0.4048 -0.1096  0.0477
  323TMC3    C3 4903   2.642   0.429  14.128 -0.0198  0.1896  0.3172
  323TMC3    C4 4904   2.424   0.280  14.171 -0.0722 -0.7946  0.1110
  323TMC3    C5 4905   2.514   0.307  14.270 -0.2315  0.1290 -0.2765
  323TMC3    C6 4906   2.631   0.372  14.252  0.2109  0.3695  0.7812
  323TMC3     C 4907   2.346   0.305  13.950  0.8729 -0.3383  0.2268
  323TMC3     O 4908   2.267   0.211  13.961  0.0322  0.5745  0.2660
  323TMC3     H 4909   2.562   0.455  13.926  3.7931 -0.1292  0.6243
  323TMC3    H1 4910   2.328   0.232  14.190 -0.2119 -0.1881  0.9455
  323TMC3    H2 4911   2.709   0.391  14.324  1.7689 -0.7861 -0.6094
  323TMC3    C7 4912   2.507   0.233  14.396 -0.3428 -1.0485 -0.1886
  323TMC3    C8 4913   2.773   0.486  14.095  0.3828  0.3696  0.0133
  323TMC3    O1 4914   2.429   0.138  14.409  0.7721  0.0656  0.0800
  323TMC3    O2 4915   2.860   0.480  14.179  0.0821 -0.0195 -0.2993
  324MPD2     C 4916   3.788   1.681  14.950  0.3041  0.1739  0.6067
  324MPD2    C1 4917   3.807   1.628  14.822  0.0404  0.5886 -0.3326
  324MPD2    C2 4918   3.694   1.629  14.739  0.1623  0.0084 -0.2123
  324MPD2    C3 4919   3.569   1.661  14.787 -0.5826 -0.3043 -0.3036
  324MPD2    C4 4920   3.553   1.705  14.916  0.0336  0.1347 -0.0494
  324MPD2    C5 4921   3.664   1.711  14.996 -0.0757  0.2533 -0.1880
  324MPD2     H 4922   3.706   1.609  14.633 -0.1796  1.4320 -0.5158
  324MPD2    H1 4923   3.457   1.735  14.957 -1.0121  0.0257 -2.4697
  324MPD2    H2 4924   3.866   1.704  15.022  0.0068 -1.4905  1.4787
  324MPD2    H3 4925   3.649   1.753  15.095 -1.2580  2.7798 -1.4372
  324MPD2     N 4926   3.461   1.680  14.704 -0.7061  0.5481 -0.3019
  324MPD2    H5 4927   3.377   1.726  14.736 -0.3136  1.1031 -0.0657
  324MPD2    N1 4928   3.938   1.611  14.765  0.1867 -0.1521 -0.0592
  324MPD2    H7 4929   3.938   1.592  14.665  0.9373  0.9284 -0.2579
  325TMC3    C1 4930   3.342   1.715  14.510  0.0465 -0.0346 -0.4129
  325TMC3    C2 4931   3.269   1.628  14.437  0.0020 -0.0886  0.1507
  325TMC3    C3 4932   3.147   1.663  14.379 -0.2752 -0.0844 -0.0047
  325TMC3    C4 4933   3.292   1.840  14.547 -0.2987  0.4200  0.1296
  325TMC3    C5 4934   3.172   1.876  14.493 -0.9887 -0.8024  0.3438
  325TMC3    C6 4935   3.100   1.789  14.406  0.0101  0.1502 -0.2290
  325TMC3     C 4936   3.457   1.657  14.573  0.0062  0.0817 -0.0276
  325TMC3     O 4937   3.518   1.571  14.515 -0.2364  0.0967 -0.2905
  325TMC3     H 4938   3.312   1.530  14.422 -1.4845 -0.5921 -0.7764
  325TMC3    H1 4939   3.352   1.912  14.602 -2.5356  0.2942  2.7113
  325TMC3    H2 4940   3.003   1.826  14.374 -0.2578 -0.6928 -0.3775
  325TMC3    C7 4941   3.112   1.997  14.554  0.1553  0.1102 -0.0868
  325TMC3    C8 4942   3.077   1.557  14.298 -0.0449  0.3422  0.0275
  325TMC3    O1 4943   3.179   2.046  14.645  0.2891 -0.2275  0.3189
  325TMC3    O2 4944   3.115   1.444  14.299  0.4488  0.6606 -0.1714
  326MPD2     C 4945   0.068   2.702  11.354 -0.3870 -0.1700 -0.5556
  326MPD2    C1 4946   0.115   2.598  11.272  0.2306 -0.0369  0.1567
  326MPD2    C2 4947   0.249   2.568  11.268  0.7561 -0.4494  0.4270
  326MPD2    C3 4948   0.341   2.623  11.357 -0.9088  0.2793 -0.0074
  326MPD2    C4 4949   0.292   2.717  11.442 -0.7320 -0.6266  0.1724
  326MPD2    C5 4950   0.162   2.761  11.435  0.3886 -0.7420 -0.3811
  326MPD2     H 4951   0.286   2.498  11.194 -0.9544 -2.8160  1.8126
  326MPD2    H1 4952   0.362   2.771  11.505 -0.6807 -0.5856  0.0805
  326MPD2    H2 4953   4.707   2.742  11.362  0.0303  0.2887  2.6181
  326MPD2    H3 4954   0.136   2.844  11.500  1.3732 -1.0427  0.4046
  326MPD2     N 4955   0.482   2.597  11.355 -0.1056  0.1679  0.2719
  326MPD2    H5 4956   0.536   2.669  11.402 -1.2962  2.1230 -1.3656
  326MPD2    N1 4957   0.019   2.527  11.188 -0.3217 -0.3044 -0.2648
  326MPD2    H7 4958   0.064   2.458  11.128  1.0175 -0.6783  1.1780
  327TMC3    C1 4959   4.548   2.451  11.119  0.0385 -0.4707  0.3318
  327TMC3    C2 4960   4.418   2.491  11.092 -0.3030 -0.7009  0.1108
  327TMC3    C3 4961   4.331   2.399  11.042 -0.6310 -0.0886  1.1034
  327TMC3    C4 4962   4.586   2.321  11.110 -0.3867 -0.4415  0.2076
  327TMC3    C5 4963   4.497   2.235  11.052  0.5352  0.0695 -0.0632
  327TMC3    C6 4964   4.368   2.268  11.030  0.1411  0.0713 -0.1274
  327TMC3     C 4965   4.627   2.552  11.176  0.3603 -0.1540 -0.1347
  327TMC3     O 4966   4.557   2.634  11.235 -0.4835 -0.0250 -0.0142
  327TMC3     H 4967   4.388   2.593  11.113 -0.7677 -0.5665 -1.1632
  327TMC3    H1 4968   4.687   2.289  11.132 -0.7530 -1.1182  0.9135
  327TMC3    H2 4969   4.310   2.185  10.993  2.1962 -1.2627 -0.3503
  327TMC3    C7 4970   4.536   2.101  11.028  0.5322 -0.3936 -0.9206
  327TMC3    C8 4971   4.201   2.444  11.002 -0.0322  0.0516  0.4774
  327TMC3    O1 4972   4.465   2.038  10.946 -0.8849 -0.1942  0.2249
  327TMC3    O2 4973   4.121   2.368  10.950 -0.0683  0.3304 -0.1148
  328MPD2     C 4974   2.712   2.211  17.246  0.6637  0.4975 -0.5923
  328MPD2    C1 4975   2.679   2.151  17.129 -0.2091 -0.4723  0.3999
  328MPD2    C2 4976   2.648   2.223  17.013  0.5683  0.4490 -0.7539
  328MPD2    C3 4977   2.647   2.361  17.023 -0.5439 -0.9735 -0.1718
  328MPD2    C4 4978   2.691   2.418  17.140  0.1850  0.3702 -0.6273
  328MPD2    C5 4979   2.733   2.346  17.250  0.3744  0.4957  0.7656
  328MPD2     H 4980   2.611   2.174  16.924  0.7982 -1.0726 -0.0145
  328MPD2    H1 4981   2.687   2.526  17.149  1.1182  0.4079 -0.7320
  328MPD2    H2 4982   2.728   2.152  17.336 -1.8255  1.5601  0.5316
  328MPD2    H3 4983   2.749   2.407  17.338  3.3112  0.6966  0.0849
  328MPD2     N 4984   2.579   2.446  16.937  0.3995 -0.1396  0.2515
  328MPD2    H5 4985   2.573   2.546  16.953  1.7704  0.3755 -2.4568
  328MPD2    N1 4986   2.663   2.015  17.132 -0.2734 -0.4133 -0.0687
  328MPD2    H7 4987   2.669   1.976  17.226  0.6932  0.5090  0.2443
  329TMC3    C1 4988   2.588   1.804  17.086  0.6040 -0.3967  0.2243
  329TMC3    C2 4989   2.473   1.825  17.160 -1.0387  0.0252 -0.3103
  329TMC3    C3 4990   2.372   1.741  17.149 -0.2192  0.0679  0.1718
  329TMC3    C4 4991   2.592   1.689  17.011  0.3110 -0.6133  0.1414
  329TMC3    C5 4992   2.499   1.596  17.030  0.6469  0.7045  0.1618
  329TMC3    C6 4993   2.383   1.618  17.091 -0.4116  0.3674  0.3651
  329TMC3     C 4994   2.649   1.926  17.029 -0.1272 -0.5482  0.3334
  329TMC3     O 4995   2.651   1.946  16.907 -0.0885 -0.4440  0.0290
  329TMC3     H 4996   2.451   1.925  17.197 -2.8265 -1.2775  2.1058
  329TMC3    H1 4997   2.672   1.670  16.941 -0.4311 -0.4193 -0.7587
  329TMC3    H2 4998   2.302   1.547  17.096  0.2123 -0.4720 -1.6996
  329TMC3    C7 4999   2.560   1.462  17.027 -0.2746 -0.0170  0.0641
  329TMC3    C8 5000   2.247   1.777  17.204  0.3189 -0.2191  0.3951
  329TMC3    O1 5001   2.651   1.443  16.947  0.2251  0.3308 -0.7713
  329TMC3    O2 5002   2.157   1.707  17.169  0.0337  0.8351  0.1816
  330TMC3    C1 5003   0.548   2.013   9.907 -0.7230  0.1096 -0.4428
  330TMC3    C2 5004   0.469   1.929   9.835 -0.9510  0.4838 -0.0019
  330TMC3    C3 5005   0.483   1.798   9.859 -0.5017 -0.2958 -0.9634
  330TMC3    C4 5006   0.641   1.961   9.989  0.0982  0.1743 -0.0268
  330TMC3    C5 5007   0.649   1.827  10.019  0.1984 -0.8081 -0.1917
  330TMC3    C6 5008   0.568   1.741   9.954  0.3886 -0.6699  0.3743
  330TMC3     C 5009   0.562   2.159   9.869 -0.9407  0.4414  0.4649
  330TMC3     O 5010   0.672   2.209   9.900  0.1737 -0.0712  0.3602
  330TMC3     H 5011   0.390   1.973   9.775 -1.1987  0.5587  0.3815
  330TMC3    H1 5012   0.709   2.028  10.039  0.8498 -1.2341  0.8286
  330TMC3    H2 5013   0.569   1.638   9.985 -1.2958 -0.7305  0.2292
  330TMC3    C7 5014   0.772   1.784  10.092  0.7930  0.2328 -0.3745
  330TMC3    C8 5015   0.387   1.713   9.793 -1.0130 -0.5117  0.0545
  330TMC3    O1 5016   0.826   1.868  10.159  0.3562  0.0841 -0.5676
  330TMC3    O2 5017   0.304   1.762   9.720 -0.0236  0.6293  0.1905
  331MPD2     C 5018   4.086   1.099  13.244 -0.1821  0.0322  0.3009
  331MPD2    C1 5019   4.066   1.105  13.107 -0.4840  0.3693 -0.4266
  331MPD2    C2 5020   3.988   1.008  13.049  0.4236  0.2703 -0.1641
  331MPD2    C3 5021   3.942   0.900  13.118  0.3288 -0.5056 -0.1004
  331MPD2    C4 5022   3.973   0.885  13.254  0.5362  0.8458 -0.7540
  331MPD2    C5 5023   4.037   0.989  13.311  0.3183  0.4155  0.8359
  331MPD2     H 5024   3.964   1.012  12.944 -1.9844 -0.2172  0.3605
  331MPD2    H1 5025   3.961   0.790  13.305  2.8700  1.7717  1.5220
  331MPD2    H2 5026   4.139   1.174  13.302 -2.6660  2.2836 -0.3496
  331MPD2    H3 5027   4.045   0.988  13.419  0.8144  1.3190  0.8046
  331MPD2     N 5028   3.859   0.814  13.055  0.1532 -0.7483  0.0259
  331MPD2    H5 5029   3.853   0.835  12.956 -1.4364 -0.9766  0.0803
  331MPD2    N1 5030   4.101   1.218  13.038 -0.7054  0.8648  0.5050
  331MPD2    H7 5031   4.102   1.301  13.097  0.6426  0.0358  1.6433
  332TMC3    C1 5032   3.734   0.609  13.019  0.1478  0.0920 -0.0512
  332TMC3    C2 5033   3.655   0.651  12.917 -0.8018  0.2367  0.1909
  332TMC3    C3 5034   3.597   0.562  12.834 -0.1985  0.7311 -0.4849
  332TMC3    C4 5035   3.749   0.475  13.041 -1.0830 -0.4031 -0.3467
  332TMC3    C5 5036   3.693   0.388  12.955 -0.7104  0.0857 -0.1772
  332TMC3    C6 5037   3.604   0.432  12.855  0.1636 -0.0372 -0.5899
  332TMC3     C 5038   3.798   0.701  13.111  0.3196  0.4276  0.2221
  332TMC3     O 5039   3.798   0.660  13.227 -0.7934  0.4051  0.2488
  332TMC3     H 5040   3.650   0.758  12.901 -0.6966  0.1875 -0.1691
  332TMC3    H1 5041   3.811   0.438  13.122  1.3055 -1.0714 -2.4806
  332TMC3    H2 5042   3.576   0.358  12.781  2.0593  0.0701 -1.4383
  332TMC3    C7 5043   3.764   0.265  12.937 -1.1351 -0.3267  0.7778
  332TMC3    C8 5044   3.545   0.620  12.708  0.3475  0.3960  0.6017
  332TMC3    O1 5045   3.706   0.169  12.887  0.5690 -0.0055 -0.0785
  332TMC3    O2 5046   3.567   0.736  12.678  0.6038  0.0783 -0.4969
  333MPD2     C 5047   3.769   0.730  11.673  0.1845  0.4431 -0.6563
  333MPD2    C1 5048   3.800   0.637  11.578 -0.4258  0.1987 -0.1525
  333MPD2    C2 5049   3.735   0.512  11.574 -0.2150  0.7152 -0.4037
  333MPD2    C3 5050   3.625   0.494  11.660 -0.4651  0.5744 -0.3716
  333MPD2    C4 5051   3.602   0.593  11.763 -0.6353 -0.3333  0.2639
  333MPD2    C5 5052   3.672   0.718  11.767 -0.3836 -1.0223 -1.2619
  333MPD2     H 5053   3.764   0.449  11.490  1.9311 -1.0687  1.6876
  333MPD2    H1 5054   3.525   0.583  11.838 -0.3216 -0.9578  0.5025
  333MPD2    H2 5055   3.823   0.824  11.669 -1.1178  1.2249  0.0400
  333MPD2    H3 5056   3.663   0.794  11.843  0.6408 -1.0147 -1.1540
  333MPD2     N 5057   3.548   0.385  11.649  0.1754  0.0437  0.6784
  333MPD2    H5 5058   3.573   0.316  11.578 -0.6732 -1.1635  1.5474
  333MPD2    N1 5059   3.911   0.675  11.497 -0.3255 -0.0100 -0.3452
  333MPD2    H7 5060   3.943   0.772  11.504  2.2814 -0.8144 -1.0196
  334TMC3    C1 5061   4.050   0.682  11.317 -0.1754  0.4859 -0.5088
  334TMC3    C2 5062   4.149   0.610  11.243  0.0496 -0.2271 -1.3889
  334TMC3    C3 5063   4.242   0.690  11.179  0.1607 -0.7145 -0.4425
  334TMC3    C4 5064   4.038   0.820  11.311  0.8553 -0.3015 -0.0879
  334TMC3    C5 5065   4.125   0.892  11.243  0.1476  0.6136 -0.6809
  334TMC3    C6 5066   4.233   0.828  11.177 -0.6287 -0.1826  0.0269
  334TMC3     C 5067   3.963   0.603  11.398 -0.9596 -0.0557  0.2297
  334TMC3     O 5068   3.968   0.479  11.391 -0.4784  0.5189  0.1986
  334TMC3     H 5069   4.163   0.504  11.257  0.9264  0.0652 -0.0445
  334TMC3    H1 5070   3.964   0.872  11.371 -0.5924 -2.1719 -0.2596
  334TMC3    H2 5071   4.309   0.880  11.120  0.2069 -1.7210 -0.2650
  334TMC3    C7 5072   4.082   1.020  11.180 -0.4709 -0.2611  0.2220
  334TMC3    C8 5073   4.355   0.616  11.124  0.7338 -0.4843  0.6033
  334TMC3    O1 5074   4.170   1.058  11.102 -0.1355 -0.1535 -0.0844
  334TMC3    O2 5075   4.344   0.490  11.123 -0.1053  0.2404 -0.3535
  335TMC3    C1 5076   3.311   2.352  17.548 -0.3740 -1.1290 -0.4338
  335TMC3    C2 5077   3.234   2.293  17.450 -0.4279 -0.1014  0.0927
  335TMC3    C3 5078   3.233   2.357  17.327  0.2360 -0.2997  0.3832
  335TMC3    C4 5079   3.403   2.455  17.523  0.4369 -0.0922 -0.3260
  335TMC3    C5 5080   3.388   2.519  17.399  1.0643  0.3779  0.9045
  335TMC3    C6 5081   3.301   2.474  17.304 -0.6130  0.2061  0.1318
  335TMC3     C 5082   3.302   2.298  17.686  0.1583  0.8311  0.3044
  335TMC3     O 5083   3.265   2.184  17.703 -0.0777 -0.5128 -0.0751
  335TMC3     H 5084   3.183   2.199  17.472  1.1030 -1.4020 -1.8422
  335TMC3    H1 5085   3.492   2.480  17.579  0.9218  0.8212 -1.5176
  335TMC3    H2 5086   3.296   2.515  17.204 -1.6449 -0.8318 -0.2430
  335TMC3    C7 5087   3.492   2.603  17.351  0.7768  0.7211 -0.2609
  335TMC3    C8 5088   3.176   2.297  17.209  0.1329  0.2578 -0.2819
  335TMC3    O1 5089   3.534   2.573  17.240 -0.1689  0.0424 -0.1711
  335TMC3    O2 5090   3.191   2.355  17.104 -0.0358  0.0858 -0.2414
  336MPD2     C 5091   3.145   0.672  16.047  0.1370 -0.3208 -0.9539
  336MPD2    C1 5092   3.063   0.613  15.958 -0.0622  0.1240 -0.4956
  336MPD2    C2 5093   3.038   0.475  15.964 -0.2614  0.2043  0.2675
  336MPD2    C3 5094   3.111   0.402  16.057  0.1949  0.2514 -1.0172
  336MPD2    C4 5095   3.196   0.466  16.143 -0.8159 -1.1373 -0.0014
  336MPD2    C5 5096   3.207   0.603  16.138  0.1966 -0.1515 -0.3362
  336MPD2     H 5097   2.978   0.418  15.895 -0.1917 -0.9942  1.2115
  336MPD2    H1 5098   3.247   0.420  16.227 -0.5897  0.0683  0.5169
  336MPD2    H2 5099   3.174   0.775  16.035 -0.4570  0.0469  0.8764
  336MPD2    H3 5100   3.274   0.649  16.210  0.7268 -3.5101  1.3205
  336MPD2     N 5101   3.105   0.259  16.073 -0.0578 -0.2260  0.5549
  336MPD2    H5 5102   3.185   0.217  16.120  0.2719 -0.9247 -0.6293
  336MPD2    N1 5103   3.001   0.678  15.856 -0.8380  0.0216  0.5757
  336MPD2    H7 5104   2.946   0.620  15.793 -2.5787  1.7598  0.5274
  337TMC3    C1 5105   2.923   0.847  15.725  0.5031 -0.1296 -0.1358
  337TMC3    C2 5106   2.810   0.775  15.711 -0.1590  0.5660 -0.0389
  337TMC3    C3 5107   2.759   0.786  15.590 -0.4728 -0.1678 -0.8390
  337TMC3    C4 5108   2.983   0.925  15.627  0.0918  0.8219  0.0198
  337TMC3    C5 5109   2.922   0.918  15.503  0.0780 -0.6810 -0.2225
  337TMC3    C6 5110   2.818   0.834  15.479 -0.3961  1.0918 -0.4821
  337TMC3     C 5111   3.012   0.814  15.830 -0.7248 -0.3282 -0.0151
  337TMC3     O 5112   3.081   0.900  15.883  0.4415 -0.2653 -0.9066
  337TMC3     H 5113   2.760   0.723  15.793  0.3042 -0.1903 -0.2295
  337TMC3    H1 5114   3.074   0.984  15.638  1.2734 -0.9503 -0.1368
  337TMC3    H2 5115   2.761   0.832  15.387 -0.8077 -1.2369 -0.1923
  337TMC3    C7 5116   2.983   0.991  15.389  0.6074  0.0633  0.0746
  337TMC3    C8 5117   2.631   0.723  15.571  0.3669  0.1106  0.4275
  337TMC3    O1 5118   3.091   1.035  15.413 -0.1336 -1.2200  0.3332
  337TMC3    O2 5119   2.546   0.749  15.655 -0.2629 -0.3605 -0.0925
  338MPD2     C 5120   3.099   4.192   0.766 -0.0946  0.5651  0.3900
  338MPD2    C1 5121   3.050   4.158   0.638 -0.7760  0.4999 -0.2383
  338MPD2    C2 5122   2.925   4.193   0.600 -0.6973  0.3519  0.1708
  338MPD2    C3 5123   2.838   4.266   0.683  0.1358 -0.2383  0.0752
  338MPD2    C4 5124   2.883   4.295   0.817 -0.7397 -0.1504  0.3432
  338MPD2    C5 5125   3.011   4.255   0.851  0.2177 -0.1529  0.0641
  338MPD2     H 5126   2.885   4.166   0.503  3.6973 -0.0482 -1.5581
  338MPD2    H1 5127   2.825   4.341   0.896 -1.5168  0.6207 -0.6797
  338MPD2    H2 5128   3.200   4.175   0.800  0.2936  0.3200 -0.8677
  338MPD2    H3 5129   3.039   4.267   0.955  1.2476  0.4289 -0.2736
  338MPD2     N 5130   2.705   4.282   0.641  0.6204  0.2893 -0.4069
  338MPD2    H5 5131   2.697   4.278   0.540  1.7582  2.3896 -0.5809
  338MPD2    N1 5132   3.115   4.073   0.551 -0.7359 -0.1244 -0.0240
  338MPD2    H7 5133   3.076   4.077   0.457  1.3142  0.8876 -0.8451
  339TMC3    C1 5134   2.473   4.283   0.649 -0.1487 -0.6680  0.0167
  339TMC3    C2 5135   2.367   4.216   0.710  0.9246 -0.3057 -0.1616
  339TMC3    C3 5136   2.259   4.197   0.621  0.1233  0.3807 -0.5547
  339TMC3    C4 5137   2.476   4.314   0.515  0.0167  0.1262 -0.1112
  339TMC3    C5 5138   2.363   4.299   0.441 -0.0347 -0.1919  0.2735
  339TMC3    C6 5139   2.251   4.247   0.499  0.3251  0.7657 -0.9709
  339TMC3     C 5140   2.602   4.290   0.724  0.0321 -0.0221 -0.2097
  339TMC3     O 5141   2.596   4.272   0.845  0.0179 -0.5794 -0.0066
  339TMC3     H 5142   2.360   4.207   0.817 -3.0885 -0.4124 -0.4518
  339TMC3    H1 5143   2.565   4.359   0.473  0.6449 -1.5378 -0.5648
  339TMC3    H2 5144   2.157   4.235   0.446 -1.2227  0.0560  1.9458
  339TMC3    C7 5145   2.349   4.395   0.338  0.4458  0.0633  0.0249
  339TMC3    C8 5146   2.167   4.090   0.652 -0.2600  0.7195  0.2654
  339TMC3    O1 5147   2.409   4.501   0.361  0.6786 -0.2717  0.4230
  339TMC3    O2 5148   2.063   4.086   0.585  0.2476  0.1968  0.4026
  340MPD2     C 5149   3.653   2.041  10.756  0.7756  0.9961  0.4547
  340MPD2    C1 5150   3.605   2.128  10.658  0.2529  0.0975 -0.7240
  340MPD2    C2 5151   3.666   2.249  10.654  0.0172  0.2260 -0.1686
  340MPD2    C3 5152   3.775   2.283  10.735  0.2184  0.6155  0.4108
  340MPD2    C4 5153   3.831   2.187  10.816 -0.2995 -0.0975 -0.2037
  340MPD2    C5 5154   3.770   2.060  10.819 -0.2826  0.5430  0.7381
  340MPD2     H 5155   3.618   2.324  10.592 -1.1197 -0.0325  0.3931
  340MPD2    H1 5156   3.922   2.201  10.874 -0.9072  1.7069  0.3110
  340MPD2    H2 5157   3.616   1.940  10.769  0.9182  1.0442  1.2233
  340MPD2    H3 5158   3.801   1.991  10.896 -2.2542 -0.9399  0.2106
  340MPD2     N 5159   3.834   2.407  10.734 -0.1362 -0.2864 -0.4552
  340MPD2    H5 5160   3.905   2.430  10.803 -0.6454  2.4596 -0.8507
  340MPD2    N1 5161   3.494   2.096  10.574 -0.0455  0.2055 -0.4677
  340MPD2    H7 5162   3.453   2.005  10.587 -1.5698  1.0431  0.5570
  341TMC3    C1 5163   3.358   2.110  10.387 -1.0550 -0.7198  0.7244
  341TMC3    C2 5164   3.366   1.976  10.364 -0.0101  0.3529 -0.1051
  341TMC3    C3 5165   3.343   1.944  10.232 -0.2714 -0.2079 -0.1207
  341TMC3    C4 5166   3.299   2.193  10.291 -0.0487 -0.9058 -0.3237
  341TMC3    C5 5167   3.244   2.142  10.173  0.8808  0.5227  0.2571
  341TMC3    C6 5168   3.259   2.013  10.150 -0.9671  0.2467 -0.4096
  341TMC3     C 5169   3.451   2.178  10.473 -0.2687 -0.6703 -0.1596
  341TMC3     O 5170   3.469   2.300  10.452 -0.2351  0.7682  0.2730
  341TMC3     H 5171   3.425   1.920  10.435 -0.8273  0.6487  0.8086
  341TMC3    H1 5172   3.286   2.299  10.309 -0.2122 -0.9098 -0.4126
  341TMC3    H2 5173   3.215   1.968  10.061 -1.0883 -2.7576  1.1640
  341TMC3    C7 5174   3.313   2.213  10.063 -0.6664 -0.5226 -0.2309
  341TMC3    C8 5175   3.420   1.839  10.168  0.0542 -0.1689 -0.5650
  341TMC3    O1 5176   3.395   2.149   9.994 -0.0319 -0.4062  0.1448
  341TMC3    O2 5177   3.487   1.756  10.231  0.7294 -0.1538 -0.0859
  342MPD2     C 5178   1.050   0.644  17.517 -0.0034  0.0640 -0.4143
  342MPD2    C1 5179   1.139   0.702  17.422 -0.4906 -0.7894 -0.5558
  342MPD2    C2 5180   1.196   0.824  17.456  0.2660 -0.0842  0.8113
  342MPD2    C3 5181   1.163   0.887  17.574 -0.1299  0.1611  0.2442
  342MPD2    C4 5182   1.076   0.828  17.653 -0.2167  0.3606  0.0334
  342MPD2    C5 5183   1.008   0.719  17.619  0.6080 -0.4844 -0.0224
  342MPD2     H 5184   1.265   0.867  17.384  0.1686  0.5081  1.0699
  342MPD2    H1 5185   1.052   0.880  17.744  0.7121  0.2811  0.3251
  342MPD2    H2 5186   1.010   0.545  17.504 -0.7561  0.6061 -2.2739
  342MPD2    H3 5187   0.934   0.679  17.687 -0.2602 -3.0336 -2.4709
  342MPD2     N 5188   1.226   1.005  17.626 -0.8148  0.2048  0.3562
  342MPD2    H5 5189   1.189   1.037  17.715 -3.6342  0.1404 -0.7942
  342MPD2    N1 5190   1.191   0.639  17.302  0.6513  0.3158  0.0253
  342MPD2    H7 5191   1.266   0.694  17.261  1.5425  0.5356  1.9794
  343TMC3    C1 5192   1.172   0.487  17.114 -0.4169 -0.6792  0.4310
  343TMC3    C2 5193   1.287   0.534  17.052  0.0628 -0.5317 -0.7236
  343TMC3    C3 5194   1.311   0.487  16.924  0.7781 -0.5751  0.6230
  343TMC3    C4 5195   1.102   0.379  17.061  0.4252  0.4467 -0.4936
  343TMC3    C5 5196   1.141   0.333  16.935  0.4757 -0.1314  0.0497
  343TMC3    C6 5197   1.241   0.388  16.865 -0.3948 -0.7058  0.6169
  343TMC3     C 5198   1.121   0.528  17.246  0.1274 -0.1748 -0.4958
  343TMC3     O 5199   1.025   0.466  17.287 -0.2131 -0.5615  0.3770
  343TMC3     H 5200   1.347   0.606  17.107  1.2284 -0.7260 -1.7582
  343TMC3    H1 5201   1.023   0.325  17.111  1.1384 -0.0670  0.0779
  343TMC3    H2 5202   1.271   0.354  16.767 -0.5753 -0.5551  0.5089
  343TMC3    C7 5203   1.105   0.192  16.914 -0.1292  0.0198  0.6125
  343TMC3    C8 5204   1.425   0.552  16.853  0.0633  0.6601 -0.5262
  343TMC3    O1 5205   1.063   0.128  17.009  0.3643 -0.0595 -0.0302
  343TMC3    O2 5206   1.468   0.656  16.889  0.3664  0.2420 -0.5216
  344MPD2     C 5207   2.425   4.361   9.855  0.3761  0.1379  0.0698
  344MPD2    C1 5208   2.428   4.341  10.000  0.0513 -0.1789  0.5332
  344MPD2    C2 5209   2.446   4.454  10.069  1.1243 -0.1132 -0.1065
  344MPD2    C3 5210   2.466   4.580  10.010  0.5939  0.6582  0.3585
  344MPD2    C4 5211   2.451   4.598   9.877  0.3450 -0.6922 -0.1395
  344MPD2    C5 5212   2.442   4.484   9.802  0.5958 -0.1099  0.3245
  344MPD2     H 5213   2.448   4.447  10.177 -0.8957  0.3847 -0.0490
  344MPD2    H1 5214   2.447   4.696   9.829  1.2405 -1.2393 -1.3417
  344MPD2    H2 5215   2.411   4.277   9.788  0.0660  1.5036 -1.5521
  344MPD2    H3 5216   2.433   4.503   9.695 -0.3676  1.4079  0.6757
  344MPD2     N 5217   2.475   4.694  10.093  1.3352 -0.2938  0.6647
  344MPD2    H5 5218   2.475   0.044  10.045  1.2780 -0.5584  0.1699
  344MPD2    N1 5219   2.403   4.223  10.066 -0.0664 -0.4832  0.4839
  344MPD2    H7 5220   2.422   4.221  10.166  2.1550  0.9105  0.1023
  345TMC3    C1 5221   2.507   0.096  10.282  0.6850 -0.1527 -0.2118
  345TMC3    C2 5222   2.567   0.107  10.403  0.8239  0.1087  0.1856
  345TMC3    C3 5223   2.565   0.227  10.462 -0.2382 -0.4675  0.0330
  345TMC3    C4 5224   2.451   0.201  10.212  0.2397  0.2960 -0.0311
  345TMC3    C5 5225   2.453   0.320  10.282 -0.4881  0.4227 -0.0268
  345TMC3    C6 5226   2.518   0.344  10.402 -0.3569  0.0336  0.2487
  345TMC3     C 5227   2.507   4.700  10.228 -0.4865 -0.0818 -0.2567
  345TMC3     O 5228   2.578   4.621  10.287  0.0099  0.0490  0.4872
  345TMC3     H 5229   2.605   0.021  10.456  1.3887  0.1555 -0.1395
  345TMC3    H1 5230   2.401   0.189  10.117  0.8203  2.0985 -0.5580
  345TMC3    H2 5231   2.494   0.431  10.462  0.8784  1.1471 -0.8662
  345TMC3    C7 5232   2.400   0.442  10.222  0.4271 -0.0278  0.1322
  345TMC3    C8 5233   2.639   0.238  10.581 -0.1954  1.1195  0.3306
  345TMC3    O1 5234   2.429   0.546  10.277  0.0618 -0.0796  0.2432
  345TMC3    O2 5235   2.626   0.149  10.666  0.1337 -0.2361  0.0499
  346MPD2     C 5236   2.206   1.579  13.994  0.1616  0.2473  0.0441
  346MPD2    C1 5237   2.269   1.697  13.961  0.2745  0.4344  0.1610
  346MPD2    C2 5238   2.268   1.790  14.057 -0.3384  0.2448 -0.0773
  346MPD2    C3 5239   2.217   1.770  14.184 -0.1881  0.1709  0.3712
  346MPD2    C4 5240   2.157   1.652  14.219 -0.2029 -0.0196 -0.0969
  346MPD2    C5 5241   2.145   1.564  14.118 -0.2927 -0.4041  0.9381
  346MPD2     H 5242   2.313   1.887  14.040 -1.7028  0.9795  0.4672
  346MPD2    H1 5243   2.107   1.633  14.313 -0.2807  1.5904  0.1870
  346MPD2    H2 5244   2.202   1.498  13.922 -2.0775  1.3102 -1.0292
  346MPD2    H3 5245   2.088   1.473  14.135  0.4872 -1.1139 -0.2204
  346MPD2     N 5246   2.219   1.887  14.269 -0.0974 -0.0350  1.2038
  346MPD2    H5 5247   2.268   1.967  14.231 -1.1184 -0.1885 -0.4005
  346MPD2    N1 5248   2.312   1.739  13.835 -0.0284 -0.3176 -0.3196
  346MPD2    H7 5249   2.343   1.836  13.829  0.6559 -0.6192 -1.5751
  347TMC3    C1 5250   2.188   2.019  14.462 -0.6838  0.1389 -0.5211
  347TMC3    C2 5251   2.289   2.091  14.409  0.0249 -0.7654  0.7775
  347TMC3    C3 5252   2.362   2.169  14.496 -0.0618  0.1418  0.4375
  347TMC3    C4 5253   2.154   2.018  14.594 -0.6791  0.2383 -0.4455
  347TMC3    C5 5254   2.238   2.082  14.679  0.0229  0.7664  0.8906
  347TMC3    C6 5255   2.346   2.155  14.630  0.3342 -0.1848  0.3051
  347TMC3     C 5256   2.160   1.892  14.396  0.6457  1.0259  0.4369
  347TMC3     O 5257   2.093   1.812  14.461  0.5189  0.0319  0.0706
  347TMC3     H 5258   2.318   2.101  14.305 -1.4936 -0.1836  0.4049
  347TMC3    H1 5259   2.069   1.959  14.628 -0.7159  0.2304 -0.5541
  347TMC3    H2 5260   2.427   2.186  14.694 -0.3850  0.0486  1.1074
  347TMC3    C7 5261   2.219   2.055  14.818  0.5621 -0.1748  0.1576
  347TMC3    C8 5262   2.496   2.179  14.446 -0.8233  0.3788 -1.3156
  347TMC3    O1 5263   2.154   1.956  14.850 -0.3306  0.4470  0.4604
  347TMC3    O2 5264   2.526   2.088  14.365  0.4831  0.1855  0.1637
  348MPD2     C 5265   1.173   1.457  12.172  0.4468  0.8438 -0.5436
  348MPD2    C1 5266   1.285   1.469  12.086  0.1108 -0.2812  0.7234
  348MPD2    C2 5267   1.270   1.532  11.967  0.3735  0.6006  0.4313
  348MPD2    C3 5268   1.142   1.557  11.918  0.3791 -0.5922  0.4147
  348MPD2    C4 5269   1.031   1.531  11.998  0.2352 -0.5878 -0.5129
  348MPD2    C5 5270   1.053   1.485  12.119 -0.3088  0.1083  0.1272
  348MPD2     H 5271   1.362   1.556  11.915  0.7560 -2.1001 -0.1511
  348MPD2    H1 5272   0.926   1.545  11.975  0.3148  0.5200 -0.2054
  348MPD2    H2 5273   1.172   1.411  12.270  2.9139 -0.0401 -0.9237
  348MPD2    H3 5274   0.969   1.470  12.186  0.7068 -0.4721  1.2537
  348MPD2     N 5275   1.120   1.610  11.790  0.3250  0.2069  1.0074
  348MPD2    H5 5276   1.201   1.650  11.744  0.2734  2.0353  2.4918
  348MPD2    N1 5277   1.416   1.435  12.123  0.1677  0.7446 -0.3011
  348MPD2    H7 5278   1.479   1.427  12.044 -2.1370 -0.7131 -2.0078
  349TMC3    C1 5279   1.588   1.303  12.227 -0.2196 -0.8327 -0.2691
  349TMC3    C2 5280   1.617   1.195  12.317 -0.0077  0.3579  0.3489
  349TMC3    C3 5281   1.718   1.103  12.289  0.0489  0.0744 -0.3488
  349TMC3    C4 5282   1.671   1.319  12.116 -0.1160  0.3146 -0.1250
  349TMC3    C5 5283   1.768   1.222  12.095  0.6227 -0.0492 -0.3068
  349TMC3    C6 5284   1.801   1.122  12.183 -0.2633  0.1695 -0.4543
  349TMC3     C 5285   1.457   1.374  12.238 -0.1325 -0.2183  0.3746
  349TMC3     O 5286   1.397   1.367  12.343  0.7496  0.1150  0.3140
  349TMC3     H 5287   1.545   1.176  12.396  0.9649 -1.4539  0.8066
  349TMC3    H1 5288   1.654   1.406  12.053 -1.8045 -2.2979 -3.2358
  349TMC3    H2 5289   1.857   1.039  12.140 -0.6558 -1.0079  1.3186
  349TMC3    C7 5290   1.850   1.216  11.972  0.0598 -0.3611 -0.3746
  349TMC3    C8 5291   1.703   0.966  12.337 -0.2856  0.2814 -0.7287
  349TMC3    O1 5292   1.848   1.097  11.927 -0.6927 -0.4030 -0.1407
  349TMC3    O2 5293   1.756   0.869  12.275  0.1312 -0.1157  0.2482
  350MPD2     C 5294   4.335   3.854  10.565 -0.2143 -1.1587 -0.5771
  350MPD2    C1 5295   4.461   3.821  10.515  0.6301  0.3039 -0.2626
  350MPD2    C2 5296   4.578   3.839  10.595 -0.0386 -0.0279 -0.0103
  350MPD2    C3 5297   4.560   3.909  10.715 -0.3026 -0.6157 -0.1157
  350MPD2    C4 5298   4.442   3.952  10.756  0.1428 -0.3187 -0.4230
  350MPD2    C5 5299   4.331   3.922  10.680  0.5874  0.5147 -0.0996
  350MPD2     H 5300   4.676   3.811  10.559  0.0320 -0.6090  0.6215
  350MPD2    H1 5301   4.437   4.013  10.846  0.8631 -0.3084 -0.3894
  350MPD2    H2 5302   4.247   3.835  10.504 -1.0588 -2.6429  1.1261
  350MPD2    H3 5303   4.232   3.959  10.706  1.2485 -1.2979  5.0208
  350MPD2     N 5304   4.666   3.951  10.793  0.0077  0.3591  0.3681
  350MPD2    H5 5305   4.644   4.013  10.870  1.2858 -0.0551  1.0691
  350MPD2    N1 5306   4.485   3.776  10.386 -0.2783 -0.5969 -0.3331
  350MPD2    H7 5307   4.580   3.784  10.353  0.6328 -0.1228  2.4282
  351TMC3    C1 5308   4.430   3.681  10.171  0.0923  0.4396  1.0236
  351TMC3    C2 5309   4.557   3.653  10.148  0.3410  0.0920  0.2998
  351TMC3    C3 5310   4.582   3.613  10.013 -0.2256 -0.1912 -0.4637
  351TMC3    C4 5311   4.330   3.679  10.078 -0.5472  0.7643 -0.1739
  351TMC3    C5 5312   4.368   3.676   9.946 -0.2004  0.1460  0.2843
  351TMC3    C6 5313   4.492   3.624   9.912  0.3190 -0.3353  0.1049
  351TMC3     C 5314   4.387   3.722  10.301 -0.1843  0.2110 -0.0434
  351TMC3     O 5315   4.269   3.703  10.326  0.0283 -0.5795 -0.3200
  351TMC3     H 5316   4.640   3.672  10.214 -1.1607  1.4505  1.7942
  351TMC3    H1 5317   4.227   3.690  10.109 -0.3090 -0.4627  1.0330
  351TMC3    H2 5318   4.520   3.606   9.808  1.2700 -0.7289  0.4314
  351TMC3    C7 5319   4.258   3.663   9.849 -0.0627 -0.5204 -1.2733
  351TMC3    C8 5320   4.705   3.546   9.983  0.2251  0.7522 -0.4089
  351TMC3    O1 5321   4.144   3.660   9.893  0.5387 -0.0210 -0.1159
  351TMC3    O2 5322   4.729   3.536   9.865  0.0209  0.4024 -0.1757
  352MPD2     C 5323   3.323   1.209   1.263 -0.5239  0.5271 -0.3645
  352MPD2    C1 5324   3.259   1.194   1.137  0.8975 -0.0802 -0.4370
  352MPD2    C2 5325   3.326   1.100   1.055  0.2020 -0.7993  0.1501
  352MPD2    C3 5326   3.445   1.030   1.088  0.5334  0.0334 -0.0317
  352MPD2    C4 5327   3.498   1.048   1.219  0.0342 -0.0298  0.4024
  352MPD2    C5 5328   3.432   1.134   1.305  0.6269 -0.1535 -0.1051
  352MPD2     H 5329   3.278   1.080   0.960  0.8129  0.8540 -0.5080
  352MPD2    H1 5330   3.588   1.003   1.259  2.3758  1.2031 -3.4940
  352MPD2    H2 5331   3.280   1.276   1.337 -2.6529  0.0449 -1.1765
  352MPD2    H3 5332   3.466   1.150   1.407  1.0294 -0.7134 -0.1503
  352MPD2     N 5333   3.529   0.960   0.998 -0.3843 -0.5137 -0.3515
  352MPD2    H5 5334   3.602   0.906   1.044  0.3388 -0.2257 -1.1552
  352MPD2    N1 5335   3.148   1.280   1.110  0.5551  0.0880 -0.8431
  352MPD2    H7 5336   3.119   1.349   1.178  0.1274  0.2136 -1.1520
  353TMC3    C1 5337   3.563   0.854   0.791  0.0406 -0.2654 -0.1661
  353TMC3    C2 5338   3.656   0.769   0.846  0.5157 -0.0238  0.3527
  353TMC3    C3 5339   3.664   0.650   0.789  0.0353  0.5164  0.0686
  353TMC3    C4 5340   3.478   0.818   0.692  1.1445 -0.2453  1.0107
  353TMC3    C5 5341   3.492   0.689   0.639 -0.2649 -0.0034 -0.2934
  353TMC3    C6 5342   3.587   0.607   0.685 -0.0366  0.1801 -0.5928
  353TMC3     C 5343   3.524   0.969   0.865 -0.3175  0.2571  0.1594
  353TMC3     O 5344   3.456   1.052   0.806 -0.0695 -0.2285  0.4479
  353TMC3     H 5345   3.713   0.784   0.938 -0.7301  1.7419  0.8269
  353TMC3    H1 5346   3.416   0.891   0.642  1.2356 -0.2571  0.8801
  353TMC3    H2 5347   3.593   0.516   0.626 -1.3669  0.7598 -1.6301
  353TMC3    C7 5348   3.377   0.615   0.588 -0.4693  0.4656  0.3651
  353TMC3    C8 5349   3.774   0.555   0.824 -0.1224 -0.1747  0.1214
  353TMC3    O1 5350   3.372   0.496   0.567 -0.1257 -0.2834 -0.1053
  353TMC3    O2 5351   3.870   0.601   0.878  0.3281 -0.1994  0.3883
  354TMC3    C1 5352   0.125   2.656  13.642  0.0727  0.2336 -0.4178
  354TMC3    C2 5353   0.224   2.752  13.644  0.7283  0.2078 -0.0582
  354TMC3    C3 5354   0.273   2.793  13.522 -0.8014  0.2925  0.1827
  354TMC3    C4 5355   0.093   2.583  13.530  0.0160 -1.0036  0.7462
  354TMC3    C5 5356   0.156   2.624  13.419  0.0082  0.5522 -0.3913
  354TMC3    C6 5357   0.246   2.726  13.404 -0.3866 -0.0598 -0.0328
  354TMC3     C 5358   0.050   2.626  13.764 -0.4779 -0.4170  0.4863
  354TMC3     O 5359   4.664   2.619  13.761 -0.3141  0.1279 -0.4181
  354TMC3     H 5360   0.247   2.803  13.736 -0.0556  0.9763 -0.2874
  354TMC3    H1 5361   0.004   2.522  13.523 -0.4052 -0.3569  0.4137
  354TMC3    H2 5362   0.314   2.730  13.320 -0.0895 -0.9292  0.1657
  354TMC3    C7 5363   0.134   2.540  13.303 -0.2958  0.3302 -0.1903
  354TMC3    C8 5364   0.372   2.896  13.516 -0.1035 -0.4368 -0.9954
  354TMC3    O1 5365   0.075   2.437  13.319  0.4509  0.4259  0.1217
  354TMC3    O2 5366   0.434   2.927  13.616 -0.0833  0.3324  0.4916
  355MPD2     C 5367   0.798   3.541  12.087 -0.4450 -0.1125  0.3901
  355MPD2    C1 5368   0.897   3.476  12.020 -0.3538 -0.2974  0.5442
  355MPD2    C2 5369   0.972   3.377  12.080  0.7637  0.2365  0.1518
  355MPD2    C3 5370   0.953   3.346  12.211  0.2194 -0.3138  0.3750
  355MPD2    C4 5371   0.847   3.400  12.278 -0.4797 -0.0380  0.2295
  355MPD2    C5 5372   0.771   3.501  12.217  0.9814 -0.0576 -0.0499
  355MPD2     H 5373   1.059   3.329  12.036 -0.2737 -0.3335 -1.3123
  355MPD2    H1 5374   0.820   3.361  12.376  0.2324 -0.9033  0.0742
  355MPD2    H2 5375   0.750   3.630  12.048 -1.6788 -1.2409 -0.6922
  355MPD2    H3 5376   0.702   3.558  12.279 -0.2089 -0.6096 -0.8512
  355MPD2     N 5377   1.059   3.264  12.269  0.4647 -0.0551  0.4107
  355MPD2    H5 5378   1.104   3.201  12.204 -0.7182 -1.1285  0.6249
  355MPD2    N1 5379   0.931   3.529  11.894 -0.2718  0.5331  0.2331
  355MPD2    H7 5380   0.888   3.616  11.864 -1.5275 -0.0991  0.1751
  356TMC3    C1 5381   1.209   3.180  12.417  0.1566 -0.7651 -0.5063
  356TMC3    C2 5382   1.239   3.116  12.304 -0.8871 -0.3226 -0.0544
  356TMC3    C3 5383   1.344   3.162  12.226 -0.5339  0.6572 -0.0791
  356TMC3    C4 5384   1.294   3.275  12.468  0.1003 -0.5839  0.4176
  356TMC3    C5 5385   1.402   3.302  12.399  0.2428  0.0452 -0.2109
  356TMC3    C6 5386   1.434   3.256  12.276  0.2997 -0.3221  0.0162
  356TMC3     C 5387   1.074   3.240  12.402 -0.1996  0.1506  0.2152
  356TMC3     O 5388   1.010   3.279  12.495 -0.0718 -0.0263  0.3540
  356TMC3     H 5389   1.183   3.027  12.276  0.3721 -1.0076 -0.4112
  356TMC3    H1 5390   1.276   3.311  12.568  0.1680  1.6115 -0.3528
  356TMC3    H2 5391   1.531   3.280  12.234  1.5849 -2.3754  1.7776
  356TMC3    C7 5392   1.503   3.374  12.471  0.9486 -0.3671  0.3270
  356TMC3    C8 5393   1.326   3.134  12.087  0.6328 -0.2541  0.0932
  356TMC3    O1 5394   1.520   3.355  12.595  0.6529  0.7202 -0.2664
  356TMC3    O2 5395   1.246   3.049  12.061  0.5599  0.1753  0.2234
  357MPD2     C 5396   4.528   2.685   0.856 -0.0243  0.0171 -0.2442
  357MPD2    C1 5397   4.520   2.571   0.933 -0.3078 -0.4758  0.1652
  357MPD2    C2 5398   4.398   2.540   0.991 -0.2860  0.2382  0.0257
  357MPD2    C3 5399   4.280   2.604   0.960  0.1363 -0.2247  0.3013
  357MPD2    C4 5400   4.282   2.711   0.865  0.0979 -0.0112  0.1338
  357MPD2    C5 5401   4.411   2.751   0.824  0.1346 -0.4201 -0.2550
  357MPD2     H 5402   4.384   2.454   1.056  2.8811 -0.6300 -0.4389
  357MPD2    H1 5403   4.196   2.756   0.817 -0.9691 -2.0500  0.1323
  357MPD2    H2 5404   4.619   2.725   0.812  0.2583 -2.6300 -2.1321
  357MPD2    H3 5405   4.419   2.834   0.755  0.9425 -0.4907 -0.2377
  357MPD2     N 5406   4.154   2.569   1.018 -0.7525 -0.1001 -0.1289
  357MPD2    H5 5407   4.076   2.626   0.986  0.6233  1.9653  0.2125
  357MPD2    N1 5408   4.638   2.494   0.951 -0.4393  0.1449 -0.0656
  357MPD2    H7 5409   4.719   2.523   0.897 -0.2096 -0.8254 -0.2345
  358TMC3    C1 5410   0.031   2.317   1.005 -0.0539  0.0351  0.3222
  358TMC3    C2 5411   0.074   2.315   0.874 -0.8115 -0.0795 -0.6391
  358TMC3    C3 5412   0.201   2.280   0.859 -0.8507 -0.6259 -0.6639
  358TMC3    C4 5413   0.105   2.280   1.114  0.4532 -1.1215  0.6062
  358TMC3    C5 5414   0.239   2.260   1.091  0.9629 -0.4002 -0.1017
  358TMC3    C6 5415   0.290   2.265   0.963  0.4364  0.9603  0.2022
  358TMC3     C 5416   4.646   2.373   1.028  0.2587 -0.4240  0.3005
  358TMC3     O 5417   4.581   2.339   1.124  0.6125  0.3702 -0.0512
  358TMC3     H 5418   0.010   2.337   0.789 -2.2912  0.6401  0.6489
  358TMC3    H1 5419   0.063   2.263   1.212  2.5585 -0.8771  1.5548
  358TMC3    H2 5420   0.393   2.238   0.941 -0.5181 -1.0627 -1.8525
  358TMC3    C7 5421   0.326   2.244   1.205  0.7333  0.0921 -0.4463
  358TMC3    C8 5422   0.239   2.301   0.725  0.2403 -0.2308  0.2183
  358TMC3    O1 5423   0.266   2.236   1.313  0.2383 -0.3561 -0.4065
  358TMC3    O2 5424   0.154   2.273   0.635  0.4059 -0.4302  0.1205
  359MPD2     C 5425   1.059   2.112  12.864 -0.0842 -0.1671  0.0309
  359MPD2    C1 5426   1.006   2.055  12.753  0.0786 -0.1892 -0.7033
  359MPD2    C2 5427   0.928   1.949  12.757 -0.2525 -0.3411 -0.5539
  359MPD2    C3 5428   0.886   1.908  12.881 -0.2396 -0.4292 -0.1597
  359MPD2    C4 5429   0.935   1.964  12.997  0.5622 -0.3275 -0.3675
  359MPD2    C5 5430   1.021   2.063  12.989 -0.5758 -0.3401 -0.5379
  359MPD2     H 5431   0.892   1.905  12.665 -3.2834 -0.9080  0.9101
  359MPD2    H1 5432   0.901   1.930  13.095  0.9661 -1.0778 -0.4857
  359MPD2    H2 5433   1.112   2.207  12.865 -1.3368  0.5233  0.6059
  359MPD2    H3 5434   1.065   2.112  13.075  0.8363 -0.8262 -0.9832
  359MPD2     N 5435   0.799   1.801  12.900 -0.2903  0.2398 -0.5647
  359MPD2    H5 5436   0.767   1.789  12.996 -0.0061  0.3684 -0.4543
  359MPD2    N1 5437   1.049   2.094  12.623  0.7310 -0.3564 -0.0073
  359MPD2    H7 5438   1.008   2.036  12.550  0.4062  0.1107 -0.1913
  360TMC3    C1 5439   1.162   2.176  12.442  0.8845  0.0823 -0.2755
  360TMC3    C2 5440   1.287   2.208  12.405 -0.2624  0.7502  0.0572
  360TMC3    C3 5441   1.312   2.195  12.268 -0.3627 -0.2386 -0.3988
  360TMC3    C4 5442   1.052   2.150  12.360  0.0430  0.1254 -0.4769
  360TMC3    C5 5443   1.083   2.155  12.225 -0.7995  0.7724  0.3348
  360TMC3    C6 5444   1.210   2.178  12.173 -0.3960 -0.3584 -0.1762
  360TMC3     C 5445   1.133   2.189  12.585  1.1236 -0.3088  0.5756
  360TMC3     O 5446   1.204   2.257  12.649 -0.7404  0.1479  1.1454
  360TMC3     H 5447   1.370   2.208  12.474 -0.6164  1.2749  0.4809
  360TMC3    H1 5448   0.955   2.130  12.404  1.5117 -1.3911  2.0984
  360TMC3    H2 5449   1.221   2.181  12.065  0.2198 -0.7716 -0.1266
  360TMC3    C7 5450   0.977   2.171  12.129  0.7324  0.5585 -0.3192
  360TMC3    C8 5451   1.447   2.233  12.219 -0.2996 -0.6124  0.3605
  360TMC3    O1 5452   1.006   2.158  12.010 -0.2711 -0.2350 -0.3060
  360TMC3    O2 5453   1.525   2.284  12.304 -0.1841  0.2284  0.3744
  361MPD2     C 5454   2.827   0.952  16.262  0.3949  0.6993  0.5729
  361MPD2    C1 5455   2.784   0.990  16.388  0.1901  0.5352 -0.7821
  361MPD2    C2 5456   2.812   0.910  16.492  0.2518  0.5920  0.2857
  361MPD2    C3 5457   2.862   0.783  16.474 -0.0585 -0.0087 -0.0438
  361MPD2    C4 5458   2.917   0.754  16.349  0.0555 -0.3472 -0.0757
  361MPD2    C5 5459   2.893   0.836  16.244 -0.0210  0.1032  0.9183
  361MPD2     H 5460   2.765   0.938  16.586  0.1940 -2.1764  1.0734
  361MPD2    H1 5461   2.963   0.659  16.323 -3.2102 -1.0484 -3.2626
  361MPD2    H2 5462   2.804   1.016  16.178  2.8986  1.4403  0.4622
  361MPD2    H3 5463   2.929   0.810  16.145 -1.6056 -2.0180  0.8792
  361MPD2     N 5464   2.870   0.681  16.564  0.3505  0.5646 -0.9542
  361MPD2    H5 5465   2.920   0.599  16.533 -0.4329 -0.2773  0.0310
  361MPD2    N1 5466   2.708   1.105  16.412  0.1569 -0.6017  0.0417
  361MPD2    H7 5467   2.666   1.099  16.504 -1.3526 -1.8686 -0.7296
  362TMC3    C1 5468   2.540   1.256  16.356 -0.1975 -0.4094  1.3033
  362TMC3    C2 5469   2.464   1.213  16.460 -0.1054  0.3298 -0.1445
  362TMC3    C3 5470   2.359   1.283  16.511  0.3521 -0.5025 -0.5159
  362TMC3    C4 5471   2.525   1.378  16.306 -0.0721 -0.1608 -0.6114
  362TMC3    C5 5472   2.413   1.448  16.355  0.2798  0.4039  0.2564
  362TMC3    C6 5473   2.337   1.408  16.461 -0.0901 -0.1128 -0.7723
  362TMC3     C 5474   2.661   1.190  16.312  0.5947  0.8813  0.1739
  362TMC3     O 5475   2.711   1.226  16.211 -0.4413 -0.3676  0.4691
  362TMC3     H 5476   2.488   1.119  16.510  0.6012  0.5441 -0.0820
  362TMC3    H1 5477   2.598   1.426  16.241 -0.7536  1.9318  0.1751
  362TMC3    H2 5478   2.262   1.468  16.510  1.6769  1.5456 -0.1070
  362TMC3    C7 5479   2.376   1.578  16.302  0.1169  0.6982  0.3080
  362TMC3    C8 5480   2.313   1.234  16.644  0.0539 -0.8573 -0.5627
  362TMC3    O1 5481   2.261   1.623  16.309  0.7786  0.4122 -0.2699
  362TMC3    O2 5482   2.394   1.183  16.720 -0.1893 -0.4640 -0.9152
  363TMC3    C1 5483   0.516   3.780   9.667  0.1858  0.6659 -0.0692
  363TMC3    C2 5484   0.578   3.692   9.759  0.2808  0.6345  0.6461
  363TMC3    C3 5485   0.517   3.660   9.882  0.5212 -0.5214  0.9079
  363TMC3    C4 5486   0.384   3.810   9.687 -0.2501 -1.1224 -0.3475
  363TMC3    C5 5487   0.332   3.785   9.810 -0.4084  0.2534  0.0153
  363TMC3    C6 5488   0.389   3.707   9.909 -0.5037 -1.1103 -0.2179
  363TMC3     C 5489   0.600   3.834   9.564 -0.3827 -0.4259 -0.2219
  363TMC3     O 5490   0.708   3.780   9.556 -0.3990 -0.0148 -0.1957
  363TMC3     H 5491   0.675   3.650   9.735 -1.1546 -1.1715 -1.9425
  363TMC3    H1 5492   0.334   3.883   9.624  0.8930 -1.1761 -1.3038
  363TMC3    H2 5493   0.329   3.675   9.993 -0.7796  1.8069  0.6988
  363TMC3    C7 5494   0.193   3.821   9.836 -0.2721  0.0674 -0.5646
  363TMC3    C8 5495   0.566   3.556   9.965 -0.1086 -0.2361  0.1883
  363TMC3    O1 5496   0.110   3.804   9.746  0.1945 -0.5460  0.2252
  363TMC3    O2 5497   0.501   3.547  10.067 -0.1172 -0.3434  0.1398
  364MPD2     C 5498   3.853   2.813  10.966 -0.7568 -0.9512 -0.0363
  364MPD2    C1 5499   3.978   2.859  10.929  0.2630  0.4321 -0.0721
  364MPD2    C2 5500   4.094   2.790  10.958 -1.0536  0.2422  0.0839
  364MPD2    C3 5501   4.079   2.659  10.993  0.0892 -0.0724 -0.0974
  364MPD2    C4 5502   3.952   2.604  11.017  0.0335  0.3563  0.6066
  364MPD2    C5 5503   3.838   2.682  11.011  0.1295  0.0233  0.3676
  364MPD2     H 5504   4.192   2.831  10.934 -0.1783 -0.5610  2.3198
  364MPD2    H1 5505   3.944   2.498  11.038  1.1777  0.0849 -0.2920
  364MPD2    H2 5506   3.757   2.865  10.959 -0.2247 -0.0728 -0.9171
  364MPD2    H3 5507   3.740   2.636  11.020  0.1323 -0.6149 -2.8265
  364MPD2     N 5508   4.197   2.586  10.994  0.1587 -0.3163  0.2952
  364MPD2    H5 5509   4.282   2.640  10.995  0.4275 -0.7071 -1.8706
  364MPD2    N1 5510   3.986   2.992  10.872  0.6350  0.3786  0.5516
  364MPD2    H7 5511   3.897   3.039  10.858  0.7945  0.5695  0.1906
  365TMC3    C1 5512   4.064   3.186  10.772 -0.3513  0.1252  0.3069
  365TMC3    C2 5513   4.122   3.214  10.653 -0.1623 -0.0786  0.5146
  365TMC3    C3 5514   4.079   3.326  10.588 -0.0871  0.2915 -0.7659
  365TMC3    C4 5515   3.965   3.264  10.831  0.4763 -0.6009  0.4400
  365TMC3    C5 5516   3.929   3.377  10.763 -0.0843  0.4869  0.4556
  365TMC3    C6 5517   3.981   3.411  10.637  0.5942  0.4626  0.6587
  365TMC3     C 5518   4.096   3.057  10.825 -0.0728 -1.2588 -0.0030
  365TMC3     O 5519   4.208   3.013  10.807  0.5117  0.3514 -0.0087
  365TMC3     H 5520   4.190   3.140  10.610 -0.4038 -0.1478  0.2503
  365TMC3    H1 5521   3.918   3.242  10.926 -0.8607  1.5548  0.2844
  365TMC3    H2 5522   3.962   3.505  10.587  0.3505  0.2233  0.2989
  365TMC3    C7 5523   3.893   3.495  10.839 -0.1273  0.2203 -0.2560
  365TMC3    C8 5524   4.138   3.355  10.458  0.4424 -0.0381  0.1272
  365TMC3    O1 5525   3.840   3.587  10.769 -0.1071  0.0192 -0.0330
  365TMC3    O2 5526   4.089   3.454  10.403  0.2533 -0.0180 -0.1183
  366MPD2     C 5527   3.254   3.746  15.482  0.2674  0.5680 -0.7921
  366MPD2    C1 5528   3.282   3.868  15.537 -0.3751  0.4279  0.0248
  366MPD2    C2 5529   3.409   3.899  15.573 -0.3835  0.1618  1.0484
  366MPD2    C3 5530   3.507   3.802  15.548  0.0348  0.6138  0.4605
  366MPD2    C4 5531   3.472   3.671  15.508 -0.4940  0.2598  0.2630
  366MPD2    C5 5532   3.347   3.649  15.466  0.3245  0.6743  0.1398
  366MPD2     H 5533   3.434   3.992  15.623 -1.9720  1.5517 -0.7213
  366MPD2    H1 5534   3.545   3.598  15.475 -1.6882  0.1110 -2.0717
  366MPD2    H2 5535   3.153   3.712  15.461  0.9455 -0.7591 -1.9165
  366MPD2    H3 5536   3.321   3.553  15.424  0.5561  1.0589 -0.8820
  366MPD2     N 5537   3.644   3.843  15.553 -0.2112 -0.4509  0.1833
  366MPD2    H5 5538   3.662   3.925  15.610 -1.1453  0.6924 -1.1870
  366MPD2    N1 5539   3.184   3.973  15.549  0.2127 -0.3353 -0.0051
  366MPD2    H7 5540   3.214   4.055  15.600  0.8134 -0.4424 -0.1901
  367TMC3    C1 5541   3.006   4.118  15.503 -0.0029 -0.3283  0.2428
  367TMC3    C2 5542   3.042   4.201  15.610  0.1819  0.3533  1.0599
  367TMC3    C3 5543   3.018   4.334  15.593 -0.3536 -0.1246  0.6132
  367TMC3    C4 5544   2.933   4.161  15.396  0.7092 -0.1617  0.6352
  367TMC3    C5 5545   2.920   4.295  15.386 -0.6042 -0.6373 -0.3320
  367TMC3    C6 5546   2.961   4.383  15.476 -0.0178 -0.3021 -0.1106
  367TMC3     C 5547   3.056   3.979  15.500  0.5492 -0.1281  0.8667
  367TMC3     O 5548   2.999   3.891  15.438  0.1405  0.0917  0.5957
  367TMC3     H 5549   3.089   4.162  15.699 -1.2979 -3.8424 -0.0092
  367TMC3    H1 5550   2.927   4.093  15.312 -0.3702 -2.2537  2.3900
  367TMC3    H2 5551   2.933   4.488  15.475 -0.3262 -0.3962 -1.2610
  367TMC3    C7 5552   2.826   4.347  15.281 -0.3463  0.3127 -0.8783
  367TMC3    C8 5553   3.113   4.428  15.656  0.2145 -0.2583 -0.1249
  367TMC3    O1 5554   2.837   4.464  15.255  0.0404  0.3609 -0.3425
  367TMC3    O2 5555   3.209   4.380  15.707 -0.1552  0.3107  0.0095
  368MPD2     C 5556   4.024   1.350  13.753  0.1818  0.0763 -1.1066
  368MPD2    C1 5557   4.091   1.441  13.672 -0.0264 -0.5342  0.3413
  368MPD2    C2 5558   4.194   1.398  13.589 -0.5352  1.0555  0.7425
  368MPD2    C3 5559   4.248   1.271  13.597  0.4703  0.3990 -0.1499
  368MPD2    C4 5560   4.183   1.182  13.682 -0.1896  0.0854 -0.2510
  368MPD2    C5 5561   4.078   1.221  13.756  0.2905 -0.2107  0.4282
  368MPD2     H 5562   4.237   1.471  13.522  2.3226 -1.6692 -0.4036
  368MPD2    H1 5563   4.226   1.083  13.697  2.8592  1.5056  0.4435
  368MPD2    H2 5564   3.940   1.374  13.817  1.1371 -2.0923  0.9524
  368MPD2    H3 5565   4.026   1.159  13.828 -0.8602 -1.0849 -1.1523
  368MPD2     N 5566   4.347   1.222  13.513 -0.3155 -0.1917  0.2292
  368MPD2    H5 5567   4.362   1.122  13.516 -0.3116 -0.1919  0.1975
  368MPD2    N1 5568   4.022   1.566  13.651  0.3034  0.5559 -0.5090
  368MPD2    H7 5569   3.922   1.560  13.664  0.4317  0.3886  0.4334
  369TMC3    C1 5570   3.990   1.709  13.483 -0.3662  0.4255 -0.9326
  369TMC3    C2 5571   4.050   1.744  13.358  0.0896 -0.6924  0.6341
  369TMC3    C3 5572   3.971   1.742  13.246  0.0308  0.5970 -0.6844
  369TMC3    C4 5573   3.854   1.680  13.492  1.3074 -0.5133  0.3249
  369TMC3    C5 5574   3.776   1.678  13.381 -0.1865 -0.6544 -0.1430
  369TMC3    C6 5575   3.831   1.710  13.255  0.1689 -0.6984 -0.2610
  369TMC3     C 5576   4.080   1.668  13.583  0.2943  0.3851  0.4646
  369TMC3     O 5577   4.202   1.691  13.566 -0.1507  0.0115 -0.1947
  369TMC3     H 5578   4.155   1.770  13.352  0.0209 -1.3850 -3.2689
  369TMC3    H1 5579   3.807   1.659  13.588 -0.6179  4.4998  0.4937
  369TMC3    H2 5580   3.771   1.716  13.165  0.0173 -0.6476 -0.1564
  369TMC3    C7 5581   3.661   1.595  13.390 -0.2524  0.2707  0.2471
  369TMC3    C8 5582   4.034   1.760  13.119 -1.1353  0.2546  0.1658
  369TMC3    O1 5583   3.606   1.589  13.503  0.0225  0.2729 -0.3305
  369TMC3    O2 5584   3.960   1.810  13.037  0.2140  0.3779  0.1873
  370TMC3    C1 5585   3.646   2.042  16.230 -0.2730  0.7651  0.1536
  370TMC3    C2 5586   3.565   1.987  16.325  0.5932 -0.1466 -0.5915
  370TMC3    C3 5587   3.467   1.904  16.274 -0.4723 -0.0605 -0.1527
  370TMC3    C4 5588   3.653   2.013  16.100 -0.9207 -0.0507  0.2980
  370TMC3    C5 5589   3.563   1.919  16.059 -0.2664  0.4904  0.2514
  370TMC3    C6 5590   3.475   1.865  16.141  0.3675 -0.2608  0.1172
  370TMC3     C 5591   3.752   2.131  16.273  0.1774  0.3706 -0.2643
  370TMC3     O 5592   3.803   2.116  16.379 -0.3507  0.3295  0.1317
  370TMC3     H 5593   3.572   2.009  16.431 -1.1815  1.6786 -0.8618
  370TMC3    H1 5594   3.728   2.050  16.031 -0.2030  1.0264  1.6675
  370TMC3    H2 5595   3.416   1.782  16.103 -0.9901  0.7015  0.1216
  370TMC3    C7 5596   3.618   1.831  15.949  0.0341 -0.0174 -0.7016
  370TMC3    C8 5597   3.433   1.793  16.361 -0.9157 -0.6275 -0.0515
  370TMC3    O1 5598   3.665   1.887  15.853 -0.3710 -0.1096  0.0002
  370TMC3    O2 5599   3.450   1.678  16.317  0.5115 -0.0057  0.5433
  371TMC3    C1 5600   0.059   0.237  15.691 -0.3768 -0.0306 -0.4846
  371TMC3    C2 5601   4.659   0.231  15.677  0.4550  0.9733 -0.2374
  371TMC3    C3 5602   4.610   0.328  15.596  0.7328 -0.4425  0.0960
  371TMC3    C4 5603   0.134   0.349  15.665 -0.5938 -1.4134 -0.4193
  371TMC3    C5 5604   0.070   0.454  15.606  0.2624  0.2636  0.8674
  371TMC3    C6 5605   4.676   0.449  15.571  0.7405  1.1751  0.0192
  371TMC3     C 5606   0.131   0.112  15.687 -0.3704 -0.5459 -0.1530
  371TMC3     O 5607   0.240   0.135  15.632 -0.7631 -0.3612  0.1485
  371TMC3     H 5608   4.595   0.145  15.694  3.8130 -0.9494  2.5965
  371TMC3    H1 5609   0.241   0.350  15.652 -0.3085 -1.6014  1.9199
  371TMC3    H2 5610   4.621   0.532  15.530  0.1879 -0.0150 -1.6601
  371TMC3    C7 5611   0.133   0.583  15.615 -0.8771  0.0821 -1.5179
  371TMC3    C8 5612   4.467   0.314  15.578 -0.9808  0.3460  0.8650
  371TMC3    O1 5613   0.099   0.669  15.534  0.4409  0.7769 -0.2867
  371TMC3    O2 5614   4.415   0.204  15.566 -0.2155  0.1693  0.4637
  372MPD2     C 5615   0.020   1.603  13.518  0.4703  0.0882  0.2993
  372MPD2    C1 5616   0.114   1.512  13.563  0.4696  0.1509  0.0904
  372MPD2    C2 5617   0.069   1.411  13.645  0.2710 -0.2279 -0.3520
  372MPD2    C3 5618   4.676   1.394  13.679 -0.7517 -0.8451  0.0239
  372MPD2    C4 5619   4.586   1.489  13.633  0.0835 -0.6624  0.4202
  372MPD2    C5 5620   4.629   1.597  13.559 -0.6427  0.1508  0.2475
  372MPD2     H 5621   0.143   1.340  13.680 -0.9218 -0.9358  0.7418
  372MPD2    H1 5622   4.479   1.485  13.655 -0.0473  1.4759  0.1990
  372MPD2    H2 5623   0.061   1.689  13.466  1.2343  0.6210  1.7732
  372MPD2    H3 5624   4.554   1.670  13.530 -1.8265 -0.5835  1.4872
  372MPD2     N 5625   4.641   1.274  13.746  0.2252 -0.0661  0.2788
  372MPD2    H5 5626   4.717   1.206  13.746 -0.6091 -0.9928  0.5011
  372MPD2    N1 5627   0.260   1.528  13.547 -0.6366  0.4933  0.4079
  372MPD2    H7 5628   0.325   1.481  13.608 -1.0036  0.6518  0.9247
  373TMC3    C1 5629   4.513   1.114  13.860  0.0657  0.5686 -0.6642
  373TMC3    C2 5630   4.425   1.100  13.969 -0.2482  1.2268  0.1509
  373TMC3    C3 5631   4.383   0.974  13.991  0.7749  0.1056  0.4018
  373TMC3    C4 5632   4.536   1.010  13.767 -0.5060 -0.2001 -0.2414
  373TMC3    C5 5633   4.472   0.894  13.797 -0.6507  0.6153  0.7520
  373TMC3    C6 5634   4.397   0.869  13.910  0.1960 -0.3951  0.7153
  373TMC3     C 5635   4.522   1.249  13.808  0.6344  0.5982  0.1751
  373TMC3     O 5636   4.449   1.336  13.850  0.1818  0.5214  0.2530
  373TMC3     H 5637   4.404   1.180  14.040  0.5407 -0.2253  2.0130
  373TMC3    H1 5638   4.597   1.022  13.678  0.2986  0.1219  0.3518
  373TMC3    H2 5639   4.356   0.770  13.931  0.0946 -0.3773  0.5979
  373TMC3    C7 5640   4.509   0.782  13.712  0.0825 -0.8097  1.0697
  373TMC3    C8 5641   4.280   0.978  14.101  0.0359  0.2750  0.2096
  373TMC3    O1 5642   4.598   0.807  13.631 -0.1910  0.3799 -0.4784
  373TMC3    O2 5643   4.208   1.073  14.107  0.3300  0.5069  0.0970
  374TMC3    C1 5644   4.521   1.723   9.852  1.3287 -0.3732  0.0761
  374TMC3    C2 5645   4.648   1.768   9.887 -1.0817 -0.4372  0.8824
  374TMC3    C3 5646   4.712   1.864   9.805  0.1969  0.2446  0.0797
  374TMC3    C4 5647   4.450   1.780   9.742  0.2714  0.2898 -0.1250
  374TMC3    C5 5648   4.510   1.874   9.668  0.6305 -0.3716 -0.1450
  374TMC3    C6 5649   4.643   1.910   9.693 -0.8514  0.3550 -0.0860
  374TMC3     C 5650   4.461   1.626   9.942  0.0838  0.0392  0.5259
  374TMC3     O 5651   4.541   1.567  10.008  0.2428  0.0516  0.2365
  374TMC3     H 5652   4.675   1.754   9.991  0.8909  1.6949  0.6448
  374TMC3    H1 5653   4.344   1.760   9.731  0.7143 -2.2427  0.2530
  374TMC3    H2 5654   4.695   1.980   9.628 -1.6056  0.4870 -0.5416
  374TMC3    C7 5655   4.443   1.959   9.567  0.4081  0.0110  0.1408
  374TMC3    C8 5656   0.058   1.959   9.863  0.1666 -0.2811 -0.2547
  374TMC3    O1 5657   4.512   2.025   9.492  0.0863  0.2057  0.0316
  374TMC3    O2 5658   0.071   2.066   9.804 -0.1096  0.1437 -0.4540
  375MPD2     C 5659   0.043   2.744  17.040  0.4997  0.2568 -0.6696
  375MPD2    C1 5660   4.688   2.658  16.986 -0.0678  0.3889 -0.2060
  375MPD2    C2 5661   4.724   2.554  16.904  0.3314  0.0999 -0.2263
  375MPD2    C3 5662   0.114   2.530  16.880  0.1773 -0.0886  0.6078
  375MPD2    C4 5663   0.211   2.609  16.945  0.2731  0.0735 -0.4292
  375MPD2    C5 5664   0.171   2.714  17.023  0.2756  0.3534  0.3766
  375MPD2     H 5665   4.644   2.486  16.876 -2.7578  3.3952  0.7223
  375MPD2    H1 5666   0.319   2.597  16.938  0.3408 -0.0383  0.7599
  375MPD2    H2 5667   0.020   2.828  17.103 -1.0957  0.4791 -1.5515
  375MPD2    H3 5668   0.253   2.761  17.076  0.5170 -0.5391  0.8019
  375MPD2     N 5669   0.158   2.425  16.793  0.3612  0.0364  0.5105
  375MPD2    H5 5670   0.257   2.416  16.771 -0.4150  0.4298 -3.1083
  375MPD2    N1 5671   4.542   2.686  16.977 -0.4532 -0.6652 -0.0635
  375MPD2    H7 5672   4.484   2.622  16.924 -1.1450 -0.1769  0.0910
  376TMC3    C1 5673   0.141   2.274  16.597 -0.7951 -0.7628  0.2142
  376TMC3    C2 5674   0.273   2.245  16.598 -0.4111 -0.1001  0.0203
  376TMC3    C3 5675   0.330   2.179  16.494  0.2759  0.1252  0.4343
  376TMC3    C4 5676   0.068   2.266  16.481 -0.4563  0.0727  0.0773
  376TMC3    C5 5677   0.129   2.216  16.374 -0.1124 -0.8398  0.1470
  376TMC3    C6 5678   0.258   2.171  16.377 -0.1300  0.9480  0.2401
  376TMC3     C 5679   0.071   2.367  16.694 -0.5131  0.9350 -0.5293
  376TMC3     O 5680   4.688   2.376  16.678 -0.3061  0.0039 -0.8610
  376TMC3     H 5681   0.326   2.276  16.687 -0.0501 -0.4266 -0.0827
  376TMC3    H1 5682   4.700   2.281  16.484 -0.1000  2.1968  1.6216
  376TMC3    H2 5683   0.298   2.114  16.294 -0.7511  0.7073  0.1012
  376TMC3    C7 5684   0.071   2.232  16.240  0.0049  0.5003 -0.1088
  376TMC3    C8 5685   0.474   2.186  16.464  0.6155  0.3863  0.5357
  376TMC3    O1 5686   0.144   2.197  16.148 -0.0893 -0.1412 -0.2196
  376TMC3    O2 5687   0.505   2.221  16.352  0.1130  0.6147 -0.6264
  377MPD2     C 5688   3.657   1.955  13.087 -0.3938 -0.7163 -0.3015
  377MPD2    C1 5689   3.588   1.880  12.999  0.0819  0.0700 -0.5736
  377MPD2    C2 5690   3.483   1.803  13.048 -0.1303  0.6443 -0.1478
  377MPD2    C3 5691   3.441   1.808  13.178  0.1186  0.1318  0.1561
  377MPD2    C4 5692   3.510   1.890  13.267  0.1300  0.2497 -0.0667
  377MPD2    C5 5693   3.613   1.965  13.216 -0.1879  0.3193 -0.3584
  377MPD2     H 5694   3.439   1.740  12.972 -0.3219 -0.5410  0.9461
  377MPD2    H1 5695   3.481   1.909  13.370  0.5703 -1.1749  0.3121
  377MPD2    H2 5696   3.743   2.014  13.056 -0.1481 -1.3052 -0.7544
  377MPD2    H3 5697   3.671   2.023  13.286  1.3858 -2.3461  0.5513
  377MPD2     N 5698   3.346   1.725  13.238 -0.1146  0.1064 -0.0761
  377MPD2    H5 5699   3.343   1.731  13.339  0.3669  0.1763 -0.0671
  377MPD2    N1 5700   3.628   1.880  12.863  1.3821  0.2789 -0.2188
  377MPD2    H7 5701   3.714   1.926  12.836  0.1114  3.0469  0.4501
  378TMC3    C1 5702   3.480   1.911  12.414 -0.4007 -0.2527 -0.5161
  378TMC3    C2 5703   3.452   1.908  12.547 -0.1262 -0.1899 -0.0753
  378TMC3    C3 5704   3.558   1.905  12.630  0.4774  0.1200 -0.1648
  378TMC3    C4 5705   3.604   1.886  12.362 -0.1063  0.4131 -0.4133
  378TMC3    C5 5706   3.713   1.889  12.447 -0.4534 -0.4684  0.4178
  378TMC3    C6 5707   3.687   1.908  12.584 -0.1080 -0.1225 -0.1110
  378TMC3     C 5708   3.360   1.906  12.323  0.4447 -0.0623 -0.3653
  378TMC3     O 5709   3.252   1.889  12.387 -0.0929 -0.7115  0.2445
  378TMC3     H 5710   3.351   1.926  12.582 -0.4341  2.5102 -2.2777
  378TMC3    H1 5711   3.606   1.844  12.262 -0.8865 -0.9551  0.1328
  378TMC3    H2 5712   3.775   1.893  12.646  0.2739 -1.7297 -1.0536
  378TMC3    C7 5713   3.848   1.841  12.406 -0.2177  0.3019  0.1457
  378TMC3    C8 5714   3.523   1.883  12.772 -0.6413  0.4299 -0.1695
  378TMC3    O1 5715   3.915   1.795  12.494  0.3311  0.0190 -0.1372
  378TMC3    O2 5716   3.406   1.889  12.807  0.2587 -0.2197  0.1097
  379MPD2     C 5717   4.112   0.128  16.272  0.8833  0.5177  0.8913
  379MPD2    C1 5718   4.071   0.008  16.224 -0.1919 -0.0651  1.1338
  379MPD2    C2 5719   4.082   4.631  16.303  0.1237  0.1214 -0.6710
  379MPD2    C3 5720   4.127   4.647  16.435  1.0208 -0.1346 -0.2422
  379MPD2    C4 5721   4.171   0.029  16.471 -0.4790 -0.3133  0.4539
  379MPD2    C5 5722   4.158   0.142  16.395 -0.4524 -0.7525  0.8452
  379MPD2     H 5723   4.049   4.534  16.269  1.9393 -0.9159  0.5349
  379MPD2    H1 5724   4.202   0.045  16.574  1.3606  0.3196 -0.1973
  379MPD2    H2 5725   4.116   0.216  16.209 -2.0910 -0.5583 -0.7784
  379MPD2    H3 5726   4.194   0.238  16.431 -0.7147 -0.0167 -0.8477
  379MPD2     N 5727   4.127   4.543  16.535  0.2640 -0.2183  0.0214
  379MPD2    H5 5728   4.147   4.562  16.633 -1.5873 -3.5830  1.0518
  379MPD2    N1 5729   4.031   0.004  16.086  0.0781 -0.0328  0.2324
  379MPD2    H7 5730   4.025   0.095  16.042  1.8312  0.8338  1.7984
  380TMC3    C1 5731   3.952   4.664  15.879 -0.7678 -0.3085 -0.2806
  380TMC3    C2 5732   3.996   4.586  15.776  0.6235 -0.0358  0.0291
  380TMC3    C3 5733   3.934   4.596  15.652  0.7503  0.4508  0.0702
  380TMC3    C4 5734   3.829   4.733  15.878 -0.0372  0.5726 -0.3692
  380TMC3    C5 5735   3.770   4.736  15.755  0.5680 -0.7758 -0.5113
  380TMC3    C6 5736   3.826   4.681  15.643  0.2482  0.4515  0.3907
  380TMC3     C 5737   4.010   4.635  16.010 -0.0655  0.8146 -0.0006
  380TMC3     O 5738   4.064   4.527  16.033 -0.0103 -0.5793  0.9161
  380TMC3     H 5739   4.094   4.544  15.790  1.0895  0.3168 -2.1661
  380TMC3    H1 5740   3.790   0.048  15.963 -0.1510  1.5607 -1.0587
  380TMC3    H2 5741   3.781   4.702  15.547  2.9126 -1.7944 -1.3607
  380TMC3    C7 5742   3.635   0.055  15.752  0.4795  0.2092 -0.1803
  380TMC3    C8 5743   4.034   4.612  15.543  0.5235 -0.0777  0.3521
  380TMC3    O1 5744   3.612   0.136  15.843  0.1526 -0.1681  0.6108
  380TMC3    O2 5745   4.021   4.701  15.462  0.1732  0.3020 -0.3143
  381TMC3    C1 5746   3.173   1.348  16.257  0.1535  0.1079  0.1732
  381TMC3    C2 5747   3.306   1.375  16.222  0.4614  0.5921  0.1705
  381TMC3    C3 5748   3.393   1.266  16.238 -0.0606 -0.4157 -0.0827
  381TMC3    C4 5749   3.127   1.228  16.303  0.0099  0.8000 -0.2056
  381TMC3    C5 5750   3.213   1.120  16.296 -0.7393  0.0865 -0.6062
  381TMC3    C6 5751   3.346   1.142  16.264  0.4931 -0.1032 -0.2006
  381TMC3     C 5752   3.098   1.462  16.314 -0.4432  0.6342 -0.1648
  381TMC3     O 5753   3.043   1.443  16.425  0.1735 -0.2896 -0.3687
  381TMC3     H 5754   3.349   1.473  16.201  2.1618  0.1063  1.4200
  381TMC3    H1 5755   3.021   1.208  16.317 -0.1111  2.3220  1.1146
  381TMC3    H2 5756   3.419   1.063  16.273  0.2800 -0.0575  1.8837
  381TMC3    C7 5757   3.193   1.023  16.403  0.5292  0.4307 -0.1336
  381TMC3    C8 5758   3.535   1.296  16.227 -0.4552 -0.4462 -0.5356
  381TMC3    O1 5759   3.259   0.921  16.401  0.3336  0.3733 -0.7689
  381TMC3    O2 5760   3.596   1.224  16.150 -0.0036  0.0355  0.0753
  382MPD2     C 5761   2.803   3.368  17.592 -0.0251  0.2805  0.4316
  382MPD2    C1 5762   2.695   3.341  17.508 -0.2740  0.6521 -0.6157
  382MPD2    C2 5763   2.671   3.216  17.471  0.0306  0.7319 -0.6228
  382MPD2    C3 5764   2.741   3.104  17.527  0.6504  0.3747  0.5717
  382MPD2    C4 5765   2.844   3.127  17.624  0.9279 -0.3038 -0.6096
  382MPD2    C5 5766   2.866   3.258  17.649 -0.1964  0.0631  0.0068
  382MPD2     H 5767   2.588   3.206  17.402  0.4880 -3.4941 -0.5421
  382MPD2    H1 5768   2.905   3.061  17.684  0.4625 -1.7117 -1.6914
  382MPD2    H2 5769   2.842   3.468  17.610 -1.9671  1.2744 -0.8102
  382MPD2    H3 5770   2.958   3.279  17.702 -0.0355 -1.3635  0.2833
  382MPD2     N 5771   2.718   2.969  17.506 -0.2965  0.3228  0.2671
  382MPD2    H5 5772   2.770   2.896  17.554  0.7462  1.3752  0.7274
  382MPD2    N1 5773   2.626   3.436  17.429  0.2133 -0.3253  0.2462
  382MPD2    H7 5774   2.559   3.402  17.361  0.4889  0.7369 -0.5492
  383TMC3    C1 5775   2.611   2.776  17.408  0.3689  0.0586  0.1366
  383TMC3    C2 5776   2.521   2.731  17.315  0.3288  0.2477  0.3033
  383TMC3    C3 5777   2.467   2.603  17.318  0.3166 -0.0548  0.2635
  383TMC3    C4 5778   2.647   2.690  17.511 -0.2322  0.2787 -0.0566
  383TMC3    C5 5779   2.586   2.564  17.518  0.5127 -0.2019 -0.3615
  383TMC3    C6 5780   2.490   2.521  17.430 -0.2460  0.1358  0.0343
  383TMC3     C 5781   2.630   2.922  17.416  0.9619  0.7641 -0.4962
  383TMC3     O 5782   2.553   2.983  17.342 -0.2091 -0.0763 -0.2183
  383TMC3     H 5783   2.478   2.800  17.244  1.0319  0.6845  0.2988
  383TMC3    H1 5784   2.715   2.721  17.590  0.5525 -0.0490 -0.5998
  383TMC3    H2 5785   2.433   2.433  17.455 -4.6281  2.5358 -1.5631
  383TMC3    C7 5786   2.572   2.491  17.642 -0.7149 -0.3067 -0.0239
  383TMC3    C8 5787   2.383   2.551  17.214  0.2915 -1.0177  0.2221
  383TMC3    O1 5788   2.521   2.380  17.636 -0.5630  0.5890  0.4576
  383TMC3    O2 5789   2.318   2.631  17.145 -0.5253  0.5281 -0.1884
  384MPD2     C 5790   4.708   0.019  11.606 -1.0272  0.2601  0.0803
  384MPD2    C1 5791   4.644   4.661  11.676  0.9050 -0.3108 -0.3040
  384MPD2    C2 5792   4.669   4.532  11.649  0.2293 -0.0616  0.2381
  384MPD2    C3 5793   0.024   4.498  11.562 -0.0186 -0.4057 -0.0720
  384MPD2    C4 5794   0.102   4.598  11.496 -0.0960  0.5339 -0.2339
  384MPD2    C5 5795   0.063   4.727  11.502 -0.2719 -0.3324 -0.0425
  384MPD2     H 5796   4.614   4.452  11.698  2.0084 -2.0251 -0.9674
  384MPD2    H1 5797   0.178   4.579  11.421  0.7761 -0.2053  0.8459
  384MPD2    H2 5798   4.674   0.121  11.620 -1.8511  0.0533 -0.4188
  384MPD2    H3 5799   0.104   0.051  11.425  0.8877  1.3885  1.9887
  384MPD2     N 5800   0.074   4.367  11.543  0.3515  0.1017  0.2423
  384MPD2    H5 5801   0.163   4.361  11.494  1.3952 -0.3468  2.2057
  384MPD2    N1 5802   4.546   4.710  11.765  0.8386  0.5481 -0.4618
  384MPD2    H7 5803   4.541   0.072  11.767  3.1328  0.6408  0.0269
  385TMC3    C1 5804   0.130   4.139  11.581 -0.2484  0.5407 -0.3440
  385TMC3    C2 5805   0.077   4.026  11.631  0.2104  0.4057 -0.2242
  385TMC3    C3 5806   0.147   3.967  11.731 -0.4271  0.1070 -0.2814
  385TMC3    C4 5807   0.259   4.180  11.604 -0.3204 -1.0652 -0.4886
  385TMC3    C5 5808   0.332   4.117  11.693 -0.3263  0.6191 -0.4903
  385TMC3    C6 5809   0.280   4.006  11.761  0.4707 -0.3079 -0.2638
  385TMC3     C 5810   0.029   4.244  11.589  0.1097 -0.3084 -0.6551
  385TMC3     O 5811   4.668   4.212  11.649 -0.3347  0.3216 -0.2949
  385TMC3     H 5812   4.725   3.985  11.588  0.9303 -0.1591 -1.2239
  385TMC3    H1 5813   0.301   4.276  11.578 -2.3594  0.0566  0.3610
  385TMC3    H2 5814   0.343   3.949  11.829  1.2687  1.8220  0.7820
  385TMC3    C7 5815   0.418   4.213  11.759  0.5230  0.3860 -0.0295
  385TMC3    C8 5816   0.098   3.853  11.795 -0.0075 -0.2597  0.1747
  385TMC3    O1 5817   0.500   4.278  11.697 -0.8843 -0.2377  0.3761
  385TMC3    O2 5818   0.185   3.803  11.868  0.1753 -0.8430  0.0509
  386TMC3    C1 5819   0.258   1.539  11.712  0.6415  0.1955  0.5645
  386TMC3    C2 5820   0.224   1.541  11.574 -0.7321 -0.1210 -0.3777
  386TMC3    C3 5821   0.142   1.642  11.531  0.7976  0.5978 -0.6778
  386TMC3    C4 5822   0.187   1.615  11.803  0.0140 -0.3908 -0.5940
  386TMC3    C5 5823   0.125   1.719  11.748  0.5712 -0.0024 -0.1991
  386TMC3    C6 5824   0.105   1.734  11.618 -0.2940  0.1302 -0.4127
  386TMC3     C 5825   0.312   1.415  11.759 -0.6017 -0.3671  0.1680
  386TMC3     O 5826   0.289   1.319  11.685  0.2811 -0.5690  0.2009
  386TMC3     H 5827   0.240   1.455  11.510 -0.4522 -0.4600  0.1437
  386TMC3    H1 5828   0.201   1.604  11.910 -1.8272  0.8383 -0.2183
  386TMC3    H2 5829   0.054   1.818  11.570 -1.8656 -1.7459 -2.0137
  386TMC3    C7 5830   0.009   1.760  11.821  0.3363  0.1745  0.2597
  386TMC3    C8 5831   0.037   1.620  11.431 -0.4748 -0.3383 -0.6688
  386TMC3    O1 5832   0.007   1.738  11.940 -0.4720 -0.1434  0.9380
  386TMC3    O2 5833   4.664   1.645  11.470 -0.8352 -0.2155  0.2726
  387MPD2     C 5834   2.222   1.812  10.439  1.3332  0.4877  0.2736
  387MPD2    C1 5835   2.352   1.768  10.428 -0.2400  1.0354  0.0317
  387MPD2    C2 5836   2.392   1.715  10.314  0.2093  0.5625  0.1997
  387MPD2    C3 5837   2.299   1.673  10.221  0.1982 -0.3828  0.0475
  387MPD2    C4 5838   2.169   1.700  10.233 -0.2477 -1.0592  0.5712
  387MPD2    C5 5839   2.134   1.783  10.336  0.1285 -0.6002 -0.3844
  387MPD2     H 5840   2.498   1.697  10.303  0.2053  0.4378  0.3781
  387MPD2    H1 5841   2.095   1.668  10.162  2.1946 -0.8378 -2.0611
  387MPD2    H2 5842   2.188   1.851  10.534 -1.0470 -3.1637  0.9339
  387MPD2    H3 5843   2.028   1.798  10.352 -0.1551 -1.2162 -1.7177
  387MPD2     N 5844   2.345   1.580  10.130  0.4066  0.2218 -0.5374
  387MPD2    H5 5845   2.444   1.560  10.138  0.0406 -1.5993 -0.5812
  387MPD2    N1 5846   2.450   1.793  10.524 -0.3459  0.8105  0.2200
  387MPD2    H7 5847   2.534   1.738  10.516 -2.2898 -1.8282 -1.9944
  388TMC3    C1 5848   2.562   1.841  10.732  0.0864 -0.4893 -0.4123
  388TMC3    C2 5849   2.606   1.959  10.793  0.2082  0.0617  0.3504
  388TMC3    C3 5850   2.739   1.971  10.826 -0.1221  0.2001  0.3176
  388TMC3    C4 5851   2.650   1.736  10.714  0.5516  0.3527  0.6955
  388TMC3    C5 5852   2.780   1.755  10.751 -0.9120  0.5163 -0.3669
  388TMC3    C6 5853   2.825   1.864  10.809 -0.4813 -0.0147 -0.4507
  388TMC3     C 5854   2.445   1.862  10.644 -0.1797 -0.1148 -0.7962
  388TMC3     O 5855   2.375   1.951  10.683  0.1623 -0.2367  0.1713
  388TMC3     H 5856   2.547   2.050  10.784  0.8456  0.3380 -1.0434
  388TMC3    H1 5857   2.624   1.641  10.668  1.0789  0.9378 -0.8269
  388TMC3    H2 5858   2.933   1.876  10.811 -0.5624  0.8619 -1.3145
  388TMC3    C7 5859   2.868   1.643  10.721  0.4449  0.3832 -0.2251
  388TMC3    C8 5860   2.787   2.084  10.907  0.1108 -0.2647  0.4781
  388TMC3    O1 5861   2.932   1.592  10.811  0.3780  0.0992 -0.1402
  388TMC3    O2 5862   2.709   2.176  10.919 -0.4579  0.0009 -0.4361
  389MPD2     C 5863   1.765   3.902  10.214 -0.3832  0.5624  0.0747
  389MPD2    C1 5864   1.814   4.012  10.281 -0.6236  0.2999 -0.0579
  389MPD2    C2 5865   1.790   4.025  10.419  0.1417 -0.0645  0.7540
  389MPD2    C3 5866   1.687   3.950  10.476 -0.3287  0.2824 -0.2744
  389MPD2    C4 5867   1.629   3.844  10.410  0.6736  0.0247 -0.1998
  389MPD2    C5 5868   1.673   3.821  10.277  0.2543 -0.1322  0.2100
  389MPD2     H 5869   1.829   4.110  10.474  1.4843 -0.6583  0.7273
  389MPD2    H1 5870   1.544   3.788  10.449 -1.0615  1.0055 -2.5531
  389MPD2    H2 5871   1.787   3.897  10.108 -2.3365  0.3702 -0.3104
  389MPD2    H3 5872   1.619   3.740  10.230 -0.9148  1.1359 -0.6353
  389MPD2     N 5873   1.631   3.967  10.606 -0.0637  0.2601  0.1473
  389MPD2    H5 5874   1.554   3.902  10.621 -1.8889  2.5824  0.8699
  389MPD2    N1 5875   1.892   4.102  10.201 -0.5399 -0.5387  0.1417
  389MPD2    H7 5876   1.907   4.069  10.106 -0.0100  4.0882 -1.3753
  390TMC3    C1 5877   1.575   4.067  10.811  0.4506  0.1344  1.2286
  390TMC3    C2 5878   1.624   4.115  10.930 -0.2434  0.4497  0.3843
  390TMC3    C3 5879   1.536   4.152  11.031 -0.1478  0.0344 -0.7939
  390TMC3    C4 5880   1.435   4.041  10.796 -0.4160  0.2674  0.5520
  390TMC3    C5 5881   1.360   4.078  10.898  0.1896  0.1488 -0.2678
  390TMC3    C6 5882   1.404   4.136  11.009  0.4394 -0.0016 -0.0167
  390TMC3     C 5883   1.671   4.054  10.703  0.0591 -0.2673 -0.4820
  390TMC3     O 5884   1.780   4.105  10.712 -0.1254 -0.3736  0.0398
  390TMC3     H 5885   1.732   4.114  10.942 -0.1752  1.1724 -0.1765
  390TMC3    H1 5886   1.392   3.997  10.707  3.4813 -0.4820 -0.9635
  390TMC3    H2 5887   1.339   4.165  11.090  0.4112 -3.0053  1.0466
  390TMC3    C7 5888   1.221   4.025  10.903 -0.1922 -0.0760 -1.0913
  390TMC3    C8 5889   1.549   4.098  11.166 -0.1315  0.1324  0.5273
  390TMC3    O1 5890   1.200   3.935  10.821  0.1498  1.0836  0.4399
  390TMC3    O2 5891   1.525   3.978  11.160 -0.2341 -0.1354  0.0027
  391MPD2     C 5892   0.665   1.354  11.166  0.0693 -0.3863 -0.0996
  391MPD2    C1 5893   0.732   1.473  11.148 -0.6686  0.4803 -0.1643
  391MPD2    C2 5894   0.756   1.526  11.022  0.1325 -0.0645 -0.2437
  391MPD2    C3 5895   0.701   1.472  10.914 -0.0310  0.5295  0.1512
  391MPD2    C4 5896   0.617   1.359  10.923  0.4539  0.3459 -0.1662
  391MPD2    C5 5897   0.600   1.305  11.051  0.1255 -0.1069 -0.0545
  391MPD2     H 5898   0.808   1.621  11.012 -0.7756  0.3570 -0.9573
  391MPD2    H1 5899   0.569   1.322  10.834  0.2971 -0.0832  0.0949
  391MPD2    H2 5900   0.654   1.306  11.262 -0.9129  1.4954  0.7431
  391MPD2    H3 5901   0.543   1.216  11.074 -0.3618  0.2366  0.0613
  391MPD2     N 5902   0.732   1.530  10.791 -0.3870 -0.4507  0.7266
  391MPD2    H5 5903   0.799   1.605  10.800 -0.9995  0.2846 -0.8523
  391MPD2    N1 5904   0.777   1.534  11.265 -0.7617 -0.1240  0.3742
  391MPD2    H7 5905   0.788   1.482  11.352 -0.7034 -0.0728  0.3976
  392TMC3    C1 5906   0.703   1.618  10.573 -0.7414  0.1848 -0.2370
  392TMC3    C2 5907   0.602   1.660  10.488  0.4551 -0.4745 -0.0801
  392TMC3    C3 5908   0.607   1.779  10.426  0.4617 -0.0753  0.7839
  392TMC3    C4 5909   0.800   1.711  10.606  0.1215  0.1304  0.3581
  392TMC3    C5 5910   0.805   1.830  10.528  1.6265 -0.3990  0.7629
  392TMC3    C6 5911   0.708   1.862  10.432  0.6721  0.0155 -0.7091
  392TMC3     C 5912   0.662   1.517  10.670  0.0545 -0.0980 -1.0032
  392TMC3     O 5913   0.570   1.446  10.649  0.3445 -0.3976 -0.4738
  392TMC3     H 5914   0.519   1.592  10.479  0.2414 -0.6210  2.8111
  392TMC3    H1 5915   0.880   1.685  10.674 -0.0253  1.3183  0.9861
  392TMC3    H2 5916   0.706   1.958  10.382  2.7955 -0.8627 -2.4889
  392TMC3    C7 5917   0.931   1.903  10.537  0.2448 -0.6600  0.3950
  392TMC3    C8 5918   0.499   1.794  10.331 -0.3486 -0.4180  0.0174
  392TMC3    O1 5919   1.000   1.892  10.636 -0.1579  0.2303 -0.1834
  392TMC3    O2 5920   0.449   1.695  10.280 -0.5538  0.2412 -0.2481
  393TMC3    C1 5921   4.008   4.376  11.349  0.0982  0.4816  0.8611
  393TMC3    C2 5922   3.926   4.415  11.454 -0.1791  0.1381 -0.1787
  393TMC3    C3 5923   3.914   4.331  11.557  0.1372  0.0847 -0.2470
  393TMC3    C4 5924   4.066   4.250  11.333 -0.4361 -0.2480 -0.1515
  393TMC3    C5 5925   4.036   4.161  11.439 -0.4148  0.1038  0.8607
  393TMC3    C6 5926   3.960   4.200  11.552 -0.7738  0.5767  0.4248
  393TMC3     C 5927   4.050   4.473  11.249 -0.0169  0.8824 -0.5869
  393TMC3     O 5928   4.083   4.432  11.139  0.2212  0.1060 -0.3142
  393TMC3     H 5929   3.867   4.505  11.467 -1.2329 -0.5029 -0.5874
  393TMC3    H1 5930   4.110   4.222  11.238 -0.5424  0.2057 -0.3374
  393TMC3    H2 5931   3.944   4.135  11.637 -1.3681  0.6799  0.3923
  393TMC3    C7 5932   4.114   4.042  11.460 -0.5144  0.3207 -0.0439
  393TMC3    C8 5933   3.811   4.349  11.653  0.7217 -0.3934  0.4221
  393TMC3    O1 5934   4.053   3.957  11.529  0.0693  0.2901 -0.2186
  393TMC3    O2 5935   3.756   4.250  11.692  0.5000  0.4915 -0.5015
  394TMC3    C1 5936   2.014   4.301  10.159 -0.3337 -0.1264  0.1384
  394TMC3    C2 5937   2.019   4.271  10.026 -0.6295  0.0150 -0.6813
  394TMC3    C3 5938   2.045   4.366   9.938 -0.4151  0.6676  0.1525
  394TMC3    C4 5939   2.051   4.424  10.207  0.2237 -0.8158 -0.1516
  394TMC3    C5 5940   2.097   4.513  10.119 -0.3519  0.3238  0.2068
  394TMC3    C6 5941   2.086   4.494   9.983  0.0063  0.8407 -0.1517
  394TMC3     C 5942   1.945   4.215  10.256 -0.8268 -0.2331  0.1235
  394TMC3     O 5943   1.931   4.265  10.367 -0.1162 -0.0325 -0.5905
  394TMC3     H 5944   1.999   4.169   9.994 -2.4192 -0.0845  0.8047
  394TMC3    H1 5945   2.032   4.450  10.311  1.7998 -0.7309  0.1099
  394TMC3    H2 5946   2.101   4.577   9.914  2.1057  0.5755 -0.0189
  394TMC3    C7 5947   2.110   4.649  10.158 -0.2160 -0.3347  0.0588
  394TMC3    C8 5948   1.990   4.358   9.801  0.0927 -0.1420  0.6742
  394TMC3    O1 5949   2.055   4.727  10.087  0.1389 -0.3227  0.1952
  394TMC3    O2 5950   2.032   4.448   9.725 -0.3098 -0.8698  0.5224
  395TMC3    C1 5951   1.372   2.109  14.736  0.7492  0.0214 -0.4454
  395TMC3    C2 5952   1.281   2.069  14.639  0.3522 -0.0236 -0.0870
  395TMC3    C3 5953   1.299   2.126  14.516 -0.0429  0.3496  0.4182
  395TMC3    C4 5954   1.477   2.190  14.710  0.5128  0.2421 -0.1319
  395TMC3    C5 5955   1.478   2.247  14.586 -0.7779  0.3553 -0.7438
  395TMC3    C6 5956   1.397   2.218  14.487 -0.3777  0.7385  1.4012
  395TMC3     C 5957   1.358   2.061  14.873 -0.4861 -0.4214  0.2129
  395TMC3     O 5958   1.394   2.132  14.963  0.1140  0.3187  0.3451
  395TMC3     H 5959   1.198   2.002  14.658  0.2441  0.1982  0.2210
  395TMC3    H1 5960   1.554   2.205  14.784  0.7490 -0.7522 -0.1766
  395TMC3    H2 5961   1.405   2.258  14.387 -0.0167 -0.3030  1.0190
  395TMC3    C7 5962   1.571   2.356  14.579 -0.4823  0.1341 -0.0825
  395TMC3    C8 5963   1.178   2.142  14.432 -0.2960 -0.1873 -0.3636
  395TMC3    O1 5964   1.641   2.379  14.676  0.3785 -0.9282 -0.3005
  395TMC3    O2 5965   1.126   2.040  14.387 -0.0541 -0.1758  0.1631
  396MPD2     C 5966   1.614   2.698  17.356  0.1433 -0.5398 -0.1406
  396MPD2    C1 5967   1.484   2.668  17.371 -0.1867 -1.0069 -0.3098
  396MPD2    C2 5968   1.389   2.771  17.346  0.1357 -0.5002 -0.3989
  396MPD2    C3 5969   1.430   2.894  17.304 -0.0542  0.0711  0.8001
  396MPD2    C4 5970   1.568   2.919  17.288  0.1279 -0.7205  0.3192
  396MPD2    C5 5971   1.658   2.818  17.318 -0.7162  0.0697 -0.7817
  396MPD2     H 5972   1.283   2.746  17.352  0.1544  0.1353  2.3687
  396MPD2    H1 5973   1.615   3.012  17.256 -2.1583  1.0677  2.0912
  396MPD2    H2 5974   1.693   2.632  17.391  1.9603  1.9812  0.5580
  396MPD2    H3 5975   1.763   2.842  17.309 -1.6628  3.9598 -1.4579
  396MPD2     N 5976   1.331   2.991  17.263  0.3703 -0.2167  0.4294
  396MPD2    H5 5977   1.236   2.962  17.286 -0.5649 -0.2198 -3.3148
  396MPD2    N1 5978   1.449   2.534  17.416 -0.0322  0.4624 -0.8778
  396MPD2    H7 5979   1.526   2.469  17.432  0.2300  1.1361  0.5880
  397TMC3    C1 5980   1.322   2.333  17.430  0.6997 -0.7276  0.6019
  397TMC3    C2 5981   1.373   2.280  17.310 -0.2867  0.4709 -0.0217
  397TMC3    C3 5982   1.294   2.249  17.198 -0.1049 -0.2940 -0.1167
  397TMC3    C4 5983   1.190   2.295  17.450  0.4766  0.2999  0.4987
  397TMC3    C5 5984   1.118   2.240  17.351 -0.6744  0.1012 -0.1971
  397TMC3    C6 5985   1.163   2.214  17.224 -0.4660  0.0717  0.2597
  397TMC3     C 5986   1.325   2.479  17.430  0.4265  0.8044  0.0472
  397TMC3     O 5987   1.215   2.528  17.423  0.5901 -1.0520 -0.3998
  397TMC3     H 5988   1.479   2.299  17.299 -0.2302  1.2759  1.9261
  397TMC3    H1 5989   1.141   2.333  17.538 -1.4152  1.1210 -0.9130
  397TMC3    H2 5990   1.106   2.184  17.137  0.4958  0.0916 -0.3743
  397TMC3    C7 5991   0.984   2.178  17.377  0.2523  0.5967 -0.4944
  397TMC3    C8 5992   1.324   2.316  17.069 -0.3607  0.5497  0.0252
  397TMC3    O1 5993   0.932   2.121  17.281 -0.3124 -0.0876 -0.1826
  397TMC3    O2 5994   1.227   2.341  17.000  0.3385  0.1077  0.0907
  398MPD2     C 5995   3.700   4.524   0.374  0.4015 -0.3664  0.7588
  398MPD2    C1 5996   3.798   4.429   0.403  0.8799 -0.0319 -0.1104
  398MPD2    C2 5997   3.920   4.477   0.453 -0.1083  0.6042 -0.2625
  398MPD2    C3 5998   3.947   4.615   0.470 -0.1636  0.0147 -0.6860
  398MPD2    C4 5999   3.845   4.702   0.451  0.2373  0.4161 -0.2725
  398MPD2    C5 6000   3.722   4.656   0.408 -0.2663  0.1889 -0.5696
  398MPD2     H 6001   4.006   4.413   0.467 -0.9603 -0.6737 -0.8730
  398MPD2    H1 6002   3.857   0.068   0.473  1.4141  0.5210 -1.4328
  398MPD2    H2 6003   3.606   4.507   0.322  0.5132  2.4061 -0.3276
  398MPD2    H3 6004   3.643   4.728   0.393 -0.1930  0.1538 -1.1116
  398MPD2     N 6005   4.074   4.651   0.519 -0.0760 -0.1498  0.0126
  398MPD2    H5 6006   4.140   4.575   0.524 -2.0781 -1.7984  1.0047
  398MPD2    N1 6007   3.775   4.294   0.388 -0.5547 -0.0464 -0.2646
  398MPD2    H7 6008   3.851   4.233   0.416  0.5359  0.4596 -2.1109
  399TMC3    C1 6009   3.698   4.096   0.281 -0.6328  0.7399  0.5837
  399TMC3    C2 6010   3.780   4.033   0.369 -0.1162  0.4558 -0.0037
  399TMC3    C3 6011   3.795   3.896   0.353  0.7173 -0.8016  0.1220
  399TMC3    C4 6012   3.636   4.035   0.182 -0.0521  0.4984 -0.2230
  399TMC3    C5 6013   3.636   3.902   0.181  0.0552  0.3805 -0.2937
  399TMC3    C6 6014   3.730   3.835   0.250  0.8142 -0.2226  0.3042
  399TMC3     C 6015   3.684   4.241   0.303 -0.2893  0.3815 -0.6181
  399TMC3     O 6016   3.586   4.288   0.249  0.3362  0.0302 -0.5956
  399TMC3     H 6017   3.819   4.074   0.461  0.1010  0.8083 -0.2541
  399TMC3    H1 6018   3.549   4.081   0.136 -0.9788 -1.0823 -0.0544
  399TMC3    H2 6019   3.721   3.727   0.255 -1.0111 -0.0786  0.2826
  399TMC3    C7 6020   3.591   3.837   0.059  1.2166 -0.1250 -0.0774
  399TMC3    C8 6021   3.906   3.821   0.414  0.2638 -0.8992  0.4622
  399TMC3    O1 6022   3.594   3.713   0.059  0.1012 -0.1641  0.4257
  399TMC3    O2 6023   3.959   3.862   0.513  0.3243 -0.0763 -0.2907
  400TMC3    C1 6024   2.446   2.505  16.746  0.2326  0.0442 -0.3042
  400TMC3    C2 6025   2.396   2.471  16.622 -0.4419  0.4876  0.0605
  400TMC3    C3 6026   2.319   2.553  16.545  0.6475 -0.4660  0.3205
  400TMC3    C4 6027   2.391   2.612  16.802  0.5465 -0.4945  0.2260
  400TMC3    C5 6028   2.314   2.691  16.730 -0.2846 -0.1747  0.9889
  400TMC3    C6 6029   2.271   2.666  16.604 -0.0730  0.2602 -0.1206
  400TMC3     C 6030   2.530   2.409  16.813  0.0129 -0.0973  0.7674
  400TMC3     O 6031   2.573   2.314  16.744 -0.3571 -0.5525 -0.2606
  400TMC3     H 6032   2.426   2.373  16.587  1.6200  1.2676 -0.4086
  400TMC3    H1 6033   2.423   2.657  16.895  1.0760 -0.2991 -0.0562
  400TMC3    H2 6034   2.203   2.736  16.556 -1.2398 -0.2643  0.7868
  400TMC3    C7 6035   2.267   2.819  16.786 -0.8236  0.3036 -0.8387
  400TMC3    C8 6036   2.212   2.478  16.473  0.2331  0.7302 -0.5804
  400TMC3    O1 6037   2.217   2.901  16.711  0.8069  0.1903 -0.1914
  400TMC3    O2 6038   2.242   2.370  16.428  0.1887 -0.2282 -0.3208
  401MPD2     C 6039   0.317   1.061   0.672 -1.8168  0.2160 -0.0202
  401MPD2    C1 6040   0.305   1.022   0.802 -0.2833 -0.0730  0.3613
  401MPD2    C2 6041   0.251   0.902   0.827 -0.2577 -0.4277  0.4279
  401MPD2    C3 6042   0.197   0.823   0.723  0.1920 -0.0274 -0.9463
  401MPD2    C4 6043   0.208   0.865   0.594 -0.1895 -0.0596 -0.1529
  401MPD2    C5 6044   0.268   0.980   0.571  1.6170  0.5316  0.1078
  401MPD2     H 6045   0.231   0.871   0.929 -0.8723  0.4002  0.5596
  401MPD2    H1 6046   0.165   0.807   0.514  2.4258 -1.4951 -0.5035
  401MPD2    H2 6047   0.375   1.148   0.644  1.1154 -1.8438 -0.2459
  401MPD2    H3 6048   0.280   1.010   0.468 -0.8750  0.4231 -0.2246
  401MPD2     N 6049   0.160   0.685   0.742 -0.4236 -0.6118 -0.1051
  401MPD2    H5 6050   0.152   0.639   0.652  0.6406 -0.4030 -0.3009
  401MPD2    N1 6051   0.370   1.096   0.912 -0.7735  0.4210 -0.7394
  401MPD2    H7 6052   0.348   1.069   1.007 -2.1064 -0.9552 -1.4293
  402TMC3    C1 6053   0.135   0.463   0.837 -0.1116 -0.7682 -0.7522
  402TMC3    C2 6054   0.146   0.385   0.945  0.4902 -0.0904  0.2493
  402TMC3    C3 6055   0.186   0.258   0.923 -0.9392 -0.6670 -0.7988
  402TMC3    C4 6056   0.162   0.417   0.710  0.1897 -0.4307  0.4103
  402TMC3    C5 6057   0.207   0.288   0.695 -0.1062  0.2378 -0.4206
  402TMC3    C6 6058   0.223   0.202   0.802  0.4741 -0.1115 -0.5021
  402TMC3     C 6059   0.136   0.617   0.859 -0.4113 -0.6011  0.6650
  402TMC3     O 6060   0.131   0.665   0.970 -0.3716 -0.0092 -0.2811
  402TMC3     H 6061   0.132   0.419   1.047  1.2746  1.6417 -0.2157
  402TMC3    H1 6062   0.152   0.478   0.621  1.6550  1.4983  1.5723
  402TMC3    H2 6063   0.249   0.097   0.790  2.5282  0.2004  1.2719
  402TMC3    C7 6064   0.283   0.256   0.571 -0.0846 -0.0545  0.3035
  402TMC3    C8 6065   0.240   0.179   1.033  0.5321  0.2615  0.5419
  402TMC3    O1 6066   0.250   0.313   0.469 -0.1006  0.5600  0.5379
  402TMC3    O2 6067   0.303   0.074   1.009 -0.0986 -0.4866  0.1879
  403MPD2     C 6068   4.017   3.969  13.069  0.7698 -0.2588 -1.0974
  403MPD2    C1 6069   4.045   3.984  13.202  0.4434  0.2782 -0.1266
  403MPD2    C2 6070   4.153   4.067  13.245 -0.0520  0.8346  0.3510
  403MPD2    C3 6071   4.240   4.120  13.148  0.0568  0.1192  0.3034
  403MPD2    C4 6072   4.225   4.077  13.016  0.2043  0.0396 -0.6949
  403MPD2    C5 6073   4.109   4.010  12.980 -0.2699  0.0854 -0.7054
  403MPD2     H 6074   4.182   4.080  13.349 -0.7523  0.3089  0.6086
  403MPD2    H1 6075   4.293   4.103  12.936  0.0027 -0.0390 -0.8889
  403MPD2    H2 6076   3.929   3.913  13.038 -0.7468  0.3873  2.0322
  403MPD2    H3 6077   4.089   3.974  12.879  1.3548 -2.7782 -0.0240
  403MPD2     N 6078   4.351   4.192  13.188 -0.0242 -0.2172 -0.6191
  403MPD2    H5 6079   4.354   4.218  13.286  0.5384 -2.4480 -0.0540
  403MPD2    N1 6080   3.966   3.911  13.295  0.2623 -0.3928  0.4386
  403MPD2    H7 6081   3.885   3.858  13.264  0.5341  0.0375 -1.0054
  404TMC3    C1 6082   3.894   3.802  13.484  0.8904 -0.1883  0.2760
  404TMC3    C2 6083   3.914   3.776  13.617 -0.9192 -0.7225  0.1404
  404TMC3    C3 6084   3.849   3.673  13.674 -0.0536  0.4748 -0.3669
  404TMC3    C4 6085   3.810   3.733  13.406  0.2547 -0.3978  0.2967
  404TMC3    C5 6086   3.765   3.612  13.460 -0.1159  0.3269 -0.5026
  404TMC3    C6 6087   3.782   3.587  13.598 -0.2663  0.7354  0.5297
  404TMC3     C 6088   3.972   3.919  13.433 -0.5963 -0.1087 -0.5122
  404TMC3     O 6089   4.049   3.978  13.506  0.9998  0.0376 -0.6832
  404TMC3     H 6090   3.980   3.845  13.669 -1.1229  0.6989 -1.4621
  404TMC3    H1 6091   3.792   3.754  13.302  0.3184  1.4044  0.6522
  404TMC3    H2 6092   3.769   3.491  13.646  0.4769 -0.0353 -0.7825
  404TMC3    C7 6093   3.678   3.526  13.385  0.1108  0.0452 -0.3901
  404TMC3    C8 6094   3.914   3.624  13.792 -0.4089 -1.1385  1.1327
  404TMC3    O1 6095   3.613   3.447  13.448 -0.4556 -0.3808 -0.4238
  404TMC3    O2 6096   4.030   3.656  13.793  0.5338  0.7737  1.3472
  405MPD2     C 6097   3.571   4.188  14.878  0.5783 -1.1673  0.1007
  405MPD2    C1 6098   3.527   4.185  14.746 -0.9552 -0.1741  0.1657
  405MPD2    C2 6099   3.616   4.192  14.638 -0.3629  0.2494  0.4452
  405MPD2    C3 6100   3.754   4.183  14.671 -0.0670  0.5735  0.3409
  405MPD2    C4 6101   3.796   4.171  14.802 -0.0107 -0.1677  0.2048
  405MPD2    C5 6102   3.709   4.167  14.904  0.3282 -0.4699 -0.1798
  405MPD2     H 6103   3.579   4.212  14.539  2.1504  2.6330  0.0062
  405MPD2    H1 6104   3.899   4.164  14.835  0.0437 -1.6076 -0.2651
  405MPD2    H2 6105   3.502   4.198  14.961 -1.0556 -1.0680 -1.2661
  405MPD2    H3 6106   3.750   4.166  15.005  0.6474  0.7071 -0.2970
  405MPD2     N 6107   3.842   4.200  14.559 -0.9326 -0.8515  0.5649
  405MPD2    H5 6108   3.800   4.250  14.481 -2.0184 -2.6475  0.0074
  405MPD2    N1 6109   3.388   4.212  14.740  0.4296  0.5793 -0.1463
  405MPD2    H7 6110   3.342   4.243  14.824  1.9373  0.6793  0.6342
  406TMC3    C1 6111   4.153   4.317  14.263 -0.1437 -0.5456 -0.0643
  406TMC3    C2 6112   4.068   4.273  14.167 -0.2437 -0.6100 -0.1021
  406TMC3    C3 6113   3.949   4.210  14.208 -0.9776 -1.0495 -0.0041
  406TMC3    C4 6114   4.135   4.282  14.404  0.6610 -0.1124 -0.1443
  406TMC3    C5 6115   4.030   4.199  14.425 -0.4630 -0.3596  0.6025
  406TMC3    C6 6116   3.930   4.166  14.334 -0.1686  0.1245  0.3018
  406TMC3     C 6117   4.196   4.451  14.255 -0.2414  0.5890 -0.2130
  406TMC3     O 6118   4.297   4.486  14.308 -0.4347  0.2800  0.4418
  406TMC3     H 6119   4.074   4.311  14.065 -4.4757  0.0006 -0.1183
  406TMC3    H1 6120   4.201   4.319  14.480 -0.1225 -1.6489  1.2917
  406TMC3    H2 6121   3.846   4.100  14.351 -1.7067  2.3575  1.3603
  406TMC3    C7 6122   3.978   4.190  14.559 -0.1752  0.7579  0.1027
  406TMC3    C8 6123   3.829   4.258  14.130  0.6144 -0.2923  0.0122
  406TMC3    O1 6124   4.051   4.215  14.654  0.8282  0.2096 -0.1488
  406TMC3    O2 6125   3.859   4.311  14.024  0.5568 -0.6254 -0.3607
  407MPD2     C 6126   1.861   1.535   9.619  0.0411 -0.5931  0.1565
  407MPD2    C1 6127   1.945   1.591   9.708 -0.2925 -0.0440 -0.1079
  407MPD2    C2 6128   1.902   1.669   9.810  0.6648 -0.0925 -0.0618
  407MPD2    C3 6129   1.764   1.697   9.813  0.1147 -0.0391  0.8033
  407MPD2    C4 6130   1.676   1.636   9.726 -0.1997 -0.3675 -0.4771
  407MPD2    C5 6131   1.726   1.551   9.626 -0.1237  0.2576  0.1215
  407MPD2     H 6132   1.974   1.704   9.883 -1.2808  1.6321  1.0238
  407MPD2    H1 6133   1.570   1.660   9.736 -0.3025 -0.0726 -2.4365
  407MPD2    H2 6134   1.898   1.477   9.535 -1.3162 -0.5988 -0.4341
  407MPD2    H3 6135   1.658   1.513   9.550  0.3636 -2.7695  1.2203
  407MPD2     N 6136   1.707   1.781   9.913  0.1056 -0.2957  0.3111
  407MPD2    H5 6137   1.606   1.793   9.913  0.3105  1.3584 -0.3513
  407MPD2    N1 6138   2.087   1.569   9.707  0.2795 -0.2547 -0.4896
  407MPD2    H7 6139   2.147   1.625   9.767 -1.1499 -1.3476  1.9720
  408TMC3    C1 6140   2.295   1.492   9.638 -0.4064 -0.2827 -1.2427
  408TMC3    C2 6141   2.370   1.376   9.638  0.0643  0.0128  0.2918
  408TMC3    C3 6142   2.504   1.402   9.665 -0.5944  0.0641  0.1917
  408TMC3    C4 6143   2.343   1.623   9.637 -0.1367 -0.3709  0.2573
  408TMC3    C5 6144   2.472   1.638   9.673 -0.1485 -0.8499  0.8329
  408TMC3    C6 6145   2.554   1.525   9.695 -0.8558 -0.1344  0.5011
  408TMC3     C 6146   2.153   1.471   9.633 -1.2985  0.0567 -0.3615
  408TMC3     O 6147   2.111   1.365   9.583  0.1786  0.3381 -0.3427
  408TMC3     H 6148   2.327   1.280   9.611 -0.3339  0.7183 -1.5960
  408TMC3    H1 6149   2.287   1.714   9.619 -2.3194 -1.6353  0.5514
  408TMC3    H2 6150   2.660   1.541   9.710 -0.9820  0.7502  0.4516
  408TMC3    C7 6151   2.524   1.764   9.724  0.8374  0.2166 -0.0699
  408TMC3    C8 6152   2.565   1.289   9.735  0.1451  0.3730  0.0240
  408TMC3    O1 6153   2.590   1.761   9.823 -0.5008  0.4970 -0.0052
  408TMC3    O2 6154   2.514   1.178   9.715 -0.2056 -0.2627  0.8287
  409MPD2     C 6155   1.186   1.895  16.871  0.1776  0.2193  0.3829
  409MPD2    C1 6156   1.314   1.849  16.852  0.4755  0.2581 -0.2069
  409MPD2    C2 6157   1.410   1.941  16.809  0.3293  0.1357  0.0199
  409MPD2    C3 6158   1.380   2.078  16.784 -0.1377  0.3783 -0.6032
  409MPD2    C4 6159   1.247   2.109  16.788 -0.1176 -0.1905 -0.0936
  409MPD2    C5 6160   1.149   2.023  16.835 -0.4728 -0.2855 -0.5444
  409MPD2     H 6161   1.510   1.904  16.790  0.8229  1.0472  0.8700
  409MPD2    H1 6162   1.216   2.205  16.747 -0.7120  0.2136  1.2945
  409MPD2    H2 6163   1.112   1.821  16.897 -0.4821  1.1787  1.2561
  409MPD2    H3 6164   1.046   2.054  16.846  0.5059  2.8721 -0.2732
  409MPD2     N 6165   1.476   2.178  16.744 -0.6821 -0.0512 -0.1697
  409MPD2    H5 6166   1.441   2.262  16.700 -1.3807 -0.0878  0.3231
  409MPD2    N1 6167   1.355   1.714  16.847 -0.0072  0.3117  0.2060
  409MPD2    H7 6168   1.452   1.693  16.828 -0.5594 -1.4839 -0.5938
  410TMC3    C1 6169   1.683   2.287  16.737  0.3235 -0.2877 -0.1809
  410TMC3    C2 6170   1.808   2.299  16.794  1.0454  0.1972  0.0491
  410TMC3    C3 6171   1.870   2.422  16.772  0.2277  0.1629  0.1624
  410TMC3    C4 6172   1.632   2.374  16.642  0.3091  0.2029 -0.2512
  410TMC3    C5 6173   1.700   2.494  16.621  0.6798 -0.1298 -0.0834
  410TMC3    C6 6174   1.818   2.523  16.686  0.6231 -0.3903  0.3486
  410TMC3     C 6175   1.609   2.170  16.779  0.3599 -0.0887 -0.3110
  410TMC3     O 6176   1.655   2.085  16.856  0.4032  0.6177  0.1750
  410TMC3     H 6177   1.842   2.227  16.868 -1.3247  1.1080  2.0493
  410TMC3    H1 6178   1.543   2.348  16.585 -0.6997 -0.2566  1.5486
  410TMC3    H2 6179   1.880   2.610  16.666  0.1949  0.4205  2.4724
  410TMC3    C7 6180   1.618   2.603  16.564  0.1575 -0.3992 -0.5225
  410TMC3    C8 6181   2.002   2.446  16.834 -0.1258  0.2480  0.4912
  410TMC3    O1 6182   1.518   2.568  16.499 -0.0704  0.1591  0.3701
  410TMC3    O2 6183   2.028   2.553  16.892  0.3312 -0.2104 -0.3213
  411MPD2     C 6184   1.786   3.320  14.376  0.7415 -0.4166  0.4523
  411MPD2    C1 6185   1.766   3.312  14.511 -0.8892 -0.3849 -0.3863
  411MPD2    C2 6186   1.676   3.219  14.563  0.0056  0.2220 -0.3738
  411MPD2    C3 6187   1.607   3.128  14.473 -0.1190 -0.9266 -0.0729
  411MPD2    C4 6188   1.639   3.125  14.336 -0.4607 -0.7308 -0.1567
  411MPD2    C5 6189   1.715   3.234  14.287  0.2952 -0.4487  0.0982
  411MPD2     H 6190   1.661   3.221  14.671 -1.0692  1.3085 -0.5497
  411MPD2    H1 6191   1.595   3.049  14.272  3.1165 -2.4130 -0.6371
  411MPD2    H2 6192   1.846   3.403  14.341 -1.3553  0.7649 -0.2664
  411MPD2    H3 6193   1.723   3.241  14.179  1.4589 -0.1219  0.2131
  411MPD2     N 6194   1.512   3.035  14.524  0.3341  0.1140  0.0745
  411MPD2    H5 6195   1.452   2.988  14.456  0.3868  1.4122 -0.8589
  411MPD2    N1 6196   1.827   3.415  14.586 -0.0701  0.2643 -0.2661
  411MPD2    H7 6197   1.884   3.482  14.536 -0.1317  0.2293 -0.3845
  412TMC3    C1 6198   1.381   2.913  14.666 -0.0114 -0.2213  0.7094
  412TMC3    C2 6199   1.273   2.933  14.743 -0.1996  0.0821  0.2104
  412TMC3    C3 6200   1.182   2.831  14.750 -0.3216 -0.0740  0.2954
  412TMC3    C4 6201   1.409   2.799  14.604 -0.4976  0.1412 -0.6978
  412TMC3    C5 6202   1.319   2.698  14.626 -0.7312  0.3872  0.2933
  412TMC3    C6 6203   1.202   2.705  14.697  0.1326 -0.1055  0.0014
  412TMC3     C 6204   1.464   3.033  14.651  0.7823 -0.4244  0.3804
  412TMC3     O 6205   1.477   3.110  14.746 -0.0060  1.0406  0.0489
  412TMC3     H 6206   1.249   3.029  14.788  3.0583 -0.2392  2.6076
  412TMC3    H1 6207   1.497   2.774  14.546 -2.4844 -1.8899 -2.8400
  412TMC3    H2 6208   1.138   2.618  14.695 -0.7376  0.5763 -2.2772
  412TMC3    C7 6209   1.309   2.603  14.518 -0.7584  0.0358  0.8825
  412TMC3    C8 6210   1.052   2.866  14.690 -0.4470 -0.6585 -0.5129
  412TMC3    O1 6211   1.278   2.488  14.538 -0.4702 -0.3671 -0.7694
  412TMC3    O2 6212   1.051   2.948  14.599 -0.2048 -0.1084  0.1716
  413MPD2     C 6213   3.481   1.613  15.438  0.1512 -0.4333  0.4284
  413MPD2    C1 6214   3.441   1.569  15.316  0.0198  0.3212  0.6577
  413MPD2    C2 6215   3.528   1.494  15.237  0.0179  0.0921  0.1317
  413MPD2    C3 6216   3.665   1.494  15.265 -0.8701  0.0882  0.7612
  413MPD2    C4 6217   3.705   1.546  15.384  0.3189  0.1267  1.2483
  413MPD2    C5 6218   3.612   1.602  15.474 -0.1744  0.2475  0.1240
  413MPD2     H 6219   3.496   1.432  15.155 -0.6697  1.1484 -0.3969
  413MPD2    H1 6220   3.811   1.544  15.407  0.6620  3.3943 -0.0488
  413MPD2    H2 6221   3.407   1.636  15.513 -0.0430  3.5010 -0.9791
  413MPD2    H3 6222   3.631   1.644  15.572  0.9824  0.5444 -0.2286
  413MPD2     N 6223   3.754   1.416  15.187  0.0885 -0.3439 -0.2542
  413MPD2    H5 6224   3.723   1.392  15.093 -1.2212  0.4765 -0.0308
  413MPD2    N1 6225   3.304   1.556  15.286  0.0824 -0.4535 -0.9662
  413MPD2    H7 6226   3.239   1.567  15.363  1.0248 -0.4117 -0.1695
  414TMC3    C1 6227   3.945   1.303  15.124  0.0358  0.0932 -0.0585
  414TMC3    C2 6228   4.028   1.196  15.144  0.5946 -0.0142 -0.1938
  414TMC3    C3 6229   4.054   1.123  15.029  0.4571  0.3059  0.5332
  414TMC3    C4 6230   3.898   1.336  14.999 -0.6391 -0.1501 -0.1765
  414TMC3    C5 6231   3.922   1.255  14.892 -0.2069  0.1634 -0.1107
  414TMC3    C6 6232   3.999   1.144  14.908  0.3223  0.7647 -0.7406
  414TMC3     C 6233   3.869   1.353  15.230  0.3479 -0.4661 -0.8888
  414TMC3     O 6234   3.900   1.323  15.344 -0.3441 -0.1481 -0.9011
  414TMC3     H 6235   4.048   1.165  15.246  0.1665 -0.7830 -0.3437
  414TMC3    H1 6236   3.852   1.430  14.970  0.6758 -0.2525 -2.6400
  414TMC3    H2 6237   4.037   1.084  14.826 -0.4722  1.3406 -1.5384
  414TMC3    C7 6238   3.827   1.262  14.795 -0.0882 -0.4532 -0.4611
  414TMC3    C8 6239   4.147   1.012  15.034  0.1986 -0.5423 -0.0948
  414TMC3    O1 6240   3.716   1.287  14.835 -0.0777 -0.3302  0.5471
  414TMC3    O2 6241   4.143   0.926  14.941 -0.0457 -0.3536  0.2666
  415TMC3    C1 6242   4.145   4.340  10.112 -0.8022 -0.2912  0.0944
  415TMC3    C2 6243   4.264   4.394  10.065 -0.2648  0.1889  0.6179
  415TMC3    C3 6244   4.274   4.415   9.931  0.2650  0.7034 -0.8053
  415TMC3    C4 6245   4.041   4.316  10.026 -0.1793 -0.3505 -0.2849
  415TMC3    C5 6246   4.056   4.353   9.891 -0.1538  0.2547  0.0222
  415TMC3    C6 6247   4.175   4.390   9.834  0.5939 -0.3319  0.8681
  415TMC3     C 6248   4.129   4.293  10.250  0.3786 -0.3558  0.7317
  415TMC3     O 6249   4.071   4.182  10.263 -0.2538  0.5067  0.6694
  415TMC3     H 6250   4.346   4.409  10.134 -0.0216 -1.3454  0.6537
  415TMC3    H1 6251   3.952   4.272  10.070 -0.5732 -0.9663 -1.6973
  415TMC3    H2 6252   4.190   4.415   9.730 -2.4039 -0.5141  0.3980
  415TMC3    C7 6253   3.953   4.301   9.793 -0.2627 -0.6146  0.0591
  415TMC3    C8 6254   4.406   4.431   9.870  0.3633 -0.4345 -0.3943
  415TMC3    O1 6255   3.991   4.283   9.677 -0.1503  0.0382  0.2789
  415TMC3    O2 6256   4.424   4.401   9.753  0.3460 -0.0027  0.1149
  416MPD2     C 6257   1.077   2.540  11.287 -0.0792  0.1246 -0.6252
  416MPD2    C1 6258   1.020   2.521  11.413 -0.8097  0.0505 -0.3529
  416MPD2    C2 6259   0.952   2.405  11.447  0.2760  0.4125  1.0501
  416MPD2    C3 6260   0.928   2.310  11.348  0.2460  0.3982  0.1204
  416MPD2    C4 6261   0.988   2.326  11.226  0.0077 -0.4811 -0.0658
  416MPD2    C5 6262   1.071   2.437  11.198  0.0129  0.0824  0.1760
  416MPD2     H 6263   0.900   2.394  11.541 -1.2973 -2.0771 -0.0925
  416MPD2    H1 6264   0.991   2.253  11.145  0.3502 -1.3147  0.6935
  416MPD2    H2 6265   1.143   2.625  11.276  3.1472 -2.1587  0.6880
  416MPD2    H3 6266   1.131   2.448  11.108 -1.4860 -1.3532 -0.9849
  416MPD2     N 6267   0.845   2.207  11.386  0.6526  0.4343  0.0504
  416MPD2    H5 6268   0.826   2.202  11.486 -1.3595  0.1437 -0.3643
  416MPD2    N1 6269   1.021   2.637  11.501 -0.2658  0.4563  0.1171
  416MPD2    H7 6270   1.055   2.720  11.454 -1.0789  1.4649  1.3143
  417TMC3    C1 6271   0.987   2.785  11.699 -0.4327  0.6612  0.1141
  417TMC3    C2 6272   0.981   2.795  11.835 -0.5359  0.1083  0.1726
  417TMC3    C3 6273   0.972   2.915  11.900  0.2003  0.0839 -0.2753
  417TMC3    C4 6274   0.983   2.903  11.630  0.5211 -0.1619  0.7538
  417TMC3    C5 6275   0.964   3.015  11.695 -0.1545  1.2878 -0.4818
  417TMC3    C6 6276   0.961   3.029  11.828  0.1664 -0.4710 -0.3988
  417TMC3     C 6277   0.980   2.649  11.637 -0.0021  0.5365 -0.0710
  417TMC3     O 6278   0.966   2.556  11.715 -0.2883 -0.1933  0.2388
  417TMC3     H 6279   0.978   2.700  11.888 -2.5158 -0.2151 -0.5244
  417TMC3    H1 6280   0.971   2.900  11.522 -1.3656 -1.4922  1.0129
  417TMC3    H2 6281   0.971   3.128  11.872 -1.9620 -1.7145  2.8909
  417TMC3    C7 6282   0.877   3.102  11.625  0.4547  0.1571  0.0179
  417TMC3    C8 6283   0.919   2.942  12.032  0.2422 -0.3164 -1.0769
  417TMC3    O1 6284   0.897   3.135  11.511  0.3233 -0.3308 -0.2359
  417TMC3    O2 6285   0.833   3.030  12.042 -0.7124  0.5783 -0.1641
  418TMC3    C1 6286   4.446   0.002   0.418 -0.5319 -0.6962  0.3290
  418TMC3    C2 6287   4.326   0.068   0.449 -0.2535 -0.1488  0.2596
  418TMC3    C3 6288   4.268   0.032   0.564  0.2300  0.4528 -0.2179
  418TMC3    C4 6289   4.509   4.660   0.502  0.0007  0.5867 -0.0896
  418TMC3    C5 6290   4.438   4.610   0.607 -0.5419 -0.3758 -0.3399
  418TMC3    C6 6291   4.323   4.677   0.646  0.2765 -0.1596 -0.2919
  418TMC3     C 6292   4.485   0.008   0.282 -0.3158  0.7376 -0.2568
  418TMC3     O 6293   4.462   0.107   0.217  0.2967  0.0112 -0.6186
  418TMC3     H 6294   4.278   0.131   0.376 -3.9994 -1.6165  1.4918
  418TMC3    H1 6295   4.599   4.612   0.464  0.2261  0.5461  0.5088
  418TMC3    H2 6296   4.252   4.637   0.718  0.6182  0.3235  0.3100
  418TMC3    C7 6297   4.477   4.486   0.669 -0.6558  0.3906 -0.6122
  418TMC3    C8 6298   4.123   0.036   0.546  0.2297 -0.2378 -0.0582
  418TMC3    O1 6299   4.545   4.399   0.612 -0.3972  0.1024  0.5549
  418TMC3    O2 6300   4.069   0.148   0.557 -0.1454  0.1055  0.9310
  419MPD2     C 6301   2.930   2.502  12.780 -0.3758  0.0117  0.6968
  419MPD2    C1 6302   2.991   2.628  12.770 -0.0049  0.3110 -0.0886
  419MPD2    C2 6303   2.960   2.719  12.862 -0.1209 -0.3017 -0.6702
  419MPD2    C3 6304   2.898   2.682  12.978  0.2151 -0.0280  0.4780
  419MPD2    C4 6305   2.847   2.554  12.992 -0.5653 -0.5071 -0.0743
  419MPD2    C5 6306   2.862   2.463  12.892 -0.9422 -0.0611 -0.3180
  419MPD2     H 6307   3.007   2.815  12.843 -1.8872  0.0939 -3.1149
  419MPD2    H1 6308   2.781   2.523  13.072 -2.5277  1.5133 -0.9056
  419MPD2    H2 6309   2.930   2.430  12.698  0.9011 -0.2388  0.9329
  419MPD2    H3 6310   2.808   2.369  12.898  2.6663 -1.9242  2.9727
  419MPD2     N 6311   2.881   2.781  13.076  0.9041  0.1462  0.5147
  419MPD2    H5 6312   2.918   2.873  13.056 -0.4010  0.1726 -1.8425
  419MPD2    N1 6313   3.070   2.666  12.660 -0.2103  0.4849  0.0842
  419MPD2    H7 6314   3.099   2.763  12.649 -0.4482  0.2632 -2.4618
  420TMC3    C1 6315   2.794   2.891  13.253  0.1774  0.3507 -0.3745
  420TMC3    C2 6316   2.873   2.996  13.216 -0.1544 -0.0711  0.2202
  420TMC3    C3 6317   2.837   3.128  13.246  0.7007  0.0545 -0.0020
  420TMC3    C4 6318   2.690   2.915  13.335 -0.0335 -0.1286 -0.3494
  420TMC3    C5 6319   2.660   3.045  13.375  0.1927  0.0303 -1.0221
  420TMC3    C6 6320   2.733   3.147  13.328  0.2672  0.1473  0.2267
  420TMC3     C 6321   2.821   2.757  13.198  0.3200 -0.6550  0.4913
  420TMC3     O 6322   2.786   2.658  13.263  0.2651 -0.0483 -0.0401
  420TMC3     H 6323   2.967   2.982  13.166 -0.1384  2.0291 -0.3350
  420TMC3    H1 6324   2.636   2.828  13.372 -0.7620  0.4005 -0.1746
  420TMC3    H2 6325   2.708   3.249  13.357 -1.2179 -0.7088  1.9363
  420TMC3    C7 6326   2.627   3.050  13.514  0.0537 -0.8839 -0.3148
  420TMC3    C8 6327   2.845   3.222  13.128  0.5223 -0.1185  0.0528
  420TMC3    O1 6328   2.544   2.971  13.560  0.2908  0.3265  0.5626
  420TMC3    O2 6329   2.741   3.281  13.103 -0.0446 -0.4835 -0.4505
  421TMC3    C1 6330   4.544   4.324  13.167 -0.2652  0.2446 -0.1622
  421TMC3    C2 6331   4.506   4.401  13.271  0.2844 -0.1967 -0.7664
  421TMC3    C3 6332   4.614   4.478  13.324 -0.7818  0.1071  0.0034
  421TMC3    C4 6333   4.668   4.318  13.114  0.7159  0.0086  0.2751
  421TMC3    C5 6334   0.027   4.394  13.174 -0.2824  0.6608 -0.0355
  421TMC3    C6 6335   4.739   4.487  13.271  0.3278  0.1019  0.0684
  421TMC3     C 6336   4.453   4.229  13.108  0.5202  0.5531  0.4924
  421TMC3     O 6337   4.491   4.178  13.005 -0.0442 -0.0155 -0.3274
  421TMC3     H 6338   4.405   4.410  13.309  1.3160 -0.0739  2.0257
  421TMC3    H1 6339   4.691   4.257  13.027 -0.7466 -1.4617  0.9235
  421TMC3    H2 6340   0.079   4.524  13.335  0.9841 -0.9560 -0.1395
  421TMC3    C7 6341   0.160   4.393  13.134 -0.6415  0.9703  0.3862
  421TMC3    C8 6342   4.581   4.573  13.423 -0.1265  0.4296  0.3840
  421TMC3    O1 6343   0.205   4.500  13.101 -0.3384  0.1999 -0.5300
  421TMC3    O2 6344   4.656   4.671  13.426  0.0180  0.6834 -0.3334
  422TMC3    C1 6345   1.998   0.761  12.729 -0.2137 -0.0516 -0.0940
  422TMC3    C2 6346   2.014   0.852  12.830 -0.2791  0.8576 -0.4475
  422TMC3    C3 6347   1.932   0.838  12.940  0.2007 -0.0026 -0.1185
  422TMC3    C4 6348   1.912   0.653  12.749 -0.7867 -0.1256  0.4197
  422TMC3    C5 6349   1.841   0.640  12.866 -0.1858 -0.4129 -0.4121
  422TMC3    C6 6350   1.852   0.732  12.968 -0.2349 -0.1328 -0.0970
  422TMC3     C 6351   2.042   0.788  12.598 -0.8228  0.5519  0.5255
  422TMC3     O 6352   2.070   0.909  12.581 -0.4909 -0.1402  0.4539
  422TMC3     H 6353   2.055   0.947  12.800 -0.3670  0.9790 -0.1849
  422TMC3    H1 6354   1.904   0.582  12.667  0.3189 -1.1585  1.2119
  422TMC3    H2 6355   1.784   0.718  13.051  2.4180 -2.6834  1.6559
  422TMC3    C7 6356   1.740   0.536  12.873 -0.2985 -0.2996  0.4268
  422TMC3    C8 6357   1.889   0.965  12.995 -0.6914 -0.6263 -0.2328
  422TMC3    O1 6358   1.787   0.428  12.830 -0.0010 -0.1916  0.1786
  422TMC3    O2 6359   1.907   1.065  12.932 -0.0196 -0.3148  0.2842
  423MPD2     C 6360   3.080   1.752   0.439 -0.1636  0.2211 -0.2605
  423MPD2    C1 6361   3.052   1.618   0.459  0.1220 -0.7365 -0.4083
  423MPD2    C2 6362   3.035   1.531   0.351  0.2004 -0.8184  0.3645
  423MPD2    C3 6363   3.058   1.577   0.218  0.5689 -1.1075  0.4010
  423MPD2    C4 6364   3.077   1.710   0.200  0.2347 -0.8339  0.1091
  423MPD2    C5 6365   3.093   1.792   0.307  0.0689 -0.7226  0.0175
  423MPD2     H 6366   3.017   1.429   0.383  1.1230 -1.2194 -0.3867
  423MPD2    H1 6367   3.108   1.737   0.099 -1.3551  2.1945  0.4496
  423MPD2    H2 6368   3.078   1.833   0.511  3.8300  0.0612  0.0141
  423MPD2    H3 6369   3.126   1.894   0.294  1.1045 -1.2683 -1.5400
  423MPD2     N 6370   3.059   1.499   0.101 -0.0712 -0.5664 -0.0946
  423MPD2    H5 6371   3.078   1.552   0.017 -0.2939  0.3773  0.4408
  423MPD2    N1 6372   3.022   1.579   0.592  0.6433 -0.2152  0.2207
  423MPD2    H7 6373   2.984   1.485   0.605 -1.3665  0.5461 -0.2088
  424TMC3    C1 6374   2.968   1.596   0.816  0.9083 -0.3197 -0.0317
  424TMC3    C2 6375   3.015   1.471   0.838  0.5016  0.4728 -0.1370
  424TMC3    C3 6376   3.022   1.420   0.966 -0.2804  1.4641 -0.2831
  424TMC3    C4 6377   2.926   1.668   0.925 -0.2638 -0.4189 -0.2857
  424TMC3    C5 6378   2.921   1.612   1.049  0.1233  0.5633  0.4152
  424TMC3    C6 6379   2.978   1.493   1.074 -0.1137  0.0345  0.8267
  424TMC3     C 6380   3.018   1.665   0.702 -0.0845  0.0489 -0.3405
  424TMC3     O 6381   3.076   1.770   0.718 -0.0638  0.4259  0.4888
  424TMC3     H 6382   3.062   1.410   0.762  0.0702 -1.7666  1.3690
  424TMC3    H1 6383   2.873   1.763   0.917 -0.8272 -0.7964 -1.0641
  424TMC3    H2 6384   2.950   1.437   1.162 -0.0530 -1.1513  0.0853
  424TMC3    C7 6385   2.831   1.662   1.154  0.1066 -1.2435  0.2380
  424TMC3    C8 6386   3.091   1.289   0.985 -0.2843 -0.0891  0.1503
  424TMC3    O1 6387   2.869   1.657   1.270 -0.1786  0.2268  0.0628
  424TMC3    O2 6388   3.100   1.214   0.891 -0.1828  0.0794  0.2147
  425MPD2     C 6389   2.051   1.084  17.349  0.2318 -0.4897 -1.1842
  425MPD2    C1 6390   1.931   1.069  17.284 -0.7230  0.0779  0.4925
  425MPD2    C2 6391   1.819   1.123  17.339 -0.1828 -0.1871  0.5693
  425MPD2    C3 6392   1.839   1.193  17.451 -0.5497 -0.5391  1.0784
  425MPD2    C4 6393   1.970   1.220  17.505 -0.3751 -0.3374  0.8633
  425MPD2    C5 6394   2.082   1.170  17.450 -0.2477 -0.0814  0.4084
  425MPD2     H 6395   1.715   1.118  17.308 -0.0512  0.9141 -0.0596
  425MPD2    H1 6396   1.991   1.274  17.597 -2.7815  0.6587  0.8004
  425MPD2    H2 6397   2.133   1.032  17.301  1.7517 -0.6352  1.5707
  425MPD2    H3 6398   2.177   1.188  17.498 -0.1133 -0.5717  0.3242
  425MPD2     N 6399   1.713   1.229  17.513  0.7284 -0.2845  0.5386
  425MPD2    H5 6400   1.629   1.197  17.465  0.6171  0.4219  0.2609
  425MPD2    N1 6401   1.926   0.988  17.169 -0.7648  0.2011  0.0491
  425MPD2    H7 6402   2.015   0.964  17.125 -1.0608  0.3855 -0.6404
  426TMC3    C1 6403   1.835   0.824  17.019  0.1719  0.6306 -0.5403
  426TMC3    C2 6404   1.955   0.828  16.949  0.0047  0.3960  0.2543
  426TMC3    C3 6405   1.984   0.707  16.892 -0.4092  1.0364 -0.1711
  426TMC3    C4 6406   1.760   0.711  17.034  0.2237  0.7357  0.4770
  426TMC3    C5 6407   1.797   0.588  16.984  0.1421  0.4222 -0.0457
  426TMC3    C6 6408   1.913   0.589  16.918 -1.1520  0.1393  0.5393
  426TMC3     C 6409   1.812   0.921  17.131 -0.5469 -0.6157  0.2634
  426TMC3     O 6410   1.701   0.928  17.174  0.1708  0.1781 -0.1128
  426TMC3     H 6411   1.990   0.930  16.933 -0.3039  0.9252  2.8508
  426TMC3    H1 6412   1.671   0.704  17.095 -0.4170  1.2269 -0.4166
  426TMC3    H2 6413   1.934   0.502  16.857  2.0239  1.4846 -0.2824
  426TMC3    C7 6414   1.727   0.461  17.008  0.5419  0.4331  1.2088
  426TMC3    C8 6415   2.053   0.704  16.768  0.7182  0.8865  0.9443
  426TMC3    O1 6416   1.775   0.370  16.950 -0.1731 -0.3948 -0.0166
  426TMC3    O2 6417   2.096   0.598  16.726  1.0596  0.2903 -0.4132
  427MPD2     C 6418   0.881   3.391  15.322 -0.0347 -0.1059  0.3440
  427MPD2    C1 6419   0.835   3.274  15.367 -0.4614 -0.0611 -0.2937
  427MPD2    C2 6420   0.705   3.229  15.330 -0.2144 -0.1124 -0.0651
  427MPD2    C3 6421   0.635   3.314  15.250 -0.2917 -0.0215 -0.4244
  427MPD2    C4 6422   0.683   3.438  15.215 -0.0674 -0.7949 -0.0641
  427MPD2    C5 6423   0.802   3.478  15.250 -0.7837  0.1446  0.3487
  427MPD2     H 6424   0.672   3.129  15.356  0.9120  0.1385  2.3080
  427MPD2    H1 6425   0.623   3.505  15.156 -0.3275 -2.1556 -1.3541
  427MPD2    H2 6426   0.986   3.413  15.342  0.2146 -1.0154  0.0543
  427MPD2    H3 6427   0.836   3.578  15.225 -2.0951  0.4824 -0.0664
  427MPD2     N 6428   0.514   3.279  15.180  0.5648 -0.3285 -0.6525
  427MPD2    H5 6429   0.468   3.340  15.114  0.3625  0.6479  0.3942
  427MPD2    N1 6430   0.922   3.189  15.443 -0.3231  0.0480 -0.2352
  427MPD2    H7 6431   1.017   3.225  15.454 -0.0185 -1.1243  0.9878
  428TMC3    C1 6432   0.993   3.003  15.557 -0.2156  0.1596  0.4929
  428TMC3    C2 6433   0.980   2.893  15.643  0.1706 -0.2357  0.3764
  428TMC3    C3 6434   1.088   2.825  15.680  0.6228  0.1426  0.0626
  428TMC3    C4 6435   1.123   3.041  15.521 -0.9174  0.1470  0.0436
  428TMC3    C5 6436   1.227   2.971  15.569  0.0923  0.1551 -0.3532
  428TMC3    C6 6437   1.215   2.856  15.640  0.2853  0.2871  0.3293
  428TMC3     C 6438   0.878   3.080  15.518  0.2220  0.6020 -1.0875
  428TMC3     O 6439   0.764   3.044  15.553  0.2359 -0.0145 -0.2118
  428TMC3     H 6440   0.885   2.874  15.691 -0.5543  0.6914 -0.6996
  428TMC3    H1 6441   1.144   3.117  15.447 -1.9477  1.3516  0.9966
  428TMC3    H2 6442   1.295   2.791  15.674 -0.3765 -1.0723 -0.7479
  428TMC3    C7 6443   1.365   3.032  15.575  0.8674  0.4797 -0.5363
  428TMC3    C8 6444   1.061   2.697  15.740 -0.0506 -0.1273 -0.3647
  428TMC3    O1 6445   1.454   2.991  15.649 -0.3784  0.4590  0.5098
  428TMC3    O2 6446   1.155   2.620  15.739 -0.3723  0.1549  0.0476
  429MPD2     C 6447   1.394   2.392   0.053  1.7819 -0.1586 -0.3747
  429MPD2    C1 6448   1.526   2.364   0.067  0.2695  0.3622  0.4690
  429MPD2    C2 6449   1.621   2.467   0.043  0.7193 -0.5927 -0.3695
  429MPD2    C3 6450   1.589   2.596   0.007 -0.2275 -0.0840  1.0708
  429MPD2    C4 6451   1.451   2.623   0.001  0.6319 -0.3131  0.9687
  429MPD2    C5 6452   1.359   2.522   0.024 -0.0513  0.1323  0.3027
  429MPD2     H 6453   1.727   2.446   0.055  0.8701  1.4140  1.7527
  429MPD2    H1 6454   1.412   2.720  17.728  0.4336 -0.3825  1.0027
  429MPD2    H2 6455   1.317   2.321   0.081  1.5433  0.5185  0.7098
  429MPD2    H3 6456   1.253   2.545   0.018  0.2217  0.8731 -1.6232
  429MPD2     N 6457   1.691   2.690  17.731 -0.5089  1.1472  0.0352
  429MPD2    H5 6458   1.786   2.657  17.742 -0.3092  1.8034  0.2741
  429MPD2    N1 6459   1.572   2.226   0.085 -0.0868 -0.0602  0.6745
  429MPD2    H7 6460   1.672   2.210   0.086 -0.0905 -0.1500 -1.4028
  430TMC3    C1 6461   1.802   2.894  17.686  0.5422  0.3325 -0.1204
  430TMC3    C2 6462   1.805   3.029  17.713  0.4004 -0.1271 -0.1069
  430TMC3    C3 6463   1.907   3.095  17.659 -0.4826  0.7593 -0.5117
  430TMC3    C4 6464   1.891   2.834  17.603 -0.7177 -1.1648 -0.2029
  430TMC3    C5 6465   1.996   2.908  17.560  0.6019  0.1433 -0.3604
  430TMC3    C6 6466   2.015   3.031  17.598  0.3965  0.3692  0.1220
  430TMC3     C 6467   1.677   2.822  17.694 -0.3275  0.1591 -0.7993
  430TMC3     O 6468   1.577   2.891  17.710  1.1783 -0.2345 -0.2849
  430TMC3     H 6469   1.739   3.073   0.031  0.9525 -1.5490  1.2186
  430TMC3    H1 6470   1.884   2.731  17.569 -0.6491 -1.5153  0.8647
  430TMC3    H2 6471   2.102   3.090  17.573  0.3307  0.2449 -0.4022
  430TMC3    C7 6472   2.047   2.875  17.428  0.4560  0.8301 -0.3883
  430TMC3    C8 6473   1.867   3.205  17.568 -0.3977  1.0955  0.6056
  430TMC3    O1 6474   2.067   2.757  17.392 -0.3943  0.5781 -0.3855
  430TMC3    O2 6475   1.946   3.226  17.475  0.0902 -0.1075 -0.2122
  431MPD2     C 6476   3.038   3.443  12.281 -0.2943  0.2365 -0.1432
  431MPD2    C1 6477   3.158   3.421  12.352  0.2013 -0.1225 -0.7466
  431MPD2    C2 6478   3.190   3.291  12.386  1.1166 -0.1147 -0.2512
  431MPD2    C3 6479   3.111   3.188  12.344  0.0783 -0.2314  0.5212
  431MPD2    C4 6480   2.995   3.210  12.276  0.5375 -0.1695  0.0126
  431MPD2    C5 6481   2.960   3.338  12.235 -0.0501 -0.1303 -0.2308
  431MPD2     H 6482   3.278   3.278  12.447  1.6372 -0.2097 -1.0241
  431MPD2    H1 6483   2.930   3.124  12.263  0.8818 -0.3240 -0.6704
  431MPD2    H2 6484   3.008   3.544  12.256 -3.4169 -1.0497 -1.5835
  431MPD2    H3 6485   2.872   3.368  12.179 -0.7264  0.5339  1.1846
  431MPD2     N 6486   3.147   3.053  12.362  0.1307  0.0762 -0.3791
  431MPD2    H5 6487   3.082   2.975  12.355  0.3969 -0.0151 -1.7707
  431MPD2    N1 6488   3.240   3.516  12.409 -0.1499 -0.2585  0.0713
  431MPD2    H7 6489   3.308   3.480  12.474 -0.7827 -2.7042 -0.6319
  432TMC3    C1 6490   3.291   2.878  12.410  0.0118 -0.0889  0.4400
  432TMC3    C2 6491   3.413   2.822  12.381 -0.0852 -0.9819 -0.2766
  432TMC3    C3 6492   3.425   2.687  12.393  0.8679  0.0170  0.5771
  432TMC3    C4 6493   3.185   2.810  12.458 -0.7265  0.3564 -0.5933
  432TMC3    C5 6494   3.205   2.676  12.469  0.1658 -0.0941  0.0754
  432TMC3    C6 6495   3.326   2.611  12.437  0.3860 -0.1826  0.2955
  432TMC3     C 6496   3.276   3.018  12.390  0.3748 -0.3643 -0.5200
  432TMC3     O 6497   3.379   3.091  12.385 -0.1446  0.4899 -0.6768
  432TMC3     H 6498   3.487   2.883  12.331  1.2354 -0.9785  1.6828
  432TMC3    H1 6499   3.086   2.851  12.473 -1.4255 -1.2061 -0.9827
  432TMC3    H2 6500   3.326   2.504  12.453  1.5354 -0.0996  0.7802
  432TMC3    C7 6501   3.114   2.598  12.551  0.3353 -0.1212 -0.2192
  432TMC3    C8 6502   3.539   2.625  12.324  0.0623  0.1660  0.1965
  432TMC3    O1 6503   3.103   2.478  12.528 -0.3969 -0.3321  0.6613
  432TMC3    O2 6504   3.522   2.514  12.279 -0.2111 -0.4073 -0.3323
  433MPD2     C 6505   1.506   1.726  10.687 -0.1978 -0.4300 -0.2639
  433MPD2    C1 6506   1.601   1.651  10.746  0.1627 -0.3002  0.0322
  433MPD2    C2 6507   1.634   1.690  10.881  0.5048 -0.9828 -0.4703
  433MPD2    C3 6508   1.569   1.796  10.945 -0.1175 -0.3718 -0.2468
  433MPD2    C4 6509   1.473   1.864  10.869 -0.3106 -0.0889 -0.2925
  433MPD2    C5 6510   1.450   1.832  10.741  0.0830 -0.2471  0.5383
  433MPD2     H 6511   1.707   1.634  10.937 -0.8274 -1.4963  0.7650
  433MPD2    H1 6512   1.426   1.955  10.903 -1.6966 -0.4174 -1.3212
  433MPD2    H2 6513   1.468   1.690  10.592 -0.8166  0.3312 -0.2988
  433MPD2    H3 6514   1.363   1.879  10.696  1.4885  0.8319 -1.0347
  433MPD2     N 6515   1.596   1.821  11.081  0.6152 -0.6627  0.2165
  433MPD2    H5 6516   1.655   1.758  11.136  1.3392 -0.4297 -0.3041
  433MPD2    N1 6517   1.670   1.551  10.671 -0.2247 -0.0080  0.1862
  433MPD2    H7 6518   1.651   1.528  10.574 -1.0138  0.7611  0.1565
  434TMC3    C1 6519   1.817   1.386  10.619 -0.1410 -0.6236 -0.4896
  434TMC3    C2 6520   1.946   1.353  10.648 -0.0548  0.2812  0.7438
  434TMC3    C3 6521   1.995   1.224  10.633  0.7119 -0.0795 -0.3473
  434TMC3    C4 6522   1.726   1.298  10.568 -0.3445  0.4613  0.2205
  434TMC3    C5 6523   1.780   1.173  10.550 -0.2867 -1.0711  0.0409
  434TMC3    C6 6524   1.904   1.129  10.587  0.2859  0.3613  0.5009
  434TMC3     C 6525   1.769   1.474  10.723 -0.2375  0.4573 -0.6926
  434TMC3     O 6526   1.819   1.470  10.833  0.0475 -0.3487  0.6732
  434TMC3     H 6527   2.005   1.434  10.689  1.6757 -1.0009  0.7755
  434TMC3    H1 6528   1.627   1.326  10.536  0.8209  1.6403 -2.4028
  434TMC3    H2 6529   1.933   1.025  10.579 -2.0936 -0.1028 -2.1995
  434TMC3    C7 6530   1.714   1.098  10.444  0.2639 -0.3852  0.4064
  434TMC3    C8 6531   2.115   1.186  10.708 -0.1547  0.0057  0.0022
  434TMC3    O1 6532   1.641   1.170  10.375 -0.4232  0.2965 -0.1445
  434TMC3    O2 6533   2.173   1.283  10.758  0.0572 -0.2537 -0.0317
  435MPD2     C 6534   3.871   1.869  15.381 -0.2604 -0.3184 -0.5651
  435MPD2    C1 6535   3.849   1.922  15.505  0.9412  0.0475  0.2202
  435MPD2    C2 6536   3.937   1.891  15.608  0.3619 -0.1279  0.8349
  435MPD2    C3 6537   4.053   1.827  15.583  0.0205  0.1928 -0.7959
  435MPD2    C4 6538   4.078   1.785  15.449 -0.5845  0.7503  0.2645
  435MPD2    C5 6539   3.990   1.814  15.348 -0.3990  0.6875 -0.3484
  435MPD2     H 6540   3.921   1.911  15.713  0.0374 -1.7461  1.0954
  435MPD2    H1 6541   4.164   1.727  15.419 -0.0199  1.1026  1.1875
  435MPD2    H2 6542   3.800   1.880  15.299 -0.6562  1.0785 -0.0332
  435MPD2    H3 6543   4.017   1.772  15.252 -1.5682 -0.0219 -0.3642
  435MPD2     N 6544   4.127   1.775  15.697 -0.0708 -0.0265  0.2280
  435MPD2    H5 6545   4.091   1.800  15.788  0.4999 -0.7191  0.6418
  435MPD2    N1 6546   3.730   1.982  15.548 -0.2908 -0.1825  0.0512
  435MPD2    H7 6547   3.716   1.994  15.647  1.8810 -0.2664  0.3651
  436TMC3    C1 6548   3.377   2.104  15.721  0.8694  0.9970  0.2390
  436TMC3    C2 6549   3.494   2.103  15.658 -0.0427 -0.2582  1.0075
  436TMC3    C3 6550   3.496   2.046  15.528 -0.4754  0.2108 -0.2668
  436TMC3    C4 6551   3.263   2.033  15.674  0.3060 -0.4117 -0.4630
  436TMC3    C5 6552   3.273   1.974  15.554  0.1146 -0.6766  0.0293
  436TMC3    C6 6553   3.384   1.981  15.474 -0.2454 -0.0942  0.5200
  436TMC3     C 6554   3.382   2.169  15.851  0.7120 -0.1113  0.2514
  436TMC3     O 6555   3.488   2.181  15.903  0.6030  0.1474  0.0532
  436TMC3     H 6556   3.579   2.155  15.699  0.0095  2.5282 -2.6229
  436TMC3    H1 6557   3.176   2.024  15.738 -0.1923 -1.7234 -1.3275
  436TMC3    H2 6558   3.389   1.930  15.379  0.6652  1.1891 -0.1244
  436TMC3    C7 6559   3.167   1.883  15.512  0.1647  0.2709 -0.4769
  436TMC3    C8 6560   3.625   2.020  15.462 -1.1880  0.2065  0.1909
  436TMC3    O1 6561   3.087   1.843  15.602 -0.0401 -0.1581 -0.6208
  436TMC3    O2 6562   3.616   1.995  15.340 -0.1504 -0.5763 -0.2969
  437TMC3    C1 6563   2.787   3.995  12.429 -0.6878 -0.3316 -0.2835
  437TMC3    C2 6564   2.681   4.039  12.353  0.1299  0.1107  0.2992
  437TMC3    C3 6565   2.707   4.050  12.218  0.4478 -0.2023  0.1957
  437TMC3    C4 6566   2.913   3.980  12.373 -0.1168 -0.1190 -0.3170
  437TMC3    C5 6567   2.931   4.003  12.236  0.6448  0.2024  0.1398
  437TMC3    C6 6568   2.826   4.027  12.159 -0.4257 -0.5550  0.7112
  437TMC3     C 6569   2.774   3.942  12.565  0.3573  0.3083 -0.6350
  437TMC3     O 6570   2.872   3.896  12.621  0.6305  0.3392  0.0038
  437TMC3     H 6571   2.582   4.054  12.395  1.0021  2.3488  1.5341
  437TMC3    H1 6572   2.998   3.969  12.439 -0.0849 -0.7416 -0.4625
  437TMC3    H2 6573   2.826   4.041  12.052 -0.2707  0.3582  0.8303
  437TMC3    C7 6574   3.057   3.981  12.174  0.4578  0.5953 -0.0801
  437TMC3    C8 6575   2.594   4.119  12.149  0.3899 -0.0296  0.3989
  437TMC3    O1 6576   3.060   3.977  12.051  0.3570 -0.6453  0.1959
  437TMC3    O2 6577   2.486   4.114  12.203  0.0947 -0.1307 -0.2976
  438MPD2     C 6578   4.387   4.604  16.782 -0.6545  0.3688 -0.8863
  438MPD2    C1 6579   4.433   4.488  16.840 -0.9060  1.0946 -0.6121
  438MPD2    C2 6580   4.415   4.472  16.971 -0.9368 -0.3047  0.0374
  438MPD2    C3 6581   4.357   4.568  17.052 -0.1600  0.4652 -0.0213
  438MPD2    C4 6582   4.312   4.686  16.992  0.1923 -0.6086 -0.2450
  438MPD2    C5 6583   4.324   4.704  16.859 -0.4697  0.6047  0.4319
  438MPD2     H 6584   4.445   4.375  17.008  1.0706  0.2741 -0.0824
  438MPD2    H1 6585   4.278   0.028  17.055 -0.1691  1.8380 -3.6268
  438MPD2    H2 6586   4.404   4.629  16.678 -0.6001  0.0918 -0.9440
  438MPD2    H3 6587   4.296   0.058  16.813  0.7547  1.2192  0.9482
  438MPD2     N 6588   4.356   4.544  17.193  0.3119  0.1310  0.0314
  438MPD2    H5 6589   4.371   4.446  17.217  0.7060  0.6669  1.9195
  438MPD2    N1 6590   4.494   4.383  16.772 -0.1219 -0.0852 -0.5471
  438MPD2    H7 6591   4.540   4.312  16.829  0.1109  0.2558 -0.3144
  439TMC3    C1 6592   4.608   4.260  16.614 -0.4790 -0.1853  0.8188
  439TMC3    C2 6593   4.624   4.205  16.492  0.2684  0.4039  0.0300
  439TMC3    C3 6594   4.702   4.090  16.493 -0.9604  0.0795  0.6119
  439TMC3    C4 6595   4.664   4.202  16.726 -0.4139  0.6263  0.0112
  439TMC3    C5 6596   0.009   4.091  16.717 -0.5513 -0.0444  1.1197
  439TMC3    C6 6597   0.029   4.035  16.599  0.0200 -0.2105 -0.1755
  439TMC3     C 6598   4.523   4.373  16.634 -0.6426  0.6399 -0.8406
  439TMC3     O 6599   4.480   4.435  16.541 -0.1767  0.4274  0.2233
  439TMC3     H 6600   4.572   4.248  16.407 -0.5693  0.3557  0.5162
  439TMC3    H1 6601   4.651   4.217  16.832 -0.8137 -1.3267  0.2376
  439TMC3    H2 6602   0.082   3.940  16.598  0.1036 -0.1642  0.4279
  439TMC3    C7 6603   0.041   4.010  16.832  0.2586  0.0755 -0.1783
  439TMC3    C8 6604   4.702   4.027  16.368 -0.5667  0.0186 -0.3997
  439TMC3    O1 6605   4.712   4.026  16.930 -0.8589  0.6619  0.0619
  439TMC3    O2 6606   4.607   4.038  16.295  0.7901 -0.8455  0.3689
  440MPD2     C 6607   4.221   0.795  14.522  0.3918  0.1712  0.4816
  440MPD2    C1 6608   4.145   0.709  14.603  0.4781  0.5116  0.5246
  440MPD2    C2 6609   4.202   0.596  14.664  0.2999 -0.3774  0.8572
  440MPD2    C3 6610   4.333   0.565  14.637 -0.5603 -0.0156 -0.2349
  440MPD2    C4 6611   4.410   0.646  14.556 -0.0966 -0.5867  0.5991
  440MPD2    C5 6612   4.353   0.759  14.504 -0.5572  0.9363  0.8591
  440MPD2     H 6613   4.148   0.543  14.740 -0.6673 -1.0370 -0.2895
  440MPD2    H1 6614   4.514   0.624  14.536  0.3493  0.6499  1.6027
  440MPD2    H2 6615   4.183   0.879  14.465  0.4424 -0.9868 -1.2636
  440MPD2    H3 6616   4.421   0.824  14.451  0.5322  0.0438  1.1613
  440MPD2     N 6617   4.399   0.457  14.707 -0.1111 -0.1910 -0.4697
  440MPD2    H5 6618   4.500   0.460  14.701 -0.2163  2.1103 -1.1844
  440MPD2    N1 6619   4.014   0.736  14.626 -0.6592 -0.7479 -0.6489
  440MPD2    H7 6620   3.968   0.682  14.699 -1.2434  1.1297  0.3678
  441TMC3    C1 6621   4.420   0.316  14.892  0.0622  0.0885 -0.3282
  441TMC3    C2 6622   4.503   0.409  14.951  0.3667 -0.4172  0.1369
  441TMC3    C3 6623   4.546   0.388  15.080 -0.0435  0.1773 -0.5310
  441TMC3    C4 6624   4.382   0.200  14.957 -0.3060 -0.1149 -0.3074
  441TMC3    C5 6625   4.421   0.189  15.090  0.9389  0.3142  0.2824
  441TMC3    C6 6626   4.510   0.275  15.150  0.3112 -0.8383  0.2097
  441TMC3     C 6627   4.337   0.360  14.782 -0.3248 -0.3828  0.0390
  441TMC3     O 6628   4.220   0.326  14.784  0.5469  0.0259  0.1798
  441TMC3     H 6629   4.519   0.505  14.903 -0.1717 -1.4756 -2.1719
  441TMC3    H1 6630   4.310   0.133  14.910 -0.3338  0.5830 -1.2535
  441TMC3    H2 6631   4.545   0.270  15.253 -2.6612 -1.1174  1.2001
  441TMC3    C7 6632   4.376   0.073  15.167 -0.3287  0.6217  0.3599
  441TMC3    C8 6633   4.565   0.506  15.159 -0.3258 -0.4622  0.9603
  441TMC3    O1 6634   4.264   0.037  15.135 -0.2444 -0.4186 -0.2396
  441TMC3    O2 6635   4.640   0.497  15.258  0.3023 -0.5893  0.0616
  442MPD2     C 6636   1.721   0.697  16.177  0.1563  0.1596  0.3454
  442MPD2    C1 6637   1.637   0.636  16.269  0.0046 -0.3716 -0.1763
  442MPD2    C2 6638   1.603   0.501  16.264  0.8451 -0.2884 -0.7728
  442MPD2    C3 6639   1.659   0.425  16.159 -0.1965  0.2381 -0.1428
  442MPD2    C4 6640   1.741   0.489  16.064 -0.2499  0.3548  0.2084
  442MPD2    C5 6641   1.777   0.618  16.082  0.0813 -0.4271  0.7513
  442MPD2     H 6642   1.532   0.461  16.335  0.8018 -0.4520 -0.9104
  442MPD2    H1 6643   1.778   0.434  15.978  0.3281  0.4482  0.3968
  442MPD2    H2 6644   1.754   0.800  16.181 -1.8429  0.6363  4.0012
  442MPD2    H3 6645   1.824   0.677  16.004 -0.4380 -0.3972  0.4632
  442MPD2     N 6646   1.625   0.291  16.130  0.6956 -1.1452  0.2543
  442MPD2    H5 6647   1.661   0.262  16.039 -1.0637  0.3450 -0.9207
  442MPD2    N1 6648   1.568   0.702  16.374 -0.1454  0.5085  0.1424
  442MPD2    H7 6649   1.498   0.647  16.421 -0.5651 -1.2543 -2.4977
  443TMC3    C1 6650   1.486   0.881  16.505 -0.2201 -0.5709 -0.7247
  443TMC3    C2 6651   1.469   1.021  16.507  0.4491  0.2613 -0.0384
  443TMC3    C3 6652   1.352   1.063  16.570 -0.7533 -0.7048  0.1737
  443TMC3    C4 6653   1.391   0.793  16.546 -0.1642  0.0816 -0.2046
  443TMC3    C5 6654   1.285   0.842  16.611  0.8905 -0.0102  0.8537
  443TMC3    C6 6655   1.260   0.977  16.619  0.4721 -0.8180 -0.2360
  443TMC3     C 6656   1.584   0.836  16.409 -0.1575  0.5055  0.2059
  443TMC3     O 6657   1.657   0.926  16.370 -0.5784 -0.2378 -0.6125
  443TMC3     H 6658   1.537   1.088  16.455  0.2239  1.9262  1.8064
  443TMC3    H1 6659   1.415   0.688  16.557 -3.0211 -0.4298  1.0168
  443TMC3    H2 6660   1.167   1.016  16.659  1.8304  3.3475 -1.0777
  443TMC3    C7 6661   1.197   0.745  16.664 -0.9778 -0.0398 -0.3959
  443TMC3    C8 6662   1.327   1.202  16.591  0.5003 -0.1037  0.2435
  443TMC3    O1 6663   1.209   0.629  16.618 -0.8769 -0.3455  0.8804
  443TMC3    O2 6664   1.285   1.232  16.701  0.3991 -0.1605  0.5692
  444MPD2     C 6665   1.662   0.582  16.669  0.3817 -0.2242  0.7043
  444MPD2    C1 6666   1.599   0.466  16.698  0.4076 -0.2658  0.7532
  444MPD2    C2 6667   1.655   0.361  16.638 -0.2334 -0.6962  0.3349
  444MPD2    C3 6668   1.760   0.365  16.552  0.1917  0.1026 -0.0147
  444MPD2    C4 6669   1.821   0.488  16.523 -0.8497  0.2734 -0.2413
  444MPD2    C5 6670   1.773   0.592  16.589  0.3041 -0.0833 -0.3731
  444MPD2     H 6671   1.610   0.264  16.655 -2.4863 -0.4948 -4.4565
  444MPD2    H1 6672   1.896   0.496  16.446  0.1775  1.4752  0.8795
  444MPD2    H2 6673   1.626   0.675  16.712  0.7525 -0.1224  0.7897
  444MPD2    H3 6674   1.821   0.688  16.571  0.4029 -0.2541 -1.0111
  444MPD2     N 6675   1.810   0.239  16.500 -0.0782  0.8467  0.2329
  444MPD2    H5 6676   1.760   0.156  16.531 -1.6861  0.9116 -2.2343
  444MPD2    N1 6677   1.480   0.452  16.778  0.5881  0.7825  0.2434
  444MPD2    H7 6678   1.439   0.359  16.781 -1.4057  1.6848  0.8822
  445TMC3    C1 6679   1.943   0.080  16.392 -0.7396 -0.2178  0.2596
  445TMC3    C2 6680   1.836   0.005  16.347 -0.4402  0.5415 -0.4825
  445TMC3    C3 6681   1.873   4.646  16.264  0.6212  0.5284 -0.0317
  445TMC3    C4 6682   2.075   0.039  16.377  0.0984  0.0958 -0.1163
  445TMC3    C5 6683   2.110   4.665  16.313 -0.7222  0.3454  0.1582
  445TMC3    C6 6684   2.006   4.599  16.246  0.4504  0.0936  0.0167
  445TMC3     C 6685   1.933   0.217  16.435  0.3609  0.1306 -0.3024
  445TMC3     O 6686   2.032   0.286  16.430 -0.2092  0.0487 -0.4766
  445TMC3     H 6687   1.733   0.041  16.346 -0.4914  0.4155  0.2595
  445TMC3    H1 6688   2.153   0.087  16.435 -0.3928  1.2642 -0.4296
  445TMC3    H2 6689   2.024   4.520  16.173 -1.3322 -0.1401 -0.1713
  445TMC3    C7 6690   2.254   4.624  16.289 -0.1583  0.1311  0.1332
  445TMC3    C8 6691   1.772   4.548  16.253 -0.4272 -0.5186 -0.5906
  445TMC3    O1 6692   2.337   4.710  16.325 -0.0312  0.8356 -0.0463
  445TMC3    O2 6693   1.690   4.542  16.345  0.0235  0.2621 -0.9578
  446MPD2     C 6694   1.902   0.944  10.991  0.6764  0.2439  0.0158
  446MPD2    C1 6695   1.826   1.045  10.931 -0.2373  0.0526  0.3871
  446MPD2    C2 6696   1.856   1.179  10.965 -0.3536  0.7930 -0.5361
  446MPD2    C3 6697   1.958   1.219  11.038 -0.7309 -0.2068  0.2254
  446MPD2    C4 6698   2.041   1.121  11.085  0.4709  0.1175 -0.6283
  446MPD2    C5 6699   2.007   0.988  11.076  0.8142  0.0492 -0.6003
  446MPD2     H 6700   1.791   1.254  10.922  1.2741  1.6065 -1.5596
  446MPD2    H1 6701   2.134   1.146  11.136  1.6366 -2.0513 -1.6709
  446MPD2    H2 6702   1.893   0.836  10.986 -0.7151  0.3858 -0.5005
  446MPD2    H3 6703   2.086   0.922  11.110  0.2059 -0.4922 -0.2560
  446MPD2     N 6704   1.993   1.353  11.049  0.5694 -0.5280 -0.5069
  446MPD2    H5 6705   1.939   1.417  10.992 -1.1316 -0.0140  1.6870
  446MPD2    N1 6706   1.711   1.017  10.850 -0.2715  0.3378  1.3889
  446MPD2    H7 6707   1.659   1.103  10.839 -0.0522  0.6270  2.6806
  447TMC3    C1 6708   2.144   1.531  11.069 -0.9971  0.1194 -0.1208
  447TMC3    C2 6709   2.069   1.617  10.989 -0.2193  0.0468  0.2514
  447TMC3    C3 6710   2.115   1.740  10.944 -0.3913  0.2713  0.6543
  447TMC3    C4 6711   2.273   1.573  11.095 -0.4532  0.3542  0.0611
  447TMC3    C5 6712   2.320   1.690  11.037 -0.2725  0.3559 -0.3836
  447TMC3    C6 6713   2.244   1.777  10.959 -0.3297 -0.3011  0.2613
  447TMC3     C 6714   2.103   1.407  11.117 -0.5494  0.0758  0.1900
  447TMC3     O 6715   2.179   1.352  11.193 -0.0113 -0.1336 -0.6405
  447TMC3     H 6716   1.964   1.603  10.966  0.1204  0.4720 -1.5563
  447TMC3    H1 6717   2.346   1.520  11.155  0.0805  0.5156 -0.4381
  447TMC3    H2 6718   2.296   1.860  10.915 -1.1921  1.7447  3.1027
  447TMC3    C7 6719   2.458   1.687  11.022  0.2210  0.0438  0.6344
  447TMC3    C8 6720   2.035   1.816  10.846 -0.7851 -0.3229  0.6495
  447TMC3    O1 6721   2.506   1.584  10.974  0.6482 -0.6486 -0.2969
  447TMC3    O2 6722   1.940   1.758  10.801 -0.3347  0.2011  0.6591
  448TMC3    C1 6723   4.334   0.869  17.308  0.1749 -1.0735  0.7057
  448TMC3    C2 6724   4.372   0.859  17.177 -0.2709 -0.5715 -0.6940
  448TMC3    C3 6725   4.503   0.818  17.149  0.8176  0.0830  0.2782
  448TMC3    C4 6726   4.423   0.844  17.409  0.0812  0.2938 -0.2701
  448TMC3    C5 6727   4.552   0.807  17.373 -0.0699  0.2299  0.2537
  448TMC3    C6 6728   4.591   0.792  17.246 -0.3410  0.2593  0.6851
  448TMC3     C 6729   4.222   0.957  17.339 -0.2690 -0.3971 -0.0081
  448TMC3     O 6730   4.166   0.953  17.448 -0.1093  0.1985  0.3581
  448TMC3     H 6731   4.296   0.874  17.102 -0.1999 -0.4293 -0.7372
  448TMC3    H1 6732   4.393   0.883  17.506  2.1291 -0.9092  0.8491
  448TMC3    H2 6733   4.694   0.772  17.221 -0.1976 -0.0901  1.5634
  448TMC3    C7 6734   4.651   0.784  17.476  0.0209  0.6239  0.0837
  448TMC3    C8 6735   4.526   0.735  17.032 -0.0113  0.0715 -0.1690
  448TMC3    O1 6736   0.030   0.783  17.443  0.1586  0.5822  0.2070
  448TMC3    O2 6737   4.627   0.665  17.044 -0.2190 -0.4846 -0.0929
  449MPD2     C 6738   1.499   4.360  13.870 -0.6166  0.4279  1.6054
  449MPD2    C1 6739   1.374   4.425  13.856 -0.7123  0.0560  0.0884
  449MPD2    C2 6740   1.264   4.349  13.827 -0.1177  0.7132 -0.5311
  449MPD2    C3 6741   1.278   4.209  13.842  0.7401  0.4620 -0.2116
  449MPD2    C4 6742   1.399   4.142  13.869  0.2092 -0.1575  0.3696
  449MPD2    C5 6743   1.508   4.225  13.887  0.1267 -0.2483 -0.9646
  449MPD2     H 6744   1.175   4.402  13.796  0.9424  0.7711 -3.5742
  449MPD2    H1 6745   1.409   4.035  13.881 -1.1790 -0.4462 -1.0134
  449MPD2    H2 6746   1.594   4.411  13.879  0.6264 -0.8470 -4.4897
  449MPD2    H3 6747   1.605   4.179  13.904  0.7583  0.3747 -2.8790
  449MPD2     N 6748   1.159   4.133  13.816 -0.3659  0.1461  0.4604
  449MPD2    H5 6749   1.076   4.181  13.783 -0.3204  0.2434  0.4904
  449MPD2    N1 6750   1.351   4.563  13.844  0.2206 -0.7300 -0.3973
  449MPD2    H7 6751   1.252   4.583  13.832  0.2421 -0.5094 -0.2109
  450TMC3    C1 6752   1.372   0.039  13.761  0.2258 -0.3289 -0.3559
  450TMC3    C2 6753   1.396   0.076  13.633 -0.8941  0.5566 -0.0208
  450TMC3    C3 6754   1.297   0.107  13.547 -0.1340  0.1076 -0.3250
  450TMC3    C4 6755   1.250   0.062  13.818 -0.3457  0.3517  0.1444
  450TMC3    C5 6756   1.145   0.099  13.734  0.0428 -0.3170 -1.0627
  450TMC3    C6 6757   1.169   0.131  13.603  0.3118 -0.3693 -0.1039
  450TMC3     C 6758   1.442   4.662  13.812  0.7913  0.0630  0.4369
  450TMC3     O 6759   1.562   4.658  13.800 -0.0875 -0.0745 -0.1595
  450TMC3     H 6760   1.492   0.038  13.598 -0.1899 -0.3541  2.9111
  450TMC3    H1 6761   1.228   0.026  13.919  2.1798  1.6836  1.1606
  450TMC3    H2 6762   1.084   0.149  13.538  0.2870 -2.0064 -0.5248
  450TMC3    C7 6763   1.049   4.731  13.746  0.0449  0.1361  0.4920
  450TMC3    C8 6764   1.312   0.070  13.404 -0.1141 -0.9503  0.5450
  450TMC3    O1 6765   1.085   4.627  13.805  0.9015 -0.2166 -0.2348
  450TMC3    O2 6766   1.201   0.043  13.361  0.4455 -0.3113 -0.1878
  451MPD2     C 6767   2.998   2.420   0.954  0.5728 -0.0709  0.1044
  451MPD2    C1 6768   2.949   2.528   0.880  0.4445  0.2563  0.0743
  451MPD2    C2 6769   2.978   2.536   0.747 -0.4132 -0.2898 -0.2529
  451MPD2    C3 6770   3.077   2.465   0.684 -0.8616 -0.2095  0.0474
  451MPD2    C4 6771   3.136   2.365   0.760 -0.4746  0.0118 -0.3114
  451MPD2    C5 6772   3.091   2.340   0.891 -0.3272  0.6010 -0.0235
  451MPD2     H 6773   2.929   2.614   0.691  0.7713 -0.5250 -1.6221
  451MPD2    H1 6774   3.225   2.315   0.723 -1.9672 -2.0081 -1.1824
  451MPD2    H2 6775   2.970   2.405   1.058  1.0186  0.7062  0.3392
  451MPD2    H3 6776   3.137   2.256   0.942  0.0544  0.1168 -1.1722
  451MPD2     N 6777   3.115   2.472   0.545  0.8842  0.3151 -0.0408
  451MPD2    H5 6778   3.169   2.392   0.513 -0.2162  0.0222 -1.2064
  451MPD2    N1 6779   2.854   2.607   0.945 -0.5603  0.3034  0.2996
  451MPD2    H7 6780   2.834   2.579   1.041 -1.6928 -3.1083 -0.9612
  452TMC3    C1 6781   3.050   2.508   0.338 -0.3905 -0.0892 -0.2042
  452TMC3    C2 6782   3.005   2.384   0.320  0.2904 -0.5625  0.6928
  452TMC3    C3 6783   2.977   2.338   0.196 -0.5337 -0.0197  0.1400
  452TMC3    C4 6784   3.062   2.602   0.241  0.8385  0.7064 -0.5472
  452TMC3    C5 6785   3.026   2.559   0.114  1.1121  0.1439  0.0956
  452TMC3    C6 6786   2.981   2.428   0.094 -0.2432 -0.0584 -0.1337
  452TMC3     C 6787   3.062   2.564   0.462  0.0523 -0.8639  0.0495
  452TMC3     O 6788   3.018   2.674   0.490 -0.4783  0.5181 -0.2574
  452TMC3     H 6789   2.985   2.327   0.410 -0.4369 -1.1710  0.1401
  452TMC3    H1 6790   3.102   2.702   0.254  0.3957  0.7022  0.9043
  452TMC3    H2 6791   2.961   2.387  17.751  1.0115  0.2326 -0.5056
  452TMC3    C7 6792   3.061   2.647   0.007  0.5323  0.8032 -0.4012
  452TMC3    C8 6793   2.891   2.214   0.175  0.1264  0.6282  0.0656
  452TMC3    O1 6794   3.115   2.755   0.028  0.0885 -0.0092 -0.8009
  452TMC3    O2 6795   2.836   2.190   0.066 -0.1456 -0.2458  0.2959
  453TMC3    C1 6796   4.210   0.681  11.989  0.1479  0.1215  0.9196
  453TMC3    C2 6797   4.119   0.622  12.074 -0.1016  0.0027 -0.1331
  453TMC3    C3 6798   3.997   0.677  12.087 -0.2608 -0.3915 -0.6974
  453TMC3    C4 6799   4.179   0.799  11.923 -0.6366  0.0312  0.3972
  453TMC3    C5 6800   4.051   0.846  11.935  0.0712  0.0496  0.1344
  453TMC3    C6 6801   3.960   0.793  12.016 -0.9313  0.6075  0.3201
  453TMC3     C 6802   4.350   0.679  12.038  0.5512  0.0252  0.4521
  453TMC3     O 6803   4.394   0.792  12.057 -0.1493  0.2232 -0.2598
  453TMC3     H 6804   4.149   0.531  12.124 -1.7738 -1.5468 -1.9508
  453TMC3    H1 6805   4.264   0.852  11.881  0.1618 -0.2621  1.6545
  453TMC3    H2 6806   3.860   0.832  12.028 -0.1091  2.0563  2.4710
  453TMC3    C7 6807   4.003   0.955  11.855  0.0713 -0.0101  0.7569
  453TMC3    C8 6808   3.882   0.594  12.118 -0.5547  0.6194 -0.5942
  453TMC3    O1 6809   3.891   1.006  11.882  0.2846  0.0954  0.1719
  453TMC3    O2 6810   3.773   0.646  12.123 -0.6255  0.7571  0.0531
  454MPD2     C 6811   2.535   0.191  15.630 -0.5482 -0.3633  0.0675
  454MPD2    C1 6812   2.405   0.160  15.640  0.2581 -0.0591  1.2481
  454MPD2    C2 6813   2.330   0.238  15.717 -0.8558  1.0150  0.5660
  454MPD2    C3 6814   2.374   0.356  15.764 -0.5313  0.3893  0.2207
  454MPD2    C4 6815   2.508   0.375  15.757  0.0484 -0.1017  0.6200
  454MPD2    C5 6816   2.591   0.298  15.692 -0.0438 -0.0055 -0.3776
  454MPD2     H 6817   2.229   0.200  15.725 -1.1256  1.6726  0.2973
  454MPD2    H1 6818   2.556   0.459  15.806  3.0654 -1.7085  0.3968
  454MPD2    H2 6819   2.602   0.124  15.576 -2.3821 -1.3530 -1.0081
  454MPD2    H3 6820   2.696   0.322  15.682 -0.0807  1.3519  2.6085
  454MPD2     N 6821   2.302   0.442  15.847 -0.1263  0.3486  0.0280
  454MPD2    H5 6822   2.343   0.507  15.913 -1.4515  1.3789 -0.1580
  454MPD2    N1 6823   2.348   0.058  15.567 -0.9960 -0.3737 -0.5330
  454MPD2    H7 6824   2.248   0.065  15.557 -1.3331 -3.2114  0.8839
  455TMC3    C1 6825   2.083   0.471  15.943  0.2089 -0.6924  0.3643
  455TMC3    C2 6826   2.157   0.556  16.025 -0.8099  0.5804  0.5762
  455TMC3    C3 6827   2.195   0.495  16.139 -0.5075  0.2933 -0.4436
  455TMC3    C4 6828   2.033   0.345  15.981 -0.2285  0.2037 -0.4026
  455TMC3    C5 6829   2.087   0.290  16.088  0.7318 -0.2024 -0.0758
  455TMC3    C6 6830   2.173   0.362  16.166 -0.5489 -0.7933 -0.6779
  455TMC3     C 6831   2.166   0.438  15.828 -0.0599 -0.2095 -0.1775
  455TMC3     O 6832   2.099   0.402  15.733 -0.0645  0.1573 -0.2612
  455TMC3     H 6833   2.192   0.653  15.992 -0.9206  0.0856 -0.9990
  455TMC3    H1 6834   1.975   0.285  15.912 -0.6215  0.6611 -0.4709
  455TMC3    H2 6835   2.213   0.327  16.261 -1.3041 -0.3425 -0.1926
  455TMC3    C7 6836   2.132   0.157  16.069 -0.0476 -0.0533  0.3427
  455TMC3    C8 6837   2.212   0.580  16.246 -0.7195 -0.3603  0.4918
  455TMC3    O1 6838   2.048   0.082  16.021 -0.2678 -0.0082  0.3671
  455TMC3    O2 6839   2.270   0.545  16.348 -0.3488 -0.0619 -0.3021
  456MPD2     C 6840   0.491   0.277  16.248  0.1120  0.0689  0.0018
  456MPD2    C1 6841   0.397   0.175  16.240 -0.3050 -0.0295 -0.1834
  456MPD2    C2 6842   0.317   0.147  16.345 -0.3897  0.6127 -0.7114
  456MPD2    C3 6843   0.320   0.217  16.466  0.4576 -0.0376  0.3645
  456MPD2    C4 6844   0.397   0.330  16.465  0.1733  0.6965  0.9546
  456MPD2    C5 6845   0.477   0.361  16.352  0.1201  0.2272  0.6422
  456MPD2     H 6846   0.258   0.057  16.336  0.6809 -0.0157 -1.3303
  456MPD2    H1 6847   0.420   0.393  16.550  0.7603  1.8709 -0.0894
  456MPD2    H2 6848   0.560   0.312  16.172 -0.6899 -2.1548 -1.7280
  456MPD2    H3 6849   0.540   0.449  16.349  1.2235 -0.5831  0.0675
  456MPD2     N 6850   0.250   0.168  16.576  0.1548 -0.3046 -0.7346
  456MPD2    H5 6851   0.192   0.084  16.574 -0.0428 -0.1669 -0.7800
  456MPD2    N1 6852   0.385   0.090  16.127  0.0999  0.1776  0.1745
  456MPD2    H7 6853   0.316   0.017  16.131  2.7379 -2.3698 -0.7243
  457TMC3    C1 6854   0.176   0.154  16.789 -0.3121  0.0534  0.2905
  457TMC3    C2 6855   0.046   0.171  16.742  0.8921 -0.2018  1.1826
  457TMC3    C3 6856   4.687   0.139  16.831 -0.0741  0.3799 -0.3532
  457TMC3    C4 6857   0.201   0.086  16.904 -0.1950 -0.0187 -0.3141
  457TMC3    C5 6858   0.102   0.053  16.984 -0.4205 -0.3507 -0.3760
  457TMC3    C6 6859   4.713   0.082  16.949  0.4375  0.0901  0.9104
  457TMC3     C 6860   0.278   0.204  16.704 -0.5880 -0.1419  0.5116
  457TMC3     O 6861   0.357   0.291  16.744  0.6714 -0.4172 -0.2642
  457TMC3     H 6862   0.025   0.219  16.647  1.0284 -0.9329  0.7807
  457TMC3    H1 6863   0.304   0.090  16.935  0.1734  1.8601 -1.7925
  457TMC3    H2 6864   4.634   0.052  17.018 -1.6639  3.5752  0.0532
  457TMC3    C7 6865   0.144   0.021  17.121 -0.5919 -0.6944  0.3960
  457TMC3    C8 6866   4.605   0.254  16.859  0.0146 -0.5446 -0.6202
  457TMC3    O1 6867   0.243   4.692  17.130 -0.4338 -0.0831 -0.3495
  457TMC3    O2 6868   4.597   0.287  16.979 -0.0949 -0.4649  0.0869
  458MPD2     C 6869   3.536   4.157  12.190 -0.1149  0.1463 -0.3873
  458MPD2    C1 6870   3.473   4.196  12.304 -0.3141  0.3740 -0.2064
  458MPD2    C2 6871   3.346   4.144  12.329 -0.0278  0.3915 -0.5300
  458MPD2    C3 6872   3.283   4.072  12.226 -0.2483 -0.0469  0.5689
  458MPD2    C4 6873   3.342   4.069  12.103  0.0583  0.3018  0.5404
  458MPD2    C5 6874   3.478   4.089  12.094 -0.5512  0.0857 -0.1590
  458MPD2     H 6875   3.286   4.158  12.418 -0.7580  1.0407 -1.1216
  458MPD2    H1 6876   3.301   4.019  12.016  2.6605 -0.2877 -0.3474
  458MPD2    H2 6877   3.644   4.161  12.179 -0.3327 -0.8130 -2.9248
  458MPD2    H3 6878   3.533   4.051  12.009  1.5649  0.6003  0.9659
  458MPD2     N 6879   3.151   4.037  12.259  0.4303  0.0531  0.2792
  458MPD2    H5 6880   3.122   4.062  12.353  0.6329  1.3768 -0.0160
  458MPD2    N1 6881   3.551   4.267  12.400 -0.4042  0.4635  0.3518
  458MPD2    H7 6882   3.648   4.288  12.378 -0.0814 -0.0152  1.3175
  459TMC3    C1 6883   3.612   4.323  12.625  0.3169  0.3132 -0.0459
  459TMC3    C2 6884   3.736   4.368  12.591 -1.0694  0.2761 -0.2397
  459TMC3    C3 6885   3.843   4.368  12.678 -0.0815  0.1695 -0.8405
  459TMC3    C4 6886   3.592   4.272  12.752 -0.5226 -0.0790  0.5960
  459TMC3    C5 6887   3.701   4.262  12.835  0.1511  0.0272  0.2586
  459TMC3    C6 6888   3.825   4.312  12.803 -0.5765  0.1132  0.3789
  459TMC3     C 6889   3.507   4.299  12.525  0.4253 -0.4679 -0.2543
  459TMC3     O 6890   3.397   4.291  12.576 -0.6968 -0.3950 -0.1375
  459TMC3     H 6891   3.756   4.402  12.489 -0.1502  0.0526 -0.1394
  459TMC3    H1 6892   3.493   4.234  12.778  0.8109 -2.9626  1.4403
  459TMC3    H2 6893   3.905   4.286  12.871 -1.7189 -0.2738  1.5600
  459TMC3    C7 6894   3.677   4.208  12.966 -0.0057 -0.2211 -0.2611
  459TMC3    C8 6895   3.973   4.394  12.619  0.2566  0.5145  0.3655
  459TMC3    O1 6896   3.565   4.156  12.988  0.8299 -0.1043  0.2315
  459TMC3    O2 6897   3.974   4.471  12.522 -0.3308 -0.7489 -0.8193
  460MPD2     C 6898   2.112   2.164  10.725 -0.1522  0.9309  0.1669
  460MPD2    C1 6899   2.037   2.047  10.740 -0.1619  0.5620  0.0694
  460MPD2    C2 6900   1.934   2.020  10.651  0.4654 -0.2239  0.0370
  460MPD2    C3 6901   1.899   2.111  10.556 -0.2272  0.0941 -0.1077
  460MPD2    C4 6902   1.968   2.230  10.547  1.3805 -0.5516 -0.1927
  460MPD2    C5 6903   2.078   2.255  10.626 -1.1461  0.1068 -0.0076
  460MPD2     H 6904   1.900   1.918  10.654  0.9923 -0.4601 -2.1349
  460MPD2    H1 6905   1.935   2.298  10.469  1.6931  2.1073  2.0136
  460MPD2    H2 6906   2.198   2.188  10.786  1.4842  0.0341 -1.7778
  460MPD2    H3 6907   2.143   2.341  10.613 -1.5942  0.4256 -0.1472
  460MPD2     N 6908   1.805   2.070  10.454  0.2087 -0.4321 -0.2238
  460MPD2    H5 6909   1.789   1.970  10.451 -0.0901 -0.3905  0.0274
  460MPD2    N1 6910   2.077   1.942  10.829  0.3875  0.1127 -0.0032
  460MPD2    H7 6911   2.153   1.964  10.892 -0.1367 -2.8154  1.6513
  461TMC3    C1 6912   1.677   2.086  10.261 -0.6490 -0.3823 -0.1834
  461TMC3    C2 6913   1.745   1.984  10.205 -0.2216  0.6206  0.4775
  461TMC3    C3 6914   1.702   1.945  10.085 -0.6290 -0.1761 -0.0270
  461TMC3    C4 6915   1.577   2.151  10.189  0.6669 -0.4637  0.3371
  461TMC3    C5 6916   1.554   2.120  10.062 -0.0068 -0.0760 -0.1787
  461TMC3    C6 6917   1.621   2.015  10.001 -1.3750  0.0916  0.5504
  461TMC3     C 6918   1.734   2.157  10.373 -0.7257 -0.7179  0.7948
  461TMC3     O 6919   1.702   2.275  10.386 -0.2072  0.0481  0.0458
  461TMC3     H 6920   1.826   1.935  10.257 -0.3698  0.2461  0.3582
  461TMC3    H1 6921   1.522   2.235  10.230 -0.4548 -0.9453 -0.1643
  461TMC3    H2 6922   1.610   1.995   9.895  0.6208  3.0324 -0.2392
  461TMC3    C7 6923   1.454   2.200   9.999 -0.0493  0.2096 -0.4268
  461TMC3    C8 6924   1.765   1.825  10.029 -0.3063 -0.0361 -0.6307
  461TMC3    O1 6925   1.403   2.296  10.058 -0.0211  0.6430 -0.5858
  461TMC3    O2 6926   1.865   1.787  10.082 -0.3149  0.0155  0.9817
  462TMC3    C1 6927   2.167   2.446   0.158 -0.6901  0.2120 -0.2631
  462TMC3    C2 6928   2.138   2.364   0.052  0.4360 -0.2123  0.2170
  462TMC3    C3 6929   2.021   2.291   0.061 -0.0761 -0.8031  0.2742
  462TMC3    C4 6930   2.111   2.425   0.282 -0.1030  0.5892 -0.0959
  462TMC3    C5 6931   2.006   2.335   0.291  0.8726 -0.3839  0.0546
  462TMC3    C6 6932   1.951   2.286   0.180 -0.2390 -0.0454 -0.6423
  462TMC3     C 6933   2.250   2.565   0.148 -0.0067 -1.2759 -0.0782
  462TMC3     O 6934   2.307   2.597   0.253  0.1056  0.2637 -0.1917
  462TMC3     H 6935   2.191   2.381  17.715  0.0795 -3.1242 -0.5105
  462TMC3    H1 6936   2.148   2.480   0.368  0.8717  0.3879 -0.3845
  462TMC3    H2 6937   1.870   2.215   0.190 -0.6874  0.5571 -0.0171
  462TMC3    C7 6938   1.949   2.282   0.415 -0.6090  0.5948  0.2080
  462TMC3    C8 6939   1.955   2.232  17.702 -0.1789  0.3998 -0.1451
  462TMC3    O1 6940   1.835   2.236   0.413 -0.4806  0.5122 -0.1490
  462TMC3    O2 6941   1.831   2.219  17.708  0.4924 -0.7655  0.1711
  463MPD2     C 6942   3.522   0.542   1.086 -0.3289  0.2474 -0.5547
  463MPD2    C1 6943   3.442   0.644   1.138  0.3010 -0.6611  0.4794
  463MPD2    C2 6944   3.477   0.702   1.256 -0.5951  0.2563 -0.5947
  463MPD2    C3 6945   3.599   0.680   1.316  0.0019 -0.0275  0.1754
  463MPD2    C4 6946   3.683   0.581   1.263  0.2026  0.3900 -0.1579
  463MPD2    C5 6947   3.649   0.518   1.143 -0.2161 -0.2202  0.1586
  463MPD2     H 6948   3.408   0.771   1.304 -1.0666  1.1171 -2.5357
  463MPD2    H1 6949   3.778   0.547   1.304 -1.4299 -2.7400  0.9883
  463MPD2    H2 6950   3.513   0.494   0.989  0.1973 -0.1997 -0.3823
  463MPD2    H3 6951   3.702   0.435   1.099 -1.9286 -0.7880 -0.8266
  463MPD2     N 6952   3.638   0.736   1.440  0.4535 -0.0653 -0.0332
  463MPD2    H5 6953   3.732   0.706   1.466 -0.4930 -1.1806  2.0649
  463MPD2    N1 6954   3.320   0.678   1.081  0.0930 -0.4894 -0.2874
  463MPD2    H7 6955   3.260   0.747   1.126  2.0657  0.3161  1.1189
  464TMC3    C1 6956   3.129   0.663   0.941 -0.1815  0.0516  0.4263
  464TMC3    C2 6957   3.081   0.791   0.965 -0.1921  0.4318 -0.6675
  464TMC3    C3 6958   2.950   0.815   0.938  0.1787  0.0088 -0.0605
  464TMC3    C4 6959   3.041   0.573   0.891  0.1370 -0.4577  0.3046
  464TMC3    C5 6960   2.909   0.603   0.862 -0.2308  0.1708 -0.3831
  464TMC3    C6 6961   2.864   0.729   0.880 -0.5893  0.2559 -0.2836
  464TMC3     C 6962   3.263   0.613   0.973  0.1363  0.3010  0.4795
  464TMC3     O 6963   3.309   0.522   0.906  0.4031  0.1542  0.4899
  464TMC3     H 6964   3.144   0.876   0.992  0.0261 -0.6580  2.2648
  464TMC3    H1 6965   3.078   0.471   0.883  1.9902  0.1774  0.8715
  464TMC3    H2 6966   2.762   0.752   0.851 -0.8652 -0.6512 -0.0249
  464TMC3    C7 6967   2.810   0.491   0.849 -0.0739 -0.0756  0.0115
  464TMC3    C8 6968   2.882   0.932   0.995 -0.0775 -0.2727 -0.0089
  464TMC3    O1 6969   2.859   0.382   0.823  0.3544  0.4177 -0.2922
  464TMC3    O2 6970   2.776   0.960   0.941 -0.2147 -0.3133 -0.3758
  465MPD2     C 6971   3.958   0.048  17.161  0.0951  0.2495  0.6386
  465MPD2    C1 6972   3.844   4.718  17.119 -0.6083  0.0066  0.2135
  465MPD2    C2 6973   3.820   4.720  16.979 -0.7908  0.7040 -0.3810
  465MPD2    C3 6974   3.888   0.060  16.892 -0.0323  0.3865  0.1888
  465MPD2    C4 6975   4.004   0.127  16.938  0.3515 -0.3053 -0.5701
  465MPD2    C5 6976   4.036   0.116  17.069 -0.4390  0.4885  0.3281
  465MPD2     H 6977   3.734   4.660  16.948 -0.0912  0.2334 -1.4404
  465MPD2    H1 6978   4.068   0.194  16.882  0.9737  0.3725  0.9632
  465MPD2    H2 6979   3.998   0.051  17.261 -1.0895  0.8212  1.0979
  465MPD2    H3 6980   4.117   0.174  17.110  0.0465  0.5723 -0.7375
  465MPD2     N 6981   3.838   0.066  16.761 -0.1347  0.2042 -0.5700
  465MPD2    H5 6982   3.753   0.014  16.741  1.2229 -2.3468  0.2013
  465MPD2    N1 6983   3.760   4.650  17.208  0.1286 -0.1159  0.1603
  465MPD2    H7 6984   3.671   4.617  17.172  1.1886 -2.7774 -0.0167
  466TMC3    C1 6985   3.679   4.723  16.401 -0.0963 -0.5241  0.4121
  466TMC3    C2 6986   3.660   0.091  16.323  0.0058  0.0661  0.5344
  466TMC3    C3 6987   3.711   0.213  16.361  0.9261  0.1953 -0.6970
  466TMC3    C4 6988   3.751   4.735  16.509 -0.1605 -0.9068 -0.8093
  466TMC3    C5 6989   3.802   0.118  16.546  0.4957  0.3630 -0.0815
  466TMC3    C6 6990   3.786   0.234  16.473  0.1391  0.1983  0.4568
  466TMC3     C 6991   3.566   4.640  16.427 -0.0151 -0.1141 -0.3218
  466TMC3     O 6992   3.582   4.588  16.537  0.0778  0.2114  0.4043
  466TMC3     H 6993   3.607   0.075  16.230  0.3807  0.7268  0.2066
  466TMC3    H1 6994   3.806   4.654  16.557 -1.0456 -1.5169 -0.8177
  466TMC3    H2 6995   3.827   0.329  16.505 -0.2679  0.4585  0.1951
  466TMC3    C7 6996   3.875   0.148  16.665 -0.3828 -0.0557 -0.2368
  466TMC3    C8 6997   3.684   0.336  16.282  0.0195  0.3335 -0.2718
  466TMC3    O1 6998   3.954   0.236  16.671 -0.0519  0.7134  0.2056
  466TMC3    O2 6999   3.663   0.317  16.164  0.0662 -0.0806 -0.2384
  467TMC3    C1 7000   0.340   3.372  13.669  0.1417  0.1952 -0.1537
  467TMC3    C2 7001   0.361   3.347  13.532  0.0102  0.7268  0.2057
  467TMC3    C3 7002   0.263   3.387  13.450 -0.8444 -0.6350  0.4015
  467TMC3    C4 7003   0.218   3.402  13.717  0.3470  0.1120 -0.2632
  467TMC3    C5 7004   0.119   3.422  13.626  0.9967  0.7283 -0.0257
  467TMC3    C6 7005   0.138   3.420  13.493  0.7903 -0.2803 -0.3667
  467TMC3     C 7006   0.453   3.380  13.752  0.3494 -0.5262 -0.0387
  467TMC3     O 7007   0.551   3.326  13.699 -0.5255  0.4105 -0.4281
  467TMC3     H 7008   0.464   3.324  13.506  0.5142  1.1100  1.8588
  467TMC3    H1 7009   0.199   3.422  13.821 -0.9234 -0.1988 -0.4389
  467TMC3    H2 7010   0.059   3.439  13.421  0.9491  1.1005 -0.1759
  467TMC3    C7 7011   4.721   3.406  13.682 -0.5848  0.9389 -0.3954
  467TMC3    C8 7012   0.302   3.462  13.329 -0.1886 -0.3609  0.3729
  467TMC3    O1 7013   4.718   3.351  13.792 -0.0804 -0.0252  0.1293
  467TMC3    O2 7014   0.232   3.559  13.298  0.0562 -0.3319  0.5841
  468MPD2     C 7015   3.755   1.370  11.004  0.3914 -0.5831 -0.0283
  468MPD2    C1 7016   3.891   1.368  11.011  0.8494  0.3564  0.0266
  468MPD2    C2 7017   3.954   1.263  11.078  0.1880 -0.4619 -0.5487
  468MPD2    C3 7018   3.882   1.166  11.137 -1.1963 -0.5439 -0.4278
  468MPD2    C4 7019   3.748   1.168  11.135 -0.0250  0.0096  0.0468
  468MPD2    C5 7020   3.688   1.284  11.087  0.3675  0.0764 -0.0434
  468MPD2     H 7021   4.062   1.260  11.071  0.4149  3.8539  1.1877
  468MPD2    H1 7022   3.689   1.091  11.183  0.5323 -0.1887  0.4105
  468MPD2    H2 7023   3.700   1.446  10.949 -0.8634 -2.0476 -0.8152
  468MPD2    H3 7024   3.581   1.273  11.077  0.1495  3.9613 -2.1864
  468MPD2     N 7025   3.945   1.044  11.190  0.0513 -0.3602 -0.3306
  468MPD2    H5 7026   3.884   0.972  11.228  2.6429 -1.7008  1.3211
  468MPD2    N1 7027   3.972   1.460  10.932  0.6387 -0.6188 -0.3500
  468MPD2    H7 7028   4.071   1.439  10.940  0.2196 -2.2171  0.8298
  469TMC3    C1 7029   4.033   1.664  10.834 -0.0702  0.5324  0.8506
  469TMC3    C2 7030   4.146   1.592  10.833  0.1764  0.4030  0.1459
  469TMC3    C3 7031   4.257   1.637  10.898  0.0945  0.1146  0.9417
  469TMC3    C4 7032   4.031   1.786  10.900  0.0862  0.2758  0.1273
  469TMC3    C5 7033   4.129   1.810  10.989  0.3211 -0.3631 -0.3284
  469TMC3    C6 7034   4.253   1.751  10.976 -0.6881 -0.5287  0.1862
  469TMC3     C 7035   3.925   1.581  10.886  0.1899 -0.0408 -0.1829
  469TMC3     O 7036   3.813   1.626  10.901  0.2833  0.1654  0.9579
  469TMC3     H 7037   4.156   1.506  10.767  2.4417  0.8110 -0.0619
  469TMC3    H1 7038   3.932   1.824  10.922  1.0893  2.9046  0.1473
  469TMC3    H2 7039   4.344   1.796  11.015 -1.0802 -0.8426  1.4813
  469TMC3    C7 7040   4.109   1.911  11.086  0.0132  0.0455 -0.1394
  469TMC3    C8 7041   4.378   1.559  10.898  0.2086 -0.2528 -0.9165
  469TMC3    O1 7042   3.993   1.955  11.084 -0.3387  0.8210  0.4380
  469TMC3    O2 7043   4.401   1.494  10.795 -0.3781 -0.2776  0.5136
  470TMC3    C1 7044   1.047   1.965   0.131  0.3130 -0.5866  0.5225
  470TMC3    C2 7045   1.134   2.055   0.182 -0.2168  0.2774  0.3717
  470TMC3    C3 7046   1.165   2.043   0.314 -0.1210 -0.0527 -0.0435
  470TMC3    C4 7047   0.973   1.885   0.207  0.2370 -0.3634  0.4237
  470TMC3    C5 7048   1.006   1.881   0.337 -0.1893 -0.5906  0.4005
  470TMC3    C6 7049   1.111   1.948   0.388 -0.6667 -0.5985  0.4677
  470TMC3     C 7050   1.044   1.918  17.751  0.3981  0.3411  0.8887
  470TMC3     O 7051   0.960   1.831  17.720 -0.5384  0.0205  0.2586
  470TMC3     H 7052   1.174   2.133   0.117  0.3490 -0.5804 -0.3001
  470TMC3    H1 7053   0.902   1.812   0.170 -1.4726  1.7204 -0.3817
  470TMC3    H2 7054   1.121   1.957   0.496 -0.2707  0.5699  0.3434
  470TMC3    C7 7055   0.907   1.812   0.429 -1.2874  0.2968  0.4745
  470TMC3    C8 7056   1.238   2.147   0.385  0.1093  0.8425  0.5978
  470TMC3    O1 7057   0.807   1.758   0.380 -0.2284  0.5481 -0.2759
  470TMC3    O2 7058   1.314   2.110   0.475  0.2791 -0.2306  0.8219
  471MPD2     C 7059   1.475   3.411  17.318 -0.2004 -0.0414  1.5753
  471MPD2    C1 7060   1.595   3.382  17.271  0.2054 -0.0281 -0.1711
  471MPD2    C2 7061   1.684   3.322  17.364 -0.6080  0.1188 -0.6931
  471MPD2    C3 7062   1.650   3.290  17.492  0.1042  0.1062  0.5764
  471MPD2    C4 7063   1.524   3.322  17.531 -0.0017  0.0745  0.1837
  471MPD2    C5 7064   1.441   3.383  17.447  0.2016  1.1493  0.4466
  471MPD2     H 7065   1.788   3.306  17.338 -0.8653 -0.4078 -1.4221
  471MPD2    H1 7066   1.484   3.298  17.629  0.4515 -0.3338  0.2702
  471MPD2    H2 7067   1.404   3.465  17.256  0.0797  0.2981  1.5520
  471MPD2    H3 7068   1.340   3.409  17.476  0.7758  0.9432  2.5833
  471MPD2     N 7069   1.735   3.233  17.584  0.4502  0.3280  0.5949
  471MPD2    H5 7070   1.695   3.206  17.673  3.3338  1.5644  2.2749
  471MPD2    N1 7071   1.644   3.413  17.144  1.1209  0.0854  0.1802
  471MPD2    H7 7072   1.742   3.395  17.124  0.3765 -1.7373 -1.8048
  472TMC3    C1 7073   1.635   3.483  16.923 -0.3009  0.1200  0.0951
  472TMC3    C2 7074   1.582   3.579  16.841  0.5079  0.3963  0.5656
  472TMC3    C3 7075   1.585   3.565  16.712 -1.3962  0.3778 -0.7692
  472TMC3    C4 7076   1.691   3.368  16.863 -0.1685  0.6929  0.1430
  472TMC3    C5 7077   1.695   3.361  16.728 -0.2142  0.3082 -0.2075
  472TMC3    C6 7078   1.647   3.457  16.645 -0.4595 -0.6517  0.1247
  472TMC3     C 7079   1.561   3.462  17.045 -0.3411  0.4243  0.4704
  472TMC3     O 7080   1.443   3.491  17.041  0.5155  0.4107  0.4358
  472TMC3     H 7081   1.530   3.663  16.886  1.9029 -0.0018  2.8815
  472TMC3    H1 7082   1.706   3.282  16.927 -0.2015 -0.0150 -0.8071
  472TMC3    H2 7083   1.666   3.455  16.538  0.4485  0.3485  0.2623
  472TMC3    C7 7084   1.726   3.230  16.674  0.0480  0.5560 -0.0210
  472TMC3    C8 7085   1.555   3.690  16.635 -0.0505  0.0989  0.1465
  472TMC3    O1 7086   1.804   3.164  16.741 -0.1553  0.3723 -0.7590
  472TMC3    O2 7087   1.602   3.788  16.691 -0.1305 -0.3760  0.2886
  473MPD2     C 7088   2.318   0.828  14.115  0.5308 -0.2966  0.7325
  473MPD2    C1 7089   2.237   0.930  14.070 -0.2345  1.1635  0.7094
  473MPD2    C2 7090   2.203   1.029  14.158  0.7542 -0.4568 -0.2013
  473MPD2    C3 7091   2.255   1.029  14.288  0.1645  0.3673 -0.5214
  473MPD2    C4 7092   2.348   0.936  14.332 -1.4624  0.3419 -0.6726
  473MPD2    C5 7093   2.377   0.840  14.242 -0.3111  0.1888  0.6461
  473MPD2     H 7094   2.127   1.102  14.131  0.4613  0.4161  2.9339
  473MPD2    H1 7095   2.388   0.929  14.432 -0.1418  1.7552 -1.1149
  473MPD2    H2 7096   2.350   0.742  14.058 -0.4521  1.3914 -2.3920
  473MPD2    H3 7097   2.436   0.758  14.280 -0.2715 -0.2570 -0.3614
  473MPD2     N 7098   2.221   1.130  14.380 -0.0782  0.6081 -0.6215
  473MPD2    H5 7099   2.251   1.113  14.475  0.6627 -0.4055 -1.0409
  473MPD2    N1 7100   2.153   0.918  13.953 -0.2268  0.2183 -0.8308
  473MPD2    H7 7101   2.078   0.985  13.936 -0.5955 -0.0499 -0.2764
  474TMC3    C1 7102   2.108   1.306  14.479  0.4633 -0.4662  0.5724
  474TMC3    C2 7103   1.978   1.347  14.493 -0.6082  0.0200 -0.2230
  474TMC3    C3 7104   1.960   1.470  14.544 -0.4198 -1.1133 -0.2018
  474TMC3    C4 7105   2.218   1.368  14.530  0.7815  0.0392  0.9253
  474TMC3    C5 7106   2.190   1.494  14.588  0.3900  0.9725  0.3694
  474TMC3    C6 7107   2.066   1.547  14.583  0.0137 -0.7340  0.2930
  474TMC3     C 7108   2.122   1.224  14.362  0.3586 -0.0202 -0.2984
  474TMC3     O 7109   2.032   1.231  14.281 -0.7544  0.1488  0.2548
  474TMC3     H 7110   1.898   1.295  14.441 -1.9434  1.8372  0.0253
  474TMC3    H1 7111   2.321   1.339  14.511  0.2199 -1.5863  0.4050
  474TMC3    H2 7112   2.063   1.649  14.621 -1.5969  0.0906 -2.0140
  474TMC3    C7 7113   2.300   1.584  14.580  0.2942 -0.2100  0.7827
  474TMC3    C8 7114   1.835   1.533  14.497 -0.3699  0.3689 -0.0765
  474TMC3    O1 7115   2.371   1.564  14.482  0.3836 -0.5221 -0.4161
  474TMC3    O2 7116   1.735   1.456  14.489  0.2105  0.3190  0.1575
  475MPD2     C 7117   4.554   3.770  11.437  0.0244 -0.3210  0.0861
  475MPD2    C1 7118   4.561   3.869  11.347  0.1161  0.5278 -0.7304
  475MPD2    C2 7119   4.449   3.951  11.316  0.5488 -0.0675  0.5893
  475MPD2    C3 7120   4.333   3.948  11.396 -0.0602 -0.4356  0.0298
  475MPD2    C4 7121   4.333   3.848  11.492  0.9748  0.0293  0.6089
  475MPD2    C5 7122   4.437   3.773  11.508 -0.6335  0.0483 -0.1359
  475MPD2     H 7123   4.463   4.032  11.246  0.2293 -0.3528  0.2011
  475MPD2    H1 7124   4.262   3.838  11.573  0.6909 -0.2764  0.3208
  475MPD2    H2 7125   4.634   3.698  11.452 -1.9174 -2.6861 -0.8546
  475MPD2    H3 7126   4.438   3.712  11.597  2.0222  0.1663 -0.0923
  475MPD2     N 7127   4.231   4.043  11.387  0.2168  0.4163  0.0401
  475MPD2    H5 7128   4.247   4.123  11.326 -2.1657  0.8438 -0.0626
  475MPD2    N1 7129   4.682   3.881  11.272 -0.2631 -0.0424 -0.3398
  475MPD2    H7 7130   0.009   3.805  11.285  2.0094  1.8804 -0.6850
  476TMC3    C1 7131   0.098   3.990  11.137 -0.1688  0.3958 -0.0961
  476TMC3    C2 7132   0.071   3.903  11.029 -0.3980  0.3233 -0.8169
  476TMC3    C3 7133   0.127   3.930  10.903  0.2998  0.3047  0.2575
  476TMC3    C4 7134   0.166   4.102  11.114  0.1049  0.1610  0.0187
  476TMC3    C5 7135   0.218   4.122  10.987 -0.1680  0.1156  0.2429
  476TMC3    C6 7136   0.196   4.041  10.886 -0.1547 -0.2744 -0.0890
  476TMC3     C 7137   4.729   3.999  11.226 -0.3417 -1.0652 -0.6454
  476TMC3     O 7138   4.692   4.107  11.261  0.6194 -0.0427  0.2345
  476TMC3     H 7139   4.737   3.824  11.042 -1.4786  1.2241 -1.4651
  476TMC3    H1 7140   0.182   4.162  11.203  0.3452 -0.9875  0.7490
  476TMC3    H2 7141   0.232   4.074  10.789 -0.6411 -0.9122 -0.4834
  476TMC3    C7 7142   0.274   4.261  10.968 -0.0718 -0.7592  0.3360
  476TMC3    C8 7143   0.050   3.899  10.777 -0.0369 -0.0413  0.1080
  476TMC3    O1 7144   0.241   4.341  11.052 -0.3415  0.1216  0.1303
  476TMC3    O2 7145   0.118   3.862  10.683 -0.3724 -0.2270  0.2886
  477MPD2     C 7146   2.724   1.204  11.993  0.4527  0.0879  0.2945
  477MPD2    C1 7147   2.652   1.112  11.916 -0.1708  0.1334  0.0160
  477MPD2    C2 7148   2.595   1.000  11.971 -0.3260  0.6167  0.6357
  477MPD2    C3 7149   2.615   0.967  12.106 -0.1646 -0.0015 -0.3351
  477MPD2    C4 7150   2.701   1.054  12.175  0.0410 -0.8089  0.6407
  477MPD2    C5 7151   2.744   1.167  12.122  0.0942  0.4368  0.3271
  477MPD2     H 7152   2.522   0.944  11.913 -1.2569  1.1855  1.2481
  477MPD2    H1 7153   2.730   1.047  12.279  0.9144  3.0567  0.6555
  477MPD2    H2 7154   2.757   1.301  11.956  0.1867 -0.3113 -0.9992
  477MPD2    H3 7155   2.807   1.235  12.178 -1.1253  2.3308 -0.6007
  477MPD2     N 7156   2.560   0.855  12.174 -0.4477 -0.4099 -0.9080
  477MPD2    H5 7157   2.566   0.852  12.276 -1.9442  1.0929 -0.7778
  477MPD2    N1 7158   2.630   1.149  11.782 -0.2569 -0.4785  0.4568
  477MPD2    H7 7159   2.667   1.235  11.742 -0.7761 -0.4303  0.0744
  478TMC3    C1 7160   2.580   1.133  11.553 -0.2522 -0.4453  0.5762
  478TMC3    C2 7161   2.570   1.269  11.543 -0.2490 -0.0274  0.5184
  478TMC3    C3 7162   2.518   1.328  11.434  0.5860  0.3404 -0.0253
  478TMC3    C4 7163   2.551   1.048  11.439 -0.9565  0.2683  0.2374
  478TMC3    C5 7164   2.514   1.121  11.324  0.6115 -0.1939 -0.3613
  478TMC3    C6 7165   2.499   1.257  11.318  0.8598  0.2489  0.2214
  478TMC3     C 7166   2.574   1.070  11.683  0.3624 -0.1879 -0.3932
  478TMC3     O 7167   2.517   0.964  11.689  0.3702  0.0562  0.2695
  478TMC3     H 7168   2.579   1.333  11.630 -0.1520  0.7410 -0.0580
  478TMC3    H1 7169   2.562   0.941  11.437 -0.5835  0.2968  0.8021
  478TMC3    H2 7170   2.485   1.306  11.222  1.9654  0.0679 -0.0328
  478TMC3    C7 7171   2.501   1.038  11.212  0.0057 -0.2385 -0.1619
  478TMC3    C8 7172   2.528   1.471  11.427 -0.3243  0.1772 -0.2137
  478TMC3    O1 7173   2.550   0.925  11.220 -0.1133 -0.3546  0.3224
  478TMC3    O2 7174   2.645   1.511  11.442 -0.2406  0.6793 -0.2234
  479MPD2     C 7175   1.521   3.246  15.320 -0.3775 -0.4974 -0.3174
  479MPD2    C1 7176   1.496   3.198  15.450 -0.7884  0.8023  0.2723
  479MPD2    C2 7177   1.596   3.218  15.544  0.1829  0.0809  0.2820
  479MPD2    C3 7178   1.714   3.291  15.517  0.2525  0.6295  0.0223
  479MPD2    C4 7179   1.739   3.325  15.387 -0.6952 -0.3620 -0.5361
  479MPD2    C5 7180   1.644   3.302  15.290  0.2921  0.1493  0.0582
  479MPD2     H 7181   1.580   3.185  15.646 -2.8872 -0.6007 -0.4203
  479MPD2    H1 7182   1.837   3.367  15.367 -1.0324  1.1876  1.1118
  479MPD2    H2 7183   1.441   3.232  15.249 -0.2142  3.4519 -1.2691
  479MPD2    H3 7184   1.666   3.334  15.189  2.0490  0.0671  0.4094
  479MPD2     N 7185   1.808   3.331  15.612  0.0892  0.3077  0.0484
  479MPD2    H5 7186   1.902   3.352  15.578  0.1949  0.5362  0.4930
  479MPD2    N1 7187   1.383   3.121  15.470 -0.3870 -0.4121 -0.5777
  479MPD2    H7 7188   1.316   3.119  15.394 -0.2322 -1.1692 -0.6946
  480TMC3    C1 7189   1.443   3.306  15.868  0.2908 -0.1825 -0.6971
  480TMC3    C2 7190   1.376   3.390  15.788  0.6076 -0.3331  0.1095
  480TMC3    C3 7191   1.454   3.472  15.711  0.2467 -0.1514  1.0629
  480TMC3    C4 7192   1.577   3.310  15.873  0.3537  0.4019 -0.1879
  480TMC3    C5 7193   1.650   3.386  15.789  0.0096  0.2565 -0.8844
  480TMC3    C6 7194   1.591   3.479  15.712  0.4689  0.1398  0.2858
  480TMC3     C 7195   1.379   3.191  15.927  0.0662  0.6122 -0.5603
  480TMC3     O 7196   1.449   3.120  15.999  0.9227 -0.4445 -0.0525
  480TMC3     H 7197   1.272   3.418  15.802  0.3838 -1.5982  0.9147
  480TMC3    H1 7198   1.623   3.236  15.938 -1.3781 -1.6776 -1.3259
  480TMC3    H2 7199   1.660   3.533  15.648 -0.0996 -0.6003 -0.9529
  480TMC3    C7 7200   1.777   3.343  15.745  0.1560 -0.2110  0.2787
  480TMC3    C8 7201   1.387   3.540  15.603  0.1361 -0.1073 -0.2678
  480TMC3    O1 7202   1.857   3.344  15.837 -0.5225  0.3511 -0.1451
  480TMC3    O2 7203   1.263   3.551  15.608 -0.5204 -0.2191  0.5442
  481MPD2     C 7204   3.126   2.712  13.980 -0.2565  0.3824  0.1916
  481MPD2    C1 7205   3.052   2.667  14.088  0.3436  0.0876 -0.2930
  481MPD2    C2 7206   3.116   2.649  14.217  0.1229 -0.0448  0.4138
  481MPD2    C3 7207   3.249   2.665  14.220  0.9728  0.4842  0.3134
  481MPD2    C4 7208   3.329   2.697  14.107 -0.0198 -1.2488  0.1851
  481MPD2    C5 7209   3.265   2.724  13.984 -0.6101  0.2503 -0.2996
  481MPD2     H 7210   3.066   2.627  14.311 -0.0079 -0.0545  0.3413
  481MPD2    H1 7211   3.437   2.699  14.105 -0.0800  1.6697 -0.4263
  481MPD2    H2 7212   3.079   2.746  13.888 -1.0255 -2.0731 -0.3274
  481MPD2    H3 7213   3.320   2.748  13.894  1.0270  2.8080  1.3874
  481MPD2     N 7214   3.319   2.637  14.338 -0.4133  0.1777 -0.0631
  481MPD2    H5 7215   3.419   2.625  14.327  0.0937  2.7970  1.7045
  481MPD2    N1 7216   2.907   2.661  14.079  0.4463  0.2114  0.3591
  481MPD2    H7 7217   2.860   2.695  13.996  0.5099 -1.3458 -0.2955
  482TMC3    C1 7218   2.688   2.628  14.146 -0.0337 -0.0622  0.8933
  482TMC3    C2 7219   2.600   2.525  14.155  0.3307 -0.2654 -0.0823
  482TMC3    C3 7220   2.473   2.567  14.116  0.1269  0.0846 -0.0727
  482TMC3    C4 7221   2.657   2.758  14.113 -0.5564  0.4380 -0.0126
  482TMC3    C5 7222   2.530   2.791  14.098 -0.0378 -0.4005 -0.4728
  482TMC3    C6 7223   2.434   2.699  14.090 -0.1639  1.3243 -0.3191
  482TMC3     C 7224   2.828   2.604  14.176 -0.2168  0.5226 -0.4500
  482TMC3     O 7225   2.854   2.509  14.251 -0.7101 -0.7750 -0.0243
  482TMC3     H 7226   2.636   2.423  14.155  1.0407 -0.0126 -0.8662
  482TMC3    H1 7227   2.734   2.834  14.115 -0.8255  0.7452 -0.9526
  482TMC3    H2 7228   2.334   2.736  14.069 -1.2019 -0.8479  0.7899
  482TMC3    C7 7229   2.501   2.915  14.028  0.6222 -0.2786 -0.0632
  482TMC3    C8 7230   2.405   2.463  14.033 -0.3783 -0.3157 -0.2943
  482TMC3    O1 7231   2.406   2.914  13.952 -0.0649  0.3584 -0.2499
  482TMC3    O2 7232   2.439   2.345  14.044 -0.1219  0.2137  0.2796
  483TMC3    C1 7233   0.494   1.242   1.032 -1.0119  0.5425  0.0556
  483TMC3    C2 7234   0.573   1.358   1.037  0.2177 -0.3102 -0.4533
  483TMC3    C3 7235   0.669   1.369   1.134 -0.2628 -0.8174  0.2397
  483TMC3    C4 7236   0.517   1.143   1.122 -0.2669 -0.3994  0.0853
  483TMC3    C5 7237   0.607   1.157   1.224  0.4625  0.9073  0.2670
  483TMC3    C6 7238   0.689   1.267   1.224 -0.1063  0.5176  0.8244
  483TMC3     C 7239   0.444   1.212   0.902  0.1921 -0.1164 -0.5636
  483TMC3     O 7240   0.456   1.295   0.812  0.1404 -0.1463  0.0887
  483TMC3     H 7241   0.559   1.435   0.962 -0.1564 -0.7694 -0.8636
  483TMC3    H1 7242   0.481   1.041   1.112 -0.1741 -0.6902  2.6762
  483TMC3    H2 7243   0.780   1.267   1.283 -0.2202  2.5101  1.0008
  483TMC3    C7 7244   0.677   1.033   1.241  0.4241 -0.1230  0.0090
  483TMC3    C8 7245   0.766   1.474   1.132  0.2208 -0.2057  0.3564
  483TMC3    O1 7246   0.793   1.023   1.202  0.2269 -0.1729 -0.1552
  483TMC3    O2 7247   0.796   1.529   1.027 -0.5779  0.8467  0.7509
  484MPD2     C 7248   4.292   4.336  12.772 -0.2431 -0.4888  0.6440
  484MPD2    C1 7249   4.209   4.374  12.671  0.2917 -0.8065  0.5723
  484MPD2    C2 7250   4.258   4.406  12.545  0.1264 -0.1693 -0.4654
  484MPD2    C3 7251   4.393   4.407  12.509  0.4456  0.2575  0.0553
  484MPD2    C4 7252   4.476   4.380  12.611  0.2681  0.6281  0.5457
  484MPD2    C5 7253   4.430   4.336  12.734  0.2156  0.0185  0.0981
  484MPD2     H 7254   4.185   4.419  12.465 -0.2111  2.3641  0.2645
  484MPD2    H1 7255   4.584   4.381  12.600  0.3583  2.8745  1.5525
  484MPD2    H2 7256   4.260   4.304  12.870  0.0554 -0.2078  0.8330
  484MPD2    H3 7257   4.495   4.302  12.814  1.2320  0.4651 -0.5340
  484MPD2     N 7258   4.447   4.453  12.389 -0.1007 -0.1499 -0.3467
  484MPD2    H5 7259   4.546   4.438  12.373  0.0923  0.1776  0.5634
  484MPD2    N1 7260   4.073   4.347  12.698 -0.1306  0.1885  0.1275
  484MPD2    H7 7261   4.054   4.310  12.790 -1.1895  0.2227 -0.0778
  485TMC3    C1 7262   4.461   4.578  12.189  0.0085  0.0203  0.2955
  485TMC3    C2 7263   4.592   4.600  12.216  0.4142 -0.2332 -0.0555
  485TMC3    C3 7264   4.654   4.691  12.136  0.1510  0.2265 -0.2275
  485TMC3    C4 7265   4.400   4.634  12.082 -0.2632  0.2489  0.1019
  485TMC3    C5 7266   4.466   4.704  11.990  0.3019 -0.6844  0.1488
  485TMC3    C6 7267   4.593   0.001  12.024  0.3016  0.4207 -0.3644
  485TMC3     C 7268   4.378   4.506  12.283 -0.5536  0.5508 -0.0638
  485TMC3     O 7269   4.259   4.522  12.275 -0.6770 -0.1260 -0.2471
  485TMC3     H 7270   4.653   4.560  12.295  2.0319 -1.1256 -1.7569
  485TMC3    H1 7271   4.303   4.591  12.060 -1.2273  0.4267  3.9619
  485TMC3    H2 7272   4.654   0.060  11.956  0.1920  1.3779  0.3563
  485TMC3    C7 7273   4.478   4.632  11.862  0.3705  0.2074  0.6307
  485TMC3    C8 7274   0.059   4.693  12.121  0.6907  0.0485 -0.5352
  485TMC3    O1 7275   4.477   4.508  11.868  0.6205 -0.2678 -0.0719
  485TMC3    O2 7276   0.115   0.059  12.092 -0.1375  0.1970 -0.2334
  486MPD2     C 7277   1.175   3.153  13.119 -0.5615 -0.3154 -0.4135
  486MPD2    C1 7278   1.077   3.139  13.019 -0.3242 -0.5029 -0.3988
  486MPD2    C2 7279   1.028   3.256  12.957 -0.0433 -0.4803 -0.0764
  486MPD2    C3 7280   1.083   3.378  12.990  0.5586  0.0435  0.2373
  486MPD2    C4 7281   1.187   3.378  13.076  0.3411  0.1483 -0.2702
  486MPD2    C5 7282   1.234   3.269  13.144 -0.1821 -0.1747  0.5097
  486MPD2     H 7283   0.955   3.254  12.877  1.4005 -0.7175 -1.3842
  486MPD2    H1 7284   1.253   3.463  13.091  0.9955 -0.3140 -0.5063
  486MPD2    H2 7285   1.222   3.064  13.158  2.2157  1.6481  0.7708
  486MPD2    H3 7286   1.324   3.285  13.201  0.0414  2.6294 -0.6410
  486MPD2     N 7287   1.036   3.491  12.915 -0.3456 -0.5324 -0.0682
  486MPD2    H5 7288   0.976   3.474  12.835 -1.1844 -0.4506  0.5542
  486MPD2    N1 7289   1.021   3.009  13.002  0.5219  0.6561  0.1066
  486MPD2    H7 7290   1.068   2.936  13.054  0.6457 -1.0150 -2.3430
  487TMC3    C1 7291   0.879   2.839  12.949  0.1907 -0.6191  0.1521
  487TMC3    C2 7292   0.773   2.803  12.870 -1.0991  0.0145 -0.8991
  487TMC3    C3 7293   0.722   2.678  12.884  0.0720 -0.4217 -0.0269
  487TMC3    C4 7294   0.926   2.766  13.054  0.3273 -0.2727 -0.0413
  487TMC3    C5 7295   0.854   2.650  13.075  0.5293 -0.2780 -0.1666
  487TMC3    C6 7296   0.767   2.592  12.979 -0.3043  0.0688 -0.1578
  487TMC3     C 7297   0.915   2.978  12.923  0.1719  0.3690 -0.2925
  487TMC3     O 7298   0.849   3.049  12.850  0.2275  0.6830  0.5524
  487TMC3     H 7299   0.733   2.865  12.791  1.2835  2.7868  0.1019
  487TMC3    H1 7300   0.982   2.808  13.137 -0.3102 -0.3248  0.4119
  487TMC3    H2 7301   0.720   2.495  12.992 -0.1187 -0.1829 -1.4147
  487TMC3    C7 7302   0.826   2.625  13.220  0.0850 -0.2126  0.0802
  487TMC3    C8 7303   0.584   2.683  12.894  0.1640 -0.0969 -0.0538
  487TMC3    O1 7304   0.892   2.684  13.307  0.0618 -0.3460 -0.3865
  487TMC3    O2 7305   0.537   2.787  12.946  0.0722  0.1814 -0.1149
  488MPD2     C 7306   1.103   0.176  16.021 -0.5271 -0.5205 -0.4814
  488MPD2    C1 7307   1.105   0.292  16.101  0.3914 -0.3635 -0.4614
  488MPD2    C2 7308   1.027   0.297  16.215  0.2633 -0.3572 -0.1012
  488MPD2    C3 7309   0.942   0.186  16.244 -0.6559 -0.1184  0.1236
  488MPD2    C4 7310   0.933   0.082  16.153  0.1084 -0.8356 -0.0072
  488MPD2    C5 7311   1.011   0.075  16.040  0.1339  0.3681  0.3412
  488MPD2     H 7312   1.031   0.380  16.285  0.6789 -0.7223  0.3074
  488MPD2    H1 7313   0.866   4.737  16.157 -1.1587  0.2067  0.8373
  488MPD2    H2 7314   1.162   0.170  15.929 -1.1790 -0.5928 -0.8947
  488MPD2    H3 7315   1.005   4.739  15.962  1.2715  0.3939  0.2144
  488MPD2     N 7316   0.868   0.181  16.365 -0.1279 -0.3062 -0.4348
  488MPD2    H5 7317   0.890   0.255  16.431 -0.0444  1.1823 -2.1302
  488MPD2    N1 7318   1.193   0.402  16.081  0.1435  0.0581 -0.0201
  488MPD2    H7 7319   1.181   0.477  16.149  0.0748  0.0129  0.0170
  489TMC3    C1 7320   0.702   0.115  16.525 -0.4656  0.5560 -0.1840
  489TMC3    C2 7321   0.703   0.242  16.562 -0.5616  0.0523 -0.2353
  489TMC3    C3 7322   0.700   0.280  16.691  0.0179 -0.0454  1.1120
  489TMC3    C4 7323   0.694   0.014  16.617 -0.7833  0.2576 -0.2163
  489TMC3    C5 7324   0.681   0.057  16.748 -0.2677  0.0388  0.7774
  489TMC3    C6 7325   0.694   0.184  16.791 -0.1502 -0.5168  0.0805
  489TMC3     C 7326   0.780   0.082  16.409 -0.3851  0.1675  0.2418
  489TMC3     O 7327   0.754   4.717  16.351 -0.2760  0.3817 -0.0136
  489TMC3     H 7328   0.706   0.323  16.490  2.1953 -1.0150 -1.2854
  489TMC3    H1 7329   0.713   4.652  16.584  0.5758  0.0925  1.0938
  489TMC3    H2 7330   0.710   0.206  16.896 -0.1782 -0.2633  0.0321
  489TMC3    C7 7331   0.662   4.699  16.853 -0.6373 -0.2071  0.7328
  489TMC3    C8 7332   0.796   0.380  16.722  0.1284 -0.9449 -1.0620
  489TMC3    O1 7333   0.692   4.723  16.967 -0.2298 -0.3790  0.4392
  489TMC3    O2 7334   0.897   0.372  16.657  0.1230 -0.0620  0.1533
  490MPD2     C 7335   1.311   4.319  16.989  0.3180  0.0547 -0.1150
  490MPD2    C1 7336   1.358   4.290  17.111 -0.2545  0.5857 -0.4772
  490MPD2    C2 7337   1.440   4.385  17.169 -0.1457  0.1618 -0.3306
  490MPD2    C3 7338   1.495   4.496  17.099  0.2077 -0.2004 -0.1609
  490MPD2    C4 7339   1.446   4.517  16.972  0.3298  0.0923 -0.5784
  490MPD2    C5 7340   1.349   4.427  16.916 -0.0665 -0.3489 -0.5227
  490MPD2     H 7341   1.464   4.378  17.274 -0.0229 -1.4278 -0.4674
  490MPD2    H1 7342   1.483   4.593  16.903 -0.6224 -0.1256 -1.3356
  490MPD2    H2 7343   1.245   4.252  16.936  1.2890 -1.6988  0.9272
  490MPD2    H3 7344   1.321   4.437  16.812 -0.2637  1.8212 -0.2716
  490MPD2     N 7345   1.582   4.592  17.158 -0.1531  0.4165 -1.2663
  490MPD2    H5 7346   1.637   4.653  17.100 -0.9581  1.3145 -1.0865
  490MPD2    N1 7347   1.333   4.163  17.174  1.2654  0.1434  0.1900
  490MPD2    H7 7348   1.390   4.136  17.253  0.1969  0.9019  1.2070
  491TMC3    C1 7349   1.288   3.939  17.198 -0.1930 -0.0221 -0.1260
  491TMC3    C2 7350   1.410   3.925  17.268 -0.4433 -0.1672 -0.2312
  491TMC3    C3 7351   1.421   3.814  17.351  0.1284 -0.0832 -0.3411
  491TMC3    C4 7352   1.195   3.844  17.197 -0.1644  0.2501  0.5591
  491TMC3    C5 7353   1.212   3.739  17.279 -0.0654  0.2860  0.3989
  491TMC3    C6 7354   1.324   3.720  17.358 -0.6132  0.9567  0.0474
  491TMC3     C 7355   1.262   4.058  17.122 -0.4029 -0.4347 -0.8663
  491TMC3     O 7356   1.194   4.050  17.021  0.1721 -0.2650 -0.6158
  491TMC3     H 7357   1.491   3.996  17.257  0.1129 -0.6113  1.0328
  491TMC3    H1 7358   1.106   3.857  17.137 -0.5444  0.5160  1.1918
  491TMC3    H2 7359   1.328   3.643  17.434 -2.9227  0.7756 -0.0247
  491TMC3    C7 7360   1.110   3.643  17.309 -0.8511 -0.1576 -0.2212
  491TMC3    C8 7361   1.494   3.826  17.473  0.0742 -0.0628 -0.1110
  491TMC3    O1 7362   1.147   3.544  17.372 -0.1012  0.0039  0.1985
  491TMC3    O2 7363   1.482   3.735  17.555 -0.1522 -0.2160  0.1709
  492MPD2     C 7364   2.610   4.079  10.626 -0.7292 -0.5482  0.0522
  492MPD2    C1 7365   2.518   3.979  10.607 -0.2245 -0.4232  0.3381
  492MPD2    C2 7366   2.458   3.908  10.713  0.1643 -0.1138  0.0198
  492MPD2    C3 7367   2.491   3.948  10.846 -1.0467  0.8557  0.5163
  492MPD2    C4 7368   2.592   4.044  10.864 -0.0747 -0.0049 -0.4998
  492MPD2    C5 7369   2.646   4.107  10.751 -0.2517  0.0848 -0.3784
  492MPD2     H 7370   2.391   3.824  10.700  0.3132 -0.2016 -0.1915
  492MPD2    H1 7371   2.637   4.062  10.961 -2.4217 -3.2690  1.1936
  492MPD2    H2 7372   2.652   4.150  10.556 -2.0528 -0.2121 -0.4007
  492MPD2    H3 7373   2.721   4.185  10.760  0.0656 -0.2101 -0.4633
  492MPD2     N 7374   2.433   3.890  10.964 -0.2206  0.8539 -0.1532
  492MPD2    H5 7375   2.469   3.926  11.052  2.2648  0.0688 -0.8534
  492MPD2    N1 7376   2.466   3.971  10.470 -0.1044 -0.0562 -0.1082
  492MPD2    H7 7377   2.498   4.032  10.396  1.3901 -1.1397 -0.3582
  493TMC3    C1 7378   2.344   3.883  10.282  0.3941 -0.5081 -0.0495
  493TMC3    C2 7379   2.380   3.983  10.200 -0.5724  0.0111 -0.4029
  493TMC3    C3 7380   2.320   3.997  10.074 -0.5720  0.4767  1.0145
  493TMC3    C4 7381   2.253   3.794  10.232  0.1686 -0.8680 -0.6584
  493TMC3    C5 7382   2.195   3.809  10.108 -0.1421  0.1694  0.2782
  493TMC3    C6 7383   2.217   3.922  10.034  0.0578 -0.5343  0.0163
  493TMC3     C 7384   2.384   3.870  10.423  0.3420  0.1758  0.1505
  493TMC3     O 7385   2.330   3.776  10.480 -0.2976 -0.5904 -0.3916
  493TMC3     H 7386   2.464   4.047  10.223 -1.0926  0.6514 -0.2947
  493TMC3    H1 7387   2.223   3.711  10.295  0.7536 -0.9819 -0.5346
  493TMC3    H2 7388   2.176   3.925   9.934 -0.9456 -1.2839  0.4091
  493TMC3    C7 7389   2.080   3.731  10.059 -0.0192 -0.4375  0.0568
  493TMC3    C8 7390   2.342   4.121   9.996 -0.7552  0.0728 -0.1031
  493TMC3    O1 7391   2.058   3.732   9.938  0.1906  0.5197 -0.5381
  493TMC3    O2 7392   2.290   4.112   9.888 -0.3125 -0.8605 -0.2297
  494TMC3    C1 7393   2.285   1.098   0.382  0.6625  0.9223  0.3547
  494TMC3    C2 7394   2.278   0.963   0.359 -0.3163  0.1725 -0.9667
  494TMC3    C3 7395   2.388   0.905   0.303 -0.3496 -0.1623  0.5054
  494TMC3    C4 7396   2.385   1.176   0.335 -0.7220 -1.2304 -0.2297
  494TMC3    C5 7397   2.493   1.114   0.270  0.6458 -0.2669  0.4772
  494TMC3    C6 7398   2.495   0.977   0.253 -0.0580 -0.1551 -0.1749
  494TMC3     C 7399   2.235   1.155   0.505  0.7460 -0.3927 -0.0853
  494TMC3     O 7400   2.317   1.216   0.568 -0.0371 -0.0765 -0.0058
  494TMC3     H 7401   2.190   0.908   0.390  0.5267  0.1759  1.4706
  494TMC3    H1 7402   2.385   1.280   0.367 -0.9383 -1.1632 -0.4492
  494TMC3    H2 7403   2.576   0.935   0.195 -0.1968 -2.4440  1.2658
  494TMC3    C7 7404   2.557   1.184   0.155 -0.1318  0.0166  0.0059
  494TMC3    C8 7405   2.416   0.762   0.292 -0.0163 -0.1997  0.2897
  494TMC3    O1 7406   2.581   1.119   0.056 -0.5748 -0.2523  0.5804
  494TMC3    O2 7407   2.533   0.738   0.284 -0.3296 -0.5020  0.3621
  495TMC3    C1 7408   1.870   3.567  14.762  0.2244  0.8627 -0.3159
  495TMC3    C2 7409   1.822   3.663  14.682 -0.7766  0.3171 -0.0120
  495TMC3    C3 7410   1.764   3.771  14.738  0.3513 -0.0123  0.1020
  495TMC3    C4 7411   1.881   3.575  14.895 -0.4988 -0.8386  0.5424
  495TMC3    C5 7412   1.830   3.687  14.954 -0.4950 -0.1750  0.5150
  495TMC3    C6 7413   1.774   3.783  14.876 -0.7521 -0.8332  0.1221
  495TMC3     C 7414   1.817   3.437  14.722  0.2606 -0.2572  0.7203
  495TMC3     O 7415   1.760   3.373  14.804  0.2896 -0.5162 -0.0650
  495TMC3     H 7416   1.845   3.660  14.576  1.4369 -1.8791  0.5312
  495TMC3    H1 7417   1.916   3.492  14.956  1.1791 -0.8636 -0.4447
  495TMC3    H2 7418   1.739   3.870  14.930 -0.2008  0.5356 -1.7418
  495TMC3    C7 7419   1.763   3.668  15.078 -0.6344 -0.2823  0.4983
  495TMC3    C8 7420   1.622   3.764  14.703 -0.1271 -0.0602  0.6503
  495TMC3    O1 7421   1.811   3.599  15.168 -0.3179  0.8211  0.0018
  495TMC3    O2 7422   1.544   3.785  14.798 -0.0990 -0.2143  0.1244
  496MPD2     C 7423   3.416   3.427  15.136  0.6176  0.5894 -0.3189
  496MPD2    C1 7424   3.480   3.342  15.231 -0.3181  0.3344  0.1158
  496MPD2    C2 7425   3.408   3.275  15.328 -0.4596 -0.1735 -0.4265
  496MPD2    C3 7426   3.275   3.289  15.327 -0.0229  0.3380  0.3765
  496MPD2    C4 7427   3.207   3.370  15.235 -0.0784  0.0301  0.3235
  496MPD2    C5 7428   3.283   3.433  15.139 -0.3910  0.4077 -0.2247
  496MPD2     H 7429   3.456   3.211  15.401 -0.4112 -0.2089 -0.4896
  496MPD2    H1 7430   3.100   3.387  15.233 -0.4182 -1.8220  2.1371
  496MPD2    H2 7431   3.476   3.470  15.056  1.8464 -1.5194 -0.5418
  496MPD2    H3 7432   3.234   3.498  15.067 -0.4537  1.5632  0.8474
  496MPD2     N 7433   3.188   3.221  15.412 -0.5628 -0.0143  0.6466
  496MPD2    H5 7434   3.088   3.222  15.401 -0.7041  0.0953  1.9195
  496MPD2    N1 7435   3.611   3.297  15.209  0.2234 -0.3572 -0.4137
  496MPD2    H7 7436   3.652   3.329  15.122 -2.7102  0.7030 -1.4120
  497TMC3    C1 7437   3.107   3.122  15.610  0.2709  0.3975  0.5725
  497TMC3    C2 7438   3.004   3.068  15.540 -0.4686  0.5595 -0.7555
  497TMC3    C3 7439   2.889   3.061  15.617  0.0601 -0.1498  0.3292
  497TMC3    C4 7440   3.105   3.167  15.743 -0.2590 -0.0533 -0.2793
  497TMC3    C5 7441   2.984   3.163  15.808  0.3716  0.4478  0.3566
  497TMC3    C6 7442   2.878   3.106  15.752 -0.3932 -0.3490 -0.4991
  497TMC3     C 7443   3.226   3.154  15.530 -0.2269  0.2405 -0.3963
  497TMC3     O 7444   3.339   3.157  15.579 -0.1029 -0.1012 -0.1224
  497TMC3     H 7445   3.003   3.038  15.436 -3.1353  2.6550 -1.3130
  497TMC3    H1 7446   3.194   3.195  15.797  0.2603  0.2031 -1.2662
  497TMC3    H2 7447   2.784   3.101  15.806 -0.2419 -0.1333 -0.2182
  497TMC3    C7 7448   2.971   3.226  15.938 -0.2564  0.0636  0.6726
  497TMC3    C8 7449   2.781   2.985  15.582  0.3898  0.2484 -0.0326
  497TMC3    O1 7450   2.885   3.193  16.014 -0.1502  0.0343  0.2307
  497TMC3    O2 7451   2.696   2.955  15.664  0.0824  1.0268 -0.0661
  498MPD2     C 7452   0.098   4.684   9.834  0.1284  0.3959 -0.3200
  498MPD2    C1 7453   0.024   0.005   9.936 -0.1764  0.5214 -0.3578
  498MPD2    C2 7454   4.643   4.682   9.972 -0.1996  0.0011  0.0033
  498MPD2    C3 7455   4.599   4.571   9.906  0.3003  0.1576 -0.0836
  498MPD2    C4 7456   4.680   4.515   9.802  0.4481  0.3388 -0.4616
  498MPD2    C5 7457   0.060   4.570   9.776  0.6318  0.4194  0.6528
  498MPD2     H 7458   4.586   4.732  10.049 -0.9442  0.4993 -0.8613
  498MPD2    H1 7459   4.665   4.414   9.766  0.5960 -0.3757  1.4830
  498MPD2    H2 7460   0.197   4.724   9.817  0.1283  1.0555  1.2488
  498MPD2    H3 7461   0.129   4.513   9.716 -0.5040  1.6966 -1.8406
  498MPD2     N 7462   4.483   4.511   9.948  0.5135 -0.1280  0.4426
  498MPD2    H5 7463   4.454   4.535  10.042 -0.9815  0.3815 -0.1422
  498MPD2    N1 7464   0.063   0.128   9.999  0.0872 -0.6534  0.1500
  498MPD2    H7 7465   0.008   0.156  10.080  1.1836  0.6238  0.4521
  499TMC3    C1 7466   0.168   0.343  10.007 -0.2851  0.3023 -0.1677
  499TMC3    C2 7467   0.196   0.345  10.138  0.9065  0.3402 -0.6318
  499TMC3    C3 7468   0.231   0.463  10.193  0.1608 -0.3380  0.7274
  499TMC3    C4 7469   0.173   0.457   9.936 -0.2388 -0.4542 -0.1757
  499TMC3    C5 7470   0.199   0.579   9.997 -0.0440  0.7407 -0.2322
  499TMC3    C6 7471   0.241   0.582  10.127  0.1615  0.3640  0.0312
  499TMC3     C 7472   0.146   0.222   9.934 -0.4234  0.1682  0.3855
  499TMC3     O 7473   0.176   0.211   9.814 -0.0508  0.1066  0.2517
  499TMC3     H 7474   0.202   0.252  10.193  3.2227  1.2778  0.6747
  499TMC3    H1 7475   0.144   0.456   9.831 -0.5610  2.5820 -0.0975
  499TMC3    H2 7476   0.247   0.680  10.173 -2.9250 -0.0792  1.4022
  499TMC3    C7 7477   0.206   0.693   9.912 -0.4014 -0.4832  0.3243
  499TMC3    C8 7478   0.256   0.463  10.337 -1.0675  0.2392 -0.2634
  499TMC3    O1 7479   0.289   0.782   9.929  0.4611  0.5313  0.7887
  499TMC3    O2 7480   0.260   0.571  10.399  0.4589  0.0419  0.1318
  500MPD2     C 7481   1.224   0.009  10.053  0.0256  0.3673  0.0258
  500MPD2    C1 7482   1.323   0.104  10.027  0.8874  0.3943 -0.8230
  500MPD2    C2 7483   1.300   0.189   9.914  0.6854 -0.2413 -0.1885
  500MPD2    C3 7484   1.189   0.170   9.827 -0.4526 -0.2831  0.0320
  500MPD2    C4 7485   1.096   0.075   9.863  0.1496  0.9227 -0.3376
  500MPD2    C5 7486   1.108   0.007   9.976 -0.3766 -0.4091  0.0549
  500MPD2     H 7487   1.365   0.273   9.891 -1.1417  1.3454  0.4694
  500MPD2    H1 7488   1.002   0.056   9.813 -0.0822 -0.5692  0.6556
  500MPD2    H2 7489   1.224   4.692  10.145 -0.4586  0.0371 -0.1794
  500MPD2    H3 7490   1.021   4.687  10.002 -0.4229 -0.3280  0.0861
  500MPD2     N 7491   1.154   0.257   9.721  0.0732 -0.2747 -0.6634
  500MPD2    H5 7492   1.068   0.226   9.675 -1.1046  2.1967 -0.1234
  500MPD2    N1 7493   1.434   0.133  10.105 -0.4103  0.2193 -0.1049
  500MPD2    H7 7494   1.491   0.213  10.079  2.1225 -0.6147  2.8419
  501TMC3    C1 7495   1.577   0.116  10.284  0.3243  0.3861 -0.1748
  501TMC3    C2 7496   1.572   0.250  10.309 -0.2195 -0.3759  0.5575
  501TMC3    C3 7497   1.657   0.300  10.405 -0.0688  0.0576 -0.3317
  501TMC3    C4 7498   1.661   0.032  10.354  0.0620  0.3377 -0.7980
  501TMC3    C5 7499   1.746   0.085  10.449  0.4681  0.4354  0.1649
  501TMC3    C6 7500   1.753   0.221  10.470  0.0693  0.4442  0.2910
  501TMC3     C 7501   1.480   0.049  10.204  0.4035 -0.5200 -0.0355
  501TMC3     O 7502   1.448   4.670  10.219 -0.1059 -0.0311  0.3145
  501TMC3     H 7503   1.499   0.312  10.260 -1.1830 -1.7976  0.2107
  501TMC3    H1 7504   1.651   4.664  10.350 -1.2696  0.4108  0.1975
  501TMC3    H2 7505   1.812   0.267  10.548  0.4408  0.9024 -0.2682
  501TMC3    C7 7506   1.826   4.733  10.530 -0.2484 -0.1671  0.4775
  501TMC3    C8 7507   1.662   0.440  10.436  0.1229  0.4622 -0.3605
  501TMC3    O1 7508   1.829   4.616  10.492  0.3611 -0.1413  0.1882
  501TMC3    O2 7509   1.725   0.483  10.533  0.0495  0.2612  0.0892
  502TMC3    C1 7510   1.020   4.267  15.428 -0.5858  0.4143  0.1527
  502TMC3    C2 7511   1.012   4.388  15.367 -0.5070 -0.1838  0.9366
  502TMC3    C3 7512   0.924   4.402  15.267 -0.5230 -0.3530 -0.1619
  502TMC3    C4 7513   0.931   4.168  15.398 -0.7734 -0.6275 -0.6085
  502TMC3    C5 7514   0.840   4.186  15.294  0.3800  1.0213 -0.7656
  502TMC3    C6 7515   0.826   4.310  15.238 -0.3348 -0.4392 -0.9711
  502TMC3     C 7516   1.086   4.266  15.559  0.1184 -0.1049  0.8130
  502TMC3     O 7517   1.178   4.345  15.582  0.6791 -0.1672 -0.0451
  502TMC3     H 7518   1.092   4.460  15.379 -1.0481  0.1112  2.7337
  502TMC3    H1 7519   0.948   4.073  15.448  1.2153  1.1011  2.0055
  502TMC3    H2 7520   0.755   4.323  15.158 -1.1802  2.5847  0.2531
  502TMC3    C7 7521   0.732   4.088  15.291  0.2786  0.6841 -0.0308
  502TMC3    C8 7522   0.892   4.531  15.199  0.1517 -0.5356 -0.6275
  502TMC3    O1 7523   0.751   3.984  15.357 -0.3180 -0.1924  0.4569
  502TMC3    O2 7524   0.823   4.538  15.099 -0.0277 -0.0986 -0.1595
  503MPD2     C 7525   2.811   4.688  16.627 -0.3807 -0.4604 -0.5579
  503MPD2    C1 7526   2.852   4.733  16.748  0.8164 -0.6334 -0.5140
  503MPD2    C2 7527   2.930   4.656  16.834  0.3223 -0.0363 -0.6989
  503MPD2    C3 7528   2.958   4.523  16.800  0.4779 -0.0934 -0.6209
  503MPD2    C4 7529   2.907   4.480  16.677 -0.3816 -0.1274  0.4169
  503MPD2    C5 7530   2.840   4.562  16.587  0.4140  0.0341 -0.0466
  503MPD2     H 7531   2.968   4.697  16.927 -0.2699  2.2902 -1.4797
  503MPD2    H1 7532   2.940   4.383  16.640 -1.0808 -1.0796  2.2595
  503MPD2    H2 7533   2.757   0.003  16.551 -3.4329  0.7714  2.5344
  503MPD2    H3 7534   2.793   4.520  16.499 -1.1718  3.1088 -0.6484
  503MPD2     N 7535   3.044   4.449  16.875 -0.0378 -0.6431  0.4193
  503MPD2    H5 7536   3.099   4.495  16.947  2.4280 -2.7168 -0.1244
  503MPD2    N1 7537   2.826   0.124  16.782 -0.8300  0.5082 -0.4912
  503MPD2    H7 7538   2.845   0.153  16.878  1.4950  1.0413 -1.1037
  504TMC3    C1 7539   3.100   4.252  16.994  0.5834 -0.5619  0.2525
  504TMC3    C2 7540   3.057   4.159  17.077  0.2535  0.3658  0.5618
  504TMC3    C3 7541   3.149   4.092  17.150  0.0480  0.0780  0.6018
  504TMC3    C4 7542   3.233   4.270  16.966 -0.5271  0.4093 -0.3121
  504TMC3    C5 7543   3.324   4.216  17.045  0.5454 -0.0421 -0.2509
  504TMC3    C6 7544   3.284   4.121  17.141 -0.5494 -0.3268 -0.5589
  504TMC3     C 7545   3.017   4.311  16.896  0.2286  0.2683 -0.1046
  504TMC3     O 7546   2.920   4.244  16.870  0.2205 -0.5281  0.3509
  504TMC3     H 7547   2.949   4.154  17.081  0.1523  2.5007  0.5990
  504TMC3    H1 7548   3.270   4.353  16.906 -0.4142  2.1201  2.1342
  504TMC3    H2 7549   3.352   4.071  17.208  0.0052 -1.0657 -1.6743
  504TMC3    C7 7550   3.461   4.253  17.030  0.4427 -0.2355  0.1180
  504TMC3    C8 7551   3.097   3.990  17.240  0.0446  0.1040 -0.0986
  504TMC3    O1 7552   3.493   4.303  16.922  0.1974 -0.1189  0.0567
  504TMC3    O2 7553   2.990   3.946  17.206  0.0374 -0.7133  0.9106
  505MPD2     C 7554   3.255   4.339  10.478 -0.4107 -0.3425 -0.9974
  505MPD2    C1 7555   3.256   4.199  10.484 -0.4571 -0.6910  1.2341
  505MPD2    C2 7556   3.302   4.137  10.599 -0.4838 -0.0825  0.0849
  505MPD2    C3 7557   3.366   4.201  10.703  0.2274  0.2029  0.6533
  505MPD2    C4 7558   3.378   4.340  10.686 -0.1268 -0.4782 -0.1739
  505MPD2    C5 7559   3.317   4.411  10.581  0.2639  0.0158  0.5522
  505MPD2     H 7560   3.303   4.028  10.601  1.0611 -0.0499  0.7870
  505MPD2    H1 7561   3.430   4.403  10.757  0.5966  0.4734 -1.5427
  505MPD2    H2 7562   3.229   4.384  10.382 -0.2469  0.1634 -0.8028
  505MPD2    H3 7563   3.332   4.517  10.569  0.6439  0.3831  4.2593
  505MPD2     N 7564   3.435   4.129  10.805 -0.2403 -0.1607 -0.3189
  505MPD2    H5 7565   3.423   4.028  10.804  1.5443 -0.3738 -1.0625
  505MPD2    N1 7566   3.212   4.130  10.370 -0.0867  0.6568 -0.0136
  505MPD2    H7 7567   3.171   4.180  10.291  1.2024  1.5036 -0.1523
  506TMC3    C1 7568   3.160   3.947  10.220  0.6711 -0.1073 -0.1994
  506TMC3    C2 7569   3.235   3.987  10.113  0.7158 -0.4223  0.3000
  506TMC3    C3 7570   3.251   3.907  10.004  0.8439  0.6702  0.6304
  506TMC3    C4 7571   3.131   3.816  10.235 -0.1651  0.9213  0.1080
  506TMC3    C5 7572   3.159   3.729  10.136 -0.1646  0.0987  0.3481
  506TMC3    C6 7573   3.222   3.775  10.015 -0.4931  0.0952  0.0990
  506TMC3     C 7574   3.198   3.992  10.356 -0.3072  0.1804 -0.0431
  506TMC3     O 7575   3.231   3.897  10.428  0.3830 -0.1222  0.4081
  506TMC3     H 7576   3.253   4.093  10.103 -2.0221  0.0262  0.1536
  506TMC3    H1 7577   3.061   3.788  10.313 -1.1737 -1.7305 -1.7505
  506TMC3    H2 7578   3.255   3.712   9.934 -1.1813 -0.8040  0.5204
  506TMC3    C7 7579   3.237   3.617  10.189 -0.6349 -0.0845  0.2238
  506TMC3    C8 7580   3.324   3.940   9.889  0.0617 -0.4711 -0.2987
  506TMC3    O1 7581   3.274   3.532  10.111  0.4396 -0.1753 -0.1790
  506TMC3    O2 7582   3.314   3.871   9.786  0.6436  0.5416  0.5976
  507TMC3    C1 7583   3.110   4.478  14.543  0.2796 -0.6647 -0.8866
  507TMC3    C2 7584   3.058   4.426  14.424 -0.6417  0.0070 -0.4276
  507TMC3    C3 7585   3.074   4.300  14.386  0.1945 -0.3514 -0.3009
  507TMC3    C4 7586   3.179   4.393  14.627 -0.0376 -0.2932 -0.7152
  507TMC3    C5 7587   3.186   4.258  14.599  0.7065  0.1976  0.2170
  507TMC3    C6 7588   3.135   4.212  14.472 -0.1254  0.0723  0.1883
  507TMC3     C 7589   3.112   4.625  14.558  0.0078 -0.4239 -0.1423
  507TMC3     O 7590   3.021   4.688  14.502  0.0903 -0.2630 -0.5075
  507TMC3     H 7591   3.034   4.500  14.349  0.3525  2.0968  1.3154
  507TMC3    H1 7592   3.207   4.428  14.726  0.3985  0.3073 -1.0529
  507TMC3    H2 7593   3.159   4.112  14.438  0.7593  0.9283 -1.6960
  507TMC3    C7 7594   3.318   4.189  14.617 -0.5088 -0.3345 -0.4127
  507TMC3    C8 7595   3.130   4.299  14.248 -0.0323  0.1046 -0.2567
  507TMC3    O1 7596   3.355   4.108  14.535  0.3462  0.2412  0.5398
  507TMC3    O2 7597   3.072   4.353  14.159 -0.1827  0.5234 -0.3579
  508MPD2     C 7598   4.495   2.389  16.133  0.6602  0.8757 -0.0336
  508MPD2    C1 7599   4.604   2.310  16.116 -0.0084 -0.4924 -0.8728
  508MPD2    C2 7600   4.641   2.258  15.995  0.2949  0.2107  0.4848
  508MPD2    C3 7601   4.583   2.294  15.879 -0.0041  0.3161  0.5145
  508MPD2    C4 7602   4.471   2.374  15.891 -0.1443 -0.3038 -0.9735
  508MPD2    C5 7603   4.431   2.422  16.012 -0.6119  0.1985 -0.0758
  508MPD2     H 7604   4.734   2.202  15.994 -0.2662 -0.7024  0.0440
  508MPD2    H1 7605   4.418   2.400  15.799  2.5892  0.6719 -2.2668
  508MPD2    H2 7606   4.469   2.438  16.226  0.5959  0.5897  0.0987
  508MPD2    H3 7607   4.356   2.500  16.016  0.6109  1.4196 -0.8053
  508MPD2     N 7608   4.623   2.257  15.747  0.2632 -1.0737  0.0283
  508MPD2    H5 7609   4.583   2.307  15.668 -0.9629 -0.5875  0.9459
  508MPD2    N1 7610   4.688   2.300  16.230  0.2210  0.3331 -0.3832
  508MPD2    H7 7611   4.652   2.332  16.319 -0.7559 -0.1268 -0.6101
  509TMC3    C1 7612   0.026   2.253  15.367 -0.1835 -0.0822 -0.3125
  509TMC3    C2 7613   0.154   2.208  15.346  0.1681 -0.8646  0.3900
  509TMC3    C3 7614   0.217   2.144  15.443  0.3215  0.8902 -0.6650
  509TMC3    C4 7615   4.706   2.231  15.487 -0.2081  0.0253  0.0147
  509TMC3    C5 7616   0.032   2.158  15.580  0.2626 -0.0410 -0.2345
  509TMC3    C6 7617   0.159   2.111  15.560  0.2769 -0.1874  0.0013
  509TMC3     C 7618   0.010   2.382  15.299 -0.5578 -0.1680 -0.3704
  509TMC3     O 7619   0.117   2.442  15.278  0.0807 -0.2131 -0.3777
  509TMC3     H 7620   0.206   2.242  15.257 -0.8616 -0.6521 -0.1325
  509TMC3    H1 7621   4.601   2.255  15.503 -0.3042  1.0572 -2.1141
  509TMC3    H2 7622   0.220   2.073  15.640  1.6725  2.2557  0.1048
  509TMC3    C7 7623   4.738   2.180  15.720  0.6357  0.5342  0.1422
  509TMC3    C8 7624   0.353   2.188  15.455  0.1935  0.3933  0.4587
  509TMC3    O1 7625   0.079   2.131  15.800  0.1197 -0.7242 -0.5361
  509TMC3    O2 7626   0.442   2.107  15.453 -0.0296  0.2129  0.0207
  510MPD2     C 7627   2.967   3.666  14.829  0.1876 -0.3216 -0.7065
  510MPD2    C1 7628   2.965   3.535  14.869 -0.0725  0.7109  0.1118
  510MPD2    C2 7629   3.081   3.461  14.854  0.0213 -0.2161 -0.4529
  510MPD2    C3 7630   3.198   3.516  14.798 -0.5452 -0.0503 -0.1274
  510MPD2    C4 7631   3.188   3.648  14.757 -0.8386  0.2225  0.1194
  510MPD2    C5 7632   3.076   3.725  14.768  0.1870 -0.3008 -0.1386
  510MPD2     H 7633   3.083   3.356  14.880  1.1478 -0.3462 -1.0775
  510MPD2    H1 7634   3.278   3.697  14.720  0.5699  0.0273  3.3109
  510MPD2    H2 7635   2.879   3.728  14.825 -0.4158 -1.0948  0.4064
  510MPD2    H3 7636   3.078   3.831  14.744  0.9166  0.0373  1.4693
  510MPD2     N 7637   3.318   3.444  14.778  0.2473 -0.1356 -0.6516
  510MPD2    H5 7638   3.318   3.347  14.807 -1.3827  0.5739  1.6917
  510MPD2    N1 7639   2.853   3.469  14.933  0.2483 -1.2015  0.6540
  510MPD2    H7 7640   2.771   3.528  14.931  1.0151 -0.1877 -0.8079
  511TMC3    C1 7641   2.712   3.322  15.036 -0.0367  0.2955  0.1848
  511TMC3    C2 7642   2.629   3.422  15.073 -0.3040  0.5850 -0.5780
  511TMC3    C3 7643   2.503   3.384  15.106 -0.2480 -0.0453  0.2764
  511TMC3    C4 7644   2.683   3.195  15.027 -1.0027  0.1888 -0.4983
  511TMC3    C5 7645   2.551   3.156  15.054  0.3880 -0.0307  0.3102
  511TMC3    C6 7646   2.461   3.253  15.096 -0.0075  0.2696  0.2107
  511TMC3     C 7647   2.849   3.348  15.003 -1.3181 -0.6010  0.2373
  511TMC3     O 7648   2.935   3.268  15.028  0.2605  0.4129  0.1613
  511TMC3     H 7649   2.661   3.525  15.079  2.8392 -0.3156 -1.8173
  511TMC3    H1 7650   2.753   3.126  14.981 -0.5125  1.0463 -1.0225
  511TMC3    H2 7651   2.360   3.226  15.122  0.4161 -0.8625  0.6593
  511TMC3    C7 7652   2.495   3.043  14.975  0.2851 -0.0026  0.1218
  511TMC3    C8 7653   2.451   3.462  15.217  0.6519 -1.2889  0.2591
  511TMC3    O1 7654   2.569   2.982  14.900  0.1862 -0.2730  0.5079
  511TMC3    O2 7655   2.381   3.557  15.194  0.2507  0.5405 -0.0060
  512TMC3    C1 7656   1.477   2.992  13.509  0.2819  0.4379 -0.1374
  512TMC3    C2 7657   1.608   2.981  13.551 -0.2767 -0.2182  0.2810
  512TMC3    C3 7658   1.672   2.866  13.526 -0.2673 -0.6299  0.6999
  512TMC3    C4 7659   1.406   2.890  13.459  0.2192 -0.3339  0.0197
  512TMC3    C5 7660   1.472   2.770  13.454  0.0840 -0.5340 -0.0750
  512TMC3    C6 7661   1.602   2.755  13.477  0.3322 -0.5330  0.1522
  512TMC3     C 7662   1.415   3.129  13.515 -0.1951  0.8806 -0.4152
  512TMC3     O 7663   1.483   3.224  13.550 -0.2377 -0.3395  0.0156
  512TMC3     H 7664   1.654   3.065  13.602 -0.4160 -0.0786  0.1772
  512TMC3    H1 7665   1.311   2.905  13.411  0.9062 -1.2619 -1.6117
  512TMC3    H2 7666   1.663   2.667  13.456  1.5484  0.7429 -1.7001
  512TMC3    C7 7667   1.405   2.662  13.385 -1.1744 -0.0719 -0.4623
  512TMC3    C8 7668   1.816   2.850  13.560  0.1998  0.6913  0.2157
  512TMC3    O1 7669   1.315   2.698  13.312  0.4752 -0.0046  0.3039
  512TMC3    O2 7670   1.849   2.736  13.575 -0.5011  0.0222  0.4167
  513MPD2     C 7671   3.876   3.207  13.263  0.2518 -0.3633 -0.2386
  513MPD2    C1 7672   3.880   3.263  13.139 -0.1493  0.3374  0.6598
  513MPD2    C2 7673   3.994   3.313  13.081  0.2284 -0.1604 -0.2070
  513MPD2    C3 7674   4.117   3.298  13.141  0.1183  0.1915 -0.0428
  513MPD2    C4 7675   4.120   3.237  13.262  0.6641  0.0035 -0.2837
  513MPD2    C5 7676   4.000   3.192  13.319  0.2814 -0.9090 -0.2217
  513MPD2     H 7677   3.977   3.346  12.979 -2.0709 -1.0547 -0.1120
  513MPD2    H1 7678   4.216   3.239  13.314  1.7151  2.1785 -2.3124
  513MPD2    H2 7679   3.788   3.171  13.314 -0.4813  0.7748 -0.6901
  513MPD2    H3 7680   4.014   3.144  13.415 -0.5482 -1.5352 -0.4236
  513MPD2     N 7681   4.235   3.304  13.069  0.4739  0.0568  0.5844
  513MPD2    H5 7682   4.326   3.285  13.110  1.5158  1.0420 -1.2670
  513MPD2    N1 7683   3.763   3.260  13.057 -0.1206 -0.4564  0.7464
  513MPD2    H7 7684   3.770   3.314  12.971  1.1849 -0.8409  0.6153
  514TMC3    C1 7685   3.585   3.164  12.945 -0.2723  0.3759 -0.3577
  514TMC3    C2 7686   3.575   3.265  12.853  0.2206  0.8457 -0.1718
  514TMC3    C3 7687   3.491   3.238  12.750  0.6660  0.8741  0.2396
  514TMC3    C4 7688   3.544   3.041  12.921  0.0155  0.3326  0.1660
  514TMC3    C5 7689   3.477   3.022  12.805  0.7767 -0.0293  0.0944
  514TMC3    C6 7690   3.444   3.122  12.721  0.6835 -0.4472  0.6229
  514TMC3     C 7691   3.651   3.178  13.071 -0.6152 -0.2499  0.7139
  514TMC3     O 7692   3.628   3.096  13.155 -0.0321  0.1061  0.2996
  514TMC3     H 7693   3.603   3.366  12.880  3.0028 -0.0330  0.1317
  514TMC3    H1 7694   3.541   2.969  13.002  0.1843  1.7540  1.4424
  514TMC3    H2 7695   3.375   3.103  12.639  3.0301 -0.5537 -1.3265
  514TMC3    C7 7696   3.410   2.899  12.780 -0.0879 -0.0765 -0.6278
  514TMC3    C8 7697   3.504   3.330  12.641  0.3214  0.0991  0.0583
  514TMC3    O1 7698   3.292   2.908  12.754 -0.1410  0.3398  0.5795
  514TMC3    O2 7699   3.409   3.399  12.606 -0.1720 -0.3991 -0.3777
  515MPD2     C 7700   1.713   0.189  15.063  0.6258  0.6578 -0.0622
  515MPD2    C1 7701   1.738   0.102  14.962  0.4142 -0.7947  0.1444
  515MPD2    C2 7702   1.861   0.106  14.903  0.2329  0.0080  0.0536
  515MPD2    C3 7703   1.956   0.190  14.953  0.2034  0.4425  1.3967
  515MPD2    C4 7704   1.935   0.274  15.057 -0.2745  0.1035 -0.6137
  515MPD2    C5 7705   1.810   0.269  15.119 -0.3412 -0.4603 -0.1495
  515MPD2     H 7706   1.879   0.030  14.827 -0.7663  0.9340 -1.0878
  515MPD2    H1 7707   2.021   0.332  15.091 -1.2074  0.8671  0.4367
  515MPD2    H2 7708   1.617   0.197  15.113 -0.1343  0.0109 -1.4435
  515MPD2    H3 7709   1.786   0.347  15.191  0.6896 -0.4683  0.2019
  515MPD2     N 7710   2.085   0.182  14.906  0.0243  0.3131  0.2357
  515MPD2    H5 7711   2.161   0.223  14.959  1.1622  1.6581 -2.4381
  515MPD2    N1 7712   1.639   0.013  14.913  0.8073  0.0696  0.9860
  515MPD2    H7 7713   1.653   4.700  14.827 -1.1668  0.7179  0.2784
  516TMC3    C1 7714   1.451   4.594  14.920  0.0787  0.8766 -0.8663
  516TMC3    C2 7715   1.461   4.570  14.783  0.1239  0.0069  0.3851
  516TMC3    C3 7716   1.432   4.443  14.736 -0.5518  0.2512  0.3386
  516TMC3    C4 7717   1.436   4.488  15.007  0.4603 -0.5670 -0.5784
  516TMC3    C5 7718   1.396   4.367  14.956 -0.8620 -0.0917  0.2466
  516TMC3    C6 7719   1.410   4.337  14.821  0.2193 -0.1943 -0.5534
  516TMC3     C 7720   1.521   4.708  14.980  0.1782  0.2739 -0.3114
  516TMC3     O 7721   1.493   0.004  15.092 -0.7822 -0.5938 -0.2141
  516TMC3     H 7722   1.477   4.654  14.716  1.0239 -1.8755 -1.7728
  516TMC3    H1 7723   1.443   4.510  15.113 -3.3970 -0.2211 -0.3931
  516TMC3    H2 7724   1.398   4.237  14.782  0.8787 -0.2009 -0.7532
  516TMC3    C7 7725   1.354   4.267  15.052  0.0717 -0.4554 -0.4421
  516TMC3    C8 7726   1.390   4.434  14.596  0.3877  0.2833 -0.0877
  516TMC3    O1 7727   1.392   4.278  15.165  0.0653  0.7514  0.4794
  516TMC3    O2 7728   1.382   4.543  14.541  0.3095 -0.1813 -0.2881
  517MPD2     C 7729   1.506   1.163   0.558  0.2466 -0.0004 -0.3458
  517MPD2    C1 7730   1.517   1.279   0.489  0.4590  0.1865  0.1272
  517MPD2    C2 7731   1.523   1.396   0.560  0.0150 -0.5155  0.2270
  517MPD2    C3 7732   1.526   1.390   0.701  0.3245  0.1464 -0.0084
  517MPD2    C4 7733   1.501   1.277   0.764 -0.4562  0.0008  0.6670
  517MPD2    C5 7734   1.486   1.163   0.695 -0.2532  0.0554 -0.2760
  517MPD2     H 7735   1.531   1.480   0.492 -0.0473 -0.9928 -0.3668
  517MPD2    H1 7736   1.501   1.270   0.872  2.5953 -1.2158  0.6074
  517MPD2    H2 7737   1.486   1.073   0.502 -0.9199 -0.9656  1.6298
  517MPD2    H3 7738   1.459   1.074   0.750 -3.8797  0.1752 -1.8467
  517MPD2     N 7739   1.544   1.503   0.783  0.0614 -0.7300 -0.1906
  517MPD2    H5 7740   1.543   1.483   0.882  0.2625 -0.6472 -0.1707
  517MPD2    N1 7741   1.508   1.282   0.346  0.0399 -0.3376 -0.0402
  517MPD2    H7 7742   1.524   1.373   0.303 -0.1660 -1.2094 -1.9182
  518TMC3    C1 7743   1.486   1.206   0.119 -0.8171  0.5466  0.5945
  518TMC3    C2 7744   1.385   1.145   0.047  0.1452  0.4784 -0.3322
  518TMC3    C3 7745   1.376   1.173  17.670 -0.0564  0.3249  0.1991
  518TMC3    C4 7746   1.580   1.287   0.066  0.7204  0.3499 -0.2618
  518TMC3    C5 7747   1.575   1.306  17.686  0.0376  0.1699 -0.0797
  518TMC3    C6 7748   1.473   1.253  17.613  0.8412  0.4336  0.0356
  518TMC3     C 7749   1.481   1.178   0.263 -0.0641 -0.6319  0.1142
  518TMC3     O 7750   1.429   1.070   0.287 -0.3796 -0.0562  0.4796
  518TMC3     H 7751   1.310   1.089   0.102 -0.5705 -0.3849 -2.1676
  518TMC3    H1 7752   1.661   1.341   0.114  1.3167 -1.6254  0.9462
  518TMC3    H2 7753   1.469   1.267  17.505 -1.7076 -3.4255 -0.3766
  518TMC3    C7 7754   1.703   1.306  17.628 -0.2054  0.0720  0.0377
  518TMC3    C8 7755   1.331   1.072  17.575  0.1838 -0.5284  0.2550
  518TMC3    O1 7756   1.793   1.368  17.685  0.2459  0.3350  0.3375
  518TMC3    O2 7757   1.399   1.057  17.470 -0.3733 -0.0838 -0.7262
  519MPD2     C 7758   2.528   3.916  14.230 -0.1698 -0.5072 -0.4653
  519MPD2    C1 7759   2.615   4.021  14.255  0.1659 -0.0567  0.5839
  519MPD2    C2 7760   2.746   4.015  14.208 -0.0653 -0.5284 -0.5195
  519MPD2    C3 7761   2.783   3.911  14.127 -0.5134 -0.2479 -0.0891
  519MPD2    C4 7762   2.690   3.824  14.081 -0.4283 -0.2339 -0.0879
  519MPD2    C5 7763   2.565   3.821  14.140  1.0408 -0.4316  0.7940
  519MPD2     H 7764   2.816   4.097  14.215 -0.1167 -0.4920 -0.4238
  519MPD2    H1 7765   2.713   3.751  14.004  2.2011  0.5274 -0.0026
  519MPD2    H2 7766   2.431   3.929  14.276 -0.2542  0.8064 -1.0093
  519MPD2    H3 7767   2.504   3.741  14.100 -0.0925  1.3373 -0.9927
  519MPD2     N 7768   2.912   3.905  14.073 -0.5468  0.2096 -0.2172
  519MPD2    H5 7769   2.927   3.851  13.988 -0.2416  0.8954 -0.6080
  519MPD2    N1 7770   2.564   4.141  14.305  0.2518  0.2963  0.0943
  519MPD2    H7 7771   2.463   4.142  14.311  0.2849 -1.7081  0.8863
  520TMC3    C1 7772   3.130   3.979  14.048  0.3768  0.1606 -0.2306
  520TMC3    C2 7773   3.098   4.022  13.920  0.1645  0.3894 -0.3305
  520TMC3    C3 7774   3.201   4.036  13.827 -0.0512  0.4584 -1.0309
  520TMC3    C4 7775   3.250   3.942  14.086 -0.1913  0.4572 -0.9559
  520TMC3    C5 7776   3.346   3.952  13.994 -0.0821 -0.0151  0.1919
  520TMC3    C6 7777   3.330   3.991  13.861  0.3566 -0.2786 -0.0486
  520TMC3     C 7778   3.021   3.950  14.140  0.3472 -0.2110 -0.0879
  520TMC3     O 7779   3.038   3.977  14.257 -0.4171 -0.3310  0.1059
  520TMC3     H 7780   2.995   4.051  13.902 -0.4424 -0.2171  2.1959
  520TMC3    H1 7781   3.261   3.897  14.184  0.5098  1.3585 -0.6214
  520TMC3    H2 7782   3.409   4.001  13.787  1.0854 -1.7135  0.5393
  520TMC3    C7 7783   3.481   3.932  14.045 -0.0732 -0.0866  0.1623
  520TMC3    C8 7784   3.176   4.085  13.689  0.6563  0.4536 -0.2082
  520TMC3    O1 7785   3.497   3.885  14.156  0.6361  0.2161 -0.2761
  520TMC3    O2 7786   3.273   4.090  13.616 -0.1275  0.6712  0.3747
  521MPD2     C 7787   3.655   2.859  17.558  0.7463  0.0447  0.0078
  521MPD2    C1 7788   3.627   2.786  17.446 -0.0950 -0.8117  0.3251
  521MPD2    C2 7789   3.716   2.788  17.340  0.5560  0.3428 -0.1282
  521MPD2    C3 7790   3.833   2.860  17.347 -0.0651 -0.0037  0.4199
  521MPD2    C4 7791   3.849   2.923  17.462 -0.2452 -0.3561 -0.2614
  521MPD2    C5 7792   3.772   2.923  17.569 -0.3674  0.1610 -0.1441
  521MPD2     H 7793   3.689   2.740  17.247 -0.7940  1.3597 -0.2674
  521MPD2    H1 7794   3.933   2.992  17.463 -1.2585  0.8711  0.1346
  521MPD2    H2 7795   3.593   2.854  17.646  0.6617 -0.3617 -0.0759
  521MPD2    H3 7796   3.799   2.977  17.659 -1.6223  0.8701 -0.1857
  521MPD2     N 7797   3.919   2.868  17.235 -0.0015  0.1547 -0.6918
  521MPD2    H5 7798   3.890   2.807  17.160 -0.3300  0.0334 -0.4628
  521MPD2    N1 7799   3.519   2.696  17.447 -0.2293 -0.1309  0.3239
  521MPD2    H7 7800   3.455   2.702  17.524  1.4021 -1.9078  1.8121
  522TMC3    C1 7801   4.124   2.883  17.108  0.0982 -0.4824 -1.4767
  522TMC3    C2 7802   4.260   2.878  17.117  0.3555 -0.2634 -0.3025
  522TMC3    C3 7803   4.327   2.807  17.025 -0.5920  0.1962  0.0356
  522TMC3    C4 7804   4.054   2.818  17.009  0.0377 -0.1691  0.0761
  522TMC3    C5 7805   4.130   2.747  16.923 -0.0066  0.0517 -0.8878
  522TMC3    C6 7806   4.262   2.739  16.923 -0.2628  0.3551  0.2440
  522TMC3     C 7807   4.046   2.922  17.225 -0.2663  0.0714 -0.0043
  522TMC3     O 7808   4.104   2.993  17.309 -0.8672  0.3360 -0.2733
  522TMC3     H 7809   4.316   2.906  17.206  2.2810 -1.7276 -1.0539
  522TMC3    H1 7810   3.950   2.846  16.994  0.6562  1.9796 -0.2087
  522TMC3    H2 7811   4.319   2.697  16.841 -0.7001  1.1433 -0.4601
  522TMC3    C7 7812   4.060   2.675  16.815 -0.2054  0.7556 -1.0459
  522TMC3    C8 7813   4.473   2.790  17.037  0.9550  0.2393 -0.5133
  522TMC3    O1 7814   4.097   2.563  16.788  0.1457  0.6206 -0.3829
  522TMC3    O2 7815   4.521   2.874  17.113 -0.4488  0.5979 -0.3355
  523MPD2     C 7816   1.346   2.146   9.646 -0.2136 -0.6942  1.0819
  523MPD2    C1 7817   1.353   2.210   9.765 -0.0111 -0.0955 -0.2910
  523MPD2    C2 7818   1.312   2.343   9.770 -0.7853 -0.5617 -0.7667
  523MPD2    C3 7819   1.246   2.395   9.654  0.2590  0.4801  0.0839
  523MPD2    C4 7820   1.220   2.317   9.544 -0.4661 -0.1213  0.5153
  523MPD2    C5 7821   1.276   2.197   9.539  0.3994 -0.1506  0.2341
  523MPD2     H 7822   1.313   2.402   9.861  0.1105 -2.0397  0.2010
  523MPD2    H1 7823   1.176   2.372   9.463  2.0008  0.4470 -0.4431
  523MPD2    H2 7824   1.378   2.045   9.626 -0.1511 -0.7442  1.4286
  523MPD2    H3 7825   1.256   2.129   9.457  1.6051 -0.6368  0.3329
  523MPD2     N 7826   1.200   2.531   9.661  0.1292 -1.4061  0.2135
  523MPD2    H5 7827   1.126   2.559   9.597 -0.5200 -1.9075  0.7321
  523MPD2    N1 7828   1.424   2.148   9.875 -0.2442  0.1280  0.2392
  523MPD2    H7 7829   1.457   2.053   9.860  2.5257  1.3412 -1.2066
  524TMC3    C1 7830   1.183   2.754   9.721 -0.0209  0.8521 -0.5730
  524TMC3    C2 7831   1.144   2.783   9.592 -0.5015 -0.6989  0.1837
  524TMC3    C3 7832   1.098   2.913   9.573  0.5883  1.2694  0.1668
  524TMC3    C4 7833   1.181   2.843   9.822 -0.1890 -0.7389 -0.2797
  524TMC3    C5 7834   1.131   2.969   9.798 -0.2558 -0.6462 -0.5623
  524TMC3    C6 7835   1.082   3.005   9.672  0.2221 -1.0935  0.3667
  524TMC3     C 7836   1.245   2.627   9.747 -0.3723 -0.0690  0.2493
  524TMC3     O 7837   1.336   2.631   9.830 -0.4697 -0.0871 -0.0911
  524TMC3     H 7838   1.196   2.732   9.511 -0.5085 -0.5473  0.0841
  524TMC3    H1 7839   1.214   2.811   9.920 -0.9280  0.8430  0.4928
  524TMC3    H2 7840   1.026   3.096   9.654 -0.5492 -1.8039 -0.8876
  524TMC3    C7 7841   1.069   3.029   9.918 -0.0202  0.0990 -0.8463
  524TMC3    C8 7842   1.054   2.935   9.441  0.3967  0.0019  0.0236
  524TMC3    O1 7843   1.053   2.938   9.995  0.8600  0.4118  0.4116
  524TMC3    O2 7844   1.044   2.834   9.372 -0.3957 -0.2214  0.3025
  525MPD2     C 7845   4.474   4.055  14.481  0.1766 -0.7531 -0.7579
  525MPD2    C1 7846   4.596   4.072  14.533  0.1247 -0.1386 -0.3861
  525MPD2    C2 7847   4.682   4.146  14.469  0.1028  0.1533 -0.3261
  525MPD2    C3 7848   4.649   4.218  14.352  0.4802  0.7954 -0.6250
  525MPD2    C4 7849   4.534   4.177  14.288 -0.2135 -0.0796 -0.0047
  525MPD2    C5 7850   4.446   4.103  14.358 -0.2345  0.4707  0.0921
  525MPD2     H 7851   0.031   4.184  14.520  0.2490  0.3117 -0.6943
  525MPD2    H1 7852   4.506   4.224  14.195 -0.0287 -1.9064 -0.9705
  525MPD2    H2 7853   4.398   3.996  14.530 -0.4190 -0.8065 -1.7409
  525MPD2    H3 7854   4.343   4.090  14.326  0.7898 -1.3824 -2.4841
  525MPD2     N 7855   4.716   4.329  14.307  0.3851 -0.0771  0.0017
  525MPD2    H5 7856   4.670   4.386  14.237 -0.0554 -1.1106 -0.5485
  525MPD2    N1 7857   4.624   4.042  14.667  0.2458  0.0495  0.5067
  525MPD2    H7 7858   4.716   4.069  14.700  1.4717 -2.0562 -1.1560
  526TMC3    C1 7859   4.600   3.938  14.887 -0.2070  0.3475 -0.1002
  526TMC3    C2 7860   4.511   3.896  14.985 -0.1199 -0.8680 -0.0933
  526TMC3    C3 7861   4.571   3.848  15.097 -0.5201 -1.0143  0.3844
  526TMC3    C4 7862   0.000   3.947  14.892 -0.3911  0.8997 -0.1629
  526TMC3    C5 7863   0.043   3.908  15.017  0.2336  0.0203  0.1638
  526TMC3    C6 7864   4.715   3.851  15.114 -0.6893  0.8383 -0.2822
  526TMC3     C 7865   4.540   3.965  14.752  0.4701  0.7519  0.0381
  526TMC3     O 7866   4.420   3.934  14.734 -0.1773  0.0702 -0.2411
  526TMC3     H 7867   4.405   3.893  14.963  0.3000 -0.4612 -2.2384
  526TMC3    H1 7868   0.070   3.967  14.812 -0.0205 -1.6413 -0.4450
  526TMC3    H2 7869   0.027   3.825  15.205  1.3510  1.3070 -1.3004
  526TMC3    C7 7870   0.186   3.885  15.026  0.4088 -0.2059 -0.1319
  526TMC3    C8 7871   4.482   3.836  15.217 -1.0397  1.0324  0.5652
  526TMC3    O1 7872   0.233   3.785  15.088 -0.1104  0.0747 -0.3234
  526TMC3    O2 7873   4.532   3.835  15.331  0.5531 -0.0209  0.5922
  527MPD2     C 7874   2.352   1.848   1.275 -0.1634  0.1794  0.8111
  527MPD2    C1 7875   2.356   1.803   1.144  0.3369 -0.3872  0.5122
  527MPD2    C2 7876   2.470   1.750   1.092 -0.3559 -0.0769  1.0845
  527MPD2    C3 7877   2.585   1.737   1.168  0.0687  0.1082 -0.1593
  527MPD2    C4 7878   2.590   1.785   1.297 -0.2955  0.5082 -0.9926
  527MPD2    C5 7879   2.474   1.843   1.350  0.0536 -0.1035 -0.8598
  527MPD2     H 7880   2.473   1.725   0.987 -2.0705 -0.5872  1.1448
  527MPD2    H1 7881   2.680   1.784   1.358 -1.6188  0.9420  0.9730
  527MPD2    H2 7882   2.268   1.879   1.336 -2.4457 -3.2313 -0.6285
  527MPD2    H3 7883   2.473   1.887   1.449  1.0611  1.0734 -1.3650
  527MPD2     N 7884   2.701   1.682   1.097  0.2322 -0.5643  0.5456
  527MPD2    H5 7885   2.683   1.650   1.002  0.9646 -1.5629  0.7448
  527MPD2    N1 7886   2.243   1.801   1.055  0.2414  0.3930 -0.0066
  527MPD2    H7 7887   2.256   1.750   0.968 -0.4785  0.4551 -0.1491
  528TMC3    C1 7888   2.018   1.804   0.996 -0.1763  0.5662 -0.0524
  528TMC3    C2 7889   2.058   1.735   0.880 -0.3794 -0.7426  0.1219
  528TMC3    C3 7890   1.994   1.623   0.838  0.3314 -0.6302 -0.0943
  528TMC3    C4 7891   1.921   1.741   1.074  0.2829  0.4157 -0.9699
  528TMC3    C5 7892   1.863   1.623   1.031  0.0332  0.1463 -0.2481
  528TMC3    C6 7893   1.900   1.563   0.917 -0.7523  0.0279 -0.0495
  528TMC3     C 7894   2.122   1.853   1.087  0.2591  0.4434 -0.1980
  528TMC3     O 7895   2.087   1.913   1.185  0.2000  0.2636  0.3311
  528TMC3     H 7896   2.132   1.777   0.814  0.0687  2.2715  2.4892
  528TMC3    H1 7897   1.899   1.793   1.167 -0.7278  0.3712 -1.1827
  528TMC3    H2 7898   1.843   1.482   0.874 -2.4150  2.0173 -1.6123
  528TMC3    C7 7899   1.747   1.572   1.100  0.7440 -0.0484 -0.1149
  528TMC3    C8 7900   2.029   1.584   0.699 -0.9247 -0.2691  0.3765
  528TMC3    O1 7901   1.670   1.499   1.037  0.1368 -0.2603  0.1226
  528TMC3    O2 7902   2.121   1.642   0.644  0.6405 -0.0590 -0.4356
  529MPD2     C 7903   4.497   0.203   1.288  0.5228 -0.4821 -0.5154
  529MPD2    C1 7904   4.593   0.164   1.195 -0.0080 -0.4129 -0.1737
  529MPD2    C2 7905   4.574   0.202   1.068  0.6587  0.4776 -0.3067
  529MPD2    C3 7906   4.464   0.272   1.035 -0.7711  0.0446 -0.5742
  529MPD2    C4 7907   4.372   0.308   1.123  0.0575 -0.4414 -0.9053
  529MPD2    C5 7908   4.392   0.281   1.256  0.2188  0.1042 -0.0190
  529MPD2     H 7909   4.649   0.172   0.996  0.9166 -0.0776  0.1967
  529MPD2    H1 7910   4.287   0.372   1.105 -0.2374 -0.5623  0.0506
  529MPD2    H2 7911   4.502   0.162   1.389  0.2100 -0.2479 -0.4040
  529MPD2    H3 7912   4.322   0.314   1.331  0.0933 -2.4061  0.9515
  529MPD2     N 7913   4.417   0.297   0.903  0.2246  0.0992 -0.2621
  529MPD2    H5 7914   4.339   0.361   0.892  1.3431  1.3861 -0.7247
  529MPD2    N1 7915   4.684   0.064   1.229 -0.2667 -0.1986 -0.7877
  529MPD2    H7 7916   4.729   0.010   1.156  0.8998  1.2127 -1.1356
  530TMC3    C1 7917   0.091   4.673   1.356  0.5302  0.4418  0.0190
  530TMC3    C2 7918   0.190   4.691   1.448  0.2310  0.9157 -0.3375
  530TMC3    C3 7919   0.291   4.602   1.447 -0.3511 -0.7681 -0.0355
  530TMC3    C4 7920   0.087   4.569   1.269  0.5888 -0.3958  0.0328
  530TMC3    C5 7921   0.178   4.469   1.293 -0.2223 -0.0262 -0.3394
  530TMC3    C6 7922   0.287   4.490   1.370  0.4227  0.8044 -0.0803
  530TMC3     C 7923   4.727   0.040   1.358  0.0853 -0.0346  0.0541
  530TMC3     O 7924   4.708   0.100   1.462 -0.5816  0.1232  0.4610
  530TMC3     H 7925   0.184   0.031   1.521 -0.6098  0.2843  0.2729
  530TMC3    H1 7926   0.010   4.553   1.194  0.4456  0.5060 -0.0125
  530TMC3    H2 7927   0.350   4.406   1.396 -1.7398 -0.1954  1.9173
  530TMC3    C7 7928   0.185   4.346   1.208 -0.0937 -0.1614 -0.7309
  530TMC3    C8 7929   0.383   4.623   1.551 -0.2517 -0.2233  0.6352
  530TMC3    O1 7930   0.299   4.305   1.195 -0.2287 -0.5023 -0.4698
  530TMC3    O2 7931   0.337   4.666   1.660 -0.0945  0.1334  0.2119
  531MPD2     C 7932   3.875   2.697  12.653  0.6302  0.4726 -0.0013
  531MPD2    C1 7933   3.844   2.832  12.677 -0.9018 -0.2108  0.0386
  531MPD2    C2 7934   3.715   2.867  12.721  1.1572  0.0084 -0.3354
  531MPD2    C3 7935   3.625   2.763  12.737 -0.0746 -0.5664 -0.8179
  531MPD2    C4 7936   3.671   2.631  12.716 -0.2570  0.0437 -0.5674
  531MPD2    C5 7937   3.794   2.598  12.665  0.5345  0.5619 -0.7731
  531MPD2     H 7938   3.684   2.971  12.721  0.1902 -0.2852  1.8337
  531MPD2    H1 7939   3.597   2.553  12.733 -0.9724  0.5852 -1.1629
  531MPD2    H2 7940   3.967   2.676  12.598  1.6562 -1.4464  2.4348
  531MPD2    H3 7941   3.824   2.501  12.626 -3.1369  0.3146 -2.9799
  531MPD2     N 7942   3.487   2.779  12.764 -0.2749  0.2904 -0.2315
  531MPD2    H5 7943   3.443   2.688  12.770  1.1960 -0.4066 -0.1153
  531MPD2    N1 7944   3.952   2.922  12.680 -0.0728  0.1253  0.0385
  531MPD2    H7 7945   4.044   2.887  12.654  1.1256 -0.0330  4.4367
  532TMC3    C1 7946   4.080   3.081  12.765  0.4269  0.2249 -0.1692
  532TMC3    C2 7947   4.120   3.215  12.778  0.2495  0.6878  0.7769
  532TMC3    C3 7948   4.232   3.240  12.850 -0.7251  0.5607  0.1183
  532TMC3    C4 7949   4.159   2.982  12.822 -0.4735 -0.2832  0.2872
  532TMC3    C5 7950   4.286   3.011  12.880 -0.4316  0.2784 -0.2265
  532TMC3    C6 7951   4.313   3.142  12.893  0.6537 -0.1591 -0.0000
  532TMC3     C 7952   3.951   3.049  12.722 -0.0753 -0.4846  0.3532
  532TMC3     O 7953   3.857   3.124  12.740 -0.4912  0.5703 -0.8249
  532TMC3     H 7954   4.051   3.290  12.742 -0.7140 -0.6803 -0.2425
  532TMC3    H1 7955   4.126   2.879  12.822  1.3826 -0.8678 -2.0516
  532TMC3    H2 7956   4.415   3.170  12.917  1.5496 -2.2159 -1.3848
  532TMC3    C7 7957   4.387   2.918  12.886 -0.0238  0.3469  0.8495
  532TMC3    C8 7958   4.227   3.350  12.940 -0.1603 -0.3346 -0.0745
  532TMC3    O1 7959   4.497   2.961  12.908  0.6164  0.3990  0.1578
  532TMC3    O2 7960   4.161   3.448  12.904 -0.0123  0.2430  0.6553
  533TMC3    C1 7961   0.164   4.480  14.312 -0.1669 -0.7372  0.7214
  533TMC3    C2 7962   0.295   4.500  14.347 -0.5417  0.0018  0.1251
  533TMC3    C3 7963   0.329   4.630  14.379  0.2806  0.0035 -0.6203
  533TMC3    C4 7964   0.076   4.584  14.304  0.1963  0.5109  0.4844
  533TMC3    C5 7965   0.112   4.706  14.353 -0.3100  0.1740 -0.1652
  533TMC3    C6 7966   0.238   4.734  14.377 -0.4917 -0.2371  0.3232
  533TMC3     C 7967   0.116   4.345  14.336  0.5441 -0.5890 -0.4213
  533TMC3     O 7968   0.195   4.265  14.382  0.0889 -0.4085  0.2750
  533TMC3     H 7969   0.364   4.416  14.355  0.0972  0.5336  0.1310
  533TMC3    H1 7970   4.710   4.570  14.285  0.4262  0.6367 -0.8820
  533TMC3    H2 7971   0.266   0.100  14.385 -2.0515  0.1326  0.8083
  533TMC3    C7 7972   0.028   0.004  14.465  0.2901 -0.2173 -0.3864
  533TMC3    C8 7973   0.462   4.662  14.413  0.3169  0.2121 -0.2401
  533TMC3    O1 7974   4.668   4.678  14.490  0.0747 -0.0330  0.2384
  533TMC3    O2 7975   0.474   0.029  14.475  0.0186  0.3422  0.2406
  534MPD2     C 7976   2.586   0.316   0.776 -0.0569  0.5703 -0.1161
  534MPD2    C1 7977   2.574   0.439   0.827 -0.1424  0.1342 -0.3961
  534MPD2    C2 7978   2.445   0.478   0.853  0.9362  0.0533 -0.1562
  534MPD2    C3 7979   2.337   0.395   0.826  0.3373  0.2700  0.2378
  534MPD2    C4 7980   2.352   0.269   0.768  0.0604  0.1344  0.6934
  534MPD2    C5 7981   2.477   0.232   0.747  0.2690 -0.0728  0.4959
  534MPD2     H 7982   2.434   0.569   0.912  2.8806 -0.2754  0.7251
  534MPD2    H1 7983   2.259   0.218   0.747  0.1150  0.8500 -1.2285
  534MPD2    H2 7984   2.679   0.273   0.741  0.8189  2.4630 -0.0765
  534MPD2    H3 7985   2.507   0.141   0.695 -2.2686 -0.1799 -0.7889
  534MPD2     N 7986   2.204   0.433   0.854 -0.4292 -0.0742  0.2474
  534MPD2    H5 7987   2.143   0.352   0.851  1.2962 -1.4443  2.2696
  534MPD2    N1 7988   2.678   0.525   0.847 -0.2228  0.2538 -0.1691
  534MPD2    H7 7989   2.659   0.619   0.880 -0.6799  0.7889 -1.9584
  535TMC3    C1 7990   2.011   0.549   0.913 -0.5143  0.3887  0.3585
  535TMC3    C2 7991   1.945   0.449   0.979  1.0709 -0.5267  0.7705
  535TMC3    C3 7992   1.808   0.461   0.984  0.5152 -0.5263  0.5163
  535TMC3    C4 7993   1.944   0.654   0.858  0.2339  0.1620 -0.0641
  535TMC3    C5 7994   1.803   0.656   0.849 -0.8289  0.0246  0.0320
  535TMC3    C6 7995   1.737   0.551   0.912 -0.1595  0.4151 -0.6124
  535TMC3     C 7996   2.157   0.550   0.903  0.1201  0.6245 -0.4140
  535TMC3     O 7997   2.214   0.650   0.944  0.4246  0.0731  0.0367
  535TMC3     H 7998   2.009   0.375   1.026 -0.4546  0.1895  4.0322
  535TMC3    H1 7999   1.997   0.733   0.805  0.5858  1.1881  1.8288
  535TMC3    H2 8000   1.629   0.547   0.920  0.0119 -1.7034  0.6949
  535TMC3    C7 8001   1.738   0.718   0.743 -0.2390  0.2151 -0.3140
  535TMC3    C8 8002   1.735   0.341   1.014  0.1433  0.1411  0.2474
  535TMC3    O1 8003   1.806   0.725   0.642  0.4123  0.0072  0.1517
  535TMC3    O2 8004   1.625   0.326   0.956  0.4074  0.0033  0.1554
  536MPD2     C 8005   1.246   3.707  16.831 -0.1660  0.0570 -0.2667
  536MPD2    C1 8006   1.167   3.599  16.810 -0.0878  0.0133  0.1457
  536MPD2    C2 8007   1.094   3.594  16.693  0.0384  0.7617 -0.2579
  536MPD2    C3 8008   1.089   3.701  16.607  0.1513  0.3454 -0.0916
  536MPD2    C4 8009   1.163   3.815  16.625 -0.3358  0.4283  0.2519
  536MPD2    C5 8010   1.242   3.812  16.743  0.0719  0.0203 -0.7877
  536MPD2     H 8011   1.042   3.501  16.676  1.1035  0.2129 -0.4664
  536MPD2    H1 8012   1.154   3.903  16.562  0.6661  1.4656  1.5549
  536MPD2    H2 8013   1.309   3.714  16.919 -2.9870  0.6491  1.6730
  536MPD2    H3 8014   1.285   3.908  16.768  2.2806 -0.9356 -0.8830
  536MPD2     N 8015   1.009   3.704  16.488 -0.4387  0.4012 -0.3368
  536MPD2    H5 8016   1.022   3.785  16.427 -0.6088 -0.4796 -1.5439
  536MPD2    N1 8017   1.170   3.487  16.902 -0.4752 -0.2488 -0.6764
  536MPD2    H7 8018   1.251   3.481  16.963  0.0947  0.4740 -1.3513
  537TMC3    C1 8019   1.094   3.284  17.011 -0.0530  0.0504  0.2084
  537TMC3    C2 8020   0.980   3.245  17.084  0.2305  1.0529  0.4780
  537TMC3    C3 8021   0.998   3.196  17.208 -0.6995  0.2926  0.3879
  537TMC3    C4 8022   1.223   3.252  17.052  0.1237 -0.2813 -0.1421
  537TMC3    C5 8023   1.233   3.180  17.173 -0.0767  0.9394  0.1944
  537TMC3    C6 8024   1.116   3.153  17.247 -0.3933 -0.2686  0.6130
  537TMC3     C 8025   1.072   3.387  16.913 -0.3259 -0.6902 -0.3943
  537TMC3     O 8026   0.959   3.392  16.864 -0.0506  0.3910  0.1816
  537TMC3     H 8027   0.881   3.262  17.044  0.1407 -0.6732  0.0041
  537TMC3    H1 8028   1.312   3.274  16.995  0.0153 -2.4526 -1.1542
  537TMC3    H2 8029   1.130   3.110  17.346  2.1157 -2.2287 -0.5972
  537TMC3    C7 8030   1.355   3.110  17.195  0.0666 -0.2564 -0.0096
  537TMC3    C8 8031   0.891   3.160  17.289 -0.1551 -0.4970 -0.2654
  537TMC3    O1 8032   1.460   3.135  17.133 -0.1802  0.5219  0.3963
  537TMC3    O2 8033   0.892   3.044  17.327 -0.0258  0.1379 -0.0754
  538TMC3    C1 8034   2.315   2.681  11.469 -0.5501  0.7679 -0.1042
  538TMC3    C2 8035   2.430   2.763  11.456  0.3800  0.3447 -0.1484
  538TMC3    C3 8036   2.476   2.783  11.329 -0.7339 -0.1285  0.9294
  538TMC3    C4 8037   2.255   2.620  11.367  0.0210 -0.2766  0.4634
  538TMC3    C5 8038   2.303   2.646  11.239  0.0377 -0.5280  0.1256
  538TMC3    C6 8039   2.411   2.724  11.217 -0.0967  0.5913 -0.6154
  538TMC3     C 8040   2.250   2.673  11.598 -0.2467  1.0993 -0.1488
  538TMC3     O 8041   2.129   2.655  11.610 -0.0892 -0.1015 -0.1031
  538TMC3     H 8042   2.474   2.809  11.544 -0.1122 -1.3483  0.9733
  538TMC3    H1 8043   2.155   2.579  11.376 -0.1730 -0.4061 -2.3172
  538TMC3    H2 8044   2.459   2.734  11.120  0.9887  2.3392  0.0901
  538TMC3    C7 8045   2.212   2.594  11.140 -0.7638 -0.5109  0.0001
  538TMC3    C8 8046   2.602   2.849  11.317  0.2315  0.1930  0.0668
  538TMC3    O1 8047   2.111   2.527  11.174  0.2463 -1.0348 -0.1646
  538TMC3    O2 8048   2.651   2.895  11.421 -0.1005 -0.6685  0.3519
  539MPD2     C 8049   2.474   1.765  11.434  0.1205 -0.2258 -0.4681
  539MPD2    C1 8050   2.378   1.672  11.404  0.1286 -0.1872  0.6208
  539MPD2    C2 8051   2.242   1.707  11.413 -0.1132  1.0066  0.4312
  539MPD2    C3 8052   2.210   1.838  11.443 -0.0151 -0.0906  0.0543
  539MPD2    C4 8053   2.314   1.927  11.479 -0.8939  0.4745  0.5935
  539MPD2    C5 8054   2.444   1.890  11.474  0.2408 -0.0207  0.0080
  539MPD2     H 8055   2.173   1.625  11.395  1.1151  0.4283 -1.6070
  539MPD2    H1 8056   2.288   2.023  11.523 -0.1793  1.0883 -0.3284
  539MPD2    H2 8057   2.579   1.738  11.429  0.6008  0.8988  3.8259
  539MPD2    H3 8058   2.527   1.952  11.509  1.7906 -0.5113 -2.7792
  539MPD2     N 8059   2.076   1.883  11.439 -0.3071  0.2747  0.2287
  539MPD2    H5 8060   2.050   1.976  11.471 -0.6528 -0.4993  2.1595
  539MPD2    N1 8061   2.410   1.533  11.403  0.3809 -0.5713  0.6716
  539MPD2    H7 8062   2.336   1.464  11.392 -0.1294  0.0238  0.3697
  540TMC3    C1 8063   1.856   1.897  11.369  0.2517 -0.7740 -0.1576
  540TMC3    C2 8064   1.777   1.899  11.254  0.1566 -0.0634  0.1123
  540TMC3    C3 8065   1.653   1.950  11.263 -0.1536  0.0718  0.6812
  540TMC3    C4 8066   1.815   1.948  11.489 -0.2635  0.9701 -0.4070
  540TMC3    C5 8067   1.690   2.012  11.489  0.6967  0.4615 -0.1599
  540TMC3    C6 8068   1.614   2.024  11.374  0.1555 -0.1415 -0.4400
  540TMC3     C 8069   1.976   1.818  11.374  0.4968 -0.0536  0.0478
  540TMC3     O 8070   1.977   1.722  11.295 -0.0729 -0.6021 -0.4162
  540TMC3     H 8071   1.819   1.856  11.163 -0.7032 -1.1826  0.2510
  540TMC3    H1 8072   1.863   1.918  11.582  0.7887 -0.3399 -1.3785
  540TMC3    H2 8073   1.519   2.075  11.385  0.6853  0.8124 -0.2090
  540TMC3    C7 8074   1.642   2.071  11.613 -0.5145 -0.9684  0.9068
  540TMC3    C8 8075   1.562   1.935  11.152  0.8586  0.2778 -0.4762
  540TMC3    O1 8076   1.521   2.110  11.617  0.3663  0.0826  0.7369
  540TMC3    O2 8077   1.497   2.033  11.115 -0.9543  0.4706  0.3967
  541MPD2     C 8078   0.631   2.973  13.400 -0.4879 -0.2591 -0.9383
  541MPD2    C1 8079   0.507   2.991  13.338 -0.4871  0.0354 -0.1395
  541MPD2    C2 8080   0.505   3.053  13.216 -0.5115 -0.1910 -0.5953
  541MPD2    C3 8081   0.617   3.085  13.145  0.7868 -0.1849  0.2844
  541MPD2    C4 8082   0.732   3.067  13.205  0.0510 -0.3977 -0.2374
  541MPD2    C5 8083   0.742   3.008  13.331  0.4663  0.4760 -0.0187
  541MPD2     H 8084   0.406   3.078  13.181 -1.2938 -2.7474 -0.1803
  541MPD2    H1 8085   0.829   3.086  13.163  0.5553 -1.7600  0.3172
  541MPD2    H2 8086   0.646   2.925  13.496 -3.3364  1.8648  0.6150
  541MPD2    H3 8087   0.839   2.983  13.372  0.5657  2.9663  1.2256
  541MPD2     N 8088   0.611   3.120  13.010 -0.1200 -1.0411 -0.1074
  541MPD2    H5 8089   0.698   3.110  12.959  1.1234 -1.0627  2.0000
  541MPD2    N1 8090   0.385   2.951  13.392 -0.4301 -0.1504  0.1491
  541MPD2    H7 8091   0.306   2.944  13.329  0.2265 -0.0810 -0.6910
  542TMC3    C1 8092   0.506   3.207  12.810 -0.0756 -0.1641 -0.6773
  542TMC3    C2 8093   0.584   3.124  12.731 -0.1001 -0.4045  0.1129
  542TMC3    C3 8094   0.598   3.160  12.601 -0.4738  0.8916  0.1162
  542TMC3    C4 8095   0.468   3.331  12.769 -0.0791 -0.0449  0.6567
  542TMC3    C5 8096   0.492   3.364  12.639  0.1999  0.1336 -0.0618
  542TMC3    C6 8097   0.557   3.284  12.552 -0.4368  0.2433  0.7869
  542TMC3     C 8098   0.500   3.179  12.953  0.4210 -0.0548 -0.0344
  542TMC3     O 8099   0.409   3.224  13.014  0.2300  0.0472  0.4276
  542TMC3     H 8100   0.611   3.022  12.759 -1.3226 -0.9703 -0.7951
  542TMC3    H1 8101   0.401   3.396  12.826 -0.0095  2.5136 -2.2103
  542TMC3    H2 8102   0.591   3.318  12.455  0.4159  0.5374  1.1952
  542TMC3    C7 8103   0.466   3.502  12.587  0.6140  0.3009 -0.2639
  542TMC3    C8 8104   0.667   3.088  12.502  0.2139 -0.0485  0.4373
  542TMC3    O1 8105   0.490   3.595  12.665  0.3067 -0.4331 -0.4536
  542TMC3    O2 8106   0.618   3.087  12.390 -0.1722  0.1008  0.2958
  543TMC3    C1 8107   4.273   4.555  17.417  0.0809  0.3046  0.1724
  543TMC3    C2 8108   4.281   4.414  17.427  0.1959 -0.8261 -0.0885
  543TMC3    C3 8109   4.270   4.360  17.555 -0.9979  0.5701  0.2308
  543TMC3    C4 8110   4.244   4.633  17.523 -0.4428 -0.4334 -0.8065
  543TMC3    C5 8111   4.226   4.575  17.644 -0.2657  0.1678  0.3549
  543TMC3    C6 8112   4.254   4.440  17.669 -0.3727  0.3703 -0.0709
  543TMC3     C 8113   4.293   4.623  17.288  1.0533 -0.4475 -0.1462
  543TMC3     O 8114   4.261   0.004  17.282  0.2536  0.2569 -0.4086
  543TMC3     H 8115   4.309   4.351  17.344 -0.0034  0.4999 -1.1618
  543TMC3    H1 8116   4.229   4.738  17.500  1.5775 -0.3114 -1.5048
  543TMC3    H2 8117   4.240   4.393   0.010  2.7540  1.2114  0.7877
  543TMC3    C7 8118   4.181   4.661  17.755  0.2340 -0.0007  0.6738
  543TMC3    C8 8119   4.323   4.222  17.569  0.5706  0.5368 -0.4211
  543TMC3    O1 8120   4.135   4.601   0.096  0.1258 -0.0358 -0.4453
  543TMC3    O2 8121   4.335   4.158  17.463 -0.5270  1.0740 -0.2019
  544MPD2     C 8122   4.388   3.817   0.134  0.3537  0.2594 -0.2403
  544MPD2    C1 8123   4.359   3.812  17.753 -0.0197  0.6850  0.0035
  544MPD2    C2 8124   4.337   3.932  17.690  0.6834 -0.7872 -0.3212
  544MPD2    C3 8125   4.356   4.048   0.008  1.0604 -0.3070 -0.0767
  544MPD2    C4 8126   4.398   4.054   0.138  0.2639  0.0474  0.1882
  544MPD2    C5 8127   4.427   3.933   0.198  0.3471  0.5052 -0.1642
  544MPD2     H 8128   4.297   3.942  17.590 -1.7811  0.2670  0.7557
  544MPD2    H1 8129   4.412   4.150   0.186 -0.8613 -0.3071  1.2203
  544MPD2    H2 8130   4.415   3.729   0.191 -1.6149  1.0941  1.9830
  544MPD2    H3 8131   4.464   3.934   0.300  0.0491  1.5248 -0.0691
  544MPD2     N 8132   4.336   4.181  17.703 -0.0506 -0.2072 -0.0142
  544MPD2    H5 8133   4.334   4.251   0.021  2.4331 -0.1633  0.0173
  544MPD2    N1 8134   4.324   3.687  17.690  0.1377 -0.3581 -0.1787
  544MPD2    H7 8135   4.322   3.603  17.746  2.2520 -1.2336 -1.3996
  545TMC3    C1 8136   4.300   3.544  17.510  0.3051  0.0354 -0.0641
  545TMC3    C2 8137   4.199   3.536  17.418 -0.4640 -0.2168  1.1562
  545TMC3    C3 8138   4.164   3.419  17.360 -0.4941  0.0443 -0.5380
  545TMC3    C4 8139   4.375   3.431  17.540 -0.0777  0.4283 -0.0932
  545TMC3    C5 8140   4.337   3.315  17.475 -0.1026 -0.6144  0.0456
  545TMC3    C6 8141   4.234   3.305  17.387  0.3636  0.1852  0.0783
  545TMC3     C 8142   4.332   3.675  17.554  0.9821 -0.6783 -0.2672
  545TMC3     O 8143   4.335   3.752  17.463  0.8307 -0.2961 -0.4357
  545TMC3     H 8144   4.137   3.624  17.403 -2.0612 -1.3909  0.8426
  545TMC3    H1 8145   4.438   3.436  17.628  0.6277  0.5212 -0.5983
  545TMC3    H2 8146   4.222   3.225  17.315  0.5199 -0.0882  0.3557
  545TMC3    C7 8147   4.382   3.193  17.544 -0.6984  0.3068 -0.1912
  545TMC3    C8 8148   4.099   3.424  17.226  0.0655  0.0096  0.0601
  545TMC3    O1 8149   4.479   3.203  17.615  0.2817 -0.0009 -0.1728
  545TMC3    O2 8150   4.048   3.319  17.179 -0.1533  0.4830  0.1462
  546MPD2     C 8151   0.989   4.532  16.615 -0.3658  0.6110  0.2669
  546MPD2    C1 8152   0.983   4.545  16.755  0.1198  0.1205  0.7358
  546MPD2    C2 8153   1.024   4.664  16.811 -0.3700  0.5196  0.0209
  546MPD2    C3 8154   1.082   0.022  16.733 -0.4076  0.6640 -0.4894
  546MPD2    C4 8155   1.089   0.010  16.596  0.5636  0.4168  0.1483
  546MPD2    C5 8156   1.045   4.632  16.540  0.5096 -0.0265 -0.1805
  546MPD2     H 8157   1.004   4.685  16.916  2.7009  1.8703  0.3337
  546MPD2    H1 8158   1.120   0.094  16.535  1.1000 -0.4707 -0.7894
  546MPD2    H2 8159   0.955   4.440  16.570  0.6948  0.0645  0.5786
  546MPD2    H3 8160   1.049   4.628  16.431 -2.0871 -0.3851 -0.2712
  546MPD2     N 8161   1.126   0.146  16.786  0.3374  0.6644 -0.4427
  546MPD2    H5 8162   1.155   0.216  16.718  1.3823 -1.1320 -1.8497
  546MPD2    N1 8163   0.932   4.432  16.834  0.3758  0.5199  0.1677
  546MPD2    H7 8164   0.903   4.348  16.784 -1.0707  0.4812  1.0884
  547TMC3    C1 8165   0.889   4.305  17.023  0.3536 -0.2677  0.1472
  547TMC3    C2 8166   0.800   4.235  16.941  0.3339 -0.3379 -0.1337
  547TMC3    C3 8167   0.779   4.102  16.976 -0.2708  0.0684  0.3015
  547TMC3    C4 8168   0.961   4.253  17.124  0.1444  0.3144 -0.3148
  547TMC3    C5 8169   0.926   4.127  17.169  0.3686 -0.9110 -0.9263
  547TMC3    C6 8170   0.839   4.049  17.090  0.4403 -0.3985 -1.0255
  547TMC3     C 8171   0.940   4.426  16.970  0.0161  0.0337  0.4062
  547TMC3     O 8172   1.001   4.500  17.049  0.3356  0.3366 -0.1406
  547TMC3     H 8173   0.725   4.286  16.882  1.8750  2.8793  0.6850
  547TMC3    H1 8174   1.044   4.307  17.170 -0.1627  0.9453 -0.5029
  547TMC3    H2 8175   0.840   3.943  17.111 -1.0841 -0.0424  0.8684
  547TMC3    C7 8176   0.989   4.062  17.287 -0.4164  0.1401 -0.2913
  547TMC3    C8 8177   0.652   4.039  16.928  0.5802 -0.0351  0.5318
  547TMC3    O1 8178   0.940   3.949  17.297  0.3582 -0.4983 -0.4824
  547TMC3    O2 8179   0.616   4.058  16.813  0.7549  0.1386  0.1029
  548MPD2     C 8180   0.963   4.288  12.350  0.4455  0.5569 -0.6788
  548MPD2    C1 8181   1.047   4.399  12.346 -0.3752 -0.4595 -0.1911
  548MPD2    C2 8182   1.174   4.393  12.282  0.5876  0.3119 -0.1173
  548MPD2    C3 8183   1.213   4.270  12.240  0.4968  0.4128  0.2221
  548MPD2    C4 8184   1.132   4.159  12.240  0.6678  0.4536 -0.4088
  548MPD2    C5 8185   1.005   4.174  12.290  0.7004  0.1308  0.2061
  548MPD2     H 8186   1.239   4.479  12.290  1.7334 -0.5673  0.0384
  548MPD2    H1 8187   1.147   4.067  12.185 -1.7155  1.0206 -2.0429
  548MPD2    H2 8188   0.866   4.292  12.397  0.5275  0.4999 -0.5063
  548MPD2    H3 8189   0.940   4.087  12.291  2.7547 -1.4063  0.7605
  548MPD2     N 8190   1.336   4.243  12.173 -0.3529 -0.6849  0.6807
  548MPD2    H5 8191   1.363   4.146  12.160  1.4670  0.3261 -3.0845
  548MPD2    N1 8192   1.016   4.516  12.422  0.0450  0.0769  0.3066
  548MPD2    H7 8193   0.945   4.514  12.494 -0.9124  1.1651 -0.5981
  549TMC3    C1 8194   1.034   4.726  12.497  0.3668  0.1399  0.3870
  549TMC3    C2 8195   0.975   0.105  12.485  0.7197  0.9002 -0.1288
  549TMC3    C3 8196   0.959   0.199  12.591  0.0175 -0.5644 -0.4438
  549TMC3    C4 8197   1.076   4.692  12.620  0.1019  0.3055  1.5225
  549TMC3    C5 8198   1.066   0.042  12.725 -0.1395  0.8798 -0.1733
  549TMC3    C6 8199   1.008   0.167  12.711 -0.2862 -0.2829  0.3720
  549TMC3     C 8200   1.052   4.645  12.383  0.7208 -0.1326 -0.9331
  549TMC3     O 8201   1.127   4.689  12.297  0.2772  0.1572  0.7674
  549TMC3     H 8202   0.940   0.136  12.387 -0.1393  0.2864 -0.0185
  549TMC3    H1 8203   1.137   4.602  12.627 -1.9381 -1.2458 -0.6047
  549TMC3    H2 8204   0.992   0.233  12.795 -1.1708 -1.3637  1.0665
  549TMC3    C7 8205   1.067   4.723  12.861  0.5448 -0.1122 -0.1263
  549TMC3    C8 8206   0.885   0.320  12.559  0.3022 -0.7195 -0.0920
  549TMC3    O1 8207   1.103   0.052  12.954  0.6339 -0.0909  0.2972
  549TMC3    O2 8208   0.812   0.318  12.463  0.4657  0.4426 -0.4089
  550TMC3    C1 8209   0.423   3.059  11.782 -0.0411 -0.8565  0.5364
  550TMC3    C2 8210   0.425   3.122  11.902  0.1929 -0.3392 -0.2356
  550TMC3    C3 8211   0.331   3.218  11.917  0.2797  0.1681 -0.6217
  550TMC3    C4 8212   0.340   3.088  11.677  0.2720  0.0529  0.5184
  550TMC3    C5 8213   0.251   3.192  11.695  0.4092 -0.2716 -0.0901
  550TMC3    C6 8214   0.245   3.257  11.814 -0.5406 -0.0808  0.4954
  550TMC3     C 8215   0.427   2.911  11.804 -0.1320 -0.2574  0.0163
  550TMC3     O 8216   0.526   2.855  11.855  0.4806 -0.2194 -0.2042
  550TMC3     H 8217   0.491   3.080  11.977  1.1018  0.1215 -0.7854
  550TMC3    H1 8218   0.343   3.025  11.590  0.7600 -1.0512  1.3325
  550TMC3    H2 8219   0.161   3.324  11.826 -0.9808 -0.2521 -1.7534
  550TMC3    C7 8220   0.119   3.157  11.656  0.3300  0.4848 -0.1957
  550TMC3    C8 8221   0.298   3.275  12.047 -0.1739 -0.6279  0.0458
  550TMC3    O1 8222   0.085   3.045  11.694 -0.3643 -0.2469 -0.2835
  550TMC3    O2 8223   0.252   3.389  12.051 -0.2225  0.2256 -0.6119
  551TMC3    C1 8224   2.338   0.631  13.136  0.2208  0.4125 -0.7413
  551TMC3    C2 8225   2.472   0.611  13.112 -0.5348 -0.4232  0.5208
  551TMC3    C3 8226   2.547   0.707  13.170  0.1264 -0.4274  0.1927
  551TMC3    C4 8227   2.284   0.731  13.214  0.6314 -0.5568 -0.7234
  551TMC3    C5 8228   2.373   0.804  13.289  0.8989  0.2349  0.3727
  551TMC3    C6 8229   2.506   0.800  13.265 -0.4310 -0.2760 -0.0682
  551TMC3     C 8230   2.238   0.535  13.080  0.3537  0.4077  0.5433
  551TMC3     O 8231   2.121   0.571  13.067 -0.1316  0.6711 -0.0764
  551TMC3     H 8232   2.507   0.545  13.033  1.7048  0.5733  0.6849
  551TMC3    H1 8233   2.177   0.745  13.229  0.6224 -1.8646  0.4392
  551TMC3    H2 8234   2.566   0.874  13.317 -2.6151  0.7357  1.0243
  551TMC3    C7 8235   2.326   0.926  13.361 -0.1780  0.6261  0.1846
  551TMC3    C8 8236   2.661   0.747  13.088  0.0057 -0.3848  0.5527
  551TMC3    O1 8237   2.226   0.983  13.327 -0.2571 -0.4549 -0.0465
  551TMC3    O2 8238   2.713   0.655  13.025  0.6789 -0.2017  0.8233
  552MPD2     C 8239   0.135   3.068  13.785  0.3965  0.0380  0.0170
  552MPD2    C1 8240   0.032   2.980  13.820  0.5768  0.2075 -0.5028
  552MPD2    C2 8241   0.037   2.926  13.947  0.2584  0.4189  0.2551
  552MPD2    C3 8242   0.141   2.947  14.031  0.4130  1.6442 -0.2339
  552MPD2    C4 8243   0.251   3.015  13.981  0.1356 -0.3249  0.1966
  552MPD2    C5 8244   0.242   3.089  13.866  0.0914  0.7190  0.7421
  552MPD2     H 8245   4.697   2.858  13.977 -0.1550  1.1547  0.8471
  552MPD2    H1 8246   0.341   3.010  14.042 -0.6263  1.1301  1.4187
  552MPD2    H2 8247   0.131   3.123  13.692 -0.0971 -0.6499 -0.3685
  552MPD2    H3 8248   0.323   3.146  13.823  0.3883  1.0683  1.7695
  552MPD2     N 8249   0.148   2.880  14.157 -0.0675  0.4165  0.1702
  552MPD2    H5 8250   0.239   2.883  14.202  0.6738  1.7267 -1.4457
  552MPD2    N1 8251   4.652   2.963  13.744 -0.1523  0.3524  0.4101
  552MPD2    H7 8252   4.571   2.915  13.782  0.4458  1.0228  2.5503
  553TMC3    C1 8253   4.490   2.984  13.578 -0.2234  0.1579 -0.2331
  553TMC3    C2 8254   4.464   2.979  13.444  0.4322 -0.9410  0.1000
  553TMC3    C3 8255   4.332   2.977  13.401 -0.4074 -0.3362 -0.1908
  553TMC3    C4 8256   4.387   2.980  13.675 -0.3649  1.0343  0.0289
  553TMC3    C5 8257   4.261   2.979  13.622  0.1037 -0.0158  0.3265
  553TMC3    C6 8258   4.225   2.977  13.491  0.6715 -0.0603 -0.2315
  553TMC3     C 8259   4.626   3.014  13.617  0.7348 -0.2324  0.0081
  553TMC3     O 8260   4.700   3.071  13.538  0.7754 -0.0005  0.7848
  553TMC3     H 8261   4.546   2.964  13.374  0.3470  2.1944 -0.6614
  553TMC3    H1 8262   4.410   2.999  13.779 -0.8240 -0.2019  0.3611
  553TMC3    H2 8263   4.121   2.976  13.461  0.0149  2.0367  1.9224
  553TMC3    C7 8264   4.149   2.969  13.704 -0.1023 -0.8323 -0.5373
  553TMC3    C8 8265   4.303   2.900  13.276  0.3120 -0.4663 -0.1965
  553TMC3    O1 8266   4.044   3.015  13.657  0.3743  0.0077  0.4083
  553TMC3    O2 8267   4.390   2.835  13.217  0.5934  0.6323 -0.0347
  554TMC3    C1 8268   1.000   1.673  11.610 -0.1651  0.0108  0.4534
  554TMC3    C2 8269   0.905   1.634  11.514  0.1408 -0.4394 -0.6421
  554TMC3    C3 8270   0.894   1.708  11.399  0.2615 -0.1711  1.0278
  554TMC3    C4 8271   1.084   1.779  11.588  0.0784  0.0440 -0.7883
  554TMC3    C5 8272   1.076   1.852  11.466  0.7152  0.2596  0.2573
  554TMC3    C6 8273   0.980   1.818  11.374 -0.1959  0.0827 -0.4090
  554TMC3     C 8274   1.000   1.608  11.734 -0.2567 -0.0169  0.5422
  554TMC3     O 8275   0.903   1.543  11.762 -0.0170  0.2534 -0.4494
  554TMC3     H 8276   0.845   1.545  11.530 -2.1218  1.3633  0.7995
  554TMC3    H1 8277   1.170   1.809  11.647  0.8691 -1.8814 -0.9404
  554TMC3    H2 8278   0.966   1.883  11.288 -0.7406  0.1797 -0.2492
  554TMC3    C7 8279   1.170   1.941  11.417 -1.1376  0.0278 -0.7723
  554TMC3    C8 8280   0.815   1.670  11.277  0.2830  0.0509  0.1575
  554TMC3    O1 8281   1.206   1.921  11.302  0.1019 -0.0708  0.3299
  554TMC3    O2 8282   0.786   1.760  11.202  0.0825  0.7261 -0.1734
  555TMC3    C1 8283   0.315   1.355  15.333  0.3286  0.2077 -0.7402
  555TMC3    C2 8284   0.239   1.444  15.404 -0.3089 -0.5077 -0.1560
  555TMC3    C3 8285   0.235   1.427  15.541 -0.8010 -0.2774 -0.1799
  555TMC3    C4 8286   0.379   1.247  15.389  0.3547 -0.7930 -0.1034
  555TMC3    C5 8287   0.356   1.231  15.522 -0.2874  0.5074 -0.3104
  555TMC3    C6 8288   0.289   1.316  15.597 -0.2989 -0.5706 -0.8385
  555TMC3     C 8289   0.311   1.358  15.185  0.6777 -0.0198  0.7643
  555TMC3     O 8290   0.393   1.283  15.126  0.0806 -0.0872 -0.1720
  555TMC3     H 8291   0.205   1.537  15.359 -0.0755 -0.4620 -0.2338
  555TMC3    H1 8292   0.421   1.176  15.319  0.5187  0.3403 -1.1589
  555TMC3    H2 8293   0.298   1.310  15.705 -2.3907  0.8275 -0.5881
  555TMC3    C7 8294   0.341   1.082  15.556  0.3274  0.0937  0.6365
  555TMC3    C8 8295   0.220   1.550  15.616 -0.1758 -0.2766  0.1854
  555TMC3    O1 8296   0.337   0.999  15.462 -0.7444 -0.4916  0.4394
  555TMC3    O2 8297   0.154   1.635  15.568  0.4295  0.0436 -0.9447
  556MPD2     C 8298   3.785   2.346  11.210  0.3038 -0.2013  0.7009
  556MPD2    C1 8299   3.698   2.447  11.226 -0.0442  0.0242  0.2326
  556MPD2    C2 8300   3.574   2.441  11.168  0.6434  0.5336  0.2388
  556MPD2    C3 8301   3.539   2.325  11.101  0.1785  0.1048  0.5091
  556MPD2    C4 8302   3.625   2.212  11.095  0.4746  0.1061 -0.0339
  556MPD2    C5 8303   3.752   2.229  11.149  0.5351  0.4227  0.2105
  556MPD2     H 8304   3.501   2.521  11.174  0.6258  0.4875  0.6697
  556MPD2    H1 8305   3.609   2.121  11.039 -0.0417  0.8223 -1.0474
  556MPD2    H2 8306   3.887   2.359  11.243 -0.2307  0.5060  2.1015
  556MPD2    H3 8307   3.827   2.154  11.126 -0.0257  0.4408 -1.7038
  556MPD2     N 8308   3.418   2.337  11.026 -1.0516 -0.2760  0.2254
  556MPD2    H5 8309   3.379   2.430  11.011 -0.0131  0.1202 -0.0136
  556MPD2    N1 8310   3.727   2.561  11.302 -1.2200 -0.1967 -0.5718
  556MPD2    H7 8311   3.662   2.639  11.297  0.0586  0.9515  0.9323
  557TMC3    C1 8312   3.235   2.278  10.893 -0.0585 -0.0314 -0.6336
  557TMC3    C2 8313   3.196   2.210  10.778 -0.6957  0.2132  0.5542
  557TMC3    C3 8314   3.078   2.259  10.718  0.0496 -0.6649  0.4109
  557TMC3    C4 8315   3.167   2.388  10.935  0.1274 -0.8337  0.9177
  557TMC3    C5 8316   3.068   2.442  10.858 -0.1835  0.5478 -0.0165
  557TMC3    C6 8317   3.020   2.373  10.752  0.3975 -0.0095  0.0611
  557TMC3     C 8318   3.366   2.242  10.950  0.1808 -0.2585  0.4567
  557TMC3     O 8319   3.400   2.127  10.928 -0.3989 -0.1455  0.0262
  557TMC3     H 8320   3.264   2.137  10.736  1.5984  1.4813  2.0292
  557TMC3    H1 8321   3.189   2.426  11.034  2.5480 -2.0504  0.8569
  557TMC3    H2 8322   2.934   2.402  10.693  0.6923  1.3238  0.2860
  557TMC3    C7 8323   2.992   2.553  10.902  0.3710 -0.9061  0.1666
  557TMC3    C8 8324   3.051   2.209  10.576 -0.5259 -0.0831 -0.1059
  557TMC3    O1 8325   2.881   2.563  10.857 -0.1905  0.2108 -0.3523
  557TMC3    O2 8326   3.030   2.300  10.498  0.3055  0.3870 -0.2675
  558TMC3    C1 8327   1.120   0.456   9.607  0.2469 -0.1767 -0.1705
  558TMC3    C2 8328   0.995   0.399   9.588 -0.3981 -0.1906  0.1394
  558TMC3    C3 8329   0.896   0.476   9.540  0.2067  0.2884 -0.0500
  558TMC3    C4 8330   1.144   0.586   9.605  0.4095 -0.0375  0.4192
  558TMC3    C5 8331   1.036   0.665   9.570  0.1905  0.1320  0.1294
  558TMC3    C6 8332   0.914   0.611   9.529  0.3435 -0.0046  0.4885
  558TMC3     C 8333   1.215   0.377   9.686  0.0765  0.2225  0.6778
  558TMC3     O 8334   1.320   0.429   9.719 -0.1440  0.2072  0.7278
  558TMC3     H 8335   0.968   0.294   9.594 -0.5148 -0.0797  1.6167
  558TMC3    H1 8336   1.236   0.632   9.638  1.3438 -1.7882  0.2831
  558TMC3    H2 8337   0.823   0.666   9.506  1.4268  0.4478 -2.7924
  558TMC3    C7 8338   1.051   0.807   9.594  0.1868  0.1618  0.7135
  558TMC3    C8 8339   0.767   0.458   9.594 -1.0228 -0.2626 -0.0061
  558TMC3    O1 8340   1.160   0.852   9.614  0.7789  0.0797  0.3169
  558TMC3    O2 8341   0.676   0.432   9.517 -0.2746 -0.4955  0.7100
  559MPD2     C 8342   0.838   1.274  10.459 -0.2002  0.1825 -0.4738
  559MPD2    C1 8343   0.812   1.171  10.547  0.3085 -0.0982  0.0653
  559MPD2    C2 8344   0.923   1.100  10.600  0.0985 -0.2629 -0.0801
  559MPD2    C3 8345   1.048   1.117  10.548  0.1918 -0.7618 -0.7812
  559MPD2    C4 8346   1.077   1.222  10.460  0.1028  0.1506  0.0502
  559MPD2    C5 8347   0.970   1.301  10.417  1.0372  0.9523 -0.0564
  559MPD2     H 8348   0.910   1.021  10.674 -0.5588  0.1612  0.2636
  559MPD2    H1 8349   1.172   1.234  10.410  0.3379  0.7776  0.6471
  559MPD2    H2 8350   0.761   1.342  10.425 -2.9373 -4.4482 -3.4490
  559MPD2    H3 8351   1.001   1.388  10.360 -1.8060  0.3148 -2.5580
  559MPD2     N 8352   1.153   1.029  10.586 -1.0450 -0.2902 -0.1013
  559MPD2    H5 8353   1.130   0.944  10.635 -0.4952  0.0954  0.8209
  559MPD2    N1 8354   0.678   1.147  10.576 -0.0008  0.3353  0.2159
  559MPD2    H7 8355   0.606   1.201  10.529 -0.3371  0.7337  1.1756
  560TMC3    C1 8356   1.360   0.963  10.638 -0.0959 -0.7624  0.0233
  560TMC3    C2 8357   1.306   0.838  10.620  0.2743  0.4002  0.0708
  560TMC3    C3 8358   1.389   0.736  10.668  0.5268 -0.0303 -0.1948
  560TMC3    C4 8359   1.481   0.995  10.702  0.1449 -0.4928 -0.0258
  560TMC3    C5 8360   1.553   0.884  10.744  0.4531 -0.1785 -0.2910
  560TMC3    C6 8361   1.508   0.753  10.725 -0.8380  0.3298 -0.0771
  560TMC3     C 8362   1.281   1.070  10.608 -0.9145 -0.0186  0.2530
  560TMC3     O 8363   1.331   1.178  10.601  0.0606 -0.3096  0.0870
  560TMC3     H 8364   1.221   0.809  10.559 -0.7001 -1.9048  2.4992
  560TMC3    H1 8365   1.523   1.095  10.703 -0.1788 -0.3088 -4.3011
  560TMC3    H2 8366   1.570   0.676  10.770 -3.5051 -1.3838  0.6179
  560TMC3    C7 8367   1.686   0.896  10.797 -0.4985 -1.0930 -0.1811
  560TMC3    C8 8368   1.359   0.595  10.629 -0.3874 -0.6350  0.2736
  560TMC3    O1 8369   1.747   0.791  10.807  0.3616 -0.5168  0.5303
  560TMC3    O2 8370   1.299   0.577  10.522 -0.5870 -0.0473  0.0908
  561TMC3    C1 8371   3.385   0.022  11.609  0.4450  0.1256 -0.3698
  561TMC3    C2 8372   3.267   4.724  11.669  0.1944 -0.5794 -0.6202
  561TMC3    C3 8373   3.208   0.075  11.748 -0.1827 -0.7437  0.6227
  561TMC3    C4 8374   3.451   0.133  11.642 -0.1723 -0.3746 -0.2537
  561TMC3    C5 8375   3.387   0.223  11.716 -0.2723 -0.3281 -0.5034
  561TMC3    C6 8376   3.267   0.199  11.771 -0.3186  0.6422 -0.1145
  561TMC3     C 8377   3.448   4.665  11.527  0.0217 -0.2817 -0.0629
  561TMC3     O 8378   3.404   4.554  11.533 -0.4770 -0.6230 -0.4524
  561TMC3     H 8379   3.221   4.629  11.645  0.9843 -0.1717 -3.6447
  561TMC3    H1 8380   3.557   0.139  11.616  0.5133 -0.2846  2.5496
  561TMC3    H2 8381   3.211   0.280  11.817 -0.5712 -0.0466  0.7949
  561TMC3    C7 8382   3.436   0.362  11.719  0.9119  0.1995 -0.2366
  561TMC3    C8 8383   3.095   0.029  11.829  0.0837 -0.5066 -0.2555
  561TMC3    O1 8384   3.362   0.443  11.780 -0.4998 -0.1865 -0.2221
  561TMC3    O2 8385   3.070   4.647  11.824 -0.2391  0.4215  0.3320
  562TMC3    C1 8386   4.531   1.986  16.247 -0.4762 -0.3141 -0.0827
  562TMC3    C2 8387   4.432   2.052  16.192  0.1573  0.2681 -0.3966
  562TMC3    C3 8388   4.391   2.024  16.062 -0.7162  0.1741  0.8313
  562TMC3    C4 8389   4.595   1.883  16.172  0.4105  0.0080 -0.0398
  562TMC3    C5 8390   4.543   1.849  16.052 -0.6793  0.5933 -0.9032
  562TMC3    C6 8391   4.448   1.928  15.988  0.2039  0.4314  0.1152
  562TMC3     C 8392   4.548   2.002  16.390 -0.6461  0.1253 -0.2148
  562TMC3     O 8393   4.465   2.080  16.440  0.1646  0.4863  0.2204
  562TMC3     H 8394   4.371   2.131  16.234 -0.7107 -1.3781  1.4341
  562TMC3    H1 8395   4.685   1.826  16.193 -0.2077 -0.2924  1.8287
  562TMC3    H2 8396   4.407   1.900  15.892 -0.2459  0.2307  0.3679
  562TMC3    C7 8397   4.603   1.738  15.979  0.2176 -0.3344  0.8292
  562TMC3    C8 8398   4.261   2.078  16.027 -0.0201 -0.1859 -0.0086
  562TMC3    O1 8399   4.593   1.732  15.858  0.0238 -0.0627 -0.7380
  562TMC3    O2 8400   4.182   2.085  16.119  0.0263  0.0177 -0.4651
  563MPD2     C 8401   2.024   2.700  15.583  0.3141 -0.8938  0.4517
  563MPD2    C1 8402   2.047   2.822  15.645  0.0045  0.3991 -0.0701
  563MPD2    C2 8403   2.173   2.848  15.702  0.0323  0.0431  0.4795
  563MPD2    C3 8404   2.271   2.755  15.693 -0.0128  0.2342 -0.6400
  563MPD2    C4 8405   2.241   2.627  15.646  0.4857  0.5578  0.1077
  563MPD2    C5 8406   2.120   2.604  15.582 -1.0838 -0.1224  0.6073
  563MPD2     H 8407   2.200   2.941  15.750 -2.3014  0.3522  1.2025
  563MPD2    H1 8408   2.312   2.545  15.643 -2.5101 -2.0426  0.5303
  563MPD2    H2 8409   1.930   2.676  15.535 -1.1328 -0.4570  3.0786
  563MPD2    H3 8410   2.110   2.511  15.527  0.4688  0.2469 -0.3276
  563MPD2     N 8411   2.386   2.777  15.765 -0.2661 -0.1488  0.4057
  563MPD2    H5 8412   2.392   2.864  15.817 -1.2878 -0.2158  0.6219
  563MPD2    N1 8413   1.943   2.916  15.645  0.1859 -0.0696  0.1263
  563MPD2    H7 8414   1.851   2.889  15.610  1.6886 -1.2236 -2.8390
  564TMC3    C1 8415   1.838   3.029  15.816 -0.5031  0.6290 -0.2743
  564TMC3    C2 8416   1.725   2.959  15.779 -0.0221  0.4816 -0.2328
  564TMC3    C3 8417   1.667   2.883  15.878 -0.6223  0.0355  0.6298
  564TMC3    C4 8418   1.892   3.014  15.944  0.1329  0.3705 -0.1529
  564TMC3    C5 8419   1.831   2.936  16.037 -0.2631 -0.3760  0.1502
  564TMC3    C6 8420   1.711   2.874  16.010 -0.8921 -0.3624  0.4419
  564TMC3     C 8421   1.941   3.034  15.717 -0.9252 -0.2435 -0.0644
  564TMC3     O 8422   2.030   3.116  15.737 -0.4009  0.0450  0.4263
  564TMC3     H 8423   1.693   2.961  15.676 -0.6271 -0.6583 -0.0619
  564TMC3    H1 8424   1.995   3.045  15.960  0.4674 -2.2569  2.5823
  564TMC3    H2 8425   1.660   2.832  16.096  0.7242  0.0071  1.5685
  564TMC3    C7 8426   1.933   2.840  16.075  0.1189 -0.4507  0.5075
  564TMC3    C8 8427   1.623   2.759  15.835  0.0637 -0.3600  0.1837
  564TMC3    O1 8428   2.033   2.882  16.133  0.3302 -0.3510 -0.0199
  564TMC3    O2 8429   1.642   2.678  15.925 -0.3486  0.2496  0.0159
  565TMC3    C1 8430   2.794   4.478   9.857  0.3058  0.5396  0.1601
  565TMC3    C2 8431   2.788   4.380   9.943 -0.1627  0.7773 -0.9900
  565TMC3    C3 8432   2.751   4.251   9.901  0.8273 -0.5839  1.4840
  565TMC3    C4 8433   2.765   4.460   9.727 -0.0451 -0.2321  0.6486
  565TMC3    C5 8434   2.723   4.331   9.687  0.6796 -0.2035  0.2903
  565TMC3    C6 8435   2.699   4.233   9.778  0.5101 -0.0324 -0.1699
  565TMC3     C 8436   2.885   4.584   9.891 -0.0230 -0.7453 -0.3586
  565TMC3     O 8437   2.959   4.623   9.801  0.2519  0.5593 -0.2415
  565TMC3     H 8438   2.850   4.384  10.032 -1.9793  0.3340  0.3161
  565TMC3    H1 8439   2.786   4.538   9.655 -1.8945  0.7939  1.2278
  565TMC3    H2 8440   2.684   4.132   9.740  0.3148 -0.6977  1.6568
  565TMC3    C7 8441   2.698   4.312   9.544  0.0969  0.1742 -0.2497
  565TMC3    C8 8442   2.773   4.138   9.991 -0.1235 -0.0650 -0.1967
  565TMC3    O1 8443   2.752   4.394   9.478 -0.0050  0.0465  0.2364
  565TMC3    O2 8444   2.826   4.165  10.097  0.1128 -0.1345 -0.5372
  566MPD2     C 8445   4.506   0.512  14.196 -0.8848 -0.4816  0.8885
  566MPD2    C1 8446   4.566   0.630  14.163 -0.2626 -0.4155  0.1045
  566MPD2    C2 8447   4.492   0.745  14.161 -0.2146 -0.2516  0.4678
  566MPD2    C3 8448   4.353   0.743  14.174 -0.3794 -0.0673  0.0859
  566MPD2    C4 8449   4.295   0.622  14.195 -0.6863 -1.0726 -0.6218
  566MPD2    C5 8450   4.370   0.507  14.212 -0.0766 -0.0541  0.5346
  566MPD2     H 8451   4.538   0.842  14.147 -0.0914 -0.1129  1.8471
  566MPD2    H1 8452   4.189   0.615  14.217 -0.9297  0.2877 -1.3602
  566MPD2    H2 8453   4.569   0.426  14.214 -1.4838 -0.8260  1.3421
  566MPD2    H3 8454   4.324   0.414  14.244 -0.5770 -0.1349 -0.4066
  566MPD2     N 8455   4.265   0.855  14.164  0.0026 -0.0200  0.0861
  566MPD2    H5 8456   4.174   0.833  14.204  0.0980 -0.0905  0.2679
  566MPD2    N1 8457   4.708   0.645  14.152 -0.2074  0.1546 -0.1779
  566MPD2    H7 8458   0.026   0.568  14.184 -0.3131 -0.3832 -1.2839
  567TMC3    C1 8459   0.177   0.752  14.086 -0.5401 -0.5736 -0.0300
  567TMC3    C2 8460   0.245   0.794  13.978 -0.0282 -0.2069 -0.1221
  567TMC3    C3 8461   0.380   0.817  13.997  0.5814 -0.1891  0.0031
  567TMC3    C4 8462   0.233   0.728  14.210  0.7476  0.1440  0.3207
  567TMC3    C5 8463   0.372   0.741  14.217  0.2288  0.8220  0.1888
  567TMC3    C6 8464   0.444   0.792  14.114 -0.4698  0.4845  0.8863
  567TMC3     C 8465   0.027   0.749  14.081 -0.0361 -0.5034  0.1176
  567TMC3     O 8466   4.722   0.813  13.988 -0.0764  0.4951  0.1067
  567TMC3     H 8467   0.198   0.829  13.887  1.0764  0.0865 -0.5886
  567TMC3    H1 8468   0.167   0.701  14.292  2.3135  0.5408  1.7049
  567TMC3    H2 8469   0.544   0.826  14.136  0.7772 -1.4425 -1.8899
  567TMC3    C7 8470   0.433   0.766  14.345  1.0075 -0.1033  0.4063
  567TMC3    C8 8471   0.441   0.920  13.915  0.4063 -0.0186  0.0697
  567TMC3    O1 8472   0.550   0.732  14.359  0.6720  0.6940 -0.2407
  567TMC3    O2 8473   0.367   0.985  13.838  0.6650  0.2834 -0.0026
  568MPD2     C 8474   2.585   1.821  16.127 -0.1521 -0.3864  0.1566
  568MPD2    C1 8475   2.467   1.760  16.161 -1.0476  0.6345 -0.3910
  568MPD2    C2 8476   2.348   1.798  16.104 -1.0560 -0.2442  0.3235
  568MPD2    C3 8477   2.348   1.900  16.012  0.2979  0.1127  0.3393
  568MPD2    C4 8478   2.466   1.971  15.983  0.2687  0.1492 -0.1118
  568MPD2    C5 8479   2.581   1.934  16.048 -0.8096  0.0775  0.4570
  568MPD2     H 8480   2.253   1.756  16.132 -0.9786 -1.7166 -1.5954
  568MPD2    H1 8481   2.476   2.067  15.933 -1.1680  0.3305 -0.0669
  568MPD2    H2 8482   2.683   1.801  16.168  0.0864 -0.5059 -0.4728
  568MPD2    H3 8483   2.671   1.989  16.023 -2.2545  3.0569  1.8768
  568MPD2     N 8484   2.223   1.925  15.952 -0.2823  0.7436 -0.0853
  568MPD2    H5 8485   2.140   1.890  15.998 -0.0441 -0.3853 -0.5136
  568MPD2    N1 8486   2.480   1.646  16.243  0.4877 -0.2239 -0.0286
  568MPD2    H7 8487   2.569   1.607  16.270 -0.4321 -1.2390  1.4915
  569TMC3    C1 8488   2.066   2.040  15.834 -1.3047  0.0945  0.4711
  569TMC3    C2 8489   1.995   2.064  15.948 -0.0768 -0.2226  0.1233
  569TMC3    C3 8490   1.866   2.105  15.943  0.3851  0.2241 -0.3981
  569TMC3    C4 8491   2.003   2.059  15.712 -0.5023  0.6666 -0.7722
  569TMC3    C5 8492   1.873   2.110  15.708  0.1306 -0.3786  0.7542
  569TMC3    C6 8493   1.803   2.118  15.822  0.1137  0.0506  0.0206
  569TMC3     C 8494   2.203   1.988  15.836 -0.0043 -0.3168 -0.3456
  569TMC3     O 8495   2.277   2.015  15.743  0.1088  1.1243  0.1087
  569TMC3     H 8496   2.046   2.044  16.041 -0.1777  1.4766  0.5323
  569TMC3    H1 8497   2.048   2.038  15.616 -0.2777 -0.5447 -0.4074
  569TMC3    H2 8498   1.696   2.112  15.806 -0.3634  0.2296  3.0812
  569TMC3    C7 8499   1.845   2.205  15.602 -0.1224  0.3464  0.6047
  569TMC3    C8 8500   1.827   2.217  16.019 -0.1750 -0.0494  0.2138
  569TMC3    O1 8501   1.911   2.205  15.495  0.4468  0.1417 -0.3283
  569TMC3    O2 8502   1.739   2.289  15.968  0.5028  0.0803 -1.3446
  570TMC3    C1 8503   1.345   0.546  15.974 -0.3521  0.3816 -0.1194
  570TMC3    C2 8504   1.466   0.562  15.911  0.2357  0.2387  0.9317
  570TMC3    C3 8505   1.514   0.687  15.900 -0.3445  0.0867 -0.1268
  570TMC3    C4 8506   1.283   0.650  16.037 -0.3723  0.2578  0.6417
  570TMC3    C5 8507   1.338   0.774  16.028 -0.6957 -0.6614 -0.0497
  570TMC3    C6 8508   1.461   0.794  15.970  0.4458 -0.0544 -0.2068
  570TMC3     C 8509   1.286   0.418  15.980 -0.0245 -0.5863  0.3979
  570TMC3     O 8510   1.339   0.335  15.907 -0.1666  0.3710 -0.4455
  570TMC3     H 8511   1.524   0.474  15.886 -0.3157  0.0402  0.3497
  570TMC3    H1 8512   1.189   0.646  16.091 -1.1399 -0.5521 -0.7568
  570TMC3    H2 8513   1.511   0.891  15.967 -1.0453  0.7083 -0.4075
  570TMC3    C7 8514   1.301   0.876  16.124 -0.1225 -0.2931  0.0628
  570TMC3    C8 8515   1.624   0.710  15.808  0.1870  0.2367 -0.3860
  570TMC3    O1 8516   1.264   0.831  16.229  0.0258  0.1105  0.4465
  570TMC3    O2 8517   1.672   0.821  15.798  0.0696  0.4765  0.1174
  571MPD2     C 8518   3.648   1.955  17.751  0.3000  0.1899  0.3873
  571MPD2    C1 8519   3.621   1.951   0.128  0.6180 -0.1401 -0.3894
  571MPD2    C2 8520   3.640   2.056   0.208  0.4444 -0.0745  0.3887
  571MPD2    C3 8521   3.697   2.169   0.157 -0.5145  0.9020 -0.1273
  571MPD2    C4 8522   3.731   2.174   0.023  0.1390  0.0147  0.4708
  571MPD2    C5 8523   3.713   2.065  17.698 -0.5751  0.2752 -0.1367
  571MPD2     H 8524   3.623   2.043   0.314  1.7533  1.8579  0.8536
  571MPD2    H1 8525   3.769   2.262  17.728 -1.4882 -0.1739 -1.0627
  571MPD2    H2 8526   3.639   1.868  17.687  0.6656  0.3262  0.1503
  571MPD2    H3 8527   3.733   2.064  17.592  0.7835  0.0961  0.1189
  571MPD2     N 8528   3.732   2.281   0.237  0.3731  0.1969 -0.7331
  571MPD2    H5 8529   3.759   2.366   0.188 -0.1467  1.2891  0.8756
  571MPD2    N1 8530   3.562   1.827   0.176 -0.4996  0.3095  0.4438
  571MPD2    H7 8531   3.575   1.745   0.118  0.5651  0.0928  0.9788
  572TMC3    C1 8532   3.777   2.407   0.440  0.2906  0.2795  0.4043
  572TMC3    C2 8533   3.836   2.401   0.563  0.5902  0.6689  0.1123
  572TMC3    C3 8534   3.934   2.496   0.596 -0.4531  0.4224 -0.0639
  572TMC3    C4 8535   3.797   2.517   0.355  0.8679  0.2353 -0.2330
  572TMC3    C5 8536   3.885   2.610   0.394 -0.0404 -0.8099 -1.1041
  572TMC3    C6 8537   3.962   2.602   0.514  0.0595 -0.0150  0.8420
  572TMC3     C 8538   3.742   2.279   0.375  0.6997 -0.3533 -0.4568
  572TMC3     O 8539   3.743   2.184   0.454  0.3371 -0.3573  0.2535
  572TMC3     H 8540   3.836   2.305   0.612 -0.3043 -0.6879 -2.5797
  572TMC3    H1 8541   3.740   2.533   0.264  1.8468  0.0481 -0.8779
  572TMC3    H2 8542   4.023   2.683   0.551  0.2518 -0.2735  1.0958
  572TMC3    C7 8543   3.898   2.725   0.301 -0.4737 -0.1283 -0.6438
  572TMC3    C8 8544   4.057   2.438   0.652 -0.8592 -0.1437  0.1929
  572TMC3    O1 8545   3.798   2.752   0.239  0.1914  0.3606  0.1049
  572TMC3    O2 8546   4.164   2.469   0.604  0.4638 -0.8496 -0.0425
  573MPD2     C 8547   0.547   2.460   0.618  0.0391  0.8602 -0.2872
  573MPD2    C1 8548   0.432   2.394   0.605  0.1027 -0.7486  0.1317
  573MPD2    C2 8549   0.372   2.382   0.475 -0.0242  0.0382 -0.7874
  573MPD2    C3 8550   0.431   2.451   0.370 -0.5634 -0.1121  0.0040
  573MPD2    C4 8551   0.550   2.513   0.389 -0.0199 -0.2169 -0.5828
  573MPD2    C5 8552   0.611   2.518   0.512  0.2301  0.2376 -0.5624
  573MPD2     H 8553   0.292   2.312   0.452 -0.7984  0.9145 -0.7878
  573MPD2    H1 8554   0.603   2.567   0.312  1.3473  0.4832  0.8319
  573MPD2    H2 8555   0.588   2.487   0.714  0.7848 -1.2518 -0.0201
  573MPD2    H3 8556   0.694   2.583   0.536 -0.1831  0.6497 -0.2495
  573MPD2     N 8557   0.375   2.454   0.241 -0.1859  0.4829  0.0266
  573MPD2    H5 8558   0.414   2.521   0.175  0.5755 -0.5119 -0.5210
  573MPD2    N1 8559   0.367   2.359   0.719 -0.4316 -0.7021 -0.2111
  573MPD2    H7 8560   0.403   2.392   0.808 -1.1523 -0.4526 -0.0110
  574TMC3    C1 8561   0.198   2.464   0.086  0.0389  0.8508  0.5101
  574TMC3    C2 8562   0.060   2.477   0.072  0.4065  0.0977 -0.3481
  574TMC3    C3 8563   0.010   2.560  17.731 -0.3148 -0.7321  0.1277
  574TMC3    C4 8564   0.284   2.532   0.003 -0.6337 -0.0954 -0.1505
  574TMC3    C5 8565   0.234   2.617  17.666 -0.7387  0.5943  0.4948
  574TMC3    C6 8566   0.093   2.626  17.645  0.1371 -0.2934 -0.2462
  574TMC3     C 8567   0.251   2.399   0.203  0.7440  0.9163  0.2907
  574TMC3     O 8568   0.175   2.324   0.263  0.6317 -0.1120 -0.0958
  574TMC3     H 8569   4.727   2.414   0.123 -0.2128 -1.4288 -3.0638
  574TMC3    H1 8570   0.391   2.514   0.008 -0.4782  0.8251 -0.0242
  574TMC3    H2 8571   0.054   2.652  17.548 -0.3469  1.1750  0.3464
  574TMC3    C7 8572   0.313   2.677  17.560  0.2465  1.0355 -0.4074
  574TMC3    C8 8573   4.611   2.591  17.727 -0.3793  0.3189  0.1662
  574TMC3    O1 8574   0.429   2.631  17.553  0.1124  0.3058 -0.0684
  574TMC3    O2 8575   4.535   2.509   0.020  0.0980  0.3876 -0.8500
  575TMC3    C1 8576   3.046   3.856  10.754  0.2750 -0.4510 -0.2620
  575TMC3    C2 8577   3.063   3.722  10.776 -0.4911  0.6289 -0.1113
  575TMC3    C3 8578   3.021   3.634  10.685  0.0325  0.0638  0.6657
  575TMC3    C4 8579   2.978   3.898  10.650  0.4600  0.4571 -0.4908
  575TMC3    C5 8580   2.945   3.808  10.554  0.2132 -0.1296 -0.8056
  575TMC3    C6 8581   2.974   3.675  10.564  0.1391 -0.2706  0.0778
  575TMC3     C 8582   3.082   3.950  10.854  0.3091  0.4484 -0.1520
  575TMC3     O 8583   3.042   4.064  10.841 -0.0172  0.3696 -0.2382
  575TMC3     H 8584   3.096   3.681  10.871 -1.2497  0.0587 -0.0899
  575TMC3    H1 8585   2.944   4.001  10.651 -0.2394  0.2269 -1.0429
  575TMC3    H2 8586   2.962   3.603  10.484  1.3730  1.9625 -2.1084
  575TMC3    C7 8587   2.867   3.864  10.446 -0.0298  0.2855 -0.0037
  575TMC3    C8 8588   3.066   3.493  10.704 -0.3193  0.2936 -0.8907
  575TMC3    O1 8589   2.883   3.983  10.420 -0.1599  0.0829  0.0133
  575TMC3    O2 8590   3.180   3.465  10.736  0.1566  0.1967 -0.2489
  576MPD2     C 8591   2.329   0.775  12.802 -0.2499 -0.6936  0.7397
  576MPD2    C1 8592   2.432   0.805  12.714  0.3612  0.3844 -0.4402
  576MPD2    C2 8593   2.518   0.910  12.747  0.0932 -0.2223  0.5405
  576MPD2    C3 8594   2.493   0.990  12.848 -0.3176  0.3886 -0.7108
  576MPD2    C4 8595   2.386   0.968  12.925  0.7965  0.4957 -0.1214
  576MPD2    C5 8596   2.308   0.860  12.908  0.3979  0.6949  0.3530
  576MPD2     H 8597   2.601   0.931  12.680 -0.3109 -0.1938  0.0441
  576MPD2    H1 8598   2.358   1.035  13.005 -2.1142 -0.3574 -0.4339
  576MPD2    H2 8599   2.262   0.690  12.794  0.4983 -1.0997 -1.2939
  576MPD2    H3 8600   2.223   0.841  12.972  0.4078 -0.8457 -0.1008
  576MPD2     N 8601   2.574   1.108  12.863  0.1527  0.0848 -0.1878
  576MPD2    H5 8602   2.647   1.122  12.794 -0.8623 -1.9610 -1.6782
  576MPD2    N1 8603   2.442   0.742  12.591 -0.9006  0.1174 -0.3897
  576MPD2    H7 8604   2.492   0.786  12.514 -0.0297  0.4351  0.3647
  577TMC3    C1 8605   2.412   0.593  12.418 -0.4168 -0.5583  0.6050
  577TMC3    C2 8606   2.449   0.468  12.385 -0.3921 -0.1892  0.4276
  577TMC3    C3 8607   2.489   0.440  12.257 -0.8811 -0.3363  0.0971
  577TMC3    C4 8608   2.424   0.690  12.323 -0.0089  0.1290 -0.6691
  577TMC3    C5 8609   2.450   0.657  12.189  0.2384  0.1232 -0.5943
  577TMC3    C6 8610   2.486   0.531  12.154 -0.4039  0.1291  0.7678
  577TMC3     C 8611   2.381   0.627  12.555  0.2339  0.6966  0.2763
  577TMC3     O 8612   2.327   0.540  12.624  0.1026 -0.0084  0.1366
  577TMC3     H 8613   2.444   0.387  12.457  1.4074 -0.7055 -0.0157
  577TMC3    H1 8614   2.402   0.793  12.350 -1.9096 -0.9396  1.8183
  577TMC3    H2 8615   2.505   0.508  12.050  2.8544  0.3533  1.3080
  577TMC3    C7 8616   2.489   0.754  12.105 -0.0152  0.2786  0.4704
  577TMC3    C8 8617   2.543   0.306  12.237 -0.0585 -0.1865 -0.2051
  577TMC3    O1 8618   2.492   0.728  11.984 -0.3933  0.0781 -0.0750
  577TMC3    O2 8619   2.515   0.220  12.316 -0.2848 -0.2918 -0.2462
  578MPD2     C 8620   0.333   0.284   1.374  0.4524  0.5856 -0.8548
  578MPD2    C1 8621   0.338   0.212   1.255  0.7734 -0.7582 -0.7424
  578MPD2    C2 8622   0.458   0.145   1.220  0.3621  0.1129 -0.1751
  578MPD2    C3 8623   0.566   0.148   1.314 -0.1240 -1.0841 -0.3041
  578MPD2    C4 8624   0.544   0.199   1.439 -0.0033  0.7947  0.9200
  578MPD2    C5 8625   0.433   0.277   1.467  0.5865 -0.3288 -0.4049
  578MPD2     H 8626   0.479   0.100   1.124 -0.3722  1.9477 -1.1864
  578MPD2    H1 8627   0.623   0.205   1.513 -0.0636  0.3594  1.0187
  578MPD2    H2 8628   0.247   0.346   1.398  1.6836  1.4698  1.2226
  578MPD2    H3 8629   0.437   0.334   1.559  1.6586  1.0023 -1.2849
  578MPD2     N 8630   0.683   0.076   1.280  0.4012 -1.3176 -0.0015
  578MPD2    H5 8631   0.675   0.020   1.196 -2.0242 -0.9942  0.0277
  578MPD2    N1 8632   0.237   0.234   1.161 -0.3538 -0.0805 -0.0595
  578MPD2    H7 8633   0.170   0.304   1.190  1.0952  1.7379 -1.1142
  579TMC3    C1 8634   0.906   4.730   1.291 -0.3144 -0.1237 -0.7088
  579TMC3    C2 8635   1.033   0.000   1.351  0.2453 -0.9737 -0.7484
  579TMC3    C3 8636   1.135   4.710   1.268  0.0075  0.0592 -0.6155
  579TMC3    C4 8637   0.891   4.672   1.166 -0.2928  0.6048 -0.8943
  579TMC3    C5 8638   1.005   4.633   1.098 -0.7749 -0.0970  0.8338
  579TMC3    C6 8639   1.133   4.653   1.144 -0.2425 -0.2059  0.9468
  579TMC3     C 8640   0.806   0.076   1.349 -0.0120  0.0617 -0.0599
  579TMC3     O 8641   0.828   0.133   1.458  0.6904 -0.1328  0.1449
  579TMC3     H 8642   1.046   0.052   1.445 -1.0332 -0.3002 -0.9389
  579TMC3    H1 8643   0.790   4.654   1.131  0.9500  0.0218 -4.2111
  579TMC3    H2 8644   1.220   4.612   1.095 -2.3929  0.4761 -3.4444
  579TMC3    C7 8645   0.995   4.566   0.967 -0.1692 -0.3426 -0.5321
  579TMC3    C8 8646   1.268   4.739   1.319  0.1231 -0.1742  0.8442
  579TMC3    O1 8647   1.103   4.524   0.919  0.2423 -0.2467  0.7628
  579TMC3    O2 8648   1.274   0.003   1.441  0.6052 -0.6586 -0.1500
  580TMC3    C1 8649   0.807   4.225  11.705 -0.2853 -0.1919  0.2634
  580TMC3    C2 8650   0.773   4.174  11.586  0.4562  0.2100 -0.3369
  580TMC3    C3 8651   0.741   4.037  11.594  0.2074 -0.0123  0.2854
  580TMC3    C4 8652   0.809   4.154  11.828  0.1563 -0.2305 -0.0941
  580TMC3    C5 8653   0.751   4.029  11.824  0.0502 -0.2039  0.0677
  580TMC3    C6 8654   0.722   3.967  11.711  0.7713  0.3486 -0.8025
  580TMC3     C 8655   0.835   4.373  11.702  0.1962 -0.7532 -0.3591
  580TMC3     O 8656   0.843   4.436  11.597  0.1217  0.0143  0.0037
  580TMC3     H 8657   0.762   4.236  11.497  0.7090 -0.1397 -0.6137
  580TMC3    H1 8658   0.863   4.198  11.911  0.7562  0.1467 -0.6795
  580TMC3    H2 8659   0.695   3.862  11.713 -1.6772  0.9690 -1.5824
  580TMC3    C7 8660   0.797   3.939  11.925  0.0732 -1.0461 -0.1975
  580TMC3    C8 8661   0.745   3.958  11.468 -0.4407  0.5981 -0.1615
  580TMC3    O1 8662   0.720   3.887  12.000 -0.0433  0.4538  0.2204
  580TMC3    O2 8663   0.713   3.840  11.478 -0.0864 -0.4192  0.6834
  581MPD2     C 8664   3.280   3.833  15.179  0.2035 -0.3787 -0.7901
  581MPD2    C1 8665   3.317   3.968  15.181  0.1210 -0.3366 -0.2853
  581MPD2    C2 8666   3.241   4.062  15.112  0.2244 -0.5302 -0.7167
  581MPD2    C3 8667   3.125   4.026  15.045 -0.1792  0.4587  0.1684
  581MPD2    C4 8668   3.089   3.889  15.049  0.2423  0.0932  0.4534
  581MPD2    C5 8669   3.168   3.799  15.111  0.6072 -0.4806 -0.3655
  581MPD2     H 8670   3.264   4.167  15.103 -1.2596 -0.0347  1.0605
  581MPD2    H1 8671   3.010   3.838  14.995  1.4806  2.0568 -3.2091
  581MPD2    H2 8672   3.338   3.756  15.228  1.9537  2.0778  0.9927
  581MPD2    H3 8673   3.166   3.692  15.094  1.6230 -0.2653 -1.8889
  581MPD2     N 8674   3.041   4.115  14.982  0.1462  0.0869  0.3416
  581MPD2    H5 8675   3.076   4.210  14.976  2.9566 -1.1695 -3.1972
  581MPD2    N1 8676   3.441   3.997  15.244 -0.4175  0.2065 -0.5180
  581MPD2    H7 8677   3.476   3.917  15.296  1.8651  0.8920 -1.0089
  582TMC3    C1 8678   3.634   4.096  15.318 -0.4912 -0.1344 -0.6620
  582TMC3    C2 8679   3.672   4.189  15.409  0.1118  0.1946 -0.0659
  582TMC3    C3 8680   3.775   4.149  15.494  0.0887 -0.6955  0.1185
  582TMC3    C4 8681   3.682   3.962  15.318 -0.6477 -0.3665 -0.2652
  582TMC3    C5 8682   3.779   3.930  15.406  0.7485 -0.4018 -0.2084
  582TMC3    C6 8683   3.822   4.021  15.493 -0.9451 -0.7086  0.1521
  582TMC3     C 8684   3.507   4.116  15.250 -0.3526  0.1323 -0.6899
  582TMC3     O 8685   3.458   4.222  15.229 -0.2662 -0.6116  0.0032
  582TMC3     H 8686   3.655   4.295  15.395 -1.6288  0.0140  0.6366
  582TMC3    H1 8687   3.655   3.879  15.253  2.3710 -0.1880 -1.7609
  582TMC3    H2 8688   3.884   3.992  15.577  0.2128  0.5537 -0.2720
  582TMC3    C7 8689   3.743   3.804  15.467  0.3361 -0.5030  0.5791
  582TMC3    C8 8690   3.807   4.210  15.622  0.1979  0.7702 -0.4196
  582TMC3    O1 8691   3.742   3.714  15.388  0.4244  0.3817 -0.3124
  582TMC3    O2 8692   3.904   4.180  15.692 -0.1103  0.0733 -0.3955
  583MPD2     C 8693   3.135   0.894  16.670 -0.3613  0.8572  0.0629
  583MPD2    C1 8694   3.114   1.029  16.641  0.1844  0.3127 -0.2598
  583MPD2    C2 8695   3.050   1.106  16.733 -0.5758  0.7453 -0.2539
  583MPD2    C3 8696   3.014   1.057  16.854 -0.6229 -0.2771  0.2301
  583MPD2    C4 8697   3.059   0.931  16.894 -0.0508 -0.1682  0.1093
  583MPD2    C5 8698   3.121   0.849  16.800 -0.4558 -0.4622  0.0665
  583MPD2     H 8699   3.021   1.203  16.695 -1.4293  1.1893  1.5310
  583MPD2    H1 8700   3.050   0.892  16.994  0.8328 -0.3091  0.1388
  583MPD2    H2 8701   3.160   0.825  16.590 -1.6288 -0.5233  0.8487
  583MPD2    H3 8702   3.149   0.751  16.836  0.0182 -0.1584  0.5358
  583MPD2     N 8703   2.946   1.153  16.931 -0.0833  0.0723  0.2617
  583MPD2    H5 8704   2.919   1.238  16.883  0.3251 -1.3319 -2.4107
  583MPD2    N1 8705   3.141   1.087  16.514  0.6204 -0.0070  0.0914
  583MPD2    H7 8706   3.122   1.185  16.501 -3.2407 -1.0314 -1.8041
  584TMC3    C1 8707   2.904   1.275  17.125  0.5129 -0.7755  0.4733
  584TMC3    C2 8708   2.928   1.390  17.057  0.2519 -0.1851 -0.2049
  584TMC3    C3 8709   2.906   1.502  17.133  0.4322 -0.5277  0.0049
  584TMC3    C4 8710   2.854   1.268  17.250  0.5544 -0.3851 -0.1892
  584TMC3    C5 8711   2.808   1.381  17.307 -0.1876  0.6092 -0.0277
  584TMC3    C6 8712   2.851   1.507  17.261 -0.1839 -0.3000  0.1918
  584TMC3     C 8713   2.927   1.146  17.067 -0.2584 -0.6507  0.9007
  584TMC3     O 8714   2.926   1.044  17.135 -0.0568 -0.5070 -0.0626
  584TMC3     H 8715   2.986   1.389  16.965 -0.0280  0.7370 -0.3890
  584TMC3    H1 8716   2.836   1.175  17.303  3.2369  0.2533  1.8397
  584TMC3    H2 8717   2.803   1.599  17.293 -0.6948 -0.4924 -0.0190
  584TMC3    C7 8718   2.760   1.361  17.445  0.2655  0.1085 -0.9135
  584TMC3    C8 8719   2.950   1.618  17.065  0.1883  0.1796  0.6036
  584TMC3    O1 8720   2.725   1.248  17.474  0.7092 -0.2849 -0.0688
  584TMC3    O2 8721   2.974   1.613  16.948 -0.2339  0.1754  0.1519
  585MPD2     C 8722   1.915   0.701  17.372 -0.4450  0.2260  0.3848
  585MPD2    C1 8723   1.800   0.638  17.412 -0.5739  0.1594  0.0072
  585MPD2    C2 8724   1.794   0.499  17.399  0.2551 -0.9391 -0.0509
  585MPD2    C3 8725   1.885   0.430  17.321 -0.4631  0.2131  0.3663
  585MPD2    C4 8726   1.996   0.498  17.277  0.6026 -0.2643  0.1337
  585MPD2    C5 8727   2.011   0.632  17.311  0.5260  0.1368 -0.4025
  585MPD2     H 8728   1.715   0.438  17.442 -0.8856  1.4855  1.2936
  585MPD2    H1 8729   2.074   0.458  17.214  1.8769  0.7676  1.0384
  585MPD2    H2 8730   1.923   0.809  17.375  0.3805  0.1589  0.3475
  585MPD2    H3 8731   2.092   0.692  17.274  1.8428 -0.4949  1.4916
  585MPD2     N 8732   1.857   0.292  17.299  0.4217 -0.2177 -0.0911
  585MPD2    H5 8733   1.779   0.251  17.350  0.0870  0.8154  0.2314
  585MPD2    N1 8734   1.691   0.713  17.456 -0.0020 -1.4012 -0.2575
  585MPD2    H7 8735   1.703   0.814  17.456 -0.9036 -1.3035  1.4667
  586TMC3    C1 8736   1.900   0.073  17.232  0.5592  0.5793 -0.4657
  586TMC3    C2 8737   1.997   4.714  17.254 -0.1866 -0.0045 -0.8463
  586TMC3    C3 8738   1.955   4.585  17.289  0.2750  0.2175 -0.3547
  586TMC3    C4 8739   1.767   0.042  17.256 -0.2800  0.6605 -0.1644
  586TMC3    C5 8740   1.733   4.659  17.313  0.3413 -0.2644 -0.2132
  586TMC3    C6 8741   1.824   4.559  17.331  0.2254 -0.1927 -0.4270
  586TMC3     C 8742   1.939   0.209  17.225 -0.8110  0.0732  0.1629
  586TMC3     O 8743   2.046   0.228  17.166  0.0776  0.4074  0.7661
  586TMC3     H 8744   2.101   0.007  17.256  0.0901 -0.8823 -0.7071
  586TMC3    H1 8745   1.690   0.118  17.246  1.0981  1.9737 -0.8771
  586TMC3    H2 8746   1.794   4.460  17.361  2.4943 -0.7340  0.0671
  586TMC3    C7 8747   1.607   4.589  17.295 -0.3068  0.0312 -0.1956
  586TMC3    C8 8748   2.038   4.468  17.270  0.8533 -0.1310  0.4010
  586TMC3    O1 8749   1.567   4.523  17.393  0.2893 -0.2785 -0.6332
  586TMC3    O2 8750   2.008   4.360  17.312  0.0708  0.3487  0.5824
  587TMC3    C1 8751   4.710   3.537  16.138  0.1225 -0.2390  0.4829
  587TMC3    C2 8752   4.685   3.551  16.274  0.3823  0.1277 -0.4372
  587TMC3    C3 8753   0.044   3.520  16.363 -0.1550 -0.2509 -1.0522
  587TMC3    C4 8754   0.097   3.502  16.104  0.3289 -0.1972 -0.2971
  587TMC3    C5 8755   0.191   3.467  16.196 -0.5246 -0.5909  0.1492
  587TMC3    C6 8756   0.165   3.479  16.331  0.1894  0.8323  0.6479
  587TMC3     C 8757   4.599   3.527  16.047 -0.1763 -0.5644 -0.1380
  587TMC3     O 8758   4.626   3.461  15.945 -0.0026 -0.3041  0.3137
  587TMC3     H 8759   4.582   3.545  16.308  0.3593  0.9475 -0.3755
  587TMC3    H1 8760   0.119   3.499  15.998 -2.3971  1.5830 -0.9067
  587TMC3    H2 8761   0.232   3.444  16.409 -0.2314  0.8719  1.0265
  587TMC3    C7 8762   0.300   3.374  16.157  0.1945 -0.1538  0.2055
  587TMC3    C8 8763   0.023   3.560  16.503 -0.1493 -0.5887  0.4077
  587TMC3    O1 8764   0.286   3.326  16.043  0.1756 -0.0866  0.5932
  587TMC3    O2 8765   0.085   3.498  16.585  0.3842 -0.5518 -0.0770
  588TMC3    C1 8766   2.336   1.358  10.056  0.5539  0.0948 -0.5618
  588TMC3    C2 8767   2.287   1.253   9.986 -0.2003 -0.4777  0.0371
  588TMC3    C3 8768   2.342   1.130  10.001  0.4885 -0.4048 -0.4795
  588TMC3    C4 8769   2.450   1.341  10.133  0.4920  0.0054  0.8061
  588TMC3    C5 8770   2.511   1.220  10.146  0.9359 -0.6794  0.2786
  588TMC3    C6 8771   2.449   1.108  10.090  0.1445 -0.1776 -0.6129
  588TMC3     C 8772   2.270   1.492  10.054 -0.3485 -0.3046  0.2410
  588TMC3     O 8773   2.158   1.500  10.014  0.0549 -0.5098 -0.0040
  588TMC3     H 8774   2.193   1.268   9.936 -0.1270 -1.1227 -0.2953
  588TMC3    H1 8775   2.487   1.416  10.203  0.4968  1.0668 -0.3292
  588TMC3    H2 8776   2.491   1.010  10.107  0.5384  0.6135  2.8902
  588TMC3    C7 8777   2.607   1.188  10.239  0.6200  0.5864 -0.3286
  588TMC3    C8 8778   2.271   1.020   9.940 -0.3405  0.1360 -0.1018
  588TMC3    O1 8779   2.605   1.082  10.300  0.1662  0.0003 -0.0038
  588TMC3    O2 8780   2.164   1.038   9.884  0.0863  0.1695  0.6193
  589TMC3    C1 8781   1.362   2.725   1.059 -0.8895 -0.4191  0.5250
  589TMC3    C2 8782   1.489   2.723   1.119  0.4146 -0.2013 -0.8740
  589TMC3    C3 8783   1.571   2.613   1.088  0.0249  0.1151  0.1340
  589TMC3    C4 8784   1.336   2.643   0.955  0.1478  0.5870 -0.0016
  589TMC3    C5 8785   1.429   2.548   0.918  0.4135 -0.5117 -0.2355
  589TMC3    C6 8786   1.538   2.519   0.994  0.5556  0.3717  0.4336
  589TMC3     C 8787   1.270   2.840   1.069 -0.3744  0.0765 -0.6489
  589TMC3     O 8788   1.149   2.821   1.050 -0.0287  0.1065 -0.5659
  589TMC3     H 8789   1.517   2.787   1.202  0.0956 -1.4496  0.2126
  589TMC3    H1 8790   1.239   2.647   0.907 -0.5154 -0.4010  1.2545
  589TMC3    H2 8791   1.609   2.443   0.962  0.4076  0.1416  0.6507
  589TMC3    C7 8792   1.409   2.474   0.798  0.4248 -0.3050 -0.0394
  589TMC3    C8 8793   1.717   2.625   1.126 -0.0300 -0.3396 -0.1777
  589TMC3    O1 8794   1.446   2.355   0.792 -0.2184 -0.2001 -0.0361
  589TMC3    O2 8795   1.763   2.739   1.145  0.4265 -0.1060  0.5170
  590MPD2     C 8796   0.741   2.005  16.624 -1.0978 -0.7948 -0.3981
  590MPD2    C1 8797   0.681   2.094  16.542  0.5888 -0.4512  0.6482
  590MPD2    C2 8798   0.759   2.165  16.454 -0.0519 -0.1873  0.1499
  590MPD2    C3 8799   0.898   2.130  16.440 -0.5794  0.3798  0.1860
  590MPD2    C4 8800   0.958   2.033  16.519  0.3190 -0.9070  0.4500
  590MPD2    C5 8801   0.874   1.973  16.614  0.1564  0.3818 -1.2033
  590MPD2     H 8802   0.717   2.247  16.398 -0.8858 -0.9663 -0.3743
  590MPD2    H1 8803   1.063   2.008  16.515  0.3786 -0.6076  0.0358
  590MPD2    H2 8804   0.681   1.959  16.701 -1.2252  0.0144 -0.0118
  590MPD2    H3 8805   0.906   1.899  16.685 -1.3789  0.5354 -0.3576
  590MPD2     N 8806   0.975   2.211  16.352 -0.3123 -0.6536 -0.1896
  590MPD2    H5 8807   0.929   2.292  16.310  1.9101  0.8646  0.2782
  590MPD2    N1 8808   0.545   2.116  16.556 -0.0441  0.4604  0.3940
  590MPD2    H7 8809   0.500   2.067  16.632  3.0011 -1.3988  0.9919
  591TMC3    C1 8810   1.156   2.282  16.216  0.2754  0.3564 -0.5857
  591TMC3    C2 8811   1.230   2.242  16.107 -0.2486 -0.1453  0.7044
  591TMC3    C3 8812   1.277   2.337  16.015 -0.6863 -0.3900 -0.1547
  591TMC3    C4 8813   1.116   2.407  16.221  0.6356 -0.9004 -0.9086
  591TMC3    C5 8814   1.172   2.500  16.138  0.6274 -0.4751 -0.0389
  591TMC3    C6 8815   1.243   2.470  16.029  0.7462  0.7578 -0.3442
  591TMC3     C 8816   1.102   2.185  16.303  0.6908 -0.1217 -0.1911
  591TMC3     O 8817   1.175   2.089  16.319  0.1321  0.4355 -0.1415
  591TMC3     H 8818   1.253   2.137  16.093  0.1067 -0.3008  2.5191
  591TMC3    H1 8819   1.058   2.437  16.308 -0.5920 -2.1135 -1.3108
  591TMC3    H2 8820   1.273   2.544  15.956  2.7904  1.0993  0.8214
  591TMC3    C7 8821   1.102   2.631  16.132 -0.6364 -0.6931 -0.0548
  591TMC3    C8 8822   1.334   2.279  15.894  0.6351  0.2881 -0.5600
  591TMC3    O1 8823   0.995   2.633  16.188  0.2886  0.4919  0.5266
  591TMC3    O2 8824   1.398   2.175  15.901  0.0270  0.2896 -0.0619
  592MPD2     C 8825   1.343   3.306  11.611  0.6395 -0.3079 -0.2016
  592MPD2    C1 8826   1.377   3.405  11.692  0.1929  0.3402  0.6551
  592MPD2    C2 8827   1.403   3.377  11.826  0.6628 -0.3705 -0.0943
  592MPD2    C3 8828   1.351   3.264  11.877 -0.3419  0.1886 -0.5750
  592MPD2    C4 8829   1.308   3.164  11.793  0.2263 -0.4133 -0.5717
  592MPD2    C5 8830   1.306   3.182  11.657  0.5309  0.1241 -0.3716
  592MPD2     H 8831   1.455   3.445  11.892  0.2163  0.9826 -1.1371
  592MPD2    H1 8832   1.273   3.066  11.826 -1.9184  0.6552  0.3037
  592MPD2    H2 8833   1.332   3.319  11.503 -1.0942  3.0710  0.3848
  592MPD2    H3 8834   1.295   3.100  11.588 -1.2945 -1.7455  2.1725
  592MPD2     N 8835   1.369   3.241  12.015 -0.1994 -0.0639  0.5296
  592MPD2    H5 8836   1.409   3.318  12.068 -0.7780  0.9792 -0.5492
  592MPD2    N1 8837   1.405   3.537  11.643  0.2675 -0.4282  0.0158
  592MPD2    H7 8838   1.409   3.558  11.544 -2.4563  1.7376  0.3449
  593TMC3    C1 8839   1.463   3.770  11.652  0.2670  0.4758  0.1670
  593TMC3    C2 8840   1.444   3.882  11.728 -0.3923 -1.0378  1.0850
  593TMC3    C3 8841   1.523   3.993  11.693 -1.0356 -0.0884  0.1794
  593TMC3    C4 8842   1.548   3.757  11.548  0.0945 -0.2246  0.2360
  593TMC3    C5 8843   1.627   3.863  11.518  0.2069  0.1022 -0.0457
  593TMC3    C6 8844   1.614   3.984  11.590 -0.2435 -0.1657  0.5259
  593TMC3     C 8845   1.427   3.650  11.724  0.5500 -0.3216 -0.5849
  593TMC3     O 8846   1.407   3.664  11.844 -0.1595  0.0639  0.2284
  593TMC3     H 8847   1.375   3.895  11.812 -1.5933  1.5794 -0.3051
  593TMC3    H1 8848   1.573   3.659  11.510 -1.5616  0.0410 -1.5245
  593TMC3    H2 8849   1.665   4.075  11.560 -1.5972 -0.4417 -2.6938
  593TMC3    C7 8850   1.708   3.875  11.399  0.2894  0.1583 -0.3525
  593TMC3    C8 8851   1.522   4.111  11.774  0.4574  0.6019 -0.0913
  593TMC3    O1 8852   1.791   3.963  11.399  0.1149  0.5815 -0.1598
  593TMC3    O2 8853   1.424   4.146  11.841  0.1094 -0.4706 -0.3699
  594MPD2     C 8854   0.503   2.810  14.936 -0.4386  0.5744 -0.2958
  594MPD2    C1 8855   0.467   2.889  14.836 -0.4828  0.0658 -0.3439
  594MPD2    C2 8856   0.525   3.010  14.821 -0.8902 -0.1214 -0.4835
  594MPD2    C3 8857   0.637   3.049  14.894  0.2077  0.6443  0.5545
  594MPD2    C4 8858   0.683   2.955  14.989 -0.0093 -0.0129 -0.5414
  594MPD2    C5 8859   0.609   2.846  15.015 -0.7008  0.4380  0.0902
  594MPD2     H 8860   0.485   3.072  14.741  2.0359  0.1526 -1.7420
  594MPD2    H1 8861   0.767   2.981  15.052 -0.2643 -1.3702  0.3555
  594MPD2    H2 8862   0.462   2.709  14.942  1.8712 -0.3042  0.7108
  594MPD2    H3 8863   0.633   2.777  15.094 -2.4408 -2.7579 -2.1716
  594MPD2     N 8864   0.704   3.168  14.860 -0.1856  0.2776  0.5070
  594MPD2    H5 8865   0.664   3.236  14.797  0.0518 -0.4163 -0.3909
  594MPD2    N1 8866   0.362   2.842  14.754  0.7333 -0.7328 -0.2659
  594MPD2    H7 8867   0.319   2.753  14.777 -1.7789  0.1900 -1.2951
  595TMC3    C1 8868   1.008   3.519  14.890  0.4273 -0.2866  0.1857
  595TMC3    C2 8869   0.986   3.387  14.876  0.3682  0.2000 -0.1788
  595TMC3    C3 8870   0.860   3.342  14.862 -0.8884 -0.6499  0.1841
  595TMC3    C4 8871   0.918   3.616  14.894  0.4768  0.5030  0.6794
  595TMC3    C5 8872   0.786   3.574  14.876 -0.0109  0.4026  0.2990
  595TMC3    C6 8873   0.760   3.436  14.872 -0.4234  0.0473  1.3927
  595TMC3     C 8874   1.133   3.572  14.828 -0.3852  0.1499 -0.6262
  595TMC3     O 8875   1.168   3.685  14.855  0.5008  0.3356  0.2592
  595TMC3     H 8876   1.067   3.315  14.882  0.6536  0.4213 -1.3628
  595TMC3    H1 8877   0.942   3.719  14.919  0.0499  1.0259 -1.0078
  595TMC3    H2 8878   0.656   3.410  14.862  0.4157 -1.6926 -2.8946
  595TMC3    C7 8879   0.674   3.660  14.908 -0.0349  0.4024 -0.1818
  595TMC3    C8 8880   0.833   3.203  14.889 -0.5869  0.3456 -0.4056
  595TMC3    O1 8881   0.568   3.606  14.937  0.0909 -0.0794  0.0949
  595TMC3    O2 8882   0.925   3.134  14.935 -0.0038  0.2205 -0.1302
  596MPD2     C 8883   4.010   0.671  16.596 -0.4091 -0.5367 -0.4230
  596MPD2    C1 8884   4.006   0.807  16.565  0.6803  0.4333  0.2092
  596MPD2    C2 8885   4.005   0.848  16.434 -0.0449  0.3180  0.9592
  596MPD2    C3 8886   3.989   0.748  16.340  0.1978  0.4685  0.2652
  596MPD2    C4 8887   3.998   0.612  16.368 -0.3527  0.7753  0.9413
  596MPD2    C5 8888   4.004   0.576  16.498  0.5746 -0.0554 -0.0187
  596MPD2     H 8889   3.993   0.953  16.412 -0.3848  0.1298  0.2414
  596MPD2    H1 8890   3.997   0.534  16.293  1.4374  0.4465  1.2469
  596MPD2    H2 8891   4.022   0.633  16.697 -0.7037 -0.5608 -0.3990
  596MPD2    H3 8892   4.019   0.473  16.529  0.0385  0.3572  1.5976
  596MPD2     N 8893   3.955   0.779  16.207  0.0293 -0.5466 -0.5702
  596MPD2    H5 8894   3.938   0.697  16.149  0.4269  0.4772 -2.1307
  596MPD2    N1 8895   3.997   0.911  16.664 -0.6808  0.1800 -0.9261
  596MPD2    H7 8896   3.980   1.003  16.625  2.4880  0.7988 -0.8419
  597TMC3    C1 8897   3.952   1.037  16.850 -0.1917 -0.6748 -0.8284
  597TMC3    C2 8898   4.024   1.135  16.789 -0.1619  0.2829 -0.0572
  597TMC3    C3 8899   4.004   1.258  16.847  0.5068  0.3017  0.6070
  597TMC3    C4 8900   3.874   1.050  16.956 -0.3631  0.5023 -0.7097
  597TMC3    C5 8901   3.855   1.181  17.001 -0.5499 -1.1466 -0.6525
  597TMC3    C6 8902   3.908   1.292  16.940  0.1333  0.4785  0.2710
  597TMC3     C 8903   3.963   0.903  16.797  1.1973  0.2534 -0.3152
  597TMC3     O 8904   3.935   0.807  16.870  0.1196  0.1745  0.2919
  597TMC3     H 8905   4.095   1.128  16.707  0.9987  2.0272  0.7995
  597TMC3    H1 8906   3.821   0.964  16.994  0.2462  0.7651  0.7498
  597TMC3    H2 8907   3.906   1.390  16.987  0.3651  0.4289  0.3807
  597TMC3    C7 8908   3.737   1.205  17.073  0.3622  0.0090 -0.2577
  597TMC3    C8 8909   4.098   1.362  16.810  0.3274 -0.5025  0.2095
  597TMC3    O1 8910   3.715   1.132  17.171 -0.1838  0.4076  0.5937
  597TMC3    O2 8911   4.213   1.334  16.781  0.3916  0.0926 -0.2633
  598TMC3    C1 8912   1.758   2.329  15.020 -0.7733 -0.3397  0.7612
  598TMC3    C2 8913   1.626   2.361  15.024 -0.4782  0.4298  0.5348
  598TMC3    C3 8914   1.583   2.488  15.008 -0.1342 -0.2120 -1.0873
  598TMC3    C4 8915   1.845   2.425  14.999  0.9176 -0.4263 -0.2760
  598TMC3    C5 8916   1.807   2.557  14.994  0.2422  0.0667 -0.2972
  598TMC3    C6 8917   1.677   2.591  14.986  0.1611  0.9836  0.0562
  598TMC3     C 8918   1.801   2.208  14.955  1.0192 -0.4980  0.0445
  598TMC3     O 8919   1.876   2.202  14.855 -0.0739  0.5123 -0.3593
  598TMC3     H 8920   1.552   2.284  15.035  0.3295 -0.4822 -0.4556
  598TMC3    H1 8921   1.947   2.393  14.981  0.1347 -2.7065 -0.6946
  598TMC3    H2 8922   1.642   2.693  14.981 -1.5058  0.4628  1.2695
  598TMC3    C7 8923   1.894   2.638  14.909  0.0845 -0.2305  0.9234
  598TMC3    C8 8924   1.446   2.533  14.984 -0.2021 -0.2014  0.0909
  598TMC3    O1 8925   1.837   2.667  14.803  0.0729  0.0356 -0.1081
  598TMC3    O2 8926   1.423   2.648  14.946 -1.0651  0.8825 -0.3521
  599MPD2     C 8927   1.653   4.467  15.355  0.0222 -0.1357 -0.3633
  599MPD2    C1 8928   1.751   4.493  15.449  0.0525 -0.2134  0.6323
  599MPD2    C2 8929   1.707   4.532  15.572  0.0587  0.3143 -0.0238
  599MPD2    C3 8930   1.575   4.538  15.610 -0.7017 -0.2052 -1.0568
  599MPD2    C4 8931   1.478   4.501  15.522  0.8695 -0.1175  0.5280
  599MPD2    C5 8932   1.521   4.473  15.393  0.2966  0.3529 -0.9533
  599MPD2     H 8933   1.780   4.561  15.647  1.2586 -0.3559 -0.9176
  599MPD2    H1 8934   1.372   4.498  15.546  0.6438  0.2884 -0.4232
  599MPD2    H2 8935   1.675   4.443  15.252  2.4424 -1.0980  0.3718
  599MPD2    H3 8936   1.452   4.443  15.314 -0.3488 -0.4469 -0.0785
  599MPD2     N 8937   1.537   4.574  15.738 -0.0303 -0.6436 -0.4634
  599MPD2    H5 8938   1.444   4.540  15.760  0.0097 -0.9187 -0.7139
  599MPD2    N1 8939   1.891   4.477  15.419 -0.0787 -0.1715 -0.0165
  599MPD2    H7 8940   1.914   4.444  15.327  2.0309 -0.9022  0.7780
  600TMC3    C1 8941   1.545   4.675  15.955  0.2441  0.6364  0.5326
  600TMC3    C2 8942   1.443   4.595  15.992  0.0194  0.1922 -0.4735
  600TMC3    C3 8943   1.383   4.633  16.116 -0.1730  0.0055 -0.0671
  600TMC3    C4 8944   1.587   0.050  16.022 -0.0641 -0.0915 -0.0072
  600TMC3    C5 8945   1.521   0.079  16.139 -0.0590  0.0140  0.1054
  600TMC3    C6 8946   1.425   4.733  16.192  0.5998 -0.3206  0.1842
  600TMC3     C 8947   1.605   4.655  15.826 -0.0644 -0.5918 -0.3792
  600TMC3     O 8948   1.714   4.709  15.803  0.6780  0.2329 -0.3864
  600TMC3     H 8949   1.418   4.500  15.946  0.6950 -1.1415  1.9229
  600TMC3    H1 8950   1.659   0.116  15.974 -0.5865  0.8266  0.4613
  600TMC3    H2 8951   1.357   0.029  16.268 -2.4073  0.8236 -3.0369
  600TMC3    C7 8952   1.537   0.208  16.198 -0.4081 -0.4657 -0.7070
  600TMC3    C8 8953   1.289   4.536  16.173 -0.5389  1.0937 -0.1980
  600TMC3    O1 8954   1.484   0.218  16.310 -0.0067  0.1263 -0.3701
  600TMC3    O2 8955   1.294   4.524  16.293  0.3918 -0.0502  0.2674
  601MPD2     C 8956   4.185   3.093   0.099  1.3295  0.4445  0.2641
  601MPD2    C1 8957   4.048   3.074   0.095  0.1551  1.1038  0.3040
  601MPD2    C2 8958   3.992   2.973   0.179  0.2232 -0.3812  0.4250
  601MPD2    C3 8959   4.076   2.888   0.245  0.0077 -0.3569  0.7793
  601MPD2    C4 8960   4.212   2.898   0.229 -0.3648  0.1300 -0.5368
  601MPD2    C5 8961   4.267   3.000   0.161 -0.1117  0.2770 -0.1294
  601MPD2     H 8962   3.887   2.949   0.177  0.2123 -0.3091  0.1624
  601MPD2    H1 8963   4.283   2.821   0.254  0.3203  1.1459  0.6751
  601MPD2    H2 8964   4.244   3.155   0.033  1.6392  0.8732  0.9445
  601MPD2    H3 8965   4.375   3.002   0.152  0.0586 -1.2149  1.3753
  601MPD2     N 8966   4.026   2.775   0.310  0.3852 -0.1503 -0.1181
  601MPD2    H5 8967   4.093   2.719   0.362  1.2521  1.3027  0.3135
  601MPD2    N1 8968   3.953   3.159   0.030  0.5542 -0.1019 -0.3390
  601MPD2    H7 8969   3.854   3.153   0.052  0.5382 -0.9089 -0.6374
  602TMC3    C1 8970   3.881   3.364  17.703  0.6625  0.5022  0.0185
  602TMC3    C2 8971   3.912   3.495  17.686  0.4017  0.6288 -0.4907
  602TMC3    C3 8972   3.839   3.578  17.611 -0.1011 -0.2032 -0.5446
  602TMC3    C4 8973   3.782   3.310  17.621  0.3351  0.0881  0.3718
  602TMC3    C5 8974   3.701   3.402  17.548  0.2020  0.2625  0.5548
  602TMC3    C6 8975   3.726   3.531  17.545  0.2099 -0.1034 -0.0931
  602TMC3     C 8976   3.989   3.276  17.732  0.2125 -0.2311  0.2949
  602TMC3     O 8977   4.097   3.322  17.706  0.1128 -0.5814  0.8576
  602TMC3     H 8978   3.997   3.536  17.740  0.4199 -0.5504  0.3666
  602TMC3    H1 8979   3.753   3.206  17.620  0.5980  0.0178 -0.1680
  602TMC3    H2 8980   3.666   3.605  17.494 -0.2652  0.6064  1.4902
  602TMC3    C7 8981   3.617   3.352  17.439  0.3908 -0.0604 -0.3374
  602TMC3    C8 8982   3.909   3.696  17.555  0.6029 -0.3749 -0.5802
  602TMC3    O1 8983   3.559   3.239  17.447 -0.1842 -0.1311  0.0475
  602TMC3    O2 8984   4.015   3.733  17.603 -0.5125 -0.7060  0.6777
  603TMC3    C1 8985   2.160   3.355  10.874 -0.3099 -0.5309 -0.5756
  603TMC3    C2 8986   2.247   3.356  10.980  0.1790 -0.0819  0.1689
  603TMC3    C3 8987   2.385   3.366  10.958  0.1906 -0.3974 -0.2773
  603TMC3    C4 8988   2.216   3.365  10.749  0.1207 -0.3915  0.7753
  603TMC3    C5 8989   2.347   3.378  10.732  0.8846 -0.1588 -1.1459
  603TMC3    C6 8990   2.434   3.371  10.834  0.0954 -0.2679  0.8249
  603TMC3     C 8991   2.019   3.321  10.878  0.5812  0.3611  0.2090
  603TMC3     O 8992   1.956   3.310  10.772 -0.2227  0.1747  0.0050
  603TMC3     H 8993   2.206   3.353  11.081  0.3991 -0.4789  0.2476
  603TMC3    H1 8994   2.149   3.351  10.665  1.1730 -0.5547 -0.0408
  603TMC3    H2 8995   2.535   3.408  10.821  1.0379 -2.6590  1.3864
  603TMC3    C7 8996   2.407   3.374  10.598  0.2003 -0.0894  0.0932
  603TMC3    C8 8997   2.476   3.346  11.070 -0.2543 -0.4244  0.3725
  603TMC3    O1 8998   2.531   3.348  10.593 -0.6813  0.4804 -0.3782
  603TMC3    O2 8999   2.430   3.388  11.174 -0.1732  0.0496 -0.4321
  604MPD2     C 9000   3.134   2.274  16.294 -0.5493  0.1216 -0.8258
  604MPD2    C1 9001   3.051   2.292  16.188 -0.2246 -0.4180  0.3146
  604MPD2    C2 9002   3.084   2.248  16.058  0.2974 -0.1081 -0.2651
  604MPD2    C3 9003   3.212   2.214  16.030  0.4368  0.0022 -0.3222
  604MPD2    C4 9004   3.305   2.204  16.139  0.6031  0.0302 -0.0034
  604MPD2    C5 9005   3.263   2.236  16.268  0.0573  0.1389  0.9513
  604MPD2     H 9006   3.010   2.252  15.979 -1.2794 -1.1209  1.1767
  604MPD2    H1 9007   3.409   2.181  16.120  0.7072  0.0746  0.5055
  604MPD2    H2 9008   3.107   2.301  16.396 -2.9491 -2.9973 -0.6382
  604MPD2    H3 9009   3.336   2.248  16.347  0.0435  0.7151  0.8766
  604MPD2     N 9010   3.257   2.188  15.899 -0.0310 -0.4199 -0.0550
  604MPD2    H5 9011   3.177   2.186  15.837  0.8337  1.2968 -1.2110
  604MPD2    N1 9012   2.922   2.341  16.223 -0.1540 -0.2581  0.4933
  604MPD2    H7 9013   2.896   2.387  16.309  1.0802  0.4436  0.4941
  605TMC3    C1 9014   2.733   2.460  16.203  0.8851  0.5013  0.4080
  605TMC3    C2 9015   2.805   2.555  16.260 -0.1694  0.0992  0.5059
  605TMC3    C3 9016   2.732   2.662  16.303  0.4474  0.3421  0.0353
  605TMC3    C4 9017   2.598   2.466  16.185  0.4089  0.5863  0.6489
  605TMC3    C5 9018   2.532   2.573  16.234 -0.0383  0.3344  0.5151
  605TMC3    C6 9019   2.597   2.669  16.303  0.7336  0.0798 -0.0689
  605TMC3     C 9020   2.816   2.363  16.137 -0.3587  0.1007 -0.1365
  605TMC3     O 9021   2.785   2.325  16.029 -0.6994  0.0072 -0.7823
  605TMC3     H 9022   2.913   2.565  16.252 -0.2064  0.6497  0.7336
  605TMC3    H1 9023   2.550   2.380  16.138  1.2443  1.3595 -1.6159
  605TMC3    H2 9024   2.544   2.751  16.350  1.5364 -0.1453  1.2034
  605TMC3    C7 9025   2.402   2.612  16.183 -0.3557 -0.1746  0.2786
  605TMC3    C8 9026   2.812   2.772  16.365 -0.4672  0.6526  0.3434
  605TMC3    O1 9027   2.352   2.710  16.234  0.2340  0.1204  0.1601
  605TMC3    O2 9028   2.925   2.738  16.382 -0.5101 -0.0020  1.0837
  606TMC3    C1 9029   3.748   1.187   0.184  0.0809  0.1842 -0.5365
  606TMC3    C2 9030   3.783   1.088   0.278  0.5666  0.1804  0.9523
  606TMC3    C3 9031   3.754   0.961   0.251 -0.1665  0.7066 -0.1634
  606TMC3    C4 9032   3.711   1.153   0.060  0.7057  0.2401  0.6093
  606TMC3    C5 9033   3.686   1.014   0.031  0.0975  0.0670 -0.0776
  606TMC3    C6 9034   3.714   0.920   0.120 -0.3895 -0.1327 -0.2403
  606TMC3     C 9035   3.784   1.327   0.218 -0.2133 -0.5050 -0.1004
  606TMC3     O 9036   3.838   1.395   0.132 -0.7611 -0.1184  0.2613
  606TMC3     H 9037   3.807   1.118   0.380  0.9076  0.3166  0.8328
  606TMC3    H1 9038   3.693   1.227  17.738 -0.7476  1.6106  2.2398
  606TMC3    H2 9039   3.710   0.816   0.093  1.9356 -0.5230  0.8662
  606TMC3    C7 9040   3.735   0.984  17.650  0.3394 -0.5409  0.5587
  606TMC3    C8 9041   3.790   0.861   0.346 -0.0844  0.5797  0.4823
  606TMC3    O1 9042   3.804   1.073  17.595 -0.3198 -0.0701  0.1095
  606TMC3    O2 9043   3.877   0.898   0.422  0.1830  0.0291  1.0715
  607MPD2     C 9044   1.848   3.440  11.447  0.7585 -0.2223 -0.6051
  607MPD2    C1 9045   1.915   3.549  11.482  0.1484  0.2462  0.4552
  607MPD2    C2 9046   1.881   3.607  11.598 -0.1103 -0.2079  0.2628
  607MPD2    C3 9047   1.793   3.554  11.695  0.4550  0.4293  0.1852
  607MPD2    C4 9048   1.734   3.438  11.658 -0.8564 -0.6505 -0.0694
  607MPD2    C5 9049   1.753   3.390  11.532  0.0485  0.1300  0.3532
  607MPD2     H 9050   1.935   3.697  11.625  0.9755 -0.8666  0.2732
  607MPD2    H1 9051   1.663   3.386  11.721 -0.1368  0.7728  1.9015
  607MPD2    H2 9052   1.859   3.382  11.357 -1.0714  1.0693 -1.6573
  607MPD2    H3 9053   1.695   3.300  11.511 -1.5793  1.0924  0.7557
  607MPD2     N 9054   1.795   3.612  11.824  0.0376 -0.5471  0.3920
  607MPD2    H5 9055   1.844   3.700  11.833  1.2790 -1.4404  2.5111
  607MPD2    N1 9056   2.019   3.605  11.409  0.2379 -0.0865 -0.5006
  607MPD2    H7 9057   2.077   3.673  11.456  0.6221 -0.8089  0.0627
  608TMC3    C1 9058   2.199   3.628  11.260  0.0855  0.2672 -0.1788
  608TMC3    C2 9059   2.264   3.679  11.370 -0.7104 -0.1832  0.0940
  608TMC3    C3 9060   2.359   3.767  11.344  0.5033  0.2324  0.4107
  608TMC3    C4 9061   2.224   3.656  11.129  0.5094 -0.4178 -0.9000
  608TMC3    C5 9062   2.335   3.736  11.112 -0.1033  0.0318  0.0134
  608TMC3    C6 9063   2.401   3.800  11.217  0.2209  0.1025 -0.6122
  608TMC3     C 9064   2.070   3.562  11.291  0.2062  0.1693 -0.5538
  608TMC3     O 9065   2.037   3.471  11.217  0.0484  0.5578  0.2251
  608TMC3     H 9066   2.248   3.636  11.468 -1.2725 -0.1248  0.0313
  608TMC3    H1 9067   2.151   3.628  11.054  0.1645  0.7002 -0.9776
  608TMC3    H2 9068   2.489   3.861  11.201  0.0443  0.7319  0.7733
  608TMC3    C7 9069   2.365   3.774  10.977 -0.3583  0.1428 -0.4113
  608TMC3    C8 9070   2.422   3.813  11.461  0.6764  0.3205 -0.4781
  608TMC3    O1 9071   2.318   3.696  10.900 -0.0594 -0.0948  0.0214
  608TMC3    O2 9072   2.546   3.816  11.458 -0.0868  0.4344  0.5002
  609TMC3    C1 9073   0.207   2.784   9.339  0.1484  0.1956 -0.2372
  609TMC3    C2 9074   0.132   2.789   9.226  0.1597  0.8148 -0.1196
  609TMC3    C3 9075   0.128   2.668   9.158 -0.2324 -0.9300 -0.2866
  609TMC3    C4 9076   0.272   2.672   9.380  0.7017 -0.2249  0.2400
  609TMC3    C5 9077   0.259   2.561   9.309  0.0611  0.3261  0.2635
  609TMC3    C6 9078   0.187   2.552   9.196  0.3907  0.1635  0.2936
  609TMC3     C 9079   0.221   2.904   9.417 -0.5057 -0.0498 -0.2595
  609TMC3     O 9080   0.304   2.906   9.506  0.1568 -0.5796 -0.3990
  609TMC3     H 9081   0.095   2.877   9.175  0.9545  0.5941 -1.0778
  609TMC3    H1 9082   0.343   2.678   9.462 -0.8976  1.6133  1.4902
  609TMC3    H2 9083   0.181   2.463   9.135 -1.2239  0.6001 -0.1948
  609TMC3    C7 9084   0.344   2.451   9.354  0.0889  0.5667  0.2701
  609TMC3    C8 9085   0.113   2.675   9.014  0.3947  0.0199  1.2933
  609TMC3    O1 9086   0.451   2.485   9.401 -0.0657  0.0371 -0.1125
  609TMC3    O2 9087   0.175   2.591   8.950 -0.4941  0.5420 -0.5019
  610TMC3    C1 9088   2.424   3.646  12.479  1.0091  0.4256  0.1044
  610TMC3    C2 9089   2.476   3.650  12.356  0.2243 -0.6247  0.0819
  610TMC3    C3 9090   2.594   3.597  12.336  0.1658 -0.2766  0.0009
  610TMC3    C4 9091   2.476   3.577  12.586 -0.2267 -0.6228  0.0485
  610TMC3    C5 9092   2.590   3.512  12.560  0.1405  0.3220  0.0696
  610TMC3    C6 9093   2.650   3.519  12.436 -0.6845  0.4948  0.5028
  610TMC3     C 9094   2.316   3.742  12.507  0.2901  0.8017  0.3934
  610TMC3     O 9095   2.322   3.836  12.433  0.2082 -0.2105 -0.5019
  610TMC3     H 9096   2.440   3.718  12.280  0.8374  0.7497  1.0061
  610TMC3    H1 9097   2.442   3.604  12.685 -0.1312 -0.8505  0.1418
  610TMC3    H2 9098   2.748   3.476  12.417 -1.5423 -1.7234  1.0933
  610TMC3    C7 9099   2.661   3.439  12.664  0.3104  0.4874  0.3128
  610TMC3    C8 9100   2.684   3.641  12.227  0.0849  0.2343  1.0393
  610TMC3    O1 9101   2.595   3.378  12.745 -0.2582 -0.7469  0.2874
  610TMC3    O2 9102   2.795   3.673  12.257  0.4834 -0.3737  0.0530
  611MPD2     C 9103   1.503   2.862  10.064  0.5220  0.3173 -0.7943
  611MPD2    C1 9104   1.459   2.997  10.065  0.8011  0.0959  0.6701
  611MPD2    C2 9105   1.535   3.094   9.999  0.0556  0.1288 -0.0079
  611MPD2    C3 9106   1.664   3.065   9.950  0.7972 -0.2923 -0.2407
  611MPD2    C4 9107   1.704   2.936   9.965  0.0055 -0.3328  0.1006
  611MPD2    C5 9108   1.625   2.838  10.021 -0.5770  0.2621 -0.7367
  611MPD2     H 9109   1.495   3.192   9.976  0.0402  0.6148  2.1027
  611MPD2    H1 9110   1.797   2.901   9.922 -0.5550 -1.9391  0.1874
  611MPD2    H2 9111   1.430   2.788  10.097 -0.7012  0.1507 -3.7878
  611MPD2    H3 9112   1.656   2.734  10.010  2.1085  0.8870  0.7910
  611MPD2     N 9113   1.759   3.153   9.889 -0.2278 -0.0339 -0.2284
  611MPD2    H5 9114   1.855   3.121   9.885 -0.7087 -1.5466  0.2628
  611MPD2    N1 9115   1.339   3.018  10.132 -0.9300  0.1994 -0.0096
  611MPD2    H7 9116   1.289   2.941  10.177  1.2056 -2.0675 -1.5200
  612TMC3    C1 9117   1.835   3.357   9.810 -0.1424  0.0837  0.4092
  612TMC3    C2 9118   1.955   3.336   9.878  0.7660  0.7338 -0.4069
  612TMC3    C3 9119   2.062   3.412   9.829 -0.4094 -0.7029 -0.1459
  612TMC3    C4 9120   1.816   3.439   9.704 -0.2423 -1.0405  0.0551
  612TMC3    C5 9121   1.931   3.495   9.651 -0.4308 -0.0306  0.3292
  612TMC3    C6 9122   2.051   3.484   9.714 -0.2115  0.1672 -0.0107
  612TMC3     C 9123   1.722   3.273   9.842 -0.1746 -0.7407  0.0372
  612TMC3     O 9124   1.611   3.314   9.820 -0.3726  0.4545 -0.1277
  612TMC3     H 9125   1.963   3.280   9.971  2.2002  1.7773  0.0918
  612TMC3    H1 9126   1.715   3.462   9.672  0.2221  1.0375  0.1201
  612TMC3    H2 9127   2.130   3.540   9.665  0.4237 -0.6746  0.0597
  612TMC3    C7 9128   1.908   3.613   9.567 -0.0136  0.3093  0.5840
  612TMC3    C8 9129   2.191   3.402   9.890 -0.7022  0.3653 -0.3353
  612TMC3    O1 9130   1.997   3.698   9.559  0.2345 -0.3158  0.5044
  612TMC3    O2 9131   2.297   3.410   9.821  0.6883 -0.3722  0.1505
  613MPD2     C 9132   0.266   1.497  16.994  0.1047 -0.9646  0.4300
  613MPD2    C1 9133   0.261   1.508  16.854  0.7535  0.1137 -0.0933
  613MPD2    C2 9134   0.191   1.416  16.783  0.2345  0.4018 -0.2247
  613MPD2    C3 9135   0.126   1.310  16.844 -0.0433 -0.4133  0.0678
  613MPD2    C4 9136   0.121   1.297  16.981 -0.2200  0.3720  0.2647
  613MPD2    C5 9137   0.182   1.401  17.053 -0.0240 -0.0454 -0.5899
  613MPD2     H 9138   0.207   1.403  16.677  0.0500  2.4862 -0.5057
  613MPD2    H1 9139   0.071   1.215  17.031 -0.8322  0.8843  0.4902
  613MPD2    H2 9140   0.306   1.577  17.055  0.8627 -0.6796 -0.4420
  613MPD2    H3 9141   0.179   1.401  17.161 -0.4837  0.1305 -0.6035
  613MPD2     N 9142   0.079   1.199  16.776  0.7285  0.3028  0.3006
  613MPD2    H5 9143   0.070   1.119  16.839  2.2350  0.1752  0.3484
  613MPD2    N1 9144   0.348   1.607  16.799 -0.1360  0.3195 -0.2368
  613MPD2    H7 9145   0.410   1.653  16.865 -1.0708  1.1789  0.0462
  614TMC3    C1 9146   0.471   1.685  16.606 -0.3467  0.3393  0.2585
  614TMC3    C2 9147   0.578   1.595  16.600  0.2857  0.6027 -0.6387
  614TMC3    C3 9148   0.637   1.568  16.483 -1.6396  0.3680  0.6831
  614TMC3    C4 9149   0.452   1.767  16.500 -0.7413 -0.1109 -0.9981
  614TMC3    C5 9150   0.517   1.738  16.385 -0.4187  0.6099 -0.8222
  614TMC3    C6 9151   0.611   1.645  16.369 -0.4971  0.1014  0.3066
  614TMC3     C 9152   0.346   1.635  16.660  0.2386  0.0676  0.8366
  614TMC3     O 9153   0.255   1.616  16.585  0.8866  0.6860 -0.6309
  614TMC3     H 9154   0.588   1.522  16.679  2.4642 -0.8400 -2.2626
  614TMC3    H1 9155   0.360   1.824  16.504  0.7222  2.3016 -1.8233
  614TMC3    H2 9156   0.666   1.639  16.277 -1.2977 -0.8217 -0.1102
  614TMC3    C7 9157   0.454   1.792  16.268  0.6224 -0.1880  0.3054
  614TMC3    C8 9158   0.661   1.426  16.459  0.0109 -0.1798 -0.8080
  614TMC3    O1 9159   0.405   1.904  16.279 -0.7163 -0.5582 -0.3176
  614TMC3    O2 9160   0.666   1.347  16.552 -0.4541 -0.1252  0.0367
  615MPD2     C 9161   0.296   2.536  16.279  0.2075  0.0880  0.0395
  615MPD2    C1 9162   0.195   2.624  16.273  0.2249 -0.1123 -0.4484
  615MPD2    C2 9163   0.140   2.653  16.151  0.3778  0.8363  1.1886
  615MPD2    C3 9164   0.200   2.601  16.034 -0.0595 -0.0247 -0.2401
  615MPD2    C4 9165   0.308   2.515  16.044  0.4491 -0.1754 -0.5663
  615MPD2    C5 9166   0.350   2.478  16.170 -0.4973 -0.0836 -0.2308
  615MPD2     H 9167   0.046   2.706  16.150  0.6717  1.3534  1.0865
  615MPD2    H1 9168   0.352   2.468  15.957  0.5733  1.8543 -1.6085
  615MPD2    H2 9169   0.354   2.516  16.369  2.0278  2.5253 -0.5614
  615MPD2    H3 9170   0.430   2.405  16.167  1.6149  2.1718  0.9297
  615MPD2     N 9171   0.149   2.631  15.903 -0.3602  0.4680 -0.4874
  615MPD2    H5 9172   0.178   2.566  15.830 -1.1733 -0.1848 -0.2309
  615MPD2    N1 9173   0.129   2.683  16.389  0.2574  0.6491 -0.3000
  615MPD2    H7 9174   0.052   2.745  16.366 -0.5853  0.0345  0.8340
  616TMC3    C1 9175   0.106   2.763  16.604 -1.0511 -0.6095  0.4816
  616TMC3    C2 9176   0.188   2.837  16.691  0.0285 -1.0186  0.7895
  616TMC3    C3 9177   0.129   2.932  16.771  0.0679  0.0598  0.6165
  616TMC3    C4 9178   4.712   2.776  16.603  0.4720  0.1349  1.1561
  616TMC3    C5 9179   4.654   2.852  16.699  0.3254 -0.2001 -0.0309
  616TMC3    C6 9180   4.730   2.934  16.776 -0.4934  0.1963  0.2446
  616TMC3     C 9181   0.177   2.672  16.515  0.5712 -0.2968  0.4696
  616TMC3     O 9182   0.272   2.611  16.557  0.1274  0.7076 -0.4228
  616TMC3     H 9183   0.296   2.827  16.683  0.0755  1.1520 -1.4541
  616TMC3    H1 9184   4.651   2.721  16.533 -0.4211  0.7241  1.4824
  616TMC3    H2 9185   4.680   2.993  16.852  0.4831  1.0541  0.2329
  616TMC3    C7 9186   4.525   2.918  16.664  0.3208  0.4163  0.1935
  616TMC3    C8 9187   0.196   3.043  16.823 -0.5257  1.1448 -0.1052
  616TMC3    O1 9188   4.513   3.042  16.668  0.3337  0.1154  0.1200
  616TMC3    O2 9189   0.124   3.139  16.839 -0.5319 -0.2739 -0.0710
  617MPD2     C 9190   3.077   0.738  13.781  0.4948 -0.6053  0.0286
  617MPD2    C1 9191   3.112   0.658  13.888 -0.1419  0.2289 -0.0991
  617MPD2    C2 9192   3.012   0.599  13.962  0.3140 -0.2178 -0.3535
  617MPD2    C3 9193   2.881   0.617  13.915  0.3212  0.1746 -0.0358
  617MPD2    C4 9194   2.847   0.691  13.805 -0.2748  0.2998  0.0419
  617MPD2    C5 9195   2.949   0.760  13.741  0.7675  0.1939  0.0453
  617MPD2     H 9196   3.035   0.537  14.047 -0.6144 -2.4620 -1.7350
  617MPD2    H1 9197   2.742   0.702  13.778  0.1644  0.0079 -1.7767
  617MPD2    H2 9198   3.152   0.795  13.727  0.2167 -0.3679 -0.1016
  617MPD2    H3 9199   2.926   0.813  13.649 -0.9267  1.0032  0.9351
  617MPD2     N 9200   2.773   0.548  13.969 -0.0672 -0.6112  0.3455
  617MPD2    H5 9201   2.688   0.547  13.914  2.0335 -1.3076 -2.8839
  617MPD2    N1 9202   3.245   0.641  13.921 -0.1735  0.7078 -0.4967
  617MPD2    H7 9203   3.310   0.688  13.858  0.2323  0.7936 -0.0126
  618TMC3    C1 9204   3.434   0.550  14.023 -0.2118 -0.3128  0.0620
  618TMC3    C2 9205   3.484   0.426  14.000 -0.3763  0.3116 -0.4131
  618TMC3    C3 9206   3.616   0.414  13.954 -0.0929 -0.2133  0.3966
  618TMC3    C4 9207   3.505   0.663  13.987  0.0838  0.2188  0.3321
  618TMC3    C5 9208   3.639   0.645  13.950 -0.7059 -0.4203 -0.3619
  618TMC3    C6 9209   3.702   0.523  13.936 -0.5583 -0.8873  0.5840
  618TMC3     C 9210   3.292   0.559  14.018  0.1905  0.4422  0.0814
  618TMC3     O 9211   3.234   0.471  14.079  0.0225  0.0599 -0.4609
  618TMC3     H 9212   3.417   0.341  14.004 -2.3364  1.8286 -1.3846
  618TMC3    H1 9213   3.458   0.761  13.998  0.5035  0.5010 -0.4384
  618TMC3    H2 9214   3.806   0.523  13.905 -0.0125 -2.7166  2.4188
  618TMC3    C7 9215   3.698   0.767  13.896  0.7547  0.5638  0.3690
  618TMC3    C8 9216   3.658   0.283  13.911  0.3613 -0.2517 -0.4339
  618TMC3    O1 9217   3.689   0.867  13.967  0.0584  0.4098  0.1723
  618TMC3    O2 9218   3.578   0.190  13.919  0.1230 -0.0373  0.0814
  619MPD2     C 9219   4.013   2.011  13.626 -0.7621 -0.1527  0.0878
  619MPD2    C1 9220   3.924   2.039  13.525  0.3689  0.5841  0.1721
  619MPD2    C2 9221   3.788   2.046  13.548  0.1231 -0.1041  0.4844
  619MPD2    C3 9222   3.741   2.015  13.677  0.1839  0.7246  0.5904
  619MPD2    C4 9223   3.827   1.960  13.772 -0.5805 -0.0417  0.0940
  619MPD2    C5 9224   3.964   1.965  13.747  0.0741 -0.2117 -1.1279
  619MPD2     H 9225   3.724   2.077  13.466  0.0544  3.8346  2.0107
  619MPD2    H1 9226   3.794   1.933  13.872  0.4203  0.7285  0.6245
  619MPD2    H2 9227   4.120   2.026  13.616 -0.8487 -0.0466 -0.7490
  619MPD2    H3 9228   4.038   1.929  13.817 -0.9652  0.2216  0.1984
  619MPD2     N 9229   3.602   2.028  13.712 -0.6057 -0.5647  0.0096
  619MPD2    H5 9230   3.582   1.992  13.805 -2.2340  0.9140  0.2202
  619MPD2    N1 9231   3.969   2.089  13.400 -0.8639 -0.6576 -0.0308
  619MPD2    H7 9232   3.902   2.132  13.337 -0.4610  0.6956  0.4464
  620TMC3    C1 9233   4.108   2.144  13.215 -0.5232  0.2750  0.1069
  620TMC3    C2 9234   4.010   2.234  13.174 -0.1566 -0.1683 -0.0819
  620TMC3    C3 9235   4.019   2.289  13.049 -0.6691 -0.2312  0.3636
  620TMC3    C4 9236   4.207   2.114  13.127 -0.1514  0.1130 -0.2612
  620TMC3    C5 9237   4.206   2.161  12.997 -0.6462 -0.5331 -0.2414
  620TMC3    C6 9238   4.114   2.250  12.964 -0.2087  1.1751  0.3040
  620TMC3     C 9239   4.102   2.089  13.350 -0.5203 -0.6822  0.6054
  620TMC3     O 9240   4.198   2.020  13.378 -0.4071 -0.1356  0.1775
  620TMC3     H 9241   3.944   2.280  13.247 -0.8087 -1.4632  0.1448
  620TMC3    H1 9242   4.280   2.050  13.174 -0.3610  0.6662  0.8217
  620TMC3    H2 9243   4.085   2.268  12.861 -2.3099  0.6382  0.8040
  620TMC3    C7 9244   4.334   2.204  12.948  0.4185  0.0225  0.1155
  620TMC3    C8 9245   3.960   2.423  13.035  0.2242  0.5094 -0.5919
  620TMC3    O1 9246   4.438   2.162  13.003  0.1132 -0.0591 -0.2028
  620TMC3    O2 9247   3.835   2.432  13.053  0.5665  0.6396  0.8844
  621MPD2     C 9248   4.506   2.125  10.014 -0.4288 -0.2239  0.1587
  621MPD2    C1 9249   4.573   2.152  10.124 -0.0382 -0.1620 -0.2993
  621MPD2    C2 9250   4.629   2.271  10.149 -0.8785 -0.3602 -0.4054
  621MPD2    C3 9251   4.603   2.371  10.065 -0.0958 -0.6475 -0.8981
  621MPD2    C4 9252   4.518   2.355   9.955  0.2324  0.5682 -0.5845
  621MPD2    C5 9253   4.473   2.229   9.930 -0.1561 -0.1238  0.9182
  621MPD2     H 9254   4.695   2.283  10.234 -1.8182 -2.3098  0.6277
  621MPD2    H1 9255   4.496   2.442   9.895 -0.1540  0.3207 -0.7991
  621MPD2    H2 9256   4.458   2.029   9.994  0.0611 -0.6221  0.9367
  621MPD2    H3 9257   4.404   2.222   9.846 -0.5191  1.7417  1.0509
  621MPD2     N 9258   4.675   2.487  10.089  0.4558 -0.2302 -0.7591
  621MPD2    H5 9259   0.006   2.486  10.161 -1.8464 -0.9983  1.4880
  621MPD2    N1 9260   4.602   2.051  10.219  0.0688 -0.6039  0.3140
  621MPD2    H7 9261   4.652   2.089  10.299  1.5464 -1.6459 -0.1265
  622TMC3    C1 9262   4.562   1.849  10.344  0.0488  0.5486 -0.8471
  622TMC3    C2 9263   4.572   1.927  10.457 -0.0693  0.0037 -0.4977
  622TMC3    C3 9264   4.482   1.904  10.560 -0.3622 -0.2932 -0.2778
  622TMC3    C4 9265   4.475   1.742  10.342 -0.4242 -0.1260 -0.5567
  622TMC3    C5 9266   4.368   1.738  10.429  0.2056  0.4816 -0.1344
  622TMC3    C6 9267   4.373   1.816  10.544 -0.3452 -0.4846 -0.3909
  622TMC3     C 9268   4.548   1.923  10.216 -0.2428 -0.0958 -0.4591
  622TMC3     O 9269   4.475   1.865  10.132 -0.2982 -0.1653  0.1324
  622TMC3     H 9270   4.638   2.013  10.458  0.7502 -0.6135 -1.3420
  622TMC3    H1 9271   4.488   1.678  10.256  1.8998 -0.6898  0.2284
  622TMC3    H2 9272   4.287   1.825  10.610  1.2319  2.3156  1.3027
  622TMC3    C7 9273   4.231   1.741  10.386 -0.3248 -0.6583 -0.3857
  622TMC3    C8 9274   4.443   2.018  10.635 -0.7350 -0.1010  0.0729
  622TMC3    O1 9275   4.154   1.693  10.467  1.1765 -0.2796 -0.2498
  622TMC3    O2 9276   4.323   2.032  10.656  0.2736  0.6584  0.0098
  623MPD2     C 9277   3.194   2.773  15.695 -0.0480  0.2731 -0.6300
  623MPD2    C1 9278   3.122   2.798  15.807 -0.3146  0.1100 -0.3175
  623MPD2    C2 9279   3.193   2.864  15.908 -0.1240  0.6072 -0.2828
  623MPD2    C3 9280   3.319   2.915  15.895 -0.1263 -0.5238 -0.5341
  623MPD2    C4 9281   3.387   2.903  15.779 -0.3965 -0.5867  0.1724
  623MPD2    C5 9282   3.327   2.831  15.684  0.0485  0.3194  0.1263
  623MPD2     H 9283   3.137   2.886  15.998  0.7374 -0.3985  0.5108
  623MPD2    H1 9284   3.490   2.936  15.772 -1.1044  0.8393 -3.2923
  623MPD2    H2 9285   3.146   2.734  15.606 -0.2025  1.0089 -0.8762
  623MPD2    H3 9286   3.379   2.825  15.589  1.0716  0.4307  0.6911
  623MPD2     N 9287   3.372   2.986  16.003  0.5692 -0.6363  0.0874
  623MPD2    H5 9288   3.307   3.001  16.079  2.4894 -0.8318  1.7794
  623MPD2    N1 9289   2.980   2.780  15.811  0.4267  0.9994  0.3126
  623MPD2    H7 9290   2.937   2.761  15.721  0.0831 -0.3879  0.7742
  624TMC3    C1 9291   3.546   3.098  16.370 -0.8069  0.1576 -0.1265
  624TMC3    C2 9292   3.427   3.156  16.414 -0.1226 -0.2634  0.8419
  624TMC3    C3 9293   3.337   3.182  16.313 -0.7733  0.3269 -0.2825
  624TMC3    C4 9294   3.575   3.073  16.240 -0.5029  0.0498  0.0337
  624TMC3    C5 9295   3.495   3.123  16.142 -0.5370  0.0486  0.3724
  624TMC3    C6 9296   3.374   3.174  16.182 -0.0054  0.4813  0.0196
  624TMC3     C 9297   3.619   3.013  16.465  0.6547 -0.2636  0.4808
  624TMC3     O 9298   3.616   3.030  16.583 -0.6748  0.2839  0.2760
  624TMC3     H 9299   3.402   3.158  16.520 -0.5985 -1.7821  0.7571
  624TMC3    H1 9300   3.673   3.045  16.205  0.3696  2.3980  0.6319
  624TMC3    H2 9301   3.304   3.210  16.107 -0.8874  0.5753  0.8753
  624TMC3    C7 9302   3.498   3.049  16.017 -0.5708  0.6996 -0.2052
  624TMC3    C8 9303   3.219   3.108  16.336 -0.3898  0.6201 -0.1739
  624TMC3    O1 9304   3.599   2.990  15.982 -0.3733 -0.3235 -0.7502
  624TMC3    O2 9305   3.189   3.039  16.240 -0.9866 -0.3965 -0.7966
  625MPD2     C 9306   3.652   3.440   0.636  0.0257 -0.8972  0.2226
  625MPD2    C1 9307   3.681   3.569   0.623  0.1215  0.6422  0.3874
  625MPD2    C2 9308   3.796   3.610   0.684 -0.1614  0.2569  0.2106
  625MPD2    C3 9309   3.884   3.525   0.748 -0.5650  0.3629  0.1340
  625MPD2    C4 9310   3.846   3.392   0.756  0.0128  0.3181 -0.2092
  625MPD2    C5 9311   3.731   3.349   0.704  0.2922 -0.0148  0.0963
  625MPD2     H 9312   3.810   3.718   0.690 -0.1160  0.3327 -1.3481
  625MPD2    H1 9313   3.905   3.318   0.808  0.5496  0.2988 -0.8374
  625MPD2    H2 9314   3.551   3.415   0.605 -0.2736 -0.0890  0.5683
  625MPD2    H3 9315   3.702   3.246   0.719  1.3239 -0.3682 -0.3412
  625MPD2     N 9316   4.013   3.564   0.801 -0.6804 -0.9894 -0.8045
  625MPD2    H5 9317   4.023   3.664   0.804  1.7264 -1.2650 -0.1850
  625MPD2    N1 9318   3.598   3.658   0.552 -0.1739 -0.1476 -0.3532
  625MPD2    H7 9319   3.615   3.755   0.575  0.1659  0.3720 -2.7845
  626TMC3    C1 9320   3.412   3.727   0.419  0.4291  0.1783 -0.4949
  626TMC3    C2 9321   3.360   3.728   0.295  0.2904 -0.2497  0.3086
  626TMC3    C3 9322   3.271   3.824   0.265 -0.3776  0.1944 -0.5025
  626TMC3    C4 9323   3.370   3.818   0.517 -0.2976  0.1536 -0.5753
  626TMC3    C5 9324   3.284   3.917   0.482 -0.2452 -0.4650  0.2162
  626TMC3    C6 9325   3.232   3.928   0.355 -0.3928 -0.8270 -0.1767
  626TMC3     C 9326   3.502   3.625   0.463  0.5856  0.1394  0.9400
  626TMC3     O 9327   3.486   3.517   0.411  0.4502 -0.2466 -0.5248
  626TMC3     H 9328   3.401   3.672   0.211 -0.9452 -1.6312  0.6319
  626TMC3    H1 9329   3.412   3.818   0.617  0.1351  0.7215 -0.7530
  626TMC3    H2 9330   3.174   4.011   0.316  0.5376 -0.4754 -0.8299
  626TMC3    C7 9331   3.222   3.992   0.590  1.1556  0.8333 -0.3630
  626TMC3    C8 9332   3.256   3.868   0.128  0.7971 -0.9472 -0.2020
  626TMC3    O1 9333   3.260   3.965   0.698  0.2207  0.2355  0.2077
  626TMC3    O2 9334   3.301   3.978   0.095 -0.1001  0.0722 -0.1285
  627MPD2     C 9335   2.292   4.040  14.627 -0.0173  0.5118  0.3412
  627MPD2    C1 9336   2.407   3.966  14.600 -0.3421 -0.5274 -0.4132
  627MPD2    C2 9337   2.397   3.841  14.546  0.0046  0.2464 -0.2409
  627MPD2    C3 9338   2.279   3.775  14.519  0.2517  0.5748 -0.0189
  627MPD2    C4 9339   2.166   3.845  14.553 -0.4686 -0.1836 -0.7466
  627MPD2    C5 9340   2.176   3.972  14.608 -0.7010 -0.6938 -0.4740
  627MPD2     H 9341   2.490   3.790  14.526 -0.2792 -0.9515  1.4716
  627MPD2    H1 9342   2.067   3.808  14.530 -0.7135  1.8469 -3.0101
  627MPD2    H2 9343   2.288   4.128  14.690 -0.3013  2.2984 -2.1857
  627MPD2    H3 9344   2.087   4.019  14.649 -0.9733  0.5524 -2.4890
  627MPD2     N 9345   2.283   3.650  14.440 -0.6138  0.0535 -0.2133
  627MPD2    H5 9346   2.371   3.623  14.399 -1.0280 -2.3974  0.5265
  627MPD2    N1 9347   2.536   4.026  14.619  0.6779  0.2717  0.4609
  627MPD2    H7 9348   2.621   3.976  14.595  0.9659 -0.2261  2.5566
  628TMC3    C1 9349   2.700   4.194  14.672  0.0313  1.0537 -0.2797
  628TMC3    C2 9350   2.775   4.120  14.760 -0.1072  0.3424 -0.1168
  628TMC3    C3 9351   2.854   4.179  14.855 -0.6641 -0.4508 -0.0222
  628TMC3    C4 9352   2.730   4.325  14.677 -0.8984 -0.3123  0.1900
  628TMC3    C5 9353   2.813   4.380  14.769 -0.1246 -0.4183 -0.3136
  628TMC3    C6 9354   2.892   4.305  14.849  0.4693  0.8079 -0.1447
  628TMC3     C 9355   2.563   4.161  14.630  0.2054 -0.2669 -0.6835
  628TMC3     O 9356   2.487   4.258  14.606 -0.2883  0.1270 -0.1441
  628TMC3     H 9357   2.749   4.016  14.774  0.1027  0.4330  1.0057
  628TMC3    H1 9358   2.669   4.384  14.609  0.4949  2.2957  1.1933
  628TMC3    H2 9359   2.938   4.350  14.936  0.9923  1.8757 -0.9879
  628TMC3    C7 9360   2.819   4.528  14.785  0.1568  0.4933  0.7612
  628TMC3    C8 9361   2.914   4.090  14.953  0.2027 -0.5068 -0.0387
  628TMC3    O1 9362   2.914   4.574  14.850 -0.0241 -0.2652  0.3206
  628TMC3    O2 9363   2.848   3.988  14.976 -0.4290 -0.0762 -0.2518
  629MPD2     C 9364   0.623   3.323  16.873 -0.5748 -0.9506 -0.0632
  629MPD2    C1 9365   0.647   3.198  16.817 -0.6712 -0.2316  0.4040
  629MPD2    C2 9366   0.550   3.101  16.816 -0.6120 -0.0497 -0.3848
  629MPD2    C3 9367   0.421   3.134  16.852  0.0371  0.1144 -0.5664
  629MPD2    C4 9368   0.391   3.258  16.884 -0.4241  0.0729 -0.1194
  629MPD2    C5 9369   0.493   3.349  16.905  0.3874  0.3018  0.9310
  629MPD2     H 9370   0.561   2.996  16.791 -0.9134 -0.5550  1.5996
  629MPD2    H1 9371   0.300   3.302  16.922  0.0419  1.6330 -0.7675
  629MPD2    H2 9372   0.699   3.390  16.912 -1.7537 -0.3384  1.1743
  629MPD2    H3 9373   0.477   3.440  16.961 -1.4746 -0.4394  1.5967
  629MPD2     N 9374   0.328   3.025  16.840 -0.1660 -0.2505 -0.2156
  629MPD2    H5 9375   0.366   2.939  16.802 -1.1234 -0.6519 -0.2683
  629MPD2    N1 9376   0.785   3.170  16.785  0.2288 -0.1698  0.1324
  629MPD2    H7 9377   0.855   3.239  16.810 -1.3401  1.2713  0.5607
  630TMC3    C1 9378   0.965   3.019  16.710  0.0289 -1.1489  0.7486
  630TMC3    C2 9379   1.039   3.115  16.659 -0.1503 -0.3576  0.2675
  630TMC3    C3 9380   1.175   3.116  16.680  0.0224  0.4483 -0.5819
  630TMC3    C4 9381   1.020   2.913  16.782 -0.4118  0.2374 -0.1063
  630TMC3    C5 9382   1.156   2.905  16.789  0.2492  0.1210 -0.3811
  630TMC3    C6 9383   1.232   3.012  16.737  0.8324  0.5753 -0.0236
  630TMC3     C 9384   0.829   3.045  16.735 -0.1407 -0.9419  0.4476
  630TMC3     O 9385   0.770   2.935  16.736 -0.3949  0.1287 -0.2813
  630TMC3     H 9386   0.990   3.203  16.618  1.1113  0.0235 -0.4157
  630TMC3    H1 9387   0.958   2.829  16.808  1.3038 -0.6128  1.2272
  630TMC3    H2 9388   1.340   3.000  16.725  0.8815 -0.3082  1.2761
  630TMC3    C7 9389   1.221   2.788  16.853 -0.0259  0.1034 -0.2791
  630TMC3    C8 9390   1.255   3.219  16.640  0.0880  0.3658 -0.9499
  630TMC3    O1 9391   1.146   2.693  16.875 -0.2050  0.2097 -0.2045
  630TMC3    O2 9392   1.330   3.266  16.724 -0.4228  0.1879  0.4924
  631MPD2     C 9393   4.050   2.705  15.480 -0.2102 -0.5592 -0.8080
  631MPD2    C1 9394   4.123   2.801  15.426  0.2653  0.0806 -0.0852
  631MPD2    C2 9395   4.261   2.786  15.429 -0.0732  0.3230 -0.1463
  631MPD2    C3 9396   4.326   2.677  15.487 -0.1951 -0.2074  0.5862
  631MPD2    C4 9397   4.248   2.583  15.548  0.1539  0.3989  0.4994
  631MPD2    C5 9398   4.106   2.595  15.546 -0.1408 -0.6689 -0.3857
  631MPD2     H 9399   4.327   2.866  15.396  0.8692 -1.3130 -2.2068
  631MPD2    H1 9400   4.303   2.508  15.603  1.2416 -0.4864 -1.8094
  631MPD2    H2 9401   3.942   2.703  15.466 -0.3709  0.3402  0.2824
  631MPD2    H3 9402   4.046   2.521  15.598 -3.1926  2.1744  0.0907
  631MPD2     N 9403   4.470   2.686  15.494  0.4647 -0.1836 -0.7397
  631MPD2    H5 9404   4.520   2.768  15.459 -1.4301  0.5194 -1.7853
  631MPD2    N1 9405   4.058   2.924  15.383 -0.1376  0.1063 -0.2193
  631MPD2    H7 9406   3.958   2.936  15.397  0.7157  2.2209  4.1418
  632TMC3    C1 9407   4.035   3.140  15.277  0.0354  0.4341  0.0140
  632TMC3    C2 9408   3.907   3.128  15.306  0.1056  0.2867 -0.0996
  632TMC3    C3 9409   3.818   3.195  15.226 -0.1481 -0.5329  0.4838
  632TMC3    C4 9410   4.079   3.204  15.165  0.5335 -0.7551 -0.8946
  632TMC3    C5 9411   3.989   3.258  15.082 -0.3621  0.3205  0.5164
  632TMC3    C6 9412   3.853   3.269  15.121  0.0254 -0.6081 -0.4514
  632TMC3     C 9413   4.118   3.027  15.315  0.4869 -0.5232 -0.1193
  632TMC3     O 9414   4.233   3.032  15.271 -0.3379 -0.2091  0.5193
  632TMC3     H 9415   3.869   3.071  15.391  0.8600 -0.2748 -0.1462
  632TMC3    H1 9416   4.185   3.222  15.149  0.6340  0.2467  0.9493
  632TMC3    H2 9417   3.786   3.304  15.044  0.6719  0.3329 -0.5913
  632TMC3    C7 9418   4.022   3.224  14.945 -1.0409  0.3337  0.4492
  632TMC3    C8 9419   3.692   3.217  15.288 -0.4265 -0.1795 -0.4239
  632TMC3    O1 9420   3.966   3.284  14.853 -0.1881  0.4506  0.2946
  632TMC3    O2 9421   3.673   3.180  15.401 -0.2437 -0.0143  0.5314
  633MPD2     C 9422   3.298   0.835  17.227  0.3047 -0.2650 -0.1535
  633MPD2    C1 9423   3.343   0.791  17.105 -0.9088  0.3507  0.3863
  633MPD2    C2 9424   3.342   0.655  17.081  0.0092 -0.4232  0.3068
  633MPD2    C3 9425   3.300   0.570  17.186  0.8458  0.3818  0.1684
  633MPD2    C4 9426   3.258   0.618  17.309  0.6932  0.1813 -0.1284
  633MPD2    C5 9427   3.253   0.752  17.328 -0.4450  0.2618 -0.0838
  633MPD2     H 9428   3.375   0.610  16.988 -1.7705 -1.9514  0.4132
  633MPD2    H1 9429   3.220   0.575  17.401 -0.2672  1.9154  0.2912
  633MPD2    H2 9430   3.321   0.938  17.253  0.2340 -0.3957  0.4321
  633MPD2    H3 9431   3.209   0.790  17.420 -0.3096  0.0125  0.0829
  633MPD2     N 9432   3.296   0.430  17.165  0.1272  0.0932 -0.2881
  633MPD2    H5 9433   3.319   0.391  17.074 -2.1304 -1.3099 -0.2705
  633MPD2    N1 9434   3.390   0.874  17.007  0.5654  0.2741 -0.2273
  633MPD2    H7 9435   3.427   0.830  16.924 -0.9953 -1.5843  0.0514
  634TMC3    C1 9436   3.447   1.054  16.885  0.2385 -0.3339  0.1761
  634TMC3    C2 9437   3.529   0.970  16.820 -0.0712  0.5022 -0.0759
  634TMC3    C3 9438   3.561   1.003  16.692 -0.1451 -0.8278  0.8206
  634TMC3    C4 9439   3.401   1.166  16.830 -1.1148 -0.5341  0.2968
  634TMC3    C5 9440   3.439   1.201  16.708  0.4715  0.4104 -0.6531
  634TMC3    C6 9441   3.516   1.118  16.629  0.0964  0.9272 -0.4944
  634TMC3     C 9442   3.377   1.008  17.001  0.2210 -0.4081 -0.2954
  634TMC3     O 9443   3.302   1.076  17.072  0.1816 -0.0490 -0.0234
  634TMC3     H 9444   3.582   0.890  16.869 -3.1030 -1.0559  0.6878
  634TMC3    H1 9445   3.325   1.224  16.882 -0.7021 -0.3756  0.7156
  634TMC3    H2 9446   3.558   1.152  16.535  1.6626 -0.3533 -0.2522
  634TMC3    C7 9447   3.391   1.325  16.657 -0.4518 -0.6054 -0.0137
  634TMC3    C8 9448   3.578   0.885  16.608  0.1124 -0.0533  0.2036
  634TMC3    O1 9449   3.393   1.331  16.532 -0.2381  0.0553  0.5330
  634TMC3    O2 9450   3.554   0.777  16.662  0.0881  0.5377 -0.6164
  635TMC3    C1 9451   3.446   1.669   0.305  0.0523 -0.0785 -0.2414
  635TMC3    C2 9452   3.436   1.592   0.191 -0.1766  0.4712  0.2381
  635TMC3    C3 9453   3.392   1.462   0.201  0.4244 -0.1372 -0.9808
  635TMC3    C4 9454   3.403   1.628   0.426  0.1200 -0.0021  0.0808
  635TMC3    C5 9455   3.346   1.501   0.432 -0.1139  0.2828  0.1227
  635TMC3    C6 9456   3.339   1.416   0.323  0.0651 -0.1843  0.4587
  635TMC3     C 9457   3.494   1.807   0.292  0.4112 -0.2441 -0.2001
  635TMC3     O 9458   3.457   1.881   0.381  0.2376 -0.0008  0.6012
  635TMC3     H 9459   3.481   1.626   0.099 -1.5630 -0.1703 -0.6728
  635TMC3    H1 9460   3.425   1.679   0.519 -0.0638  0.2325 -0.0062
  635TMC3    H2 9461   3.274   1.330   0.334  0.4050 -0.2383  2.0256
  635TMC3    C7 9462   3.344   1.438   0.562 -0.1178  0.0461 -0.7638
  635TMC3    C8 9463   3.388   1.377   0.081 -0.0500  0.7973  0.3863
  635TMC3    O1 9464   3.381   1.318   0.566 -0.5423 -0.0675  0.4336
  635TMC3    O2 9465   3.400   1.422  17.728 -0.1500 -0.0361 -0.2079
  636MPD2     C 9466   4.713   1.469  15.909  0.6850 -0.3367  0.0846
  636MPD2    C1 9467   4.675   1.504  16.033 -0.9760  0.1930  0.6670
  636MPD2    C2 9468   4.700   1.419  16.139  0.4640  0.5356  0.7087
  636MPD2    C3 9469   4.734   1.281  16.117 -0.1575  0.2562 -0.3251
  636MPD2    C4 9470   0.024   1.244  15.992 -0.0169  0.0457 -0.9267
  636MPD2    C5 9471   0.012   1.339  15.900 -0.2998  0.0283 -0.0634
  636MPD2     H 9472   4.688   1.447  16.244 -1.2305  0.6478  0.4825
  636MPD2    H1 9473   0.058   1.143  15.977 -0.8157 -0.4489  0.6476
  636MPD2    H2 9474   4.718   1.531  15.821 -1.4067  0.0722  0.2622
  636MPD2    H3 9475   0.022   1.300  15.799 -1.0853 -0.7231  0.1514
  636MPD2     N 9476   0.018   1.186  16.230  0.3898  0.1274 -0.0865
  636MPD2    H5 9477   4.737   1.219  16.323  0.7116 -0.2390  0.1190
  636MPD2    N1 9478   4.625   1.633  16.069  0.6868 -0.3344 -0.1651
  636MPD2    H7 9479   4.605   1.655  16.166 -0.1490  1.5843 -0.7743
  637TMC3    C1 9480   0.062   0.990  16.358  0.6673  0.0398  0.7195
  637TMC3    C2 9481   0.001   1.050  16.462 -0.8860 -0.3911 -0.0061
  637TMC3    C3 9482   0.059   1.051  16.588  0.0123  0.1148  0.0155
  637TMC3    C4 9483   0.181   0.934  16.379 -0.0907 -0.4028 -0.5662
  637TMC3    C5 9484   0.244   0.948  16.498  0.2153  0.7891 -0.2693
  637TMC3    C6 9485   0.186   0.997  16.608 -0.1706  0.0042  0.2921
  637TMC3     C 9486   0.061   1.048  16.224 -0.9225 -0.1461 -0.2776
  637TMC3     O 9487   0.091   0.980  16.125  0.3608  0.2293  0.1010
  637TMC3     H 9488   4.650   1.102  16.435 -2.4840 -2.6102  1.1403
  637TMC3    H1 9489   0.227   0.892  16.291  0.1259 -2.2801  0.4371
  637TMC3    H2 9490   0.241   1.016  16.700  1.7871  1.5876 -1.2076
  637TMC3    C7 9491   0.380   0.996  16.479 -0.7319 -0.8573  0.3709
  637TMC3    C8 9492   0.052   1.188  16.643 -0.6844  0.2396  0.4381
  637TMC3    O1 9493   0.425   1.064  16.571 -0.7175  0.1514 -0.6485
  637TMC3    O2 9494   0.038   1.282  16.568 -0.0929 -0.0422  0.2937
  638MPD2     C 9495   0.118   0.192  14.769  0.3466  0.6868  0.5691
  638MPD2    C1 9496   0.064   0.090  14.696  0.4136  0.7384  0.2206
  638MPD2    C2 9497   4.729   4.736  14.777 -0.2930  0.1921  0.0397
  638MPD2    C3 9498   4.726   0.003  14.911 -0.2853  0.1365  0.1476
  638MPD2    C4 9499   0.039   0.114  14.975 -0.4611  0.3054  0.5858
  638MPD2    C5 9500   0.101   0.208  14.899 -0.6881  0.6679 -0.0098
  638MPD2     H 9501   4.699   4.649  14.720 -4.3307  1.2168  0.5919
  638MPD2    H1 9502   0.054   0.121  15.082 -0.7883 -0.1708  0.6650
  638MPD2    H2 9503   0.172   0.270  14.718  0.6519 -0.3441 -0.6836
  638MPD2    H3 9504   0.151   0.295  14.941 -0.0649  0.4038 -0.1990
  638MPD2     N 9505   4.677   4.629  14.977 -0.2838 -0.3691 -0.2179
  638MPD2    H5 9506   4.641   4.554  14.918  1.4239 -1.7787  0.5294
  638MPD2    N1 9507   0.096   0.080  14.558  0.4595  0.3503  0.0551
  638MPD2    H7 9508   0.169   0.139  14.521  0.6184 -0.4083 -0.8428
  639TMC3    C1 9509   4.634   4.481  15.145  0.1267 -0.1636  0.5820
  639TMC3    C2 9510   4.520   4.435  15.093  0.0232 -0.0364 -0.1021
  639TMC3    C3 9511   4.469   4.320  15.149  0.2183  0.3463  0.0321
  639TMC3    C4 9512   4.709   4.407  15.223 -0.1160 -0.1722  0.5244
  639TMC3    C5 9513   4.661   4.282  15.260  0.1473  0.1032  0.1244
  639TMC3    C6 9514   4.535   4.237  15.234  0.1847  0.4371 -0.2348
  639TMC3     C 9515   4.692   4.607  15.110  0.0721  0.0692 -0.0431
  639TMC3     O 9516   0.007   4.674  15.199  0.9544 -0.3847 -1.0123
  639TMC3     H 9517   4.463   4.485  15.016  0.4193 -0.8919 -0.9634
  639TMC3    H1 9518   0.051   4.453  15.277  0.2765  0.5638 -0.6760
  639TMC3    H2 9519   4.504   4.139  15.268 -0.7002  0.4678 -0.9507
  639TMC3    C7 9520   0.009   4.192  15.325  0.1588  0.4729  0.7849
  639TMC3    C8 9521   4.375   4.258  15.063 -0.3928 -0.5527  0.3947
  639TMC3    O1 9522   4.699   4.119  15.409  0.1684  0.5591  0.6382
  639TMC3    O2 9523   4.374   4.288  14.944 -0.1153  0.3209 -0.1772
  640MPD2     C 9524   0.344   3.233  10.124  1.1526 -1.0813 -0.2685
  640MPD2    C1 9525   0.321   3.302  10.002  0.1869  0.4298 -0.3671
  640MPD2    C2 9526   0.227   3.401   9.996 -0.1782 -0.5437 -0.8576
  640MPD2    C3 9527   0.151   3.433  10.104 -0.0579  0.3514  0.4395
  640MPD2    C4 9528   0.180   3.371  10.227  0.1565 -0.4159  0.1911
  640MPD2    C5 9529   0.271   3.275  10.234 -0.0775  0.1738  0.2905
  640MPD2     H 9530   0.210   3.448   9.900 -2.0773  0.6732  0.0768
  640MPD2    H1 9531   0.119   3.389  10.315  1.1712 -0.8905  0.9901
  640MPD2    H2 9532   0.435   3.175  10.134  1.4322 -0.1895  2.2440
  640MPD2    H3 9533   0.293   3.224  10.328 -1.4435 -0.4966  0.2430
  640MPD2     N 9534   0.029   3.504  10.097  0.1819 -0.2382 -0.0538
  640MPD2    H5 9535   4.714   3.505  10.182 -3.0917 -2.6919 -2.1067
  640MPD2    N1 9536   0.404   3.253   9.895  0.0431 -0.7966 -0.6918
  640MPD2    H7 9537   0.459   3.170   9.911 -1.1248 -1.3458  0.4065
  641TMC3    C1 9538   0.507   3.250   9.683 -0.4142 -0.4064 -0.2081
  641TMC3    C2 9539   0.580   3.144   9.730  0.2050  0.2001  0.8758
  641TMC3    C3 9540   0.626   3.053   9.644  1.1881  0.5108 -0.2068
  641TMC3    C4 9541   0.490   3.274   9.551 -0.0910 -0.7178  0.9600
  641TMC3    C5 9542   0.536   3.179   9.467 -0.0864 -0.1522  0.2397
  641TMC3    C6 9543   0.615   3.075   9.506  0.0280 -0.4264  0.2617
  641TMC3     C 9544   0.414   3.313   9.772  0.4224 -0.5905 -0.3989
  641TMC3     O 9545   0.349   3.407   9.734  0.8864  0.2336 -0.0935
  641TMC3     H 9546   0.616   3.142   9.833  1.8753 -3.1998  0.2270
  641TMC3    H1 9547   0.429   3.355   9.512  0.6612  0.5239  2.3469
  641TMC3    H2 9548   0.672   3.012   9.438 -0.9278 -0.3849 -0.5864
  641TMC3    C7 9549   0.469   3.166   9.344 -0.1986 -0.1905 -0.7231
  641TMC3    C8 9550   0.722   2.943   9.684  0.4461  0.5335  0.4734
  641TMC3    O1 9551   0.397   3.256   9.303 -0.2166  0.0152 -0.2076
  641TMC3    O2 9552   0.777   2.878   9.599 -0.2678 -0.0306  0.4167
  642TMC3    C1 9553   1.561   4.285  12.124 -0.7588 -0.8446  0.7137
  642TMC3    C2 9554   1.648   4.369  12.179  0.7769 -0.5574  0.5140
  642TMC3    C3 9555   1.751   4.312  12.247 -0.7280 -0.1342  0.7903
  642TMC3    C4 9556   1.570   4.152  12.134  0.4254 -0.2184  0.2778
  642TMC3    C5 9557   1.672   4.104  12.205 -0.0064 -0.2262 -0.5672
  642TMC3    C6 9558   1.762   4.184  12.267 -0.1890 -0.3364  0.3644
  642TMC3     C 9559   1.433   4.340  12.140  0.5240  0.0646 -0.4828
  642TMC3     O 9560   1.422   4.461  12.141  0.1814  0.0186 -0.1885
  642TMC3     H 9561   1.633   4.472  12.149  0.9076 -0.9365 -0.8543
  642TMC3    H1 9562   1.498   4.093  12.080  0.7254 -1.2201  0.9771
  642TMC3    H2 9563   1.838   4.157  12.340 -1.3738 -0.9282  1.3984
  642TMC3    C7 9564   1.652   3.963  12.235 -1.1495  0.0375  0.6149
  642TMC3    C8 9565   1.858   4.406  12.284  0.2699  0.6352  1.2297
  642TMC3    O1 9566   1.574   3.901  12.165 -0.0179 -0.8237  0.0582
  642TMC3    O2 9567   1.965   4.350  12.290 -0.6192 -0.4500  0.5802
  643TMC3    C1 9568   0.858   3.416   0.120  0.0343  0.0890 -0.5763
  643TMC3    C2 9569   0.806   3.364   0.009 -0.6352  0.1916  0.2818
  643TMC3    C3 9570   0.801   3.435  17.647  0.3499  0.4676  0.5225
  643TMC3    C4 9571   0.937   3.530   0.118 -0.0688  0.0461 -0.5327
  643TMC3    C5 9572   0.961   3.582  17.745  0.2790  0.2317 -0.4890
  643TMC3    C6 9573   0.895   3.531  17.637  0.4685 -0.6713 -0.1616
  643TMC3     C 9574   0.812   3.358   0.246  0.2219 -0.6677 -0.1366
  643TMC3     O 9575   0.708   3.292   0.235  0.4247  0.2698  0.0077
  643TMC3     H 9576   0.743   3.276   0.007 -0.8292  0.3468 -0.5552
  643TMC3    H1 9577   0.971   3.580   0.208 -0.6000  0.7010 -0.7033
  643TMC3    H2 9578   0.904   3.585  17.543  0.4200  0.7328  0.6424
  643TMC3    C7 9579   0.967   3.727  17.723  0.3110 -0.3721 -0.2437
  643TMC3    C8 9580   0.664   3.472  17.602 -0.3490 -0.6492  0.0842
  643TMC3    O1 9581   0.871   3.780  17.665 -0.3394  0.0760 -0.7798
  643TMC3    O2 9582   0.576   3.386  17.605  0.0175 -0.1185  0.2603
  644MPD2     C 9583   0.082   4.012  10.131  0.4143  0.2739 -0.3502
  644MPD2    C1 9584   0.073   3.942  10.014 -0.3718  0.2028  0.6777
  644MPD2    C2 9585   4.686   3.944   9.954  0.0751  0.1780  0.4100
  644MPD2    C3 9586   4.578   4.006  10.007 -0.5510 -0.0848  0.1785
  644MPD2    C4 9587   4.596   4.090  10.123  0.1288 -0.7879  0.1829
  644MPD2    C5 9588   4.714   4.076  10.194 -0.1107 -0.2041  0.0613
  644MPD2     H 9589   4.658   3.890   9.865 -1.4835 -1.5719  1.9605
  644MPD2    H1 9590   4.514   4.148  10.162 -2.1825 -2.5268 -2.0631
  644MPD2    H2 9591   0.177   4.027  10.180  1.2292 -1.5526 -1.3598
  644MPD2    H3 9592   4.729   4.126  10.289  0.8174  1.1088 -0.7721
  644MPD2     N 9593   4.449   4.002   9.938 -0.3386 -0.1580  0.0033
  644MPD2    H5 9594   4.442   3.942   9.857  2.0346 -1.6297  0.8695
  644MPD2    N1 9595   0.186   3.885   9.957  0.7185  0.0402 -0.2312
  644MPD2    H7 9596   0.272   3.900  10.009  1.9189 -2.1283 -1.5552
  645TMC3    C1 9597   4.213   4.007   9.904 -0.6331  0.0683  0.1398
  645TMC3    C2 9598   4.221   4.020   9.769  0.0395  0.4969 -0.3666
  645TMC3    C3 9599   4.101   4.009   9.704  0.8756 -0.5328  0.3039
  645TMC3    C4 9600   4.097   3.997   9.974  0.1394  0.3708 -0.6009
  645TMC3    C5 9601   3.986   3.974   9.901 -0.0853  0.1093  0.1383
  645TMC3    C6 9602   3.978   3.987   9.772  0.3589  0.6447 -0.4321
  645TMC3     C 9603   4.332   4.037   9.991 -1.1124 -0.0619 -1.3974
  645TMC3     O 9604   4.308   4.066  10.107 -0.3339  0.0378  0.2383
  645TMC3     H 9605   4.319   4.017   9.722  0.5239  0.8785  0.6215
  645TMC3    H1 9606   4.100   3.959  10.076  3.4318  1.5521 -0.2585
  645TMC3    H2 9607   3.883   3.977   9.721 -0.2100  0.5201  0.6581
  645TMC3    C7 9608   3.866   3.945   9.975 -0.4456 -0.5657  0.5374
  645TMC3    C8 9609   4.107   4.022   9.561  0.1977 -0.9085  0.1390
  645TMC3    O1 9610   3.774   3.893   9.913  0.3661  0.4805  0.1497
  645TMC3    O2 9611   4.212   4.051   9.514  0.3945  0.2262  0.2587
  646MPD2     C 9612   0.173   3.642  14.763 -0.5682 -0.0763  0.2168
  646MPD2    C1 9613   0.080   3.548  14.816 -0.4121 -0.5008  0.1622
  646MPD2    C2 9614   4.688   3.551  14.766 -0.5019  0.4801 -0.3151
  646MPD2    C3 9615   4.655   3.636  14.658  0.7911 -0.6810  0.5620
  646MPD2    C4 9616   0.011   3.724  14.605  1.1119  0.6548  0.5269
  646MPD2    C5 9617   0.136   3.730  14.661 -0.7894 -0.4434 -0.1710
  646MPD2     H 9618   4.616   3.478  14.801 -0.4795  1.2320  1.2783
  646MPD2    H1 9619   4.725   3.798  14.531 -1.5834 -1.6071 -0.7998
  646MPD2    H2 9620   0.270   3.642  14.811 -0.1219  0.9693 -0.6921
  646MPD2    H3 9621   0.207   3.799  14.617 -0.2825 -0.2718  0.8942
  646MPD2     N 9622   4.521   3.640  14.610  0.2636  0.3080  0.7228
  646MPD2    H5 9623   4.452   3.600  14.673 -0.9931  0.1889 -0.7276
  646MPD2    N1 9624   0.126   3.451  14.912 -0.3008  0.2995  0.2216
  646MPD2    H7 9625   0.225   3.450  14.934 -0.5230 -2.2159  1.1538
  647TMC3    C1 9626   0.122   3.226  15.018  0.0807 -0.1689  0.6613
  647TMC3    C2 9627   0.076   3.096  15.008  0.0032 -0.3245  1.0566
  647TMC3    C3 9628   0.154   2.988  15.041 -0.0947  0.2040  0.6142
  647TMC3    C4 9629   0.245   3.244  15.070  0.2122 -0.7794 -0.0757
  647TMC3    C5 9630   0.322   3.142  15.106  0.8507 -1.0929  0.0487
  647TMC3    C6 9631   0.277   3.010  15.096 -0.0790  0.0879  0.1163
  647TMC3     C 9632   0.046   3.338  14.958 -0.8137 -0.6842  0.1814
  647TMC3     O 9633   4.664   3.304  14.935  0.2003 -0.1255  0.1040
  647TMC3     H 9634   4.713   3.078  14.977  0.2321 -0.9337  0.6546
  647TMC3    H1 9635   0.283   3.342  15.099 -1.7183 -0.2873  0.8110
  647TMC3    H2 9636   0.345   2.931  15.124 -0.8746 -0.1796  1.3208
  647TMC3    C7 9637   0.450   3.156  15.180  1.4216 -0.3555 -0.1137
  647TMC3    C8 9638   0.090   2.864  15.079  0.5353  0.3341 -0.0130
  647TMC3    O1 9639   0.484   3.056  15.240  0.1302 -0.1228 -0.4614
  647TMC3    O2 9640   0.169   2.791  15.130  0.5996  0.1568 -0.1725
  648TMC3    C1 9641   3.890   0.904  16.020 -0.2860  0.4764 -0.3292
  648TMC3    C2 9642   3.901   0.791  15.942  0.6063 -0.5701 -0.1986
  648TMC3    C3 9643   3.838   0.788  15.820  0.0736  0.2703  0.6437
  648TMC3    C4 9644   3.808   1.004  15.977 -0.5046 -0.7574  0.4685
  648TMC3    C5 9645   3.761   1.002  15.847 -0.1752 -0.2118  0.7070
  648TMC3    C6 9646   3.773   0.895  15.762  0.5939  0.1007 -0.0522
  648TMC3     C 9647   3.928   0.910  16.162 -0.1366  0.0216 -0.3808
  648TMC3     O 9648   3.926   1.017  16.216  0.0560  0.2237 -0.5162
  648TMC3     H 9649   3.951   0.703  15.980 -0.6994 -1.2436 -0.0278
  648TMC3    H1 9650   3.805   1.096  16.034  1.0878 -0.0083 -0.6816
  648TMC3    H2 9651   3.742   0.899  15.658  0.1696  1.6953  0.1301
  648TMC3    C7 9652   3.736   1.127  15.777  0.3853 -0.4186  0.7018
  648TMC3    C8 9653   3.857   0.687  15.730  0.8287  0.1807 -0.0721
  648TMC3    O1 9654   3.760   1.124  15.658 -0.1807 -0.5315  0.8093
  648TMC3    O2 9655   3.768   0.659  15.649 -0.7981  0.9164  0.3737
  649TMC3    C1 9656   2.917   2.181  12.517  0.2199 -0.3815 -0.0766
  649TMC3    C2 9657   3.043   2.200  12.558  0.1512 -0.4747 -0.5617
  649TMC3    C3 9658   3.083   2.171  12.686  0.5273 -0.1015  0.0941
  649TMC3    C4 9659   2.826   2.146  12.618 -0.4151  0.1397  0.6069
  649TMC3    C5 9660   2.866   2.114  12.745 -0.4732 -0.4388  0.1097
  649TMC3    C6 9661   2.996   2.130  12.780  0.1138 -0.3387  0.3591
  649TMC3     C 9662   2.858   2.260  12.412 -0.6241 -0.0216  0.1504
  649TMC3     O 9663   2.739   2.294  12.419 -0.2645  0.1677 -0.0178
  649TMC3     H 9664   3.110   2.254  12.492  2.0531  0.0183  1.7798
  649TMC3    H1 9665   2.720   2.151  12.597 -0.3898  1.7315  0.8514
  649TMC3    H2 9666   3.016   2.128  12.886  0.8247  1.5211  0.2782
  649TMC3    C7 9667   2.762   2.076  12.835 -0.4572 -0.4613 -0.6073
  649TMC3    C8 9668   3.217   2.217  12.735  0.2885 -0.1640 -0.0208
  649TMC3    O1 9669   2.791   2.079  12.954 -0.0311  0.2935  0.6248
  649TMC3    O2 9670   3.234   2.242  12.848 -0.4819 -0.7375 -0.1458
  650TMC3    C1 9671   1.063   3.709  12.831  0.6523  0.3124  0.4809
  650TMC3    C2 9672   1.033   3.842  12.862 -0.0051 -0.1379 -0.3892
  650TMC3    C3 9673   1.022   3.936  12.768  0.2957 -0.9148  0.0535
  650TMC3    C4 9674   1.090   3.673  12.704 -0.3924  0.2466 -0.4088
  650TMC3    C5 9675   1.067   3.770  12.609 -0.9666 -0.8657 -0.3187
  650TMC3    C6 9676   1.042   3.898  12.637 -0.1424 -0.6062  0.2679
  650TMC3     C 9677   1.088   3.615  12.942  0.8512  0.1356 -0.0342
  650TMC3     O 9678   1.149   3.659  13.040  0.1224  0.3029 -0.4922
  650TMC3     H 9679   0.990   3.864  12.959  1.3818 -1.2558  0.4948
  650TMC3    H1 9680   1.115   3.572  12.673 -0.1029 -0.2042  1.2502
  650TMC3    H2 9681   1.010   3.967  12.559 -0.5967 -0.9194  0.1787
  650TMC3    C7 9682   1.125   3.743  12.482  0.0852 -0.5524 -0.9101
  650TMC3    C8 9683   1.028   4.083  12.796 -0.0374  0.3060  0.7040
  650TMC3    O1 9684   1.227   3.674  12.484  0.2421 -0.2706 -0.3255
  650TMC3    O2 9685   1.047   4.147  12.693  0.1269 -0.4819  0.3229
  651MPD2     C 9686   4.616   0.527  11.019  0.2490 -0.0506 -0.1826
  651MPD2    C1 9687   4.569   0.654  11.002  0.6698  0.6959  0.4504
  651MPD2    C2 9688   4.653   0.747  10.944 -0.3976  0.0126 -0.6812
  651MPD2    C3 9689   0.040   0.709  10.894 -0.4097  0.5461  0.0561
  651MPD2    C4 9690   0.080   0.578  10.899 -0.6981  0.3484  0.6537
  651MPD2    C5 9691   0.002   0.491  10.967 -0.0608 -0.1011 -0.3550
  651MPD2     H 9692   4.624   0.849  10.919  0.2145  0.5932  1.0113
  651MPD2    H1 9693   0.173   0.547  10.854 -1.6956 -1.2140 -0.3387
  651MPD2    H2 9694   4.567   0.448  11.074  0.3516  0.9882  1.3752
  651MPD2    H3 9695   0.040   0.390  10.982  1.8736  0.4485 -1.5566
  651MPD2     N 9696   0.123   0.816  10.852 -0.0040  0.1724  0.1144
  651MPD2    H5 9697   0.087   0.908  10.873 -2.0609 -0.3718 -1.0314
  651MPD2    N1 9698   4.448   0.696  11.058  0.4247 -0.0919 -0.2597
  651MPD2    H7 9699   4.435   0.797  11.067 -1.7566 -0.4460  0.5364
  652TMC3    C1 9700   0.493   1.041  10.690  0.9086  0.4326 -0.6024
  652TMC3    C2 9701   0.441   0.939  10.768 -0.1828  0.7446  0.2852
  652TMC3    C3 9702   0.306   0.936  10.782  0.0428  0.0132 -0.3298
  652TMC3    C4 9703   0.409   1.139  10.635 -0.0421  0.7366 -0.0839
  652TMC3    C5 9704   0.274   1.126  10.663 -0.4350  0.5191  0.3594
  652TMC3    C6 9705   0.222   1.024  10.723  0.0893 -0.3228 -0.7596
  652TMC3     C 9706   0.637   1.042  10.661 -0.1553  0.4385  0.3897
  652TMC3     O 9707   0.703   0.954  10.713 -0.8985  0.0751  0.1053
  652TMC3     H 9708   0.496   0.856  10.810 -1.3703  0.3901  1.1711
  652TMC3    H1 9709   0.446   1.220  10.573  1.0481  1.7171  1.8511
  652TMC3    H2 9710   0.114   1.022  10.730  0.1659 -0.1322  0.3497
  652TMC3    C7 9711   0.184   1.232  10.619  0.7402  0.4824  0.4420
  652TMC3    C8 9712   0.249   0.802  10.801 -0.4355  0.0586  0.0915
  652TMC3    O1 9713   0.070   1.204  10.601  0.2146 -1.0017  0.3640
  652TMC3    O2 9714   0.318   0.705  10.768  0.1490 -0.2813 -0.1559
  653MPD2     C 9715   2.900   0.679  17.571  0.1326 -0.1588 -0.4182
  653MPD2    C1 9716   2.927   0.775  17.472 -0.2973 -0.9375  0.3895
  653MPD2    C2 9717   2.926   0.733  17.335  0.0243  0.1456 -0.7111
  653MPD2    C3 9718   2.899   0.607  17.302 -1.1813  0.3724  0.0097
  653MPD2    C4 9719   2.856   0.520  17.401 -0.1039 -0.1950 -0.1795
  653MPD2    C5 9720   2.865   0.551  17.532  0.3732 -0.2601  0.1886
  653MPD2     H 9721   2.936   0.807  17.257  2.4541 -0.6483 -1.1709
  653MPD2    H1 9722   2.820   0.419  17.381 -1.0146  0.2580 -0.8174
  653MPD2    H2 9723   2.911   0.692  17.678  0.2956 -3.3222 -0.0468
  653MPD2    H3 9724   2.841   0.473  17.603  2.7847 -0.9799  0.2132
  653MPD2     N 9725   2.901   0.578  17.161  0.1352 -0.1005  0.3006
  653MPD2    H5 9726   2.890   0.660  17.101 -0.8669  2.2092  3.6680
  653MPD2    N1 9727   2.970   0.913  17.494  0.1320  0.2652  0.1935
  653MPD2    H7 9728   2.995   0.977  17.419  0.1454  0.7294  0.5910
  654TMC3    C1 9729   2.838   0.458  16.963 -0.5986 -0.4998  0.3261
  654TMC3    C2 9730   2.874   0.561  16.884 -0.2351  0.4888 -0.3600
  654TMC3    C3 9731   2.835   0.565  16.758  0.3310 -0.0286 -0.4942
  654TMC3    C4 9732   2.778   0.343  16.915  0.4330 -0.1494  0.5952
  654TMC3    C5 9733   2.749   0.340  16.781  0.1531  0.2238 -0.3784
  654TMC3    C6 9734   2.772   0.453  16.706 -0.0077  0.1951  0.0249
  654TMC3     C 9735   2.872   0.453  17.107 -0.0708  0.3798 -0.5349
  654TMC3     O 9736   2.890   0.342  17.154  0.1742  0.3589  0.1018
  654TMC3     H 9737   2.923   0.648  16.926 -1.3075  0.1247  1.6268
  654TMC3    H1 9738   2.752   0.261  16.981  0.7360 -0.9472 -0.2952
  654TMC3    H2 9739   2.721   0.457  16.610 -1.8623  2.4418  1.1039
  654TMC3    C7 9740   2.766   0.222  16.704 -0.0820 -0.4247  0.1250
  654TMC3    C8 9741   2.832   0.689  16.691 -0.1966  0.9545  0.4029
  654TMC3    O1 9742   2.754   0.229  16.582  0.1108  0.1451 -0.2876
  654TMC3    O2 9743   2.792   0.787  16.755  0.5651  0.0435  0.1601
  655MPD2     C 9744   4.640   1.095  15.663  0.3780 -0.2914 -0.3482
  655MPD2    C1 9745   4.579   1.203  15.602 -0.3441 -0.7940 -0.3704
  655MPD2    C2 9746   4.600   1.215  15.465 -0.2144  0.5285  0.6238
  655MPD2    C3 9747   4.685   1.137  15.393  0.2847 -0.2495  0.0231
  655MPD2    C4 9748   4.739   1.029  15.455  0.0663 -0.7124  0.4771
  655MPD2    C5 9749   4.716   1.004  15.592  0.2272 -0.0317  0.4682
  655MPD2     H 9750   4.532   1.283  15.415 -1.1914 -0.0328  1.1828
  655MPD2    H1 9751   0.071   0.963  15.406 -0.3881 -0.6066 -0.3399
  655MPD2    H2 9752   4.634   1.081  15.770 -2.0219 -1.6865 -0.6680
  655MPD2    H3 9753   0.012   0.924  15.656 -0.5124 -2.3608 -2.0406
  655MPD2     N 9754   4.699   1.151  15.253  0.4013  0.2652 -0.1563
  655MPD2    H5 9755   0.000   1.073  15.203 -0.4922 -0.9647  1.0597
  655MPD2    N1 9756   4.484   1.287  15.661  0.3627  0.1176 -0.0189
  655MPD2    H7 9757   4.446   1.359  15.601 -0.2661  0.2986  0.5892
  656TMC3    C1 9758   4.339   1.372  15.821  0.0440  0.2020  0.0212
  656TMC3    C2 9759   4.233   1.335  15.894  0.0761 -0.0171 -0.5709
  656TMC3    C3 9760   4.149   1.434  15.925  0.4205  0.4350  0.3890
  656TMC3    C4 9761   4.364   1.505  15.780  0.0977  0.5047 -0.2875
  656TMC3    C5 9762   4.263   1.598  15.804  0.0181 -0.1851 -0.1024
  656TMC3    C6 9763   4.149   1.562  15.879  0.0641 -0.4237 -0.2600
  656TMC3     C 9764   4.432   1.272  15.788  0.6236  0.5723  0.4302
  656TMC3     O 9765   4.442   1.171  15.857  0.0724 -0.2477 -0.2455
  656TMC3     H 9766   4.233   1.239  15.945  1.6616  0.8310  1.0524
  656TMC3    H1 9767   4.447   1.537  15.720  0.7350 -0.1104  0.2694
  656TMC3    H2 9768   4.064   1.630  15.883  1.0995  0.9292 -1.6235
  656TMC3    C7 9769   4.232   1.689  15.688 -1.0740 -0.1182  0.5542
  656TMC3    C8 9770   4.034   1.406  16.009 -0.1374 -0.0502 -0.3945
  656TMC3    O1 9771   4.310   1.673  15.593 -0.3228  0.0023 -0.0873
  656TMC3    O2 9772   4.004   1.288  16.028  0.1238 -0.1202  0.1247
  657TMC3    C1 9773   3.824   0.861  14.633 -0.4214  0.7819  0.0320
  657TMC3    C2 9774   3.825   0.850  14.770  0.2661  0.1138 -0.7211
  657TMC3    C3 9775   3.728   0.915  14.843  0.0010 -0.2861  0.1830
  657TMC3    C4 9776   3.721   0.929  14.571  0.3822  0.5569 -0.8514
  657TMC3    C5 9777   3.624   0.988  14.644 -0.2631  0.2784  0.7213
  657TMC3    C6 9778   3.631   0.988  14.782 -0.3901  0.2758  0.2373
  657TMC3     C 9779   3.937   0.828  14.559 -0.3729 -0.1976  0.1545
  657TMC3     O 9780   3.945   0.869  14.443 -0.6308 -0.6556 -0.7156
  657TMC3     H 9781   3.913   0.811  14.820  0.3892 -0.3868 -1.3194
  657TMC3    H1 9782   3.721   0.944  14.464 -0.7206  1.4730 -0.7216
  657TMC3    H2 9783   3.553   1.034  14.842  1.4262  1.5488  1.6026
  657TMC3    C7 9784   3.520   1.062  14.584  1.0814  0.2603  0.1038
  657TMC3    C8 9785   3.722   0.903  14.988 -0.8794  0.2980 -0.6317
  657TMC3    O1 9786   3.499   1.052  14.463 -0.6730 -0.7790  0.2787
  657TMC3    O2 9787   3.645   0.982  15.043  0.0080 -0.1815  0.1446
  658MPD2     C 9788   0.400   0.944  14.820 -0.4276  0.3076 -0.5639
  658MPD2    C1 9789   0.291   0.989  14.746 -0.4550  0.0852 -0.2266
  658MPD2    C2 9790   0.297   0.961  14.615  0.8765 -0.4961  0.4243
  658MPD2    C3 9791   0.392   0.883  14.557  0.4265 -1.3463  0.3754
  658MPD2    C4 9792   0.507   0.845  14.627  1.0969  0.0974  0.1725
  658MPD2    C5 9793   0.511   0.883  14.761  0.0468 -0.2714  0.7985
  658MPD2     H 9794   0.216   0.993  14.549  0.5485 -0.0484  1.0458
  658MPD2    H1 9795   0.584   0.783  14.582 -0.8474 -1.7128 -0.6088
  658MPD2    H2 9796   0.398   0.966  14.926 -1.8271 -2.7737  0.0457
  658MPD2    H3 9797   0.593   0.849  14.823  0.4931 -0.4014  0.1378
  658MPD2     N 9798   0.355   0.839  14.431  0.2847 -0.5676 -0.5110
  658MPD2    H5 9799   0.270   0.868  14.385 -0.2781  1.8981  2.1189
  658MPD2    N1 9800   0.193   1.065  14.806  0.1602  1.1822 -0.4912
  658MPD2    H7 9801   0.222   1.099  14.897 -2.4343 -0.2901  0.8804
  659TMC3    C1 9802   4.723   1.176  14.829 -0.0873 -0.9537  0.4878
  659TMC3    C2 9803   4.729   1.163  14.968  0.5958 -0.1910  0.4045
  659TMC3    C3 9804   4.620   1.205  15.035  0.7225 -0.3776  0.0313
  659TMC3    C4 9805   4.616   1.230  14.762 -0.7032 -0.1937 -0.6048
  659TMC3    C5 9806   4.508   1.253  14.842  0.4039  0.0104  0.3133
  659TMC3    C6 9807   4.505   1.240  14.977 -0.4563 -0.0096 -0.0714
  659TMC3     C 9808   0.074   1.106  14.744  0.5053  0.5443 -0.3748
  659TMC3     O 9809   0.035   1.093  14.631 -0.1668 -0.1852 -0.1922
  659TMC3     H 9810   0.081   1.130  15.014  0.5313 -0.8146  0.0853
  659TMC3    H1 9811   4.604   1.244  14.655  3.9970 -0.3916 -1.1452
  659TMC3    H2 9812   4.422   1.272  15.039  0.6071  1.0762  0.7851
  659TMC3    C7 9813   4.376   1.278  14.788 -0.0454 -0.2987 -0.0542
  659TMC3    C8 9814   4.627   1.237  15.175  0.2555 -0.4087 -0.6126
  659TMC3    O1 9815   4.288   1.294  14.870 -0.7853 -0.4517  0.1535
  659TMC3    O2 9816   4.561   1.335  15.211 -0.4559 -0.0070  0.0280
  660MPD2     C 9817   2.503   4.320  12.459 -0.6984 -0.0034  0.1102
  660MPD2    C1 9818   2.376   4.367  12.444  0.1293 -0.0109 -0.4208
  660MPD2    C2 9819   2.291   4.361  12.552  0.6757 -0.2004  0.5498
  660MPD2    C3 9820   2.335   4.324  12.673 -0.6664  0.0103 -0.2189
  660MPD2    C4 9821   2.465   4.284  12.691  0.4883 -0.3664 -1.3156
  660MPD2    C5 9822   2.547   4.289  12.586 -0.6529 -0.3664 -0.4179
  660MPD2     H 9823   2.193   4.403  12.534  1.4550  1.1815 -0.3996
  660MPD2    H1 9824   2.503   4.246  12.786  0.2356 -0.6288 -1.3193
  660MPD2    H2 9825   2.575   4.311  12.378  0.9719  0.4953  1.5528
  660MPD2    H3 9826   2.649   4.253  12.597 -0.8119 -1.5739 -2.8682
  660MPD2     N 9827   2.252   4.332  12.784 -0.0537 -0.0602  0.1613
  660MPD2    H5 9828   2.297   4.308  12.872 -1.0932 -1.5926  0.2709
  660MPD2    N1 9829   2.333   4.424  12.325 -0.7082  0.2696 -0.0792
  660MPD2    H7 9830   2.232   4.430  12.325 -0.6966  0.4477  0.4557
  661TMC3    C1 9831   2.333   4.530  12.111  0.2927 -0.4850 -0.3395
  661TMC3    C2 9832   2.410   4.617  12.032 -0.1017 -0.2958 -0.3088
  661TMC3    C3 9833   2.348   4.710  11.955  0.0630  0.1649  0.4144
  661TMC3    C4 9834   2.195   4.530  12.105 -0.3644 -0.3488 -0.2291
  661TMC3    C5 9835   2.143   4.616  12.014  0.2366  0.3489  0.0899
  661TMC3    C6 9836   2.214   4.704  11.939  0.1367  0.4753  0.2199
  661TMC3     C 9837   2.406   4.465  12.219  0.2737 -1.0252  0.0175
  661TMC3     O 9838   2.526   4.490  12.228 -0.1738  0.0443  0.2503
  661TMC3     H 9839   2.517   4.615  12.045  0.0419 -0.9713 -1.5602
  661TMC3    H1 9840   2.123   4.469  12.157 -0.7179  1.1898  1.1246
  661TMC3    H2 9841   2.160   0.021  11.864 -2.0668  1.6733  2.6918
  661TMC3    C7 9842   2.002   4.615  11.982 -0.0437 -0.0090 -0.5106
  661TMC3    C8 9843   2.425   0.078  11.893  0.4064 -0.3367  0.0290
  661TMC3    O1 9844   1.959   4.726  11.958 -0.9332  0.0995  0.5378
  661TMC3    O2 9845   2.530   0.040  11.843 -0.0103  0.2490 -0.1270
  662MPD2     C 9846   2.494   4.254  17.145 -1.1473  0.1108 -0.4111
  662MPD2    C1 9847   2.390   4.193  17.206  0.0108  0.1114 -0.3639
  662MPD2    C2 9848   2.276   4.276  17.224  0.4786  1.1211  0.1967
  662MPD2    C3 9849   2.264   4.409  17.180  0.3380  0.0784 -0.2805
  662MPD2    C4 9850   2.376   4.466  17.130  1.1474  0.4376 -0.0488
  662MPD2    C5 9851   2.484   4.389  17.114 -0.2626  0.0599  0.0853
  662MPD2     H 9852   2.188   4.230  17.267  3.1244 -0.8150  3.5634
  662MPD2    H1 9853   2.387   4.567  17.093  0.5577 -0.4876 -2.7048
  662MPD2    H2 9854   2.589   4.205  17.126  0.2747  2.4310  0.6199
  662MPD2    H3 9855   2.564   4.428  17.052  1.0051 -1.7274  0.5839
  662MPD2     N 9856   2.160   4.498  17.199  0.5551  0.2710  0.0582
  662MPD2    H5 9857   2.170   4.592  17.163  0.8654  0.4012  0.4855
  662MPD2    N1 9858   2.391   4.060  17.244 -0.0237  0.4399  0.5320
  662MPD2    H7 9859   2.306   4.008  17.264 -0.1375 -0.1523 -1.5580
  663TMC3    C1 9860   2.476   3.836  17.264  1.0360 -0.0734  0.2723
  663TMC3    C2 9861   2.346   3.794  17.265 -0.0552  0.1592  0.2804
  663TMC3    C3 9862   2.319   3.662  17.298 -0.1379 -0.2011 -0.1087
  663TMC3    C4 9863   2.570   3.760  17.326 -0.2339 -0.1253  0.3422
  663TMC3    C5 9864   2.536   3.636  17.368  0.1859 -0.4555 -1.1216
  663TMC3    C6 9865   2.406   3.592  17.373 -0.2579  0.0839 -0.3244
  663TMC3     C 9866   2.503   3.978  17.246 -0.1190 -0.3239  0.0483
  663TMC3     O 9867   2.619   4.017  17.241  0.0542 -0.1899  0.1953
  663TMC3     H 9868   2.263   3.835  17.209 -2.3314  0.4085  3.8071
  663TMC3    H1 9869   2.668   3.806  17.332 -0.3032  0.2469 -1.1575
  663TMC3    H2 9870   2.384   3.489  17.400  1.6129 -0.2660 -0.1439
  663TMC3    C7 9871   2.635   3.572  17.449  0.4141  0.0456  0.2735
  663TMC3    C8 9872   2.179   3.642  17.343  0.0111 -0.2335  0.3080
  663TMC3    O1 9873   2.697   3.646  17.526 -0.0698 -0.1577 -0.1530
  663TMC3    O2 9874   2.097   3.684  17.261 -0.0892  0.2454  0.0809
  664MPD2     C 9875   0.713   2.096  17.469  0.5552 -0.5671  0.7403
  664MPD2    C1 9876   0.810   2.142  17.552 -0.8313 -0.3193  0.6248
  664MPD2    C2 9877   0.781   2.147  17.690  0.5615  0.4104 -0.5606
  664MPD2    C3 9878   0.660   2.103  17.733 -0.1907 -0.1466 -0.6440
  664MPD2    C4 9879   0.557   2.064  17.653  0.5958 -0.2824  0.3799
  664MPD2    C5 9880   0.585   2.058  17.518  0.1527 -0.4478 -0.4035
  664MPD2     H 9881   0.849   2.193   0.006  1.1895 -0.3578 -0.6615
  664MPD2    H1 9882   0.463   2.021  17.687  0.2946  0.2107  0.1638
  664MPD2    H2 9883   0.729   2.108  17.363 -0.9471 -1.5731  0.4200
  664MPD2    H3 9884   0.516   2.008  17.451 -0.4780  1.3469 -1.0979
  664MPD2     N 9885   0.646   2.107   0.121  0.0582  0.2819  0.4873
  664MPD2    H5 9886   0.729   2.130   0.175  1.0264  1.2639 -1.4107
  664MPD2    N1 9887   0.937   2.190  17.508 -0.5166  0.0348 -0.1358
  664MPD2    H7 9888   0.995   2.241  17.574 -0.9846  0.9377 -0.4234
  665TMC3    C1 9889   0.543   2.082   0.335  0.2850 -0.3759  0.2747
  665TMC3    C2 9890   0.450   2.011   0.406  0.8002  0.6250 -0.2022
  665TMC3    C3 9891   0.466   2.010   0.550  0.0401 -0.2496  0.9047
  665TMC3    C4 9892   0.657   2.130   0.382  0.2578 -0.5360 -0.0402
  665TMC3    C5 9893   0.671   2.122   0.519  0.1422  0.2179  0.3541
  665TMC3    C6 9894   0.582   2.060   0.603 -0.0981  1.0438  0.4023
  665TMC3     C 9895   0.528   2.084   0.190 -1.0163 -0.4868  0.0049
  665TMC3     O 9896   0.420   2.038   0.147 -0.1837  0.7266 -0.6427
  665TMC3     H 9897   0.364   1.955   0.370  1.8897 -1.5547  0.5366
  665TMC3    H1 9898   0.726   2.195   0.329 -0.1248  0.3580  0.5444
  665TMC3    H2 9899   0.593   2.069   0.710 -1.7024 -1.8684  0.8126
  665TMC3    C7 9900   0.801   2.158   0.573  0.3461 -0.3587  0.3384
  665TMC3    C8 9901   0.359   1.983   0.644  0.4469  0.0207  0.5835
  665TMC3    O1 9902   0.895   2.185   0.495  0.4125  0.1259 -0.8815
  665TMC3    O2 9903   0.361   2.034   0.759 -0.0795 -0.7631 -0.0592
  666TMC3    C1 9904   4.736   2.715  10.059 -0.3342  0.2028 -0.0178
  666TMC3    C2 9905   0.116   2.686  10.116  0.4586  1.1239 -0.2248
  666TMC3    C3 9906   0.170   2.770  10.213  0.2460  0.5450  0.0453
  666TMC3    C4 9907   4.672   2.831  10.079  0.4864 -0.0060 -0.4571
  666TMC3    C5 9908   4.738   2.925  10.162  0.2397  0.0804  0.4228
  666TMC3    C6 9909   0.110   2.889  10.238 -0.4473  0.7688 -0.4824
  666TMC3     C 9910   4.649   2.606  10.028 -0.2922 -0.5261  0.0755
  666TMC3     O 9911   4.556   2.645   9.958 -0.2149 -0.6069 -0.0454
  666TMC3     H 9912   0.174   2.597  10.092  0.9520  1.8196 -1.5552
  666TMC3    H1 9913   4.571   2.842  10.041  0.2018  0.3136  0.3838
  666TMC3    H2 9914   0.159   2.956  10.307  2.1656 -1.3642 -0.2670
  666TMC3    C7 9915   4.656   3.034  10.216 -0.8095  0.3021  0.5422
  666TMC3    C8 9916   0.283   2.732  10.289 -0.4585 -0.5301  0.2137
  666TMC3    O1 9917   4.672   3.073  10.334 -0.1425  0.2349 -0.1323
  666TMC3    O2 9918   0.318   2.770  10.401 -0.3252  0.1372  0.3650
  667MPD2     C 9919   1.745   2.783  14.355  0.1718  0.4495  0.0962
  667MPD2    C1 9920   1.764   2.734  14.474 -0.4451 -0.0197  0.2722
  667MPD2    C2 9921   1.719   2.607  14.504  0.0782  0.1328  0.1263
  667MPD2    C3 9922   1.639   2.534  14.414 -0.8779  0.3094  0.1338
  667MPD2    C4 9923   1.617   2.589  14.289  0.8663 -0.3483 -1.5258
  667MPD2    C5 9924   1.666   2.714  14.263  0.0230  0.7218 -0.4194
  667MPD2     H 9925   1.745   2.570  14.603  0.8143  0.7572  0.1739
  667MPD2    H1 9926   1.579   2.524  14.210  1.1857 -2.0408 -0.2912
  667MPD2    H2 9927   1.760   2.885  14.321  0.0437  0.1209 -0.9259
  667MPD2    H3 9928   1.644   2.754  14.165 -1.6398  3.2159  0.9888
  667MPD2     N 9929   1.577   2.410  14.451  0.3706 -0.3653 -0.1692
  667MPD2    H5 9930   1.528   2.357  14.379 -0.9210  1.6835 -0.8037
  667MPD2    N1 9931   1.817   2.808  14.585 -0.0315 -0.4246 -1.0351
  667MPD2    H7 9932   1.815   2.762  14.676 -1.0760  2.2807  0.2856
  668TMC3    C1 9933   1.888   2.983  14.719 -0.0929  0.6525 -0.0775
  668TMC3    C2 9934   1.985   3.076  14.733 -0.4083  0.1025  0.1708
  668TMC3    C3 9935   1.993   3.139  14.856  0.0922 -0.0144 -0.8243
  668TMC3    C4 9936   1.794   2.962  14.822 -0.8172  0.0355  0.0580
  668TMC3    C5 9937   1.806   3.026  14.943 -0.2199 -0.9163  0.3386
  668TMC3    C6 9938   1.902   3.122  14.960  0.3024  0.6554  0.1281
  668TMC3     C 9939   1.877   2.933  14.581 -0.5644  0.3436  0.9060
  668TMC3     O 9940   1.917   3.002  14.492 -0.0668 -0.8266  0.0554
  668TMC3     H 9941   2.044   3.101  14.646 -0.2220 -1.2489 -0.0936
  668TMC3    H1 9942   1.709   2.897  14.810 -1.1780  0.4324  0.4844
  668TMC3    H2 9943   1.911   3.171  15.056  0.1252  0.8066  0.0681
  668TMC3    C7 9944   1.706   2.996  15.044 -0.1584  0.4247 -0.0752
  668TMC3    C8 9945   2.095   3.241  14.879  0.6217 -0.8294  0.2857
  668TMC3    O1 9946   1.750   2.988  15.158  0.1044  0.5202  1.0510
  668TMC3    O2 9947   2.064   3.320  14.969  0.4802  0.1340  0.1305
  669TMC3    C1 9948   4.720   2.738  14.584  0.7643  0.2141 -0.6269
  669TMC3    C2 9949   4.712   2.748  14.449  0.6731  0.0816  0.5745
  669TMC3    C3 9950   0.069   2.809  14.378  0.7507  0.4164  0.2238
  669TMC3    C4 9951   0.090   2.778  14.653 -0.1310  0.3099 -0.5752
  669TMC3    C5 9952   0.195   2.829  14.577 -0.4988  0.3646  0.1154
  669TMC3    C6 9953   0.181   2.845  14.445  0.2187 -0.3670  0.5398
  669TMC3     C 9954   4.625   2.658  14.652 -0.2747  0.1404 -0.1521
  669TMC3     O 9955   4.505   2.658  14.619 -0.6515 -0.0762  0.2989
  669TMC3     H 9956   4.627   2.696  14.406  0.0571  0.6727  1.0664
  669TMC3    H1 9957   0.088   2.793  14.760 -3.0531  0.1370 -0.6025
  669TMC3    H2 9958   0.264   2.895  14.396 -0.5358  0.0471 -0.3092
  669TMC3    C7 9959   0.301   2.906  14.640  0.0958  0.0969  0.2902
  669TMC3    C8 9960   0.042   2.829  14.233 -0.1192 -0.0461  1.0507
  669TMC3    O1 9961   0.351   2.995  14.570 -0.4303 -0.0578  0.0228
  669TMC3    O2 9962   4.663   2.817  14.197  0.7176  0.4777 -0.5626
  670MPD2     C 9963   2.679   0.136  13.766  0.2860 -0.4944 -0.1639
  670MPD2    C1 9964   2.763   0.153  13.871  0.1459  0.9088  0.4698
  670MPD2    C2 9965   2.720   0.102  13.997 -0.8485 -0.3526 -0.3885
  670MPD2    C3 9966   2.595   0.037  14.010  0.9462  0.1725 -0.1953
  670MPD2    C4 9967   2.525   0.007  13.899 -0.5365 -0.2117  0.3752
  670MPD2    C5 9968   2.565   0.058  13.778  0.3126  0.1245 -0.0627
  670MPD2     H 9969   2.786   0.123  14.080 -1.6423  0.5382  0.0200
  670MPD2    H1 9970   2.431   4.693  13.897 -0.6558  0.0671 -1.4073
  670MPD2    H2 9971   2.702   0.167  13.665 -0.5306  0.7240  0.0314
  670MPD2    H3 9972   2.512   0.041  13.685 -0.4647  0.8545  0.2378
  670MPD2     N 9973   2.549   4.719  14.135 -0.1540 -0.7268  0.2406
  670MPD2    H5 9974   2.461   4.669  14.132 -0.5766  0.2016 -2.4390
  670MPD2    N1 9975   2.896   0.207  13.858  0.2887  0.2198  0.0681
  670MPD2    H7 9976   2.956   0.191  13.939  1.0704  0.3093 -0.4888
  671TMC3    C1 9977   2.562   4.604  14.335 -0.0850  0.1136 -1.0015
  671TMC3    C2 9978   2.629   4.484  14.357 -0.0911 -0.3129  0.1248
  671TMC3    C3 9979   2.555   4.369  14.343  0.0507 -0.7239 -0.6026
  671TMC3    C4 9980   2.422   4.599  14.326 -0.3696  0.6953 -0.2774
  671TMC3    C5 9981   2.355   4.478  14.326 -0.1134 -0.2069  0.3845
  671TMC3    C6 9982   2.422   4.361  14.340 -0.0969  0.2899 -0.2358
  671TMC3     C 9983   2.625   4.696  14.249  0.1812  0.5056 -0.0315
  671TMC3     O 9984   2.747   4.708  14.263 -0.5220 -0.0616  0.4615
  671TMC3     H 9985   2.735   4.486  14.330 -0.1144  1.0213  0.1195
  671TMC3    H1 9986   2.360   4.687  14.310  2.0875  2.1309 -1.9432
  671TMC3    H2 9987   2.372   4.267  14.324 -1.6301  0.5999  2.7152
  671TMC3    C7 9988   2.269   4.475  14.207 -0.7308  0.2597  0.1710
  671TMC3    C8 9989   2.636   4.250  14.331 -0.3029  0.7949 -0.0738
  671TMC3    O1 9990   2.300   4.564  14.130  0.0202 -0.2461 -0.2466
  671TMC3    O2 9991   2.751   4.257  14.366  0.6176 -0.5262  0.6138
  672MPD2     C 9992   2.880   0.592   0.488 -0.4823 -0.0251  0.3981
  672MPD2    C1 9993   2.975   0.486   0.502 -0.0994 -0.1958  0.9011
  672MPD2    C2 9994   3.099   0.523   0.545 -0.0438  0.5792 -0.1424
  672MPD2    C3 9995   3.133   0.655   0.559  0.4294 -0.1075 -0.4748
  672MPD2    C4 9996   3.037   0.753   0.561  0.0295 -0.3335 -0.4866
  672MPD2    C5 9997   2.908   0.726   0.524  0.3347 -0.0646 -0.3824
  672MPD2     H 9998   3.170   0.445   0.568 -0.4048  0.2874 -0.0246
  672MPD2    H1 9999   3.050   0.851   0.606 -1.0415 -0.2328 -0.4047
  672MPD2    H210000   2.778   0.583   0.452 -0.5117  2.5168 -0.1684
  672MPD2    H310001   2.833   0.804   0.520  1.2417  0.7389 -1.4908
  672MPD2     N10002   3.267   0.692   0.583 -0.5499  0.8800  0.0287
  672MPD2    H510003   3.283   0.791   0.596 -0.3695  0.9548 -0.7407
  672MPD2    N110004   2.946   0.349   0.484  0.0678 -0.8800 -0.3364
  672MPD2    H710005   3.011   0.272   0.498  0.3162 -0.6748 -0.3652
  673TMC3    C110006   2.803   0.165   0.458 -0.3573 -0.4329  0.2120
  673TMC3    C210007   2.897   0.097   0.382  0.2670 -0.0920  0.1085
  673TMC3    C310008   2.861   0.014   0.282  0.4972 -1.2937 -0.7598
  673TMC3    C410009   2.671   0.139   0.433 -0.3226  0.1327  0.2572
  673TMC3    C510010   2.643   0.069   0.316 -0.3459  0.1910 -0.2542
  673TMC3    C610011   2.732   0.003   0.243 -0.1589  0.6400  0.3376
  673TMC3     C10012   2.818   0.305   0.460  0.1104 -0.3874  0.2782
  673TMC3     O10013   2.713   0.368   0.434 -0.0124 -0.3370 -0.4564
  673TMC3     H10014   2.997   0.125   0.411 -1.0329  3.8085  0.8468
  673TMC3    H110015   2.598   0.186   0.498  0.6652  0.3671  1.2025
  673TMC3    H210016   2.710   4.683   0.155 -2.2948 -0.1096  1.3575
  673TMC3    C710017   2.541   0.121   0.228 -0.0807 -0.1554  0.6269
  673TMC3    C810018   2.926   4.621   0.281  0.0759 -0.0333  0.9954
  673TMC3    O110019   2.490   0.046   0.145  0.4946 -0.5041  0.8820
  673TMC3    O210020   2.872   4.535   0.212  0.2440  0.5904 -0.6940
  674MPD2     C10021   2.274   0.890  17.689  0.5558 -0.1371  0.7769
  674MPD2    C110022   2.202   0.781  17.659 -0.9173  0.0327 -0.3335
  674MPD2    C210023   2.066   0.800  17.656  0.4167  0.0579  0.4332
  674MPD2    C310024   2.004   0.915  17.698 -0.0004 -0.2541 -0.1707
  674MPD2    C410025   2.085   1.013   0.001 -0.0576 -0.5873  0.1382
  674MPD2    C510026   2.223   1.000  17.743  0.0729  0.1984  0.3801
  674MPD2     H10027   2.002   0.716  17.634 -1.1311  1.3440  0.1046
  674MPD2    H110028   2.042   1.099   0.051 -0.4556  0.6805 -2.3851
  674MPD2    H210029   2.382   0.887  17.689  0.4896 -2.4492 -0.2332
  674MPD2    H310030   2.290   1.077   0.024 -1.1712  1.1801  0.5946
  674MPD2     N10031   1.865   0.901  17.709 -0.6604 -0.5415 -0.0071
  674MPD2    H510032   1.819   0.818  17.674 -0.2271 -0.6724 -0.2702
  674MPD2    N110033   2.266   0.652  17.626 -0.1537  0.0307  0.3847
  674MPD2    H710034   2.367   0.658  17.635 -0.1833  2.6004 -1.1055
  675TMC3    C110035   2.284   0.427  17.599  0.8276 -0.1613 -0.1757
  675TMC3    C210036   2.229   0.313  17.550  0.0185  0.0258  0.1784
  675TMC3    C310037   2.306   0.204  17.576  0.5259 -0.7878 -0.9428
  675TMC3    C410038   2.414   0.433  17.642  0.0641 -0.0538  0.5125
  675TMC3    C510039   2.490   0.321  17.651 -0.1970  0.0474  1.2206
  675TMC3    C610040   2.430   0.203  17.631 -0.1470 -0.1039 -0.4613
  675TMC3     C10041   2.194   0.536  17.617 -0.1985  0.1806 -0.8161
  675TMC3     O10042   2.075   0.506  17.623 -0.1395 -0.2003 -0.4472
  675TMC3     H10043   2.127   0.302  17.518 -0.3810  0.1013  1.4221
  675TMC3    H110044   2.461   0.518  17.689 -1.5054  0.2281  1.5670
  675TMC3    H210045   2.491   0.114  17.637 -0.7140 -0.4355  0.4014
  675TMC3    C710046   2.625   0.328  17.704 -0.5783  0.1281  0.0798
  675TMC3    C810047   2.232   0.079  17.585  0.0455  0.3430 -0.2540
  675TMC3    O110048   2.652   0.427   0.016 -0.4422  0.1689 -0.1105
  675TMC3    O210049   2.125   0.061  17.528 -0.6022  0.2910  0.3821
  676MPD2     C10050   1.079   3.287  11.076  0.6751 -0.1885 -0.2006
  676MPD2    C110051   1.026   3.241  11.202 -0.4267  0.5811  0.1809
  676MPD2    C210052   0.980   3.109  11.211  0.5694 -0.3934 -0.1608
  676MPD2    C310053   0.966   3.030  11.102 -0.7885 -0.6253 -0.0221
  676MPD2    C410054   1.005   3.079  10.977 -0.5329 -0.1280 -0.4379
  676MPD2    C510055   1.066   3.199  10.965 -0.4976 -0.5145 -0.6970
  676MPD2     H10056   0.943   3.073  11.306 -0.2222  1.2471  0.1330
  676MPD2    H110057   0.997   3.006  10.897  1.0847  2.1871 -2.6790
  676MPD2    H210058   1.121   3.387  11.066  1.6650 -0.5498  0.2870
  676MPD2    H310059   1.100   3.229  10.867  1.3256 -0.7963 -0.1623
  676MPD2     N10060   0.908   2.902  11.097 -0.0375  0.3290  0.6353
  676MPD2    H510061   0.901   2.864  11.003 -0.6269  0.2188  0.7242
  676MPD2    N110062   1.013   3.327  11.317  0.3026 -0.1498 -0.3614
  676MPD2    H710063   0.964   3.283  11.394  0.3430  0.1826 -0.1463
  677TMC3    C110064   0.999   3.534  11.442 -0.0989  0.0527 -0.4861
  677TMC3    C210065   0.994   3.470  11.565 -0.0327 -0.0274 -0.1357
  677TMC3    C310066   1.000   3.538  11.679  0.4614  0.1810 -0.0071
  677TMC3    C410067   1.015   3.670  11.439  0.1446  0.2480 -0.0233
  677TMC3    C510068   1.020   3.739  11.554 -0.6978  0.0748  0.0158
  677TMC3    C610069   1.016   3.675  11.675  0.4624 -0.7280  0.4314
  677TMC3     C10070   1.030   3.464  11.310 -0.1981  0.1445  0.6437
  677TMC3     O10071   1.053   3.535  11.218 -0.6788 -0.1895  0.1103
  677TMC3     H10072   0.991   3.362  11.565  0.1474 -0.0322 -0.3040
  677TMC3    H110073   1.006   3.723  11.345  1.5887 -1.7995 -1.3496
  677TMC3    H210074   1.036   3.730  11.766 -1.7613  3.3230 -1.4859
  677TMC3    C710075   1.075   3.875  11.559 -0.4793  0.1734 -0.1357
  677TMC3    C810076   1.008   3.463  11.805 -0.6144 -0.2502 -0.3444
  677TMC3    O110077   1.052   3.930  11.670 -0.3138  0.4151  0.1026
  677TMC3    O210078   1.039   3.344  11.796  0.3579 -0.5070  0.6085
  678MPD2     C10079   2.174   2.401   1.242 -0.0996 -0.6022  0.0616
  678MPD2    C110080   2.150   2.527   1.179  0.9102  1.1097 -0.2174
  678MPD2    C210081   2.011   2.553   1.158  0.1436 -0.6635 -0.2074
  678MPD2    C310082   1.906   2.473   1.191 -0.4465  0.0043  0.0410
  678MPD2    C410083   1.939   2.350   1.235 -0.6222  0.3140  0.1728
  678MPD2    C510084   2.069   2.316   1.258  0.1861 -0.4313 -0.4758
  678MPD2     H10085   1.995   2.650   1.113  0.4058 -0.9397 -0.9015
  678MPD2    H110086   1.862   2.274   1.248  0.0363 -0.1876  1.1234
  678MPD2    H210087   2.274   2.379   1.279  0.3048  2.0578  0.5540
  678MPD2    H310088   2.080   2.214   1.294 -1.0769 -0.6464 -0.6975
  678MPD2     N10089   1.769   2.501   1.162  0.4251  0.4213 -0.0873
  678MPD2    H510090   1.703   2.425   1.174  0.9703 -0.0287  0.0525
  678MPD2    N110091   2.247   2.612   1.125 -0.2626 -0.2579  0.1311
  678MPD2    H710092   2.221   2.689   1.065 -0.1514 -0.1977  0.1604
  679TMC3    C110093   2.677   2.759   0.984 -0.1945 -0.1766 -0.4770
  679TMC3    C210094   2.599   2.668   1.047  0.7118  0.6340 -0.5172
  679TMC3    C310095   2.471   2.696   1.069 -1.1233 -0.3013 -0.4571
  679TMC3    C410096   2.624   2.884   0.941 -0.1065  0.5595 -0.4561
  679TMC3    C510097   2.495   2.915   0.968  0.1530 -0.5963  0.2368
  679TMC3    C610098   2.418   2.816   1.029 -0.1960 -0.2706 -0.0195
  679TMC3     C10099   2.781   2.712   0.890  0.6810  1.0836 -0.2489
  679TMC3     O10100   2.779   2.770   0.779  0.2345 -0.2808 -0.0957
  679TMC3     H10101   2.637   2.569   1.069 -2.8938 -0.5267  0.5219
  679TMC3    H110102   2.696   2.953   0.899 -0.4232  0.4392 -1.1940
  679TMC3    H210103   2.313   2.841   1.036  0.1290  1.0285  0.1992
  679TMC3    C710104   2.440   3.047   0.939 -0.3096  0.2614 -0.5808
  679TMC3    C810105   2.385   2.595   1.135 -0.0080  0.1230  0.5977
  679TMC3    O110106   2.322   3.057   0.936 -0.2862  0.2024 -0.1580
  679TMC3    O210107   2.441   2.511   1.203  0.6055  0.0261 -0.1214
  680MPD2     C10108   2.138   2.366  13.605  0.1096 -0.4462  0.7475
  680MPD2    C110109   2.216   2.286  13.686  0.1557  0.3925 -0.0634
  680MPD2    C210110   2.276   2.334  13.803 -0.9233  0.3667  0.4098
  680MPD2    C310111   2.252   2.466  13.835  0.1862 -0.7655  0.1631
  680MPD2    C410112   2.170   2.551  13.756  0.3475  0.0309  1.4305
  680MPD2    C510113   2.122   2.495  13.639 -0.3325 -0.1234  0.3306
  680MPD2     H10114   2.332   2.271  13.872 -0.0244  1.4285  0.6278
  680MPD2    H110115   2.161   2.659  13.763  0.4852  0.0240  1.7002
  680MPD2    H210116   2.090   2.349  13.509  0.0871 -0.6829  0.8016
  680MPD2    H310117   2.066   2.562  13.574 -0.4834 -2.2726 -1.7279
  680MPD2     N10118   2.322   2.522  13.947 -0.4767  0.1300 -0.3340
  680MPD2    H510119   2.309   2.621  13.966 -0.2945 -0.0148  0.5442
  680MPD2    N110120   2.264   2.165  13.643  0.0226  0.3008  0.1474
  680MPD2    H710121   2.325   2.118  13.710 -1.3826 -1.7532 -0.0126
  681TMC3    C110122   2.293   1.964  13.513  0.4940 -0.1828  0.5588
  681TMC3    C210123   2.255   1.881  13.613  0.1254 -0.1888  0.0577
  681TMC3    C310124   2.282   1.744  13.598 -1.2466  1.0430  0.4790
  681TMC3    C410125   2.327   1.912  13.391  0.0549  0.3994  0.5959
  681TMC3    C510126   2.350   1.781  13.380  0.2949  0.4688 -0.3515
  681TMC3    C610127   2.335   1.694  13.482 -0.2255 -0.8921 -0.2307
  681TMC3     C10128   2.250   2.109  13.521  0.6713  0.0083 -1.0860
  681TMC3     O10129   2.204   2.158  13.423 -0.2469  0.2056  0.1367
  681TMC3     H10130   2.204   1.912  13.704 -0.6208 -1.0309 -0.0711
  681TMC3    H110131   2.332   1.979  13.306  0.3647  0.4146  0.6262
  681TMC3    H210132   2.349   1.588  13.466 -0.1262 -0.8287 -0.5597
  681TMC3    C710133   2.371   1.727  13.249  0.0320  0.0917 -0.4274
  681TMC3    C810134   2.292   1.666  13.717  0.7042  0.4419  0.7934
  681TMC3    O110135   2.349   1.610  13.218 -0.4310  0.3918  0.1736
  681TMC3    O210136   2.277   1.545  13.708  0.2214 -0.0202  0.0187
  682MPD2     C10137   3.968   3.722  10.999  0.2282 -0.2531  0.1329
  682MPD2    C110138   3.941   3.601  11.053  0.5721  0.4406  0.6495
  682MPD2    C210139   3.945   3.586  11.185  0.5024 -0.6783 -0.5621
  682MPD2    C310140   3.959   3.690  11.272  0.0199  0.8097 -0.2055
  682MPD2    C410141   3.984   3.817  11.222 -0.2940 -0.0436  0.5162
  682MPD2    C510142   3.992   3.832  11.087  0.0660  0.4907 -0.1276
  682MPD2     H10143   3.945   3.482  11.216 -0.0318 -0.8504 -1.1316
  682MPD2    H110144   4.004   3.907  11.279 -0.4121  0.0437  0.4200
  682MPD2    H210145   3.981   3.752  10.896  2.1656  1.1156  0.7813
  682MPD2    H310146   4.016   3.931  11.052 -1.9339  1.0863  0.1985
  682MPD2     N10147   3.958   3.678  11.413  0.0108  0.1100 -0.4475
  682MPD2    H510148   3.986   3.761  11.465 -1.1974 -1.8027  3.2737
  682MPD2    N110149   3.928   3.491  10.970  0.6974  0.2461  0.2504
  682MPD2    H710150   3.960   3.397  10.992  0.5159 -0.0253 -0.6679
  683TMC3    C110151   4.077   3.622  11.799 -0.1249  0.0106 -0.0901
  683TMC3    C210152   3.995   3.541  11.878 -0.6119 -0.2587  0.8581
  683TMC3    C310153   3.862   3.511  11.831 -0.1178  0.0881  0.2990
  683TMC3    C410154   4.045   3.654  11.671 -0.4721 -0.2141 -0.2668
  683TMC3    C510155   3.927   3.599  11.625  0.2606 -0.3354 -0.5835
  683TMC3    C610156   3.840   3.532  11.701 -0.2026 -0.8564 -0.1004
  683TMC3     C10157   4.205   3.681  11.842 -0.1658 -0.7710  0.6186
  683TMC3     O10158   4.233   3.793  11.801  0.6899  0.7720  0.0311
  683TMC3     H10159   4.009   3.541  11.985  1.6824 -0.2929  0.5469
  683TMC3    H110160   4.117   3.710  11.612 -1.4468  1.5219  0.1900
  683TMC3    H210161   3.751   3.482  11.666 -2.3950  2.1486  1.1896
  683TMC3    C710162   3.924   3.569  11.490 -0.2627  0.6043 -0.1384
  683TMC3    C810163   3.796   3.400  11.887 -0.3509 -0.0821 -0.3802
  683TMC3    O110164   3.854   3.477  11.451 -0.6859 -0.3141 -0.1746
  683TMC3    O210165   3.674   3.393  11.906  0.0065  0.7210 -0.0787
  684MPD2     C10166   2.505   3.264  16.297 -0.3368  0.0461  0.1981
  684MPD2    C110167   2.608   3.252  16.204  0.4245  0.3529 -0.4179
  684MPD2    C210168   2.669   3.367  16.165  0.5700 -0.2898  1.0355
  684MPD2    C310169   2.651   3.486  16.219 -0.0580 -0.4828 -0.0226
  684MPD2    C410170   2.569   3.498  16.330 -0.8819 -0.0974  0.0360
  684MPD2    C510171   2.489   3.390  16.357  0.3044 -0.1622 -0.4346
  684MPD2     H10172   2.738   3.350  16.083  0.0207 -0.7890  0.6747
  684MPD2    H110173   2.542   3.597  16.365  0.3214 -0.0341  0.7871
  684MPD2    H210174   2.457   3.178  16.342  3.4111 -1.4060  1.3572
  684MPD2    H310175   2.400   3.406  16.418  0.1732 -1.9669 -0.1555
  684MPD2     N10176   2.718   3.601  16.165  0.3102 -0.1711 -0.4233
  684MPD2    H510177   2.703   3.694  16.205 -1.8288 -0.8563  0.3825
  684MPD2    N110178   2.642   3.132  16.141  0.2820 -0.1115 -0.5289
  684MPD2    H710179   2.731   3.137  16.093 -0.9283 -0.5592 -2.8042
  685TMC3    C110180   2.608   2.926  16.033 -0.3033  0.3325  0.1812
  685TMC3    C210181   2.515   2.847  15.965  0.3789  0.6601 -0.5577
  685TMC3    C310182   2.559   2.734  15.898 -0.2421  0.4193  0.7819
  685TMC3    C410183   2.742   2.906  16.011 -0.2252 -0.1420  0.2693
  685TMC3    C510184   2.782   2.802  15.925  0.5920  0.6639 -0.2629
  685TMC3    C610185   2.694   2.717  15.871  0.1274 -0.0408 -0.3179
  685TMC3     C10186   2.561   3.021  16.131 -0.2588  0.0464  1.3464
  685TMC3     O10187   2.447   3.002  16.177  0.1310 -0.0834  0.1939
  685TMC3     H10188   2.408   2.858  15.980  0.2271 -0.1246 -1.0714
  685TMC3    H110189   2.820   2.964  16.059 -1.2942 -0.1264  1.9886
  685TMC3    H210190   2.727   2.641  15.801  2.2325 -1.0014  1.7502
  685TMC3    C710191   2.918   2.765  15.929 -0.1761  0.1458  0.5497
  685TMC3    C810192   2.473   2.680  15.799 -0.4262  0.7829 -0.0088
  685TMC3    O110193   2.964   2.749  16.042 -0.5876 -0.3590 -0.1693
  685TMC3    O210194   2.511   2.577  15.744  0.0437 -0.1407  0.2640
  686MPD2     C10195   4.216   3.258  15.576 -0.1285 -0.4983 -0.3359
  686MPD2    C110196   4.219   3.158  15.674 -0.2372  0.3996  0.2505
  686MPD2    C210197   4.340   3.091  15.689 -0.8962  0.1850 -0.4094
  686MPD2    C310198   4.452   3.116  15.613 -0.4613  0.0545 -0.5808
  686MPD2    C410199   4.444   3.221  15.524 -0.1141  0.2570  0.2871
  686MPD2    C510200   4.328   3.293  15.507  0.1952 -0.0786 -0.5779
  686MPD2     H10201   4.355   3.011  15.761  1.7272  0.1704 -0.9587
  686MPD2    H110202   4.527   3.249  15.460 -1.1265 -0.4563 -1.3165
  686MPD2    H210203   4.125   3.314  15.556 -0.6792 -1.8260 -1.5926
  686MPD2    H310204   4.329   3.378  15.440  0.3247 -0.9467 -1.6771
  686MPD2     N10205   4.563   3.032  15.625 -0.4115  0.4734 -0.5162
  686MPD2    H510206   4.561   2.976  15.710 -1.1293  0.7595 -0.3493
  686MPD2    N110207   4.106   3.112  15.745  0.5533 -0.7604 -0.2651
  686MPD2    H710208   4.124   3.044  15.819  1.6260  0.9909  1.0606
  687TMC3    C110209   4.725   2.894  15.552 -0.1175  0.3649 -0.7584
  687TMC3    C210210   4.691   2.779  15.477 -0.0465  0.3151  0.3041
  687TMC3    C310211   4.697   2.656  15.545  0.7739  0.6958  0.0278
  687TMC3    C410212   0.023   2.879  15.687 -0.4663 -0.5157 -0.5841
  687TMC3    C510213   0.040   2.754  15.734  0.8341  0.5736 -0.4091
  687TMC3    C610214   0.013   2.637  15.664 -0.2532  0.0589 -0.0755
  687TMC3     C10215   4.658   3.010  15.521 -0.5765 -1.0155 -0.0245
  687TMC3     O10216   4.649   3.039  15.407  0.5245  0.0766 -0.6623
  687TMC3     H10217   4.659   2.796  15.374 -0.8835  0.0792  0.5280
  687TMC3    H110218   0.052   2.960  15.752  0.7040 -0.0962 -1.6311
  687TMC3    H210219   0.027   2.537  15.702  0.7009 -0.1480 -0.9544
  687TMC3    C710220   0.074   2.746  15.875  0.1497  0.1483  0.1023
  687TMC3    C810221   4.561   2.597  15.556  0.0875 -0.7578 -0.0440
  687TMC3    O110222   0.047   2.839  15.948  0.0390  0.1069  0.0365
  687TMC3    O210223   4.541   2.488  15.604  0.1679  0.5859  0.1350
  688MPD2     C10224   3.340   1.510  17.191 -0.0510 -0.0018 -0.2184
  688MPD2    C110225   3.367   1.386  17.231 -0.4040 -0.4736  0.4556
  688MPD2    C210226   3.477   1.317  17.175  0.3241 -0.5725 -0.0661
  688MPD2    C310227   3.566   1.384  17.090  0.2310  0.5158 -0.6107
  688MPD2    C410228   3.541   1.514  17.060  0.5948  0.2685 -0.0854
  688MPD2    C510229   3.428   1.571  17.111  0.6860 -0.9846 -0.4860
  688MPD2     H10230   3.493   1.213  17.203 -0.6494 -0.4909  0.7800
  688MPD2    H110231   3.604   1.575  16.995 -0.0220  2.1796  1.0974
  688MPD2    H210232   3.253   1.569  17.218  1.1695  1.6220  0.1612
  688MPD2    H310233   3.406   1.674  17.086  2.6452 -0.6155 -0.6980
  688MPD2     N10234   3.680   1.322  17.037  0.1428  0.5485  0.5039
  688MPD2    H510235   3.704   1.375  16.954  0.6474  0.5798  0.6716
  688MPD2    N110236   3.291   1.318  17.328  0.3383  0.2512  0.1503
  688MPD2    H710237   3.330   1.227  17.353  0.8935  0.5585  0.4176
  689TMC3    C110238   3.136   1.298  17.513 -0.8394 -0.1626 -0.3866
  689TMC3    C210239   3.114   1.369  17.632 -0.7090 -0.0910 -0.3467
  689TMC3    C310240   3.052   1.304  17.736 -0.4144  0.2393  0.9696
  689TMC3    C410241   3.088   1.165  17.505  0.1789  0.1941  0.2851
  689TMC3    C510242   3.015   1.117  17.607  0.6563  0.3361  0.7340
  689TMC3    C610243   2.997   1.186  17.720  0.0022  0.0727 -0.1082
  689TMC3     C10244   3.186   1.373  17.399 -0.2533 -0.2546 -0.0650
  689TMC3     O10245   3.132   1.482  17.389  0.2539 -0.3139  0.1831
  689TMC3     H10246   3.164   1.463  17.652  1.7509 -1.0469 -1.9288
  689TMC3    H110247   3.102   1.112  17.411 -2.7352 -1.8167  1.0041
  689TMC3    H210248   2.945   1.154   0.054 -2.4346  0.2079 -1.4826
  689TMC3    C710249   2.988   0.973  17.615 -0.1298 -0.4657 -0.0701
  689TMC3    C810250   3.017   1.375   0.102 -0.4691 -0.1439 -0.4562
  689TMC3    O110251   2.945   0.931  17.724  0.7460  0.4353  0.7141
  689TMC3    O210252   2.972   1.309   0.195 -0.3087  0.4367  0.4471
  690MPD2     C10253   0.840   3.309  16.074  0.2927  0.3137 -0.0033
  690MPD2    C110254   0.816   3.345  15.946 -0.6753  0.4500 -0.5107
  690MPD2    C210255   0.897   3.443  15.888  0.2880  1.4439  0.4583
  690MPD2    C310256   0.991   3.515  15.961 -0.1015 -0.0999 -0.1634
  690MPD2    C410257   1.021   3.469  16.090  0.3325 -0.1367  0.1040
  690MPD2    C510258   0.944   3.362  16.140  0.0588  0.8998 -0.3181
  690MPD2     H10259   0.885   3.456  15.781  1.5490  1.5566  0.3307
  690MPD2    H110260   1.094   3.514  16.157  0.2381 -0.3320  0.3396
  690MPD2    H210261   0.798   3.223  16.124  0.6893  0.0722 -0.0888
  690MPD2    H310262   0.977   3.326  16.237  0.3915  1.8247 -0.0856
  690MPD2     N10263   1.061   3.611  15.885  0.2127  0.1539  0.3229
  690MPD2    H510264   1.022   3.637  15.795  1.0827  0.2596 -0.0328
  690MPD2    N110265   0.708   3.282  15.881 -0.2281 -0.2821  0.2701
  690MPD2    H710266   0.670   3.207  15.937  0.8372 -0.8213  0.2842
  691TMC3    C110267   0.544   3.214  15.722  0.4681  0.7117  0.0700
  691TMC3    C210268   0.453   3.250  15.621 -0.3706 -0.1692  0.0161
  691TMC3    C310269   0.374   3.149  15.569  0.1374  0.2769  0.8629
  691TMC3    C410270   0.555   3.084  15.766  0.6171 -0.6187  0.0805
  691TMC3    C510271   0.479   2.985  15.705 -0.1576  0.0574  0.1337
  691TMC3    C610272   0.391   3.022  15.607 -0.0414 -0.0020 -0.8608
  691TMC3     C10273   0.656   3.305  15.757  0.0218 -0.6863  0.0547
  691TMC3     O10274   0.653   3.415  15.702  0.7078  0.1864  0.2067
  691TMC3     H10275   0.450   3.349  15.578 -1.0652 -0.5651 -0.8389
  691TMC3    H110276   0.648   3.055  15.814  0.0355  1.1926  2.2515
  691TMC3    H210277   0.316   2.949  15.579 -0.0293 -0.2765 -0.1779
  691TMC3    C710278   0.543   2.852  15.694  0.8151 -0.0817  0.0845
  691TMC3    C810279   0.260   3.185  15.491  0.0474  0.4000  0.0309
  691TMC3    O110280   0.631   2.824  15.775 -0.3825 -0.0980 -0.9248
  691TMC3    O210281   0.219   3.111  15.403 -0.0413 -0.4998  0.0451
  692TMC3    C110282   2.128   4.514  15.441  0.0915 -0.4316  0.0459
  692TMC3    C210283   2.205   4.620  15.464 -0.2335  0.0051  0.1628
  692TMC3    C310284   2.336   4.607  15.435  0.1820  0.0753  0.2662
  692TMC3    C410285   2.175   4.390  15.402  0.6579 -0.0842  0.4192
  692TMC3    C510286   2.308   4.371  15.386 -0.0877  0.7204 -0.5847
  692TMC3    C610287   2.397   4.477  15.414  0.0834 -0.2466 -0.5569
  692TMC3     C10288   1.994   4.526  15.497  0.2305  0.3569  0.5870
  692TMC3     O10289   1.990   4.593  15.596 -0.0403 -0.3288 -0.1768
  692TMC3     H10290   2.148   4.710  15.441  1.3006  1.1978  1.0062
  692TMC3    H110291   2.115   4.301  15.386 -0.7020  0.7361  1.0266
  692TMC3    H210292   2.500   4.471  15.383 -0.0495  0.3604 -1.1333
  692TMC3    C710293   2.353   4.238  15.373 -0.3106  0.5193  0.0833
  692TMC3    C810294   2.413   4.699  15.503  0.2025  0.2109 -0.1676
  692TMC3    O110295   2.289   4.163  15.305 -0.4088  0.4812 -0.8085
  692TMC3    O210296   2.530   4.674  15.494 -0.4312  0.0130  0.7303
  693MPD2     C10297   2.025   2.589  10.667  0.4195 -0.3299 -0.3307
  693MPD2    C110298   1.984   2.523  10.783 -0.1317  0.4176 -0.0628
  693MPD2    C210299   2.067   2.530  10.891 -0.0434  0.3883  0.1774
  693MPD2    C310300   2.175   2.613  10.894 -0.1799 -0.0451 -0.4949
  693MPD2    C410301   2.216   2.681  10.777 -0.2169  0.0301  0.1562
  693MPD2    C510302   2.144   2.662  10.662  0.8075  0.5369  0.1926
  693MPD2     H10303   2.039   2.463  10.971 -0.6473  1.0570  0.5319
  693MPD2    H110304   2.307   2.738  10.762  0.3453 -1.1939 -1.0866
  693MPD2    H210305   1.955   2.602  10.586  0.0117 -0.0920  0.0535
  693MPD2    H310306   2.176   2.707  10.569 -2.7924  0.5109 -1.0776
  693MPD2     N10307   2.245   2.637  11.012  0.2688 -0.3088 -0.3107
  693MPD2    H510308   2.335   2.681  11.000  1.6771 -2.8952  0.7172
  693MPD2    N110309   1.859   2.467  10.812  0.1377  0.0325  0.2996
  693MPD2    H710310   1.856   2.428  10.906 -0.9833  1.1201  0.7190
  694TMC3    C110311   1.634   2.407  10.791  0.5107  0.7353  0.6097
  694TMC3    C210312   1.561   2.312  10.720  0.3101  0.1818  0.2913
  694TMC3    C310313   1.449   2.258  10.787  0.0828 -0.2460 -0.2667
  694TMC3    C410314   1.608   2.435  10.924  0.1490  0.2878  0.0941
  694TMC3    C510315   1.511   2.370  10.979  0.0803  0.2177  0.2905
  694TMC3    C610316   1.422   2.288  10.916  0.4579  0.2034  0.1149
  694TMC3     C10317   1.755   2.458  10.728  0.0908 -0.3741  0.3816
  694TMC3     O10318   1.751   2.488  10.609  0.0950  0.2274 -0.1788
  694TMC3     H10319   1.598   2.284  10.622  2.1276  2.5806  0.2791
  694TMC3    H110320   1.676   2.505  10.971  0.9642 -0.7240  0.4013
  694TMC3    H210321   1.329   2.257  10.961 -0.2812 -0.2950 -1.7442
  694TMC3    C710322   1.477   2.410  11.107  0.2188 -0.0154 -0.2776
  694TMC3    C810323   1.339   2.200  10.708  0.1489 -0.3130  0.0970
  694TMC3    O110324   1.502   2.527  11.135 -0.7687 -0.3672  0.3644
  694TMC3    O210325   1.254   2.136  10.768 -0.4757 -0.1344 -0.1198
  695MPD2     C10326   3.055   4.199  13.433 -0.0111  0.2897 -0.6404
  695MPD2    C110327   2.987   4.178  13.551 -0.0246 -0.3473  0.3826
  695MPD2    C210328   2.854   4.203  13.550  1.0628 -0.1362  0.1179
  695MPD2    C310329   2.785   4.251  13.436  0.2827  0.2818  0.1805
  695MPD2    C410330   2.850   4.259  13.318 -0.0028 -0.0187 -0.2023
  695MPD2    C510331   2.983   4.240  13.326  0.7352 -0.1238 -0.0130
  695MPD2     H10332   2.794   4.202  13.640  1.4248 -0.6037  0.3540
  695MPD2    H110333   2.805   4.281  13.222  0.6719 -0.9889 -0.7334
  695MPD2    H210334   3.162   4.187  13.423  0.0085  0.7896 -0.9933
  695MPD2    H310335   3.041   4.243  13.234  3.0621  1.6844  1.4972
  695MPD2     N10336   2.644   4.296  13.454  0.0182 -0.6763  0.2841
  695MPD2    H510337   2.603   4.271  13.543 -3.7590  0.2329 -1.1883
  695MPD2    N110338   3.052   4.121  13.663  0.1677  0.7478 -0.7639
  695MPD2    H710339   2.985   4.109  13.738  1.4272  1.8977  0.5506
  696TMC3    C110340   2.428   4.397  13.394  0.7308  0.0826 -0.6440
  696TMC3    C210341   2.375   4.335  13.509 -0.2625  0.4094  0.6528
  696TMC3    C310342   2.257   4.391  13.560 -0.0805 -0.0822  0.2691
  696TMC3    C410343   2.367   4.509  13.342  0.6563  0.4016  0.2273
  696TMC3    C510344   2.267   4.570  13.413  0.2889  0.1368  0.0425
  696TMC3    C610345   2.202   4.508  13.519 -0.3161 -0.2618  0.5494
  696TMC3     C10346   2.570   4.370  13.364  1.0925  0.7627 -0.3545
  696TMC3     O10347   2.610   4.418  13.259 -0.4622 -0.6806  0.0145
  696TMC3     H10348   2.406   4.243  13.556  1.3858 -0.4110 -2.0189
  696TMC3    H110349   2.420   4.567  13.268  3.1333  1.7830  3.1170
  696TMC3    H210350   2.109   4.545  13.560  0.6977 -0.0176  2.5826
  696TMC3    C710351   2.280   4.719  13.409 -0.1139  0.2395 -0.4608
  696TMC3    C810352   2.230   4.359  13.695  0.1098  0.3282 -0.6888
  696TMC3    O110353   2.353   0.032  13.325  0.7238 -0.1477  0.1185
  696TMC3    O210354   2.330   4.347  13.760 -0.2736 -0.1791  0.3905
  697MPD2     C10355   2.482   1.450  15.796  0.7013  0.2807  0.2548
  697MPD2    C110356   2.496   1.432  15.663 -0.5008  0.4599 -0.1323
  697MPD2    C210357   2.529   1.535  15.577  0.3559  0.0064  0.4795
  697MPD2    C310358   2.561   1.660  15.632 -0.5921  0.1063  0.8435
  697MPD2    C410359   2.571   1.675  15.769 -0.3840  0.0514  0.4714
  697MPD2    C510360   2.537   1.570  15.848 -0.1100  0.1620 -0.8450
  697MPD2     H10361   2.527   1.514  15.471  0.6109  0.2209  0.4335
  697MPD2    H110362   2.606   1.768  15.813 -0.9944  1.2812 -1.6182
  697MPD2    H210363   2.453   1.375  15.870  1.1455 -0.8760 -0.7478
  697MPD2    H310364   2.547   1.572  15.956 -0.8969  2.1750 -0.8046
  697MPD2     N10365   2.583   1.766  15.540 -0.3372  0.8820 -0.2464
  697MPD2    H510366   2.576   1.746  15.441  0.5775  0.0215 -0.1370
  697MPD2    N110367   2.469   1.311  15.604 -0.0005  0.2460 -0.0495
  697MPD2    H710368   2.468   1.314  15.502  1.1518 -0.5946 -0.0824
  698TMC3    C110369   2.631   1.977  15.458 -0.4375 -0.0731 -0.3157
  698TMC3    C210370   2.756   2.035  15.460  0.9159  0.6005  1.1649
  698TMC3    C310371   2.810   2.063  15.337 -0.2159 -0.1848  0.8214
  698TMC3    C410372   2.568   1.943  15.338 -0.2272 -0.6951  0.4491
  698TMC3    C510373   2.619   1.983  15.219  0.3805  0.6383 -0.1605
  698TMC3    C610374   2.747   2.040  15.213 -0.1807 -0.3860  0.6146
  698TMC3     C10375   2.609   1.898  15.573 -0.3064 -1.1817  0.4237
  698TMC3     O10376   2.632   1.955  15.680 -0.5517  0.7979  0.3567
  698TMC3     H10377   2.803   2.043  15.558  1.2769 -3.0772  1.2746
  698TMC3    H110378   2.467   1.902  15.343 -1.1145  1.4352  0.0880
  698TMC3    H210379   2.799   2.057  15.120 -0.7375 -1.6430  0.0669
  698TMC3    C710380   2.537   1.937  15.106  0.4264 -0.0444  0.1220
  698TMC3    C810381   2.924   2.148  15.355  0.2043 -0.5737  0.4392
  698TMC3    O110382   2.446   1.860  15.135 -0.1005  0.1780  0.0982
  698TMC3    O210383   2.947   2.180  15.472  0.4343  0.6366 -0.4765
  699TMC3    C110384   2.076   4.364  12.926  0.3936 -0.5528  0.6422
  699TMC3    C210385   2.144   4.282  13.019 -0.5868 -0.4194 -0.4210
  699TMC3    C310386   2.116   4.295  13.154  0.3608 -0.4432 -1.2738
  699TMC3    C410387   1.992   4.462  12.977 -0.2999 -0.3023  0.2919
  699TMC3    C510388   1.972   4.471  13.118  0.1820 -0.0731  0.5718
  699TMC3    C610389   2.041   4.390  13.203 -0.0609 -0.1179 -0.2970
  699TMC3     C10390   2.124   4.390  12.800 -0.0316 -0.9861  0.6054
  699TMC3     O10391   2.066   4.460  12.721 -0.1448 -0.0559 -0.1106
  699TMC3     H10392   2.197   4.192  12.989 -1.3291 -1.5099  1.4960
  699TMC3    H110393   1.956   4.543  12.914 -1.1867 -0.3594  0.7333
  699TMC3    H210394   2.028   4.400  13.311 -0.9367  0.2227 -0.4353
  699TMC3    C710395   1.887   4.576  13.178 -0.4215 -0.1962  0.1932
  699TMC3    C810396   2.166   4.203  13.258  0.1959  1.0902 -0.0559
  699TMC3    O110397   1.887   4.583  13.304 -0.4744  0.0464  0.3429
  699TMC3    O210398   2.104   4.188  13.358  0.3136  0.3255 -0.2800
  700TMC3    C110399   1.352   1.486  16.888 -1.4933  0.3866 -0.2653
  700TMC3    C210400   1.472   1.461  16.831  0.0789 -0.0011 -0.2587
  700TMC3    C310401   1.551   1.365  16.891  0.2358 -0.0496 -0.4999
  700TMC3    C410402   1.307   1.413  16.992  0.2821 -0.1765 -0.5608
  700TMC3    C510403   1.396   1.332  17.060 -0.6406 -0.6633 -0.8087
  700TMC3    C610404   1.521   1.302  17.010 -0.6626 -1.0292 -0.1023
  700TMC3     C10405   1.273   1.608  16.875 -0.0650  0.5458 -0.7915
  700TMC3     O10406   1.153   1.610  16.905  0.2825 -0.0882 -0.5260
  700TMC3     H10407   1.506   1.501  16.736 -0.8985 -2.0883 -1.4703
  700TMC3    H110408   1.222   1.443  17.052  2.0762  0.0471  1.8819
  700TMC3    H210409   1.568   1.210  17.042  0.2864 -0.0248  1.4247
  700TMC3    C710410   1.411   1.372  17.195  0.3449  0.5131 -0.0077
  700TMC3    C810411   1.680   1.349  16.834 -0.9157 -0.8557 -0.7105
  700TMC3    O110412   1.523   1.422  17.213 -0.5392 -0.0312  0.1549
  700TMC3    O210413   1.691   1.352  16.712 -0.1869 -0.0422  0.8242
  701TMC3    C110414   1.497   0.792  15.459  0.1122  0.2505 -0.4531
  701TMC3    C210415   1.532   0.724  15.345 -0.6290 -0.3082  0.1628
  701TMC3    C310416   1.653   0.762  15.296  0.3565 -0.5891 -0.1850
  701TMC3    C410417   1.580   0.883  15.523  0.2550  0.0621  0.3541
  701TMC3    C510418   1.700   0.918  15.471  0.0362 -0.1631  0.0380
  701TMC3    C610419   1.732   0.858  15.347 -0.2508 -0.0033 -0.6481
  701TMC3     C10420   1.373   0.763  15.534  0.4487  0.2972 -0.1201
  701TMC3     O10421   1.331   0.858  15.601 -0.7102  0.1242 -0.1325
  701TMC3     H10422   1.468   0.648  15.301 -0.9611 -0.8984  1.6410
  701TMC3    H110423   1.546   0.921  15.619 -0.1626  0.8301 -0.0969
  701TMC3    H210424   1.826   0.885  15.301  0.4049 -1.4298 -0.1451
  701TMC3    C710425   1.772   1.031  15.518  0.6043  0.0743 -0.3151
  701TMC3    C810426   1.709   0.691  15.181  0.3380 -0.7744  0.5852
  701TMC3    O110427   1.834   1.095  15.438 -0.2903  0.5834 -0.2356
  701TMC3    O210428   1.829   0.690  15.165  0.4853 -0.1148 -0.9431
  702MPD2     C10429   0.880   2.437  10.588 -0.1075  0.1308 -0.4331
  702MPD2    C110430   0.848   2.556  10.647  0.8305 -0.4230 -0.5834
  702MPD2    C210431   0.879   2.675  10.589  0.4575 -0.4475  0.5977
  702MPD2    C310432   0.926   2.677  10.457 -0.0909  0.2881  0.0384
  702MPD2    C410433   0.971   2.558  10.404  0.3904 -0.1310 -0.2185
  702MPD2    C510434   0.957   2.441  10.473  0.4914 -0.2455 -0.8349
  702MPD2     H10435   0.864   2.767  10.643  0.9412  0.5063 -0.9058
  702MPD2    H110436   1.026   2.551  10.311  1.2769 -1.5983  0.4060
  702MPD2    H210437   0.877   2.345  10.644 -2.4439  0.5471  0.1161
  702MPD2    H310438   0.989   2.349  10.425 -1.4681  0.4597 -3.5142
  702MPD2     N10439   0.966   2.797  10.399 -0.0773 -0.1052 -0.2775
  702MPD2    H510440   1.003   2.780  10.306  1.2691  0.7165  0.1163
  702MPD2    N110441   0.814   2.569  10.789 -0.4480 -0.2920  0.2203
  702MPD2    H710442   0.787   2.664  10.813 -2.5876 -0.5273 -1.2970
  703TMC3    C110443   1.015   3.035  10.384  0.2778  0.3738 -0.2382
  703TMC3    C210444   0.947   3.152  10.391  1.1228  1.3131  0.3628
  703TMC3    C310445   0.997   3.265  10.325 -0.2643  0.3954 -0.2741
  703TMC3    C410446   1.136   3.031  10.310 -0.3238 -0.3982 -0.0429
  703TMC3    C510447   1.171   3.145  10.236 -0.0809  0.3370 -0.0850
  703TMC3    C610448   1.108   3.262  10.243 -0.9430  0.3694 -0.5731
  703TMC3     C10449   0.956   2.924  10.461 -0.9946 -0.2937  0.0789
  703TMC3     O10450   0.882   2.960  10.551  0.2358 -0.0116 -0.1221
  703TMC3     H10451   0.848   3.159  10.436 -0.4595 -0.4342 -2.8628
  703TMC3    H110452   1.205   2.948  10.315  2.2828  1.6114 -2.0008
  703TMC3    H210453   1.139   3.342  10.178  2.1152 -0.9143 -0.6752
  703TMC3    C710454   1.289   3.144  10.157 -0.5984  0.4777  0.5796
  703TMC3    C810455   0.912   3.389  10.336 -0.7511  0.2627  0.0418
  703TMC3    O110456   1.344   3.250  10.124 -0.2350  0.2359  0.0812
  703TMC3    O210457   0.957   3.479  10.270 -0.4233 -0.3411 -0.3722
  704TMC3    C110458   3.953   1.557  12.839 -0.4568 -0.1922  0.3992
  704TMC3    C210459   4.008   1.587  12.727  0.6367  0.2434 -0.5599
  704TMC3    C310460   4.094   1.510  12.661 -0.0370  0.2379  0.1948
  704TMC3    C410461   3.995   1.454  12.916 -0.4184  0.9568  0.0091
  704TMC3    C510462   4.086   1.367  12.849 -0.4763 -0.6504 -0.4642
  704TMC3    C610463   4.136   1.395  12.726  0.3334 -0.3671 -0.6418
  704TMC3     C10464   3.811   1.560  12.841 -0.2119 -0.3570 -0.1688
  704TMC3     O10465   3.751   1.563  12.950 -0.3175 -0.2152  0.1088
  704TMC3     H10466   3.974   1.668  12.664  1.2994  1.4505  0.6255
  704TMC3    H110467   3.943   1.422  13.005 -0.1045 -2.3911 -1.0188
  704TMC3    H210468   4.206   1.325  12.683 -0.4383 -0.6798 -1.3827
  704TMC3    C710469   4.105   1.230  12.900  0.2871 -0.2096 -1.1207
  704TMC3    C810470   4.039   1.472  12.531  0.0433 -0.7667  0.0270
  704TMC3    O110471   4.105   1.141  12.817 -0.1348  0.1749  0.0534
  704TMC3    O210472   3.919   1.501  12.507 -0.1696 -0.3068 -0.1873
  705MPD2     C10473   2.598   4.301  16.097 -0.5032  0.5759 -0.4760
  705MPD2    C110474   2.612   4.426  16.148  0.0690 -0.4464 -0.4212
  705MPD2    C210475   2.507   4.494  16.208  0.0452 -0.0977  0.4316
  705MPD2    C310476   2.383   4.428  16.217 -0.1787  0.1309 -0.2587
  705MPD2    C410477   2.377   4.297  16.178  0.7771  0.5694 -1.4369
  705MPD2    C510478   2.482   4.230  16.126 -0.4802 -0.8330  0.6206
  705MPD2     H10479   2.527   4.597  16.238  0.4214  0.5052 -1.8409
  705MPD2    H110480   2.286   4.239  16.170  0.3024  1.0919  0.0719
  705MPD2    H210481   2.674   4.247  16.042  0.3115  0.5681  0.6686
  705MPD2    H310482   2.481   4.132  16.079  1.2250  0.2362 -1.6544
  705MPD2     N10483   2.264   4.488  16.254 -0.6495  0.1017 -0.2664
  705MPD2    H510484   2.179   4.431  16.258 -0.4020 -0.2423  0.1408
  705MPD2    N110485   2.739   4.499  16.134 -0.3261 -0.1494  0.2065
  705MPD2    H710486   2.742   4.598  16.158  3.1927  0.2806 -2.0517
  706TMC3    C110487   3.187   4.595  16.046 -0.7693  0.5969 -0.7059
  706TMC3    C210488   3.161   4.729  16.048 -0.5292 -0.3497  0.5379
  706TMC3    C310489   3.033   0.040  16.061  0.1356 -0.1469 -0.2068
  706TMC3    C410490   3.089   4.500  16.043 -0.9047  0.4087 -0.0953
  706TMC3    C510491   2.961   4.551  16.065 -0.1838 -0.4776  0.1312
  706TMC3    C610492   2.931   4.692  16.070  0.4482  0.6706 -0.5224
  706TMC3     C10493   3.323   4.563  16.040  0.5117 -0.5987 -0.3868
  706TMC3     O10494   3.382   4.617  16.136 -0.4166  0.2305 -0.8945
  706TMC3     H10495   3.245   0.054  16.022  0.3589 -1.5736  0.3967
  706TMC3    H110496   3.106   4.395  16.023 -1.1884  0.3926 -0.2522
  706TMC3    H210497   2.833   4.733  16.090  0.1961 -0.8205  1.3019
  706TMC3    C710498   2.854   4.450  16.089 -0.3535  0.0112  0.2482
  706TMC3    C810499   2.997   0.176  16.055 -0.1973  0.2930  0.2236
  706TMC3    O110500   2.892   4.334  16.088 -0.3303 -0.1011  0.3824
  706TMC3    O210501   2.889   0.205  16.007 -0.2990  0.2138 -0.1439
  707TMC3    C110502   3.986   2.495   1.168  0.4753  0.0980 -0.1722
  707TMC3    C210503   3.961   2.452   1.298  0.6285 -0.1560  0.4735
  707TMC3    C310504   3.847   2.387   1.319 -0.4931 -0.5452 -0.3225
  707TMC3    C410505   3.899   2.475   1.064  0.3473  0.0419 -0.2376
  707TMC3    C510506   3.785   2.414   1.096  0.0297 -0.6305 -0.1131
  707TMC3    C610507   3.753   2.367   1.220  0.3735  0.2978  0.6382
  707TMC3     C10508   4.128   2.492   1.129 -0.1610 -0.2012 -0.0689
  707TMC3     O10509   4.204   2.441   1.207 -0.1082  0.3148  0.0378
  707TMC3     H10510   4.035   2.468   1.376 -0.4106  2.6848  0.8824
  707TMC3    H110511   3.898   2.525   0.967 -0.1877  0.8319  0.1681
  707TMC3    H210512   3.679   2.290   1.237  0.1556  1.3414  4.2452
  707TMC3    C710513   3.719   2.365   0.977  0.1544  0.1725 -0.0822
  707TMC3    C810514   3.861   2.289   1.425  0.5154 -0.1161  0.4732
  707TMC3    O110515   3.784   2.369   0.878 -0.0742  0.0590 -0.2192
  707TMC3    O210516   3.769   2.258   1.496 -0.0380  0.2108  0.1537
  708MPD2     C10517   1.133   2.542  14.035 -0.2021  0.6334  0.7497
  708MPD2    C110518   1.097   2.660  14.088  0.5251 -0.3429  0.4222
  708MPD2    C210519   1.157   2.702  14.206 -0.4116 -0.3702  0.1067
  708MPD2    C310520   1.236   2.619  14.278  0.3580  0.9098 -0.6441
  708MPD2    C410521   1.265   2.497  14.229 -0.1864  0.3330 -0.3909
  708MPD2    C510522   1.222   2.460  14.100  0.0007  0.5454 -0.5648
  708MPD2     H10523   1.130   2.797  14.251 -1.9868  0.2780 -2.2390
  708MPD2    H110524   1.340   2.433  14.274 -0.1827  0.6660  0.0771
  708MPD2    H210525   1.110   2.510  13.934 -1.4132 -0.2483  1.2992
  708MPD2    H310526   1.274   2.378  14.051  0.8474 -0.1079  1.4293
  708MPD2     N10527   1.277   2.675  14.407 -0.7111 -0.4733 -0.3435
  708MPD2    H510528   1.270   2.775  14.425  1.2743 -0.3996 -0.0368
  708MPD2    N110529   1.006   2.740  14.019  0.3761  0.1861  0.8303
  708MPD2    H710530   0.961   2.689  13.944  1.3618 -2.3980  2.0051
  709TMC3    C110531   0.820   2.886  14.006  0.0780 -0.7422  0.3333
  709TMC3    C210532   0.774   2.806  13.906  0.3387 -0.0536 -0.1529
  709TMC3    C310533   0.638   2.774  13.915 -0.7841 -0.1751  0.1596
  709TMC3    C410534   0.730   2.943  14.099 -0.4906 -0.2593 -0.1177
  709TMC3    C510535   0.607   2.895  14.111  0.6992  0.0044  1.0026
  709TMC3    C610536   0.553   2.821  14.010  0.5551  0.0647 -0.2465
  709TMC3     C10537   0.946   2.857  14.072 -0.5750  0.5653 -0.4229
  709TMC3     O10538   0.967   2.924  14.176  0.3830 -0.0575  0.4690
  709TMC3     H10539   0.844   2.769  13.832  0.3884  0.1373 -0.1997
  709TMC3    H110540   0.763   3.012  14.176  3.4634  0.4169 -2.4031
  709TMC3    H210541   0.454   2.780  14.020  1.0823 -0.4606  2.6415
  709TMC3    C710542   0.560   2.867  14.244  0.6065 -0.3706 -0.2847
  709TMC3    C810543   0.582   2.674  13.827  0.3594  0.0486 -1.0381
  709TMC3    O110544   0.453   2.810  14.251  0.0437  0.1564 -0.4352
  709TMC3    O210545   0.482   2.617  13.871  0.2436  0.2725 -0.1760
  710TMC3    C110546   1.846   3.541   0.541  0.2119  0.5669  0.1219
  710TMC3    C210547   1.871   3.558   0.405  0.2224 -0.3652  0.1691
  710TMC3    C310548   1.994   3.519   0.356  0.7663 -0.8192 -0.7074
  710TMC3    C410549   1.935   3.489   0.617  0.4985  0.1254  0.8156
  710TMC3    C510550   2.057   3.460   0.570  0.2390 -0.7822 -0.0585
  710TMC3    C610551   2.095   3.480   0.438  0.1269  0.5466  0.5719
  710TMC3     C10552   1.711   3.579   0.586 -0.2652  0.1294  1.2783
  710TMC3     O10553   1.625   3.491   0.596  0.0608  0.2431 -0.0535
  710TMC3     H10554   1.803   3.611   0.339  0.1198 -0.4103  0.2405
  710TMC3    H110555   1.924   3.483   0.725  2.7587 -0.5855  0.9962
  710TMC3    H210556   2.193   3.459   0.397 -0.6473  2.1232 -2.0847
  710TMC3    C710557   2.160   3.403   0.658  0.3745  0.3641  0.2205
  710TMC3    C810558   2.024   3.515   0.217  0.0148  0.1438 -0.5275
  710TMC3    O110559   2.125   3.305   0.717  0.3320  0.0896  0.1667
  710TMC3    O210560   2.133   3.465   0.187  0.4504  0.0989  0.3158
  711TMC3    C110561   2.279   0.130  14.785  1.3472  0.7056  0.0878
  711TMC3    C210562   2.323   0.253  14.810 -0.6114 -1.0093 -0.0730
  711TMC3    C310563   2.415   0.272  14.907  0.5583  0.5496  0.1049
  711TMC3    C410564   2.347   0.026  14.835 -0.7659 -0.1801 -1.0143
  711TMC3    C510565   2.448   0.046  14.919  0.1254  0.2386 -0.3120
  711TMC3    C610566   2.485   0.171  14.960 -0.1740 -0.1330  0.8039
  711TMC3     C10567   2.137   0.103  14.801  0.3711 -0.4221 -0.2225
  711TMC3     O10568   2.089   0.018  14.728  0.1976  0.3437  0.2246
  711TMC3     H10569   2.262   0.330  14.765  1.1511 -0.5539 -1.6904
  711TMC3    H110570   2.313   4.665  14.810 -0.6988 -0.6116  0.6590
  711TMC3    H210571   2.571   0.179  15.025 -1.4502  0.5287  2.4321
  711TMC3    C710572   2.512   4.676  14.994 -0.1006 -0.0047 -0.0853
  711TMC3    C810573   2.375   0.355  15.014 -0.3707  0.4411 -0.4406
  711TMC3    O110574   2.562   4.700  15.103 -0.0165  0.1537  0.2509
  711TMC3    O210575   2.252   0.370  15.011  0.3622  0.2843  0.4952
  712MPD2     C10576   3.408   1.375  14.095  0.3573  0.3289 -0.4289
  712MPD2    C110577   3.322   1.394  13.988 -0.0121  0.3182 -0.4295
  712MPD2    C210578   3.268   1.523  13.953  0.5120  0.1002 -0.3173
  712MPD2    C310579   3.313   1.631  14.023  0.1583 -0.1601 -0.5374
  712MPD2    C410580   3.396   1.613  14.132 -0.0915  0.9270  0.0668
  712MPD2    C510581   3.442   1.489  14.168 -0.5410  0.3387  0.1275
  712MPD2     H10582   3.215   1.533  13.859  0.5326  0.7188 -0.2652
  712MPD2    H110583   3.432   1.695  14.193 -0.1951  1.2559 -0.3129
  712MPD2    H210584   3.462   1.284  14.120  1.0354  1.1807  1.2414
  712MPD2    H310585   3.507   1.472  14.253 -0.5291 -1.1445 -0.1851
  712MPD2     N10586   3.287   1.760  13.980  0.2158 -0.3044  0.5192
  712MPD2    H510587   3.332   1.834  14.033 -2.5593  2.6719 -1.2544
  712MPD2    N110588   3.286   1.288  13.904  0.1635 -0.1613 -0.6365
  712MPD2    H710589   3.236   1.313  13.819 -0.0072 -1.5136 -0.9463
  713TMC3    C110590   3.217   1.934  13.831  0.3020 -0.4489 -0.0903
  713TMC3    C210591   3.343   1.983  13.808  0.0480  0.5426 -0.8385
  713TMC3    C310592   3.362   2.055  13.695 -0.3887 -0.3627 -0.6865
  713TMC3    C410593   3.113   1.981  13.753 -0.1207 -0.8823 -0.1188
  713TMC3    C510594   3.137   2.054  13.645 -0.0182  0.5361 -0.1040
  713TMC3    C610595   3.263   2.078  13.604 -0.2898 -0.1450  0.0297
  713TMC3     C10596   3.202   1.798  13.876  0.3225 -0.5141  0.3634
  713TMC3     O10597   3.121   1.727  13.818  0.6983 -0.3779  0.4071
  713TMC3     H10598   3.422   1.943  13.870 -0.5645  1.8617  0.7669
  713TMC3    H110599   3.013   1.950  13.782  0.4770 -3.3068 -0.6856
  713TMC3    H210600   3.275   2.148  13.522  0.7287  1.9877  1.9959
  713TMC3    C710601   3.043   2.137  13.598  0.1455 -0.0074 -0.3355
  713TMC3    C810602   3.495   2.073  13.637 -0.0065  0.4595  0.9826
  713TMC3    O110603   3.053   2.185  13.487  0.0409 -0.0847  0.0071
  713TMC3    O210604   3.499   2.111  13.521  0.0328 -0.5429 -0.2706
  714MPD2     C10605   0.857   4.615   1.755  0.1434  0.7688 -0.8670
  714MPD2    C110606   0.858   4.549   1.635 -0.3156  0.1293  0.2240
  714MPD2    C210607   0.744   4.540   1.561 -0.4777  0.2492  0.2558
  714MPD2    C310608   0.617   4.575   1.615 -0.4898  0.4569  0.4838
  714MPD2    C410609   0.620   4.639   1.737 -0.3646 -0.4261  0.1607
  714MPD2    C510610   0.732   4.668   1.805 -0.0783 -0.0632 -0.2711
  714MPD2     H10611   0.756   4.497   1.462  0.1668  0.9806  0.0131
  714MPD2    H110612   0.529   4.681   1.779 -0.0459  1.1911 -0.8122
  714MPD2    H210613   0.951   4.632   1.807 -0.0130 -1.8566  0.2395
  714MPD2    H310614   0.733   4.722   1.899  0.5621 -0.7844  0.1326
  714MPD2     N10615   0.507   4.573   1.525 -0.4607 -0.2965  0.0095
  714MPD2    H510616   0.521   4.538   1.431 -2.6244 -1.7909  0.2661
  714MPD2    N110617   0.991   4.508   1.604 -0.1092 -0.1712  0.2223
  714MPD2    H710618   1.067   4.519   1.671  0.1953 -0.8643 -0.0050
  715TMC3    C110619   1.166   4.393   1.495 -0.6789  0.4470 -0.2751
  715TMC3    C210620   1.180   4.271   1.443  0.3811 -0.5577  0.1017
  715TMC3    C310621   1.309   4.218   1.444  0.0062  0.3683  0.1016
  715TMC3    C410622   1.262   4.462   1.563  0.1132 -1.0537  0.1822
  715TMC3    C510623   1.384   4.404   1.563  0.3556  0.4234  0.0191
  715TMC3    C610624   1.410   4.282   1.509  0.0135 -0.3527 -0.1190
  715TMC3     C10625   1.028   4.438   1.491  0.6194 -0.3910 -0.2374
  715TMC3     O10626   0.955   4.402   1.396  0.5154 -0.6352 -0.4767
  715TMC3     H10627   1.100   4.222   1.388 -0.4582 -0.3794  1.1719
  715TMC3    H110628   1.249   4.563   1.601 -0.1235 -0.9194 -0.2568
  715TMC3    H210629   1.507   4.235   1.519 -0.0781 -0.4647  0.2382
  715TMC3    C710630   1.492   4.471   1.638  0.7614  0.8955 -0.1670
  715TMC3    C810631   1.329   4.118   1.339  0.3652  0.2442  0.3872
  715TMC3    O110632   1.606   4.436   1.616  0.3166 -0.5636 -0.6867
  715TMC3    O210633   1.240   4.039   1.321  0.1028 -0.1135 -0.8285
  716MPD2     C10634   0.766   2.796  10.021 -0.1473 -0.2829 -0.0717
  716MPD2    C110635   0.783   2.807   9.887  0.6155 -0.5349  0.8975
  716MPD2    C210636   0.858   2.699   9.828  0.8262 -0.1313  0.4754
  716MPD2    C310637   0.893   2.586   9.905 -0.2002 -0.5642 -0.1639
  716MPD2    C410638   0.864   2.583  10.035 -0.3788  0.0263  0.0040
  716MPD2    C510639   0.806   2.690  10.097  0.5713  0.0448 -0.9441
  716MPD2     H10640   0.880   2.703   9.722  1.4367  1.5282  0.6646
  716MPD2    H110641   0.884   2.497  10.098  1.0425  0.0784 -0.3637
  716MPD2    H210642   0.701   2.872  10.064 -0.7257 -1.5723  1.3167
  716MPD2    H310643   0.769   2.689  10.199  0.8703 -1.3600 -0.8507
  716MPD2     N10644   0.932   2.470   9.829 -0.6485 -0.3670 -0.3175
  716MPD2    H510645   0.929   2.475   9.728  1.1766 -0.2356 -0.3544
  716MPD2    N110646   0.726   2.919   9.821  0.0232 -0.7057  0.1103
  716MPD2    H710647   0.659   2.976   9.871  0.0807  1.3843 -2.1813
  717TMC3    C110648   0.963   2.238   9.792  0.0026  0.1961 -0.1591
  717TMC3    C210649   0.903   2.252   9.667 -0.6124 -1.1570 -0.4781
  717TMC3    C310650   0.859   2.143   9.597  1.1507  0.3348  0.6832
  717TMC3    C410651   0.978   2.108   9.837  0.0119  0.6207  0.1832
  717TMC3    C510652   0.948   2.002   9.760  0.3932  0.5290 -0.3748
  717TMC3    C610653   0.879   2.014   9.641 -0.1284 -0.5188 -0.0359
  717TMC3     C10654   0.960   2.345   9.890  0.4383  0.3012  0.2254
  717TMC3     O10655   0.995   2.327  10.004  0.3042  0.5347 -0.0967
  717TMC3     H10656   0.865   2.344   9.624  0.4879  0.6112  2.3534
  717TMC3    H110657   1.033   2.098   9.930  0.3245 -0.7223 -0.1553
  717TMC3    H210658   0.861   1.925   9.582  1.6090 -2.5425  2.4542
  717TMC3    C710659   1.016   1.878   9.798  0.0981  0.5799 -0.1747
  717TMC3    C810660   0.745   2.166   9.516  0.0230  0.4648  0.3476
  717TMC3    O110661   1.035   1.863   9.915 -0.1945 -0.0714 -0.1395
  717TMC3    O210662   0.746   2.271   9.456  0.9052 -0.3979 -0.2518
  718MPD2     C10663   0.605   1.149  13.385 -0.0094  0.6886  0.2581
  718MPD2    C110664   0.559   1.238  13.292  0.2054 -0.3550  0.2163
  718MPD2    C210665   0.427   1.261  13.281  0.0967  0.3783  0.8274
  718MPD2    C310666   0.333   1.206  13.374  0.6000  0.2157 -0.1146
  718MPD2    C410667   0.380   1.129  13.481  0.3621 -0.0557 -0.1747
  718MPD2    C510668   0.517   1.099  13.473  0.2285  0.5776 -0.0449
  718MPD2     H10669   0.387   1.309  13.192 -0.1988  0.3314  0.9335
  718MPD2    H110670   0.316   1.094  13.561  0.4799 -1.0935 -0.5468
  718MPD2    H210671   0.708   1.117  13.380 -0.7421 -1.6239 -0.3280
  718MPD2    H310672   0.564   1.030  13.543  0.7490  0.2611 -0.7167
  718MPD2     N10673   0.195   1.229  13.355 -0.4194  0.3504 -0.1430
  718MPD2    H510674   0.175   1.315  13.306  2.5010  1.6394  0.9465
  718MPD2    N110675   0.646   1.296  13.200  0.0806  0.1380  0.1692
  718MPD2    H710676   0.733   1.246  13.187 -0.0311  0.8825 -3.2628
  719TMC3    C110677   0.713   1.424  13.022 -0.0554 -0.1206  0.4210
  719TMC3    C210678   0.669   1.336  12.927  0.0333  0.7331 -0.3786
  719TMC3    C310679   0.613   1.383  12.814  0.3926 -0.6395 -0.4831
  719TMC3    C410680   0.720   1.558  12.993 -0.4878  0.1770  0.0607
  719TMC3    C510681   0.686   1.597  12.867 -0.8032 -0.2072  0.1765
  719TMC3    C610682   0.630   1.515  12.779 -0.1984 -0.6500  0.3157
  719TMC3     C10683   0.627   1.411  13.136 -0.0757  0.1291  0.2468
  719TMC3     O10684   0.544   1.496  13.146  0.5086 -0.1910  0.6242
  719TMC3     H10685   0.660   1.229  12.945 -1.7191  0.9274 -0.1371
  719TMC3    H110686   0.754   1.627  13.069 -1.5303 -0.0623  0.7374
  719TMC3    H210687   0.609   1.544  12.676 -1.9334 -2.4550  0.1623
  719TMC3    C710688   0.735   1.727  12.809 -0.0148 -0.3092 -0.1474
  719TMC3    C810689   0.480   1.336  12.801 -0.7496 -0.5856  0.6212
  719TMC3    O110690   0.726   1.744  12.691  0.2473  0.7852 -0.0410
  719TMC3    O210691   0.454   1.251  12.888  0.1312  0.5869  0.1665
  720MPD2     C10692   3.408   3.143  13.799  0.7991 -0.7850  0.2407
  720MPD2    C110693   3.468   3.264  13.814 -0.3336 -0.3816  0.2594
  720MPD2    C210694   3.587   3.272  13.883  0.0171  0.1683  0.0114
  720MPD2    C310695   3.647   3.157  13.943 -1.1177  0.1747 -0.0803
  720MPD2    C410696   3.579   3.037  13.922 -0.0687  0.5756 -0.5255
  720MPD2    C510697   3.463   3.030  13.855  0.2574  0.3792 -0.0504
  720MPD2     H10698   3.627   3.371  13.901 -0.1169 -0.2004  2.3722
  720MPD2    H110699   3.618   2.938  13.942 -1.8835  0.0123  0.2548
  720MPD2    H210700   3.313   3.126  13.749  2.0483 -1.3799 -1.9522
  720MPD2    H310701   3.414   2.936  13.833 -1.4077  1.4565 -0.9090
  720MPD2     N10702   3.780   3.166  14.002 -0.0324  0.5390  0.3121
  720MPD2    H510703   3.832   3.251  13.986  2.0092 -0.1461  3.3402
  720MPD2    N110704   3.419   3.379  13.738 -0.1911 -0.0369 -0.4750
  720MPD2    H710705   3.338   3.361  13.680 -0.3073  0.3163 -0.4217
  721TMC3    C110706   3.980   3.094  14.108  0.1458 -0.0075 -0.0030
  721TMC3    C210707   4.025   3.047  14.224 -0.2975  0.0598  0.0520
  721TMC3    C310708   4.158   3.065  14.235 -0.7125 -0.9021 -0.2197
  721TMC3    C410709   4.050   3.161  14.010 -0.5557 -0.0689 -0.7169
  721TMC3    C510710   4.189   3.162  14.031  0.1581 -0.1246  0.0481
  721TMC3    C610711   4.241   3.125  14.144 -0.0345  0.6173 -0.5820
  721TMC3     C10712   3.833   3.073  14.091  0.6968 -0.1653  0.4299
  721TMC3     O10713   3.774   2.984  14.152 -0.4335  0.1963 -0.7599
  721TMC3     H10714   3.967   2.977  14.282 -0.3980 -0.4624 -0.6764
  721TMC3    H110715   4.004   3.188  13.916 -0.0196 -0.1609 -1.0070
  721TMC3    H210716   4.346   3.120  14.168 -0.5234 -0.3860  1.3537
  721TMC3    C710717   4.278   3.239  13.947 -0.0812  0.2423  0.2651
  721TMC3    C810718   4.224   3.017  14.352  0.1448 -0.2661 -0.3710
  721TMC3    O110719   4.398   3.208  13.963 -0.0704 -0.1967 -0.2538
  721TMC3    O210720   4.334   2.962  14.338  0.0314 -0.2588  0.1946
  722MPD2     C10721   2.276   2.055  12.851 -0.1843 -0.7835 -0.8818
  722MPD2    C110722   2.263   2.100  12.979  0.0672 -0.2811 -0.3241
  722MPD2    C210723   2.161   2.043  13.052 -0.0021 -0.3988  0.4995
  722MPD2    C310724   2.072   1.948  12.997  0.3339  0.0699 -0.6817
  722MPD2    C410725   2.089   1.897  12.868  0.2139  1.1505  0.0256
  722MPD2    C510726   2.196   1.946  12.804 -0.3072  0.1464 -0.2814
  722MPD2     H10727   2.139   2.083  13.151 -0.5984  2.5800 -0.8454
  722MPD2    H110728   2.030   1.819  12.822  1.4706 -0.0201  0.4219
  722MPD2    H210729   2.357   2.097  12.793  0.3822 -0.1764  0.3518
  722MPD2    H310730   2.213   1.904  12.705  0.8362  0.2013 -0.1077
  722MPD2     N10731   1.966   1.907  13.079 -1.1541  0.5387 -0.4714
  722MPD2    H510732   1.962   1.950  13.171 -0.5736  0.5615 -0.4545
  722MPD2    N110733   2.332   2.214  13.032 -0.4504 -0.1643  0.5011
  722MPD2    H710734   2.304   2.251  13.122  1.7595  0.2459  1.0149
  723TMC3    C110735   1.791   1.782  13.147  0.1328 -0.4233  0.0217
  723TMC3    C210736   1.749   1.652  13.149 -1.0439  0.5618 -0.5755
  723TMC3    C310737   1.623   1.628  13.215 -0.2502  0.6740 -0.4542
  723TMC3    C410738   1.727   1.885  13.211  0.1693  0.8834 -1.1374
  723TMC3    C510739   1.611   1.853  13.278  0.1965 -0.7331 -0.3175
  723TMC3    C610740   1.557   1.725  13.274  0.0983 -0.2671  1.1151
  723TMC3     C10741   1.871   1.822  13.034  0.7121  0.4658  0.0463
  723TMC3     O10742   1.857   1.756  12.931 -0.1988 -0.2162 -0.1865
  723TMC3     H10743   1.809   1.581  13.093 -1.4383 -0.5945  0.4403
  723TMC3    H110744   1.745   1.990  13.187 -0.5554  1.0366 -1.0083
  723TMC3    H210745   1.468   1.705  13.333 -1.3538 -0.0234 -1.0035
  723TMC3    C710746   1.503   1.948  13.269  0.2690 -0.2821  0.2385
  723TMC3    C810747   1.589   1.495  13.250  0.2110  0.1473 -0.4591
  723TMC3    O110748   1.394   1.911  13.230 -0.0810  0.3688 -0.0612
  723TMC3    O210749   1.491   1.474  13.326  0.2634 -0.1734 -0.0293
  724TMC3    C110750   2.956   0.578   9.977  0.2274  0.4191  0.3983
  724TMC3    C210751   3.037   0.577   9.872  0.2837  0.4874 -0.1354
  724TMC3    C310752   3.173   0.595   9.884 -0.0352 -1.0178  0.1126
  724TMC3    C410753   3.002   0.611  10.105 -0.1814  0.2564 -0.4003
  724TMC3    C510754   3.141   0.626  10.116 -0.7533  0.6619 -0.4440
  724TMC3    C610755   3.232   0.619  10.007 -0.2917 -0.0405  0.5986
  724TMC3     C10756   2.830   0.498   9.972 -0.0423  0.6209 -0.1390
  724TMC3     O10757   2.744   0.534  10.058 -0.5747  0.3552 -0.3215
  724TMC3     H10758   2.990   0.590   9.776  1.4338  1.6629 -0.5394
  724TMC3    H110759   2.943   0.594  10.194 -1.1705 -0.9339 -1.2752
  724TMC3    H210760   3.337   0.635  10.028 -0.2423 -0.3569  0.5962
  724TMC3    C710761   3.197   0.677  10.242 -0.1872 -0.7037  0.4281
  724TMC3    C810762   3.252   0.608   9.769  0.7982 -0.9581  0.3020
  724TMC3    O110763   3.320   0.665  10.252 -0.3926  0.1659 -0.0168
  724TMC3    O210764   3.226   0.536   9.672 -0.1087  0.4035 -0.2148
  725TMC3    C110765   0.045   3.901  12.512  0.2238  0.1207 -0.3895
  725TMC3    C210766   4.662   3.904  12.568 -0.2560  0.1272 -0.0837
  725TMC3    C310767   4.595   3.785  12.597  0.1657 -0.1295  0.4980
  725TMC3    C410768   0.106   3.780  12.488  0.0040 -0.6514  0.0111
  725TMC3    C510769   0.041   3.666  12.523  0.7463  0.6213 -0.3529
  725TMC3    C610770   4.652   3.670  12.567 -0.0217  0.1276 -0.7390
  725TMC3     C10771   0.117   4.018  12.506  0.7647  0.4537  0.4907
  725TMC3     O10772   0.056   4.124  12.501  0.2342 -0.0425  0.2008
  725TMC3     H10773   4.620   4.002  12.587 -0.4457 -0.0955  0.6436
  725TMC3    H110774   0.206   3.771  12.446  0.1109 -0.1211  0.1588
  725TMC3    H210775   4.602   3.577  12.589  0.5949  0.1848  0.9384
  725TMC3    C710776   0.083   3.554  12.436  0.9436 -0.2040 -0.5723
  725TMC3    C810777   4.450   3.784  12.583  0.1911 -0.2658  0.2048
  725TMC3    O110778   0.110   3.586  12.321 -0.4527  0.1265 -0.0183
  725TMC3    O210779   4.384   3.691  12.631 -0.3592 -0.3947 -0.4053
  726MPD2     C10780   2.146   0.268  10.523  0.4125 -0.0964  0.3279
  726MPD2    C110781   2.092   0.268  10.391 -0.3625 -0.1541 -0.7442
  726MPD2    C210782   2.094   0.152  10.319 -0.5259  0.4992  0.2656
  726MPD2    C310783   2.155   0.037  10.368  0.0815  0.2457 -0.9512
  726MPD2    C410784   2.200   0.036  10.498 -0.1603  0.4993  0.9810
  726MPD2    C510785   2.197   0.150  10.570  0.0265 -0.0636 -0.6727
  726MPD2     H10786   2.065   0.159  10.215 -3.0206 -4.7359  0.6118
  726MPD2    H110787   2.253   4.689  10.536 -1.9371 -0.2902  1.6672
  726MPD2    H210788   2.140   0.353  10.590  1.3838  1.9415 -2.1464
  726MPD2    H310789   2.222   0.144  10.675 -0.0844  1.0464 -0.5820
  726MPD2     N10790   2.159   4.660  10.291 -0.5604 -0.1282 -0.8253
  726MPD2    H510791   2.208   4.577  10.323 -1.9775  0.3530  2.6155
  726MPD2    N110792   2.031   0.380  10.331 -0.3068 -0.3555 -0.0417
  726MPD2    H710793   1.987   0.376  10.240 -2.2460  0.6623  0.8605
  727TMC3    C110794   1.986   0.611  10.292  0.6512  0.1200 -0.3560
  727TMC3    C210795   2.032   0.735  10.324  0.3191  0.4263  0.2926
  727TMC3    C310796   2.019   0.840  10.235  0.1917 -0.0947 -0.6422
  727TMC3    C410797   1.901   0.590  10.188  0.7693  0.2008 -0.7666
  727TMC3    C510798   1.873   0.705  10.109  0.3639  0.2382  0.1529
  727TMC3    C610799   1.942   0.823  10.124 -0.2541  0.3408  0.2569
  727TMC3     C10800   2.018   0.506  10.390  0.1174 -0.7336  0.3269
  727TMC3     O10801   2.050   0.537  10.506  0.0618  0.3440 -0.4063
  727TMC3     H10802   2.091   0.747  10.414 -1.4648  0.5284  1.4430
  727TMC3    H110803   1.842   0.500  10.177 -1.5139  1.7315 -0.9940
  727TMC3    H210804   1.937   0.910  10.059 -1.9825  0.2659  0.3076
  727TMC3    C710805   1.801   0.679   9.979 -0.0749 -0.7098 -0.3164
  727TMC3    C810806   2.130   0.930  10.251 -0.2529 -0.3030  0.0365
  727TMC3    O110807   1.784   0.562   9.953  0.1159 -0.1401 -0.1733
  727TMC3    O210808   2.235   0.891  10.306 -0.2625 -0.3455 -0.4209
  728TMC3    C110809   1.225   3.776  15.832  1.0007 -0.8162  0.0447
  728TMC3    C210810   1.359   3.800  15.844 -0.3056 -0.5328  0.7432
  728TMC3    C310811   1.420   3.853  15.735 -0.1480 -0.3769  0.0702
  728TMC3    C410812   1.152   3.821  15.731 -0.1857 -0.6009  0.2058
  728TMC3    C510813   1.221   3.870  15.625  0.3117  0.2122  0.1985
  728TMC3    C610814   1.353   3.898  15.626 -0.4860  0.5793  0.0887
  728TMC3     C10815   1.175   3.672  15.926 -0.5363 -0.3442 -0.8481
  728TMC3     O10816   1.247   3.636  16.017 -0.0309  0.3192 -0.0741
  728TMC3     H10817   1.421   3.760  15.923  0.4888 -0.3357  0.2193
  728TMC3    H110818   1.046   3.801  15.716  0.1004 -2.2127  0.3609
  728TMC3    H210819   1.408   3.927  15.537 -1.1332  2.1249  0.2100
  728TMC3    C710820   1.151   3.879  15.503 -0.4699 -0.5492  0.5985
  728TMC3    C810821   1.561   3.858  15.746  0.5497 -0.6374 -0.4046
  728TMC3    O110822   1.041   3.829  15.494  0.0067  0.0707 -0.4204
  728TMC3    O210823   1.610   3.866  15.859  0.7642  0.3360  0.6758
  729MPD2     C10824   3.242   0.057  16.452  0.0663  0.3415  0.0570
  729MPD2    C110825   3.367   0.016  16.489  0.3086  0.2345 -0.5315
  729MPD2    C210826   3.396   0.036  16.625  0.1854 -0.0921 -0.3716
  729MPD2    C310827   3.306   0.088  16.721 -0.1195  0.8177  0.3214
  729MPD2    C410828   3.177   0.112  16.679 -0.0153  0.7379  0.0559
  729MPD2    C510829   3.145   0.099  16.545  0.3515  0.1063  0.0349
  729MPD2     H10830   3.493   0.001  16.656  0.1312 -0.7549 -0.9443
  729MPD2    H110831   3.098   0.125  16.751  1.2965  0.1003  1.6143
  729MPD2    H210832   3.223   0.051  16.346 -0.8139 -3.4250  0.4236
  729MPD2    H310833   3.047   0.141  16.523  0.3331 -0.3490 -0.7292
  729MPD2     N10834   3.344   0.112  16.852  0.1635  0.4238 -0.0519
  729MPD2    H510835   3.265   0.124  16.915 -0.5207 -1.0258 -0.6203
  729MPD2    N110836   3.456   4.711  16.390  0.2557  0.4078  0.4658
  729MPD2    H710837   3.428   4.693  16.294  1.3391  1.6250 -0.0732
  730TMC3    C110838   3.485   0.180  17.034 -0.0158 -0.2550  0.5643
  730TMC3    C210839   3.605   0.233  17.075  0.0121 -0.8205  0.1206
  730TMC3    C310840   3.609   0.290  17.202  0.8843  0.3179  0.3350
  730TMC3    C410841   3.377   0.177  17.119 -0.9130  0.0973  0.0535
  730TMC3    C510842   3.380   0.237  17.243 -0.1055  0.3038  0.2861
  730TMC3    C610843   3.497   0.285  17.296 -0.2340 -0.2736 -0.4846
  730TMC3     C10844   3.463   0.169  16.889 -1.0248 -0.2973 -0.4109
  730TMC3     O10845   3.557   0.208  16.823  0.2188  0.1472  0.7296
  730TMC3     H10846   3.690   0.244  17.009  0.4605 -1.7937  0.5192
  730TMC3    H110847   3.292   0.115  17.094 -0.6285  0.7097 -2.5123
  730TMC3    H210848   3.488   0.356  17.378  0.6802 -0.2991 -0.3511
  730TMC3    C710849   3.273   0.337  17.268  0.2289  0.2298  0.3646
  730TMC3    C810850   3.715   0.390  17.212  0.8887 -0.3871  0.1969
  730TMC3    O110851   3.228   0.342  17.386  0.5579 -0.6624 -0.3404
  730TMC3    O210852   3.791   0.408  17.119  0.3778 -0.3326 -0.4201
  731MPD2     C10853   3.800   3.457  12.239  0.0610 -0.1548 -0.7431
  731MPD2    C110854   3.872   3.371  12.327  0.1607 -0.0550 -0.3709
  731MPD2    C210855   3.814   3.337  12.446  0.1362 -0.0858  0.3147
  731MPD2    C310856   3.680   3.369  12.470  0.3782 -0.3967  0.4744
  731MPD2    C410857   3.604   3.426  12.372  0.3753 -0.4163  0.2411
  731MPD2    C510858   3.672   3.480  12.266  0.2256  0.2611 -0.7641
  731MPD2     H10859   3.864   3.298  12.534 -0.6493 -0.3710  0.6393
  731MPD2    H110860   3.503   3.462  12.389  0.0160 -0.8364 -1.0151
  731MPD2    H210861   3.849   3.503  12.154 -1.8838 -0.5520 -2.0653
  731MPD2    H310862   3.611   3.550  12.210 -1.9673 -0.7713  0.3414
  731MPD2     N10863   3.631   3.320  12.589 -0.3973 -0.1407 -0.4347
  731MPD2    H510864   3.696   3.263  12.641  0.0380  0.1553 -0.6543
  731MPD2    N110865   3.998   3.318  12.293 -0.5867 -0.1937  0.8934
  731MPD2    H710866   4.042   3.362  12.212 -0.6481 -0.2957  0.8046
  732TMC3    C110867   4.181   3.173  12.266 -0.2437  0.0094 -0.0598
  732TMC3    C210868   4.220   3.046  12.292 -0.3485 -0.3836 -0.1337
  732TMC3    C310869   4.273   2.976  12.195  0.5950 -0.1568 -0.1509
  732TMC3    C410870   4.189   3.227  12.140  0.5728 -0.2889  0.0334
  732TMC3    C510871   4.254   3.159  12.045  0.1010 -0.0574  0.8686
  732TMC3    C610872   4.305   3.031  12.070  0.4821 -0.7028 -0.6675
  732TMC3     C10873   4.079   3.218  12.351  0.1819  0.2556  0.4730
  732TMC3     O10874   4.044   3.152  12.447  0.1790 -0.0855  0.0187
  732TMC3     H10875   4.200   2.998  12.387 -2.8506  0.5582 -0.1814
  732TMC3    H110876   4.158   3.326  12.107  1.0276  0.5545  2.0938
  732TMC3    H210877   4.349   2.980  11.985  2.0858  0.0214 -0.2742
  732TMC3    C710878   4.266   3.208  11.909  0.0062  0.1362  0.1405
  732TMC3    C810879   4.227   2.843  12.178  0.4006 -0.5947 -0.3226
  732TMC3    O110880   4.199   3.305  11.872 -0.4859  0.0773  0.2383
  732TMC3    O210881   4.269   2.788  12.080  0.0057 -0.3571  0.3548
  733TMC3    C110882   4.476   1.198  13.329  0.6463 -0.7661 -0.3796
  733TMC3    C210883   4.587   1.163  13.398 -0.1504  0.4025 -0.4105
  733TMC3    C310884   4.708   1.162  13.338 -0.0534  0.1837  0.0708
  733TMC3    C410885   4.482   1.225  13.195  1.2825 -0.3443 -0.0580
  733TMC3    C510886   4.606   1.218  13.138 -0.5578 -0.2246 -0.1729
  733TMC3    C610887   4.721   1.185  13.206  0.7464  0.5570  0.5542
  733TMC3     C10888   4.387   1.288  13.399  0.0704 -0.6111 -0.7088
  733TMC3     O10889   4.345   1.388  13.342 -0.2447  0.4646  0.4311
  733TMC3     H10890   4.592   1.177  13.506 -2.0505  2.0217 -0.5291
  733TMC3    H110891   4.398   1.259  13.136  0.2565 -0.5171  1.3166
  733TMC3    H210892   0.079   1.178  13.158  0.0487 -0.6757 -0.7022
  733TMC3    C710893   4.616   1.253  12.994 -0.2606  0.1710 -0.4811
  733TMC3    C810894   0.092   1.156  13.416 -1.1974  0.4882  0.6404
  733TMC3    O110895   4.514   1.275  12.932 -0.0079 -0.1377  0.3353
  733TMC3    O210896   0.085   1.088  13.516  0.5854  0.6405 -0.6179
  734MPD2     C10897   2.395   3.917  11.962 -0.2569 -0.4776  0.0120
  734MPD2    C110898   2.264   3.891  11.913  0.4011  0.4533  0.0838
  734MPD2    C210899   2.250   3.863  11.778  0.1412 -0.0075  0.1250
  734MPD2    C310900   2.356   3.872  11.692  0.4690 -0.1112  0.3357
  734MPD2    C410901   2.477   3.890  11.743  0.7133 -0.0018  0.5084
  734MPD2    C510902   2.498   3.924  11.871 -0.5535 -0.3420  0.1557
  734MPD2     H10903   2.151   3.857  11.734 -0.7042 -0.5022  2.1101
  734MPD2    H110904   2.561   3.883  11.675  0.5562 -0.3070  0.3452
  734MPD2    H210905   2.408   3.952  12.064  2.0565  0.8298 -0.7566
  734MPD2    H310906   2.599   3.933  11.909 -1.0480  1.2091  1.1114
  734MPD2     N10907   2.330   3.837  11.556  0.0791 -0.4531 -0.1218
  734MPD2    H510908   2.234   3.842  11.524 -0.4513 -2.1329  1.1686
  734MPD2    N110909   2.157   3.888  12.002 -0.3974 -0.0191 -0.2985
  734MPD2    H710910   2.187   3.908  12.097 -1.5224 -1.7757  0.4144
  735TMC3    C110911   1.950   3.794  12.099  0.6812  0.2813  0.0256
  735TMC3    C210912   1.839   3.755  12.040 -0.7718 -0.6551 -0.0811
  735TMC3    C310913   1.811   3.620  12.047 -0.7060  0.2834  0.6472
  735TMC3    C410914   2.029   3.716  12.175 -0.0229  0.1835 -0.1129
  735TMC3    C510915   2.006   3.578  12.175 -0.0174 -0.0663 -0.0027
  735TMC3    C610916   1.891   3.531  12.120  0.4623  0.4316 -0.2765
  735TMC3     C10917   2.022   3.865  11.984 -0.7892 -0.0544  0.4107
  735TMC3     O10918   1.960   3.858  11.880 -0.0626  0.4999  0.0106
  735TMC3     H10919   1.777   3.821  11.981  2.9248  2.3361 -0.6252
  735TMC3    H110920   2.128   3.751  12.205 -0.5444  1.7303 -0.1684
  735TMC3    H210921   1.868   3.425  12.119  0.9804  0.3344 -1.2559
  735TMC3    C710922   2.119   3.506  12.123 -0.1047 -0.2252  0.4341
  735TMC3    C810923   1.750   3.554  11.936 -1.2033  0.3571 -0.5660
  735TMC3    O110924   2.231   3.523  12.169  0.1645  0.0342 -0.4875
  735TMC3    O210925   1.709   3.441  11.956 -0.3867 -0.1231 -0.3959
  736MPD2     C10926   2.107   3.397  11.765 -0.3536 -0.0157 -0.3058
  736MPD2    C110927   2.174   3.415  11.886  0.7931  0.5974  0.1961
  736MPD2    C210928   2.308   3.385  11.897 -0.2684  0.3245 -0.0186
  736MPD2    C310929   2.373   3.356  11.777  0.1340  0.5121 -0.3984
  736MPD2    C410930   2.312   3.347  11.660 -0.0359 -0.1258  0.6812
  736MPD2    C510931   2.181   3.369  11.651  0.4592 -0.3259 -0.0411
  736MPD2     H10932   2.368   3.409  11.984 -0.1432  0.2544 -0.0847
  736MPD2    H110933   2.365   3.319  11.569 -0.5585  0.9105  0.0508
  736MPD2    H210934   2.006   3.433  11.750 -0.4521 -0.8244 -1.5487
  736MPD2    H310935   2.133   3.369  11.554 -1.6461  0.4003  1.0075
  736MPD2     N10936   2.513   3.317  11.781  0.8614 -0.0073  0.1679
  736MPD2    H510937   2.554   3.297  11.690  0.7145 -0.9674  0.3159
  736MPD2    N110938   2.088   3.461  11.993  0.0397  0.3088  0.3100
  736MPD2    H710939   1.991   3.463  11.963  0.2347 -3.0541 -0.5556
  737TMC3    C110940   2.721   3.246  11.857 -0.0332  0.1427  1.1683
  737TMC3    C210941   2.757   3.272  11.728  0.2655 -0.0930 -0.2467
  737TMC3    C310942   2.877   3.218  11.684  0.0157  0.2463  0.5130
  737TMC3    C410943   2.798   3.173  11.947 -0.2662  0.1821  0.3329
  737TMC3    C510944   2.911   3.110  11.897 -0.7025  0.3658 -1.0843
  737TMC3    C610945   2.950   3.127  11.764  0.6998  0.6049 -0.3820
  737TMC3     C10946   2.584   3.280  11.894 -0.1039  0.3588  0.1039
  737TMC3     O10947   2.559   3.288  12.011 -0.1358  0.3814 -0.1049
  737TMC3     H10948   2.707   3.336  11.656  0.8848 -0.9681 -1.4679
  737TMC3    H110949   2.770   3.167  12.052 -0.8638 -0.0997  0.1605
  737TMC3    H210950   3.044   3.085  11.731  1.6144 -0.1426  3.1745
  737TMC3    C710951   2.989   3.028  11.988  0.2477  0.5451 -0.3958
  737TMC3    C810952   2.924   3.231  11.545 -0.8051 -0.4579  0.1379
  737TMC3    O110953   2.930   2.961  12.075  0.1507  0.1998  0.5918
  737TMC3    O210954   3.037   3.197  11.523 -0.8218  0.6315 -0.4850
  738MPD2     C10955   3.204   2.250  15.348 -0.0842  0.5068  0.2138
  738MPD2    C110956   3.123   2.242  15.235  0.5430 -0.6592 -0.2401
  738MPD2    C210957   3.178   2.276  15.111  0.0577 -0.0522  0.1145
  738MPD2    C310958   3.307   2.328  15.102 -0.5555  0.1046 -0.0949
  738MPD2    C410959   3.382   2.351  15.220 -0.3823 -1.1870  0.5195
  738MPD2    C510960   3.333   2.309  15.345 -0.0790 -0.2383 -0.1487
  738MPD2     H10961   3.123   2.252  15.021  0.4000 -2.1094  0.4514
  738MPD2    H110962   3.478   2.402  15.211 -1.4749  0.7759  0.1367
  738MPD2    H210963   3.177   2.204  15.443  0.7588 -0.5760 -0.0677
  738MPD2    H310964   3.390   2.306  15.437  1.4568  0.4119 -1.0739
  738MPD2     N10965   3.361   2.377  14.983  0.5305 -0.0166 -0.0900
  738MPD2    H510966   3.456   2.412  14.997 -0.2306  1.8558  0.3551
  738MPD2    N110967   2.994   2.181  15.242 -0.0225  0.5717 -0.2360
  738MPD2    H710968   2.956   2.157  15.151  1.4288  3.0392 -1.5051
  739TMC3    C110969   3.361   2.459  14.758 -0.2359 -0.1655  0.4732
  739TMC3    C210970   3.290   2.511  14.660 -0.4343 -0.3145  0.1198
  739TMC3    C310971   3.348   2.568  14.557 -0.7583 -0.4005  0.5255
  739TMC3    C410972   3.499   2.456  14.754 -0.2728  0.0485 -0.0057
  739TMC3    C510973   3.560   2.522  14.650 -0.6585 -0.0016 -0.2252
  739TMC3    C610974   3.484   2.573  14.545 -0.1475  0.0462 -0.0553
  739TMC3     C10975   3.295   2.390  14.861 -0.5952 -0.2758 -0.6379
  739TMC3     O10976   3.170   2.375  14.840 -0.2849 -0.4822 -0.7589
  739TMC3     H10977   3.182   2.496  14.654 -0.0738 -3.0538  0.9792
  739TMC3    H110978   3.553   2.412  14.838 -0.2389  0.1583  0.0298
  739TMC3    H210979   3.539   2.640  14.480  0.8792 -0.8215 -0.0836
  739TMC3    C710980   3.703   2.518  14.642 -0.3663  0.3097  0.1065
  739TMC3    C810981   3.263   2.631  14.463  0.0149  0.0664  0.3983
  739TMC3    O110982   3.764   2.438  14.713  0.1805 -0.0808 -0.6321
  739TMC3    O210983   3.162   2.685  14.506 -0.8771  0.2217  0.3602
  740TMC3    C110984   3.522   3.393  14.681 -0.0692 -0.2310 -0.6675
  740TMC3    C210985   3.547   3.304  14.784  0.0703  0.1026  0.6490
  740TMC3    C310986   3.645   3.210  14.747  0.4807  0.0803 -0.1987
  740TMC3    C410987   3.603   3.400  14.571 -0.4982  0.1215  1.3947
  740TMC3    C510988   3.682   3.290  14.537 -0.2703 -0.3479 -0.0463
  740TMC3    C610989   3.693   3.183  14.624  0.1521  0.1175 -0.3354
  740TMC3     C10990   3.429   3.491  14.709  0.1046  0.7381 -0.1549
  740TMC3     O10991   3.449   3.597  14.649 -0.2541  0.3147 -0.1420
  740TMC3     H10992   3.508   3.312  14.885 -3.7229  1.7205 -0.9476
  740TMC3    H110993   3.588   3.484  14.504  3.2806 -1.5825 -1.5578
  740TMC3    H210994   3.758   3.104  14.589 -2.1124 -1.9441  0.1372
  740TMC3    C710995   3.790   3.298  14.441 -0.0994  0.2005  0.1820
  740TMC3    C810996   3.678   3.112  14.845 -0.4606  0.4437 -0.0771
  740TMC3    O110997   3.886   3.227  14.465 -0.0269  0.3892 -0.0695
  740TMC3    O210998   3.623   3.123  14.954  0.2548 -0.5698 -0.7498
  741TMC3    C110999   2.830   2.823  14.477  0.1887 -0.2732 -0.3639
  741TMC3    C211000   2.699   2.793  14.473 -0.8425  0.4923  0.1761
  741TMC3    C311001   2.633   2.747  14.582  0.4698  0.6794  0.0264
  741TMC3    C411002   2.894   2.814  14.597  0.0357  0.5620 -0.2190
  741TMC3    C511003   2.824   2.780  14.710 -0.0962  0.0102 -0.2615
  741TMC3    C611004   2.692   2.753  14.707  0.1221  0.5558 -0.0124
  741TMC3     C11005   2.868   2.926  14.379 -0.3266  0.2736 -0.0259
  741TMC3     O11006   2.776   2.969  14.308 -1.1306 -0.1623 -0.2308
  741TMC3     H11007   2.639   2.796  14.383 -0.0654 -0.2320 -0.3627
  741TMC3    H111008   2.997   2.845  14.612 -0.4275  1.7310  0.6429
  741TMC3    H211009   2.639   2.722  14.796 -1.3879 -0.3294 -1.2405
  741TMC3    C711010   2.881   2.750  14.831 -0.4278  0.3901 -0.1197
  741TMC3    C811011   2.513   2.674  14.554 -0.1947 -0.0790 -0.6860
  741TMC3    O111012   2.834   2.648  14.885  0.1247  0.2880 -0.3496
  741TMC3    O211013   2.455   2.701  14.447 -0.3671 -0.1444 -0.4625
  742TMC3    C111014   2.940   1.370  15.293 -0.4985  0.0578  0.1661
  742TMC3    C211015   2.852   1.370  15.189  0.1198 -0.1453 -0.8948
  742TMC3    C311016   2.903   1.405  15.071  0.8503  0.1124 -0.6812
  742TMC3    C411017   3.069   1.402  15.283  0.0105  0.4886 -0.4714
  742TMC3    C511018   3.114   1.460  15.171 -0.2630 -0.0552 -0.8415
  742TMC3    C611019   3.031   1.467  15.062  0.4893  0.1296 -0.1986
  742TMC3     C11020   2.883   1.320  15.418 -0.3533  0.2257 -0.4835
  742TMC3     O11021   2.768   1.283  15.408  0.3726 -0.5028 -0.7153
  742TMC3     H11022   2.756   1.321  15.196 -0.3893  1.1177  0.9177
  742TMC3    H111023   3.131   1.368  15.365 -1.1096  2.5733  1.2303
  742TMC3    H211024   3.061   1.493  14.961 -0.0276 -2.6733 -1.0824
  742TMC3    C711025   3.245   1.521  15.167 -0.1801  0.3775 -0.3410
  742TMC3    C811026   2.815   1.386  14.959  0.7224 -0.3248 -0.2605
  742TMC3    O111027   3.291   1.545  15.055 -0.2380  0.0393 -0.5172
  742TMC3    O211028   2.743   1.286  14.957  0.3630  0.6940  0.1067
  743MPD2     C11029   0.349   1.945   1.674  0.7042 -0.8272  0.4385
  743MPD2    C111030   0.350   1.910   1.546 -0.3367 -0.9141  0.0838
  743MPD2    C211031   0.468   1.909   1.476 -0.0768  0.0485  0.3854
  743MPD2    C311032   0.591   1.955   1.539  0.1918  0.3736 -0.3055
  743MPD2    C411033   0.585   1.988   1.673  0.0018  0.0455 -0.2233
  743MPD2    C511034   0.468   1.963   1.741 -0.2479 -0.1094 -0.7390
  743MPD2     H11035   0.474   1.876   1.373 -0.1855  0.2346  0.3218
  743MPD2    H111036   0.669   2.028   1.727 -1.2369  2.0575  0.2020
  743MPD2    H211037   0.261   1.953   1.737  0.4182  0.9925 -0.1827
  743MPD2    H311038   0.458   1.972   1.848 -0.2004 -0.3937 -0.7115
  743MPD2     N11039   0.710   1.949   1.462 -0.4670  0.1871 -0.8257
  743MPD2    H511040   0.710   1.927   1.363 -1.2651 -0.8710 -0.5916
  743MPD2    N111041   0.238   1.879   1.475 -0.0877  0.1105  0.6122
  743MPD2    H711042   0.243   1.877   1.374 -0.7367  0.6595  0.5720
  744TMC3    C111043   0.012   1.856   1.419  0.4883  0.2489  0.5405
  744TMC3    C211044   4.620   1.876   1.455 -0.2681 -0.3501  0.4525
  744TMC3    C311045   4.536   1.912   1.356  0.3468  0.0012 -0.7628
  744TMC3    C411046   0.060   1.868   1.291 -0.0250  0.2318 -0.2585
  744TMC3    C511047   4.710   1.901   1.197 -0.9943  0.1369  0.6448
  744TMC3    C611048   4.585   1.935   1.229 -0.6172  0.0788 -0.1654
  744TMC3     C11049   0.107   1.863   1.528 -0.2933 -0.1338  0.3131
  744TMC3     O11050   0.071   1.855   1.646  0.0138  0.7869 -0.5896
  744TMC3     H11051   4.599   1.887   1.561  0.3247 -0.9876  0.6357
  744TMC3    H111052   0.163   1.852   1.262 -0.5537  0.9145 -2.5179
  744TMC3    H211053   4.521   1.961   1.145  0.7131  2.3660 -0.4656
  744TMC3    C711054   0.022   1.919   1.065  0.2941 -0.1135 -0.1390
  744TMC3    C811055   4.397   1.949   1.381 -0.0969 -0.6752 -0.2547
  744TMC3    O111056   0.140   1.953   1.068 -0.8225 -0.2325 -0.2710
  744TMC3    O211057   4.333   1.971   1.280  0.4386  0.3155  0.3733
  745TMC3    C111058   3.233   1.086  13.817  1.2447 -0.2948  0.4480
  745TMC3    C211059   3.102   1.052  13.855 -0.2354  0.3947  0.6403
  745TMC3    C311060   2.998   1.067  13.766  0.3379  0.7585 -0.3975
  745TMC3    C411061   3.258   1.128  13.690  0.0612  0.1737  0.0735
  745TMC3    C511062   3.154   1.121  13.597  0.0659  0.2785 -0.2345
  745TMC3    C611063   3.026   1.092  13.634 -0.0583 -0.3734  0.0535
  745TMC3     C11064   3.299   1.159  13.925 -0.6378  0.4193 -0.0668
  745TMC3     O11065   3.313   1.102  14.034 -0.6624 -0.2092 -0.0765
  745TMC3     H11066   3.084   1.033  13.960  1.6794  1.8787  1.2317
  745TMC3    H111067   3.361   1.155  13.669 -0.3360 -0.3290 -2.4213
  745TMC3    H211068   2.940   1.089  13.568 -1.0284 -3.0755  1.4682
  745TMC3    C711069   3.189   1.138  13.452 -0.4713  0.6006 -0.3981
  745TMC3    C811070   2.896   1.163  13.811 -0.9688 -0.4794  0.6076
  745TMC3    O111071   3.133   1.069  13.369 -0.4126 -0.5347  0.2771
  745TMC3    O211072   2.803   1.187  13.734 -0.4540 -0.2035  0.2168
  746TMC3    C111073   0.812   2.699  11.166  0.1318  0.3756  0.0696
  746TMC3    C211074   0.832   2.651  11.036 -0.2488  0.4877  0.0924
  746TMC3    C311075   0.770   2.530  11.011  0.4215 -0.5291  0.2066
  746TMC3    C411076   0.723   2.650  11.259  0.5666 -0.9220  0.2135
  746TMC3    C511077   0.673   2.529  11.225 -0.3794  0.0582  0.1059
  746TMC3    C611078   0.704   2.468  11.107 -0.0830 -0.3681 -0.0735
  746TMC3     C11079   0.859   2.836  11.206  0.0169  0.7916  0.3027
  746TMC3     O11080   0.839   2.871  11.320 -0.0670 -0.0236  0.0998
  746TMC3     H11081   0.898   2.701  10.966 -2.5854  1.8907 -1.1068
  746TMC3    H111082   0.708   2.698  11.356  0.4210  1.9834 -1.2400
  746TMC3    H211083   0.664   2.369  11.088  0.2741 -0.1586 -1.9183
  746TMC3    C711084   0.537   2.496  11.278 -0.4430 -0.1257  0.1012
  746TMC3    C811085   0.779   2.469  10.881 -0.1644  0.2996 -0.3348
  746TMC3    O111086   0.491   2.388  11.232 -0.2479  0.1748 -0.0959
  746TMC3    O211087   0.769   2.348  10.863  0.5313 -0.1636 -0.6388
  747TMC3    C111088   3.783   2.677  11.501  0.1904  0.0718  0.1454
  747TMC3    C211089   3.757   2.662  11.636 -0.0652 -0.4664 -0.2851
  747TMC3    C311090   3.725   2.771  11.709 -0.2302 -0.1533  0.0442
  747TMC3    C411091   3.775   2.799  11.447 -0.1961 -0.4079 -0.2396
  747TMC3    C511092   3.747   2.907  11.521 -0.6216 -0.5827 -0.0593
  747TMC3    C611093   3.715   2.896  11.647 -0.2162  0.3717  0.0582
  747TMC3     C11094   3.806   2.555  11.415 -0.5447  0.9358  0.7962
  747TMC3     O11095   3.856   2.456  11.462 -0.2189 -0.6115 -0.0123
  747TMC3     H11096   3.772   2.563  11.676 -1.5243 -0.5386  0.0674
  747TMC3    H111097   3.802   2.825  11.345  0.4234  0.1430  0.0686
  747TMC3    H211098   3.670   2.979  11.700  1.8414  2.9757 -2.3142
  747TMC3    C711099   3.712   3.039  11.465  0.1864  0.4866 -0.4438
  747TMC3    C811100   3.627   2.739  11.809  0.3941 -0.4198 -0.1874
  747TMC3    O111101   3.693   3.126  11.553  0.2451 -0.2598 -0.3878
  747TMC3    O211102   3.626   2.622  11.844 -0.2729  0.6385  0.1905
  748MPD2     C11103   4.539   2.911   0.531 -0.5040  1.0181  0.3850
  748MPD2    C111104   4.481   3.033   0.550  0.6634  0.7167 -0.0197
  748MPD2    C211105   4.559   3.135   0.602  0.9136 -0.6567 -0.4157
  748MPD2    C311106   4.692   3.121   0.639 -0.3060 -0.2133 -0.3368
  748MPD2    C411107   0.008   3.001   0.615 -0.3450  0.5213 -0.7073
  748MPD2    C511108   4.673   2.893   0.561  1.4551 -0.3226 -0.8153
  748MPD2     H11109   4.517   3.232   0.628 -0.8304 -2.1504  2.3707
  748MPD2    H111110   0.110   2.976   0.644 -0.7863  1.6499  1.8204
  748MPD2    H211111   4.478   2.828   0.496  0.2129  0.9792 -0.7653
  748MPD2    H311112   4.715   2.793   0.553  0.3656 -0.7202 -1.5960
  748MPD2     N11113   0.023   3.229   0.691  0.2587 -0.0436  0.6826
  748MPD2    H511114   4.717   3.320   0.685  0.7116  0.1164 -0.2906
  748MPD2    N111115   4.342   3.045   0.523  0.3056  0.2667  0.4784
  748MPD2    H711116   4.292   2.961   0.496 -0.9879  1.3459 -0.4238
  749TMC3    C111117   0.199   3.354   0.785  0.1915  1.1048 -0.0439
  749TMC3    C211118   0.261   3.361   0.906  0.4646 -0.2232  0.1733
  749TMC3    C311119   0.301   3.479   0.954  0.1594 -0.3491 -0.5723
  749TMC3    C411120   0.180   3.469   0.703  0.2107 -0.5449 -0.3312
  749TMC3    C511121   0.226   3.589   0.756  0.5677 -0.0888  0.3405
  749TMC3    C611122   0.285   3.597   0.881 -0.2347 -0.4169 -0.3028
  749TMC3     C11123   0.149   3.223   0.749  0.0278 -0.1996 -0.5958
  749TMC3     O11124   0.202   3.125   0.805 -0.0444  0.3897 -0.2239
  749TMC3     H11125   0.270   3.277   0.974  0.0184 -0.7184 -0.3853
  749TMC3    H111126   0.143   3.467   0.601  0.1104  0.9235 -0.3232
  749TMC3    H211127   0.319   3.692   0.922  1.5829 -0.9761 -0.5134
  749TMC3    C711128   0.238   3.708   0.678  0.1314  0.3010 -0.1914
  749TMC3    C811129   0.387   3.485   1.073  0.1339 -0.1297 -0.0065
  749TMC3    O111130   0.221   3.812   0.747  0.4296 -0.2425 -0.2285
  749TMC3    O211131   0.416   3.597   1.123  0.2696  1.0883 -0.6400
  750MPD2     C11132   1.653   4.563  10.882  0.2894  0.4729  0.0053
  750MPD2    C111133   1.542   4.558  10.965 -0.0259  0.0960  0.4151
  750MPD2    C211134   1.425   4.517  10.912 -0.0781 -0.8244  0.3270
  750MPD2    C311135   1.410   4.476  10.783 -0.0033  0.2761 -0.2328
  750MPD2    C411136   1.524   4.468  10.708 -0.5930 -0.7646 -0.3378
  750MPD2    C511137   1.643   4.502  10.760 -0.3189 -1.2475 -0.3150
  750MPD2     H11138   1.337   4.508  10.975 -1.2804  1.9590 -0.9658
  750MPD2    H111139   1.530   4.414  10.614  1.1538 -1.6064  0.2452
  750MPD2    H211140   1.750   4.593  10.919 -1.0397  2.1166  2.1852
  750MPD2    H311141   1.727   4.485  10.693 -1.2893 -0.5013 -1.7237
  750MPD2     N11142   1.293   4.422  10.723 -0.1458  0.2124 -0.1568
  750MPD2    H511143   1.303   4.396  10.625  0.6864  0.4947 -0.1554
  750MPD2    N111144   1.562   4.586  11.101 -0.2072 -0.0849 -0.4613
  750MPD2    H711145   1.653   4.625  11.124 -1.2708  0.4253  2.9958
  751TMC3    C111146   1.068   4.337  10.711  0.7584 -0.1255 -0.2565
  751TMC3    C211147   0.957   4.313  10.788  0.4677 -0.2498  0.1282
  751TMC3    C311148   0.854   4.240  10.732  0.9702  0.0684  0.0129
  751TMC3    C411149   1.085   4.294  10.579 -0.4638 -0.6877  0.4686
  751TMC3    C511150   0.981   4.228  10.531  0.1555 -0.4778  1.1035
  751TMC3    C611151   0.868   4.198  10.607  0.2065 -0.2671 -0.0715
  751TMC3     C11152   1.167   4.418  10.782  0.0167  0.5864  0.5086
  751TMC3     O11153   1.136   4.471  10.891 -0.5902  0.1758 -1.0538
  751TMC3     H11154   0.963   4.317  10.896  1.5177 -2.3448  0.1531
  751TMC3    H111155   1.175   4.314  10.522 -0.8971 -0.5535 -0.1684
  751TMC3    H211156   0.784   4.137  10.577 -0.4442 -0.3708  1.9874
  751TMC3    C711157   1.012   4.128  10.429 -0.1733 -0.3764  0.1160
  751TMC3    C811158   0.786   4.158  10.823  0.6625  0.1570  0.3651
  751TMC3    O111159   1.133   4.119  10.401  0.0237 -0.1129 -0.2113
  751TMC3    O211160   0.731   4.060  10.774 -0.3828  0.7326 -0.4927
  752TMC3    C111161   3.673   4.580  17.422 -0.5628 -0.2565  0.7058
  752TMC3    C211162   3.713   4.517  17.542 -0.0519 -0.2140  0.1131
  752TMC3    C311163   3.617   4.438  17.601 -0.3298 -0.8210 -0.8598
  752TMC3    C411164   3.546   4.590  17.380  0.6349 -0.3164  0.2981
  752TMC3    C511165   3.456   4.518  17.443 -0.9031  0.5543 -0.2127
  752TMC3    C611166   3.490   4.428  17.549  0.6246  0.1434 -1.1641
  752TMC3     C11167   3.784   4.644  17.347 -1.0134 -0.0218  0.1752
  752TMC3     O11168   3.882   4.682  17.413  1.1574 -0.1130 -0.0712
  752TMC3     H11169   3.818   4.520  17.569  0.0421  0.4651 -0.3035
  752TMC3    H111170   3.537   4.639  17.284 -0.3459 -0.4839  0.3051
  752TMC3    H211171   3.417   4.376  17.610  2.6794 -2.4120 -0.9001
  752TMC3    C711172   3.321   4.524  17.394  0.5506  0.0422 -0.6611
  752TMC3    C811173   3.663   4.317  17.661 -0.2860  0.0670 -1.0674
  752TMC3    O111174   3.309   4.600  17.296  0.2570 -0.2220 -0.0691
  752TMC3    O211175   3.608   4.209  17.630  0.0924 -0.0041 -0.2383
  753TMC3    C111176   1.986   1.019  13.599 -0.4012 -0.8174  0.1971
  753TMC3    C211177   2.044   0.986  13.719 -0.1900 -0.4210  0.2449
  753TMC3    C311178   2.098   0.862  13.726 -0.1883 -0.0239  0.0832
  753TMC3    C411179   1.974   0.923  13.498  0.8701 -0.4120 -0.3052
  753TMC3    C511180   2.007   0.794  13.522 -0.0284  0.4481  0.1692
  753TMC3    C611181   2.079   0.761  13.636  0.3721  0.6233 -0.1804
  753TMC3     C11182   1.948   1.154  13.581 -0.2624 -0.7716 -0.7917
  753TMC3     O11183   1.920   1.219  13.682 -0.0141 -0.4514 -0.3045
  753TMC3     H11184   2.062   1.062  13.793 -1.5528 -0.7665  0.9453
  753TMC3    H111185   1.917   0.954  13.411 -1.5800 -1.3711  0.9603
  753TMC3    H211186   2.124   0.664  13.651  0.8070  0.8866  0.2326
  753TMC3    C711187   1.974   0.692  13.417 -0.8639  0.4718  0.5246
  753TMC3    C811188   2.180   0.830  13.849 -0.0239  0.1440 -0.1435
  753TMC3    O111189   1.935   0.739  13.307 -0.9394  0.2484 -0.4975
  753TMC3    O211190   2.275   0.753  13.831 -0.0340 -0.2894 -0.4310
  754MPD2     C11191   0.786   0.018  13.085 -0.5165 -0.2047 -0.3221
  754MPD2    C111192   0.734   4.653  13.013 -0.3307  0.0320  0.2385
  754MPD2    C211193   0.683   4.676  12.887 -0.8711  0.2360  0.0831
  754MPD2    C311194   0.689   0.063  12.834  0.1494  0.4526  0.6865
  754MPD2    C411195   0.734   0.171  12.910 -0.7581  0.6239  0.1496
  754MPD2    C511196   0.783   0.149  13.036  0.2794  0.1290 -0.3390
  754MPD2     H11197   0.629   4.593  12.843  3.0134 -2.2851  0.0781
  754MPD2    H111198   0.743   0.270  12.866 -1.9870  0.0717 -1.3063
  754MPD2    H211199   0.824   0.016  13.187 -0.7820  2.4107 -0.1820
  754MPD2    H311200   0.816   0.223  13.108  1.9886  2.1095 -3.1625
  754MPD2     N11201   0.619   0.097  12.718  0.3383  1.3491  0.4165
  754MPD2    H511202   0.581   0.191  12.717  0.6844  1.4816 -0.4097
  754MPD2    N111203   0.742   4.528  13.071 -0.5624  0.3238  0.2406
  754MPD2    H711204   0.759   4.526  13.171  1.7513 -0.7816 -0.1617
  755MPD2     C11205   4.641   0.457  12.973  0.4427  0.8966 -0.4233
  755MPD2    C111206   4.624   0.324  12.955  0.2067  1.6253 -0.3357
  755MPD2    C211207   4.696   0.258  12.863  0.3602  0.6182  1.1133
  755MPD2    C311208   0.061   0.320  12.803  0.4946 -0.0972 -0.0575
  755MPD2    C411209   0.100   0.446  12.833  0.4157  0.2237  0.0668
  755MPD2    C511210   0.012   0.517  12.907 -0.4043 -0.2915 -0.1534
  755MPD2     H11211   4.671   0.155  12.845  1.1108  0.7502 -0.6140
  755MPD2    H111212   0.187   0.494  12.791 -0.4816  1.0061 -0.9003
  755MPD2    H211213   4.587   0.530  13.032 -0.6914 -0.2663 -0.0360
  755MPD2    H311214   0.030   0.622  12.928  1.2560 -0.9419  1.7128
  755MPD2     N11215   0.150   0.243  12.724  0.2929 -0.1470  0.2134
  755MPD2    H511216   0.222   0.286  12.667 -0.6013  1.9031  0.6394
  755MPD2    N111217   4.515   0.254  13.008 -0.5270  1.3732  0.1395
  755MPD2    H711218   4.516   0.156  12.984  0.4693  0.3456  4.3480
  756MPD2     C11219   1.026   1.101   9.674  0.1461 -0.4623 -0.4356
  756MPD2    C111220   0.924   1.021   9.611  0.2507  0.2169 -0.2485
  756MPD2    C211221   0.804   1.078   9.571  0.2781  0.0955 -0.7727
  756MPD2    C311222   0.794   1.218   9.570 -0.2588  0.5007  0.0647
  756MPD2    C411223   0.894   1.293   9.631  0.3387 -0.0462 -0.7728
  756MPD2    C511224   1.002   1.232   9.680  0.1869  0.1600  0.7974
  756MPD2     H11225   0.720   1.024   9.528 -0.1208 -1.5779  2.1433
  756MPD2    H111226   0.890   1.399   9.651  1.4270 -0.4983  1.9028
  756MPD2    H211227   1.118   1.060   9.715  0.9408  0.7025 -1.0695
  756MPD2    H311228   1.074   1.299   9.726  0.7662  0.1863 -0.1479
  756MPD2     N11229   0.665   1.267   9.523  0.0977  0.1157 -0.3847
  756MPD2    H511230   0.596   1.198   9.496  0.4289 -0.0251 -0.8745
  756MPD2    N111231   0.936   0.880   9.588  0.0445  0.0144  0.1738
  756MPD2    H711232   0.853   0.835   9.552  1.9494 -2.8708 -0.5726
  757MPD2     C11233   0.007   0.765   9.628  0.2104  1.0525 -0.2324
  757MPD2    C111234   0.110   0.788   9.709 -0.4827 -0.7682  0.1311
  757MPD2    C211235   0.181   0.908   9.695  0.1609 -0.1208 -0.2771
  757MPD2    C311236   0.143   1.008   9.606 -0.1730 -0.2542 -0.2712
  757MPD2    C411237   0.042   0.977   9.519 -0.4436  0.7038  0.2119
  757MPD2    C511238   4.715   0.856   9.535 -0.4407  0.0057  0.4032
  757MPD2     H11239   0.262   0.927   9.764  0.3066 -2.5316  0.1986
  757MPD2    H111240   0.011   1.038   9.435  0.7039  1.3071  0.2113
  757MPD2    H211241   4.698   0.668   9.628  1.1686  0.5734  1.1354
  757MPD2    H311242   4.629   0.829   9.474 -1.2140 -2.2308  2.5226
  757MPD2     N11243   0.217   1.129   9.587 -0.3565 -0.4146  0.2558
  757MPD2    H511244   0.305   1.128   9.637  0.9228  3.9978 -1.9081
  757MPD2    N111245   0.118   0.687   9.805  0.2082  0.3541  0.1941
  757MPD2    H711246   0.049   0.614   9.804  1.7375 -1.0858  0.2726
  758MPD2     C11247   0.246   3.788  16.014 -0.3892 -0.3927 -0.2246
  758MPD2    C111248   0.319   3.782  16.133  0.3007  0.3950 -0.0766
  758MPD2    C211249   0.261   3.849  16.241  0.1743  0.3217 -0.0558
  758MPD2    C311250   0.135   3.908  16.232 -0.3977  0.1565 -0.4686
  758MPD2    C411251   0.062   3.896  16.117 -0.0319  0.2167 -0.9072
  758MPD2    C511252   0.117   3.841  16.012 -0.2591 -0.2966  0.0585
  758MPD2     H11253   0.318   3.868  16.331 -1.6520 -0.2941  1.2398
  758MPD2    H111254   4.697   3.920  16.103 -0.5883 -1.4727  0.3829
  758MPD2    H211255   0.287   3.750  15.922  0.9142  0.3425  0.0495
  758MPD2    H311256   0.055   3.846  15.923  1.4582  1.2264 -1.0383
  758MPD2     N11257   0.086   3.970  16.340 -0.0823 -0.1338  0.3258
  758MPD2    H511258   0.156   3.979  16.413  1.7288 -3.2493 -1.0299
  758MPD2    N111259   0.446   3.726  16.132 -0.2907  0.4819  0.2284
  758MPD2    H711260   0.487   3.712  16.040  0.5158 -0.9360  0.7973
  759MPD2     C11261   3.866   3.198  10.349  0.6381  0.2202 -0.7921
  759MPD2    C111262   3.949   3.093  10.310 -0.6148 -0.0556  0.1188
  759MPD2    C211263   4.008   3.097  10.187 -0.3654 -0.5666 -0.0417
  759MPD2    C311264   3.966   3.193  10.094  0.3597 -0.2277  0.5907
  759MPD2    C411265   3.900   3.300  10.143  0.0304  0.1014 -1.0261
  759MPD2    C511266   3.839   3.304  10.268 -0.5622  0.3581 -0.4679
  759MPD2     H11267   4.082   3.020  10.171  0.6310  0.4995 -0.5486
  759MPD2    H111268   3.894   3.393  10.087  1.9893  0.2578 -0.9908
  759MPD2    H211269   3.816   3.205  10.445 -0.4500  1.8793 -1.4749
  759MPD2    H311270   3.791   3.396  10.300 -0.6015  1.2219 -3.0042
  759MPD2     N11271   4.020   3.199   9.962  0.5546  0.4184  0.0610
  759MPD2    H511272   4.091   3.130   9.940  0.8852  0.8165 -0.1280
  759MPD2    N111273   3.994   2.985  10.390  0.2543  0.0423  0.0471
  759MPD2    H711274   4.077   2.938  10.355  0.4063 -0.7001  1.4123
  760MPD2     C11275   3.686   0.397  12.227  0.2923  0.4756  0.1578
  760MPD2    C111276   3.823   0.371  12.200  1.2703  0.2801  0.0775
  760MPD2    C211277   3.876   0.243  12.209  0.6401 -0.3703  0.6817
  760MPD2    C311278   3.787   0.134  12.236 -0.2073 -0.5667 -0.5245
  760MPD2    C411279   3.659   0.164  12.280 -0.3247 -0.1422 -0.1532
  760MPD2    C511280   3.615   0.295  12.270  0.5487 -0.2853  0.2771
  760MPD2     H11281   3.979   0.227  12.180  1.1892  0.6571  2.0786
  760MPD2    H111282   3.596   0.082  12.313  0.9465 -0.4721  1.4582
  760MPD2    H211283   3.642   0.496  12.231  0.1289  0.3722  0.8596
  760MPD2    H311284   3.511   0.310  12.293  0.5084 -1.0408  0.6174
  760MPD2     N11285   3.829   4.737  12.221  0.4904 -0.5033 -0.3149
  760MPD2    H511286   3.764   4.664  12.250  0.4163 -0.8078 -1.2622
  760MPD2    N111287   3.914   0.464  12.155  0.5282  0.5161 -0.2158
  760MPD2    H711288   4.009   0.431  12.143  0.7012  0.9568 -0.0747
  761MPD2     C11289   0.475   4.094  11.236 -0.0283  0.5470  0.6525
  761MPD2    C111290   0.490   4.016  11.125  0.2982  0.5302  0.6387
  761MPD2    C211291   0.584   4.042  11.023 -0.0383 -0.0461 -0.2446
  761MPD2    C311292   0.668   4.157  11.043  0.0885  0.2417 -0.2185
  761MPD2    C411293   0.646   4.242  11.152  0.2679  0.2279 -0.1155
  761MPD2    C511294   0.550   4.208  11.240  0.1839 -0.4398 -0.0112
  761MPD2     H11295   0.602   3.973  10.941 -2.6024  3.7234 -3.9845
  761MPD2    H111296   0.702   4.333  11.171  1.1825 -0.3005 -0.2311
  761MPD2    H211297   0.396   4.076  11.308  0.1575 -1.1219  0.4323
  761MPD2    H311298   0.541   4.263  11.333  0.4909 -1.4063  0.5918
  761MPD2     N11299   0.774   4.206  10.951 -0.4376  0.6408  0.3778
  761MPD2    H511300   0.814   4.293  10.983  0.9921 -0.2170  0.9075
  761MPD2    N111301   0.417   3.900  11.117 -0.0698  0.3458 -0.5263
  761MPD2    H711302   0.361   3.876  11.198  0.1165 -1.9310 -1.0830
  762MPD2     C11303   0.547   3.676  10.559  0.5828 -0.1570  0.8854
  762MPD2    C111304   0.560   3.559  10.631  0.1872 -0.4057 -0.0793
  762MPD2    C211305   0.659   3.468  10.594  0.6733 -0.4476 -0.1307
  762MPD2    C311306   0.733   3.489  10.478 -0.2612 -0.5856  0.1809
  762MPD2    C411307   0.710   3.603  10.395 -0.2704 -0.0843  0.2106
  762MPD2    C511308   0.619   3.697  10.444 -0.2745 -0.2579  0.3603
  762MPD2     H11309   0.668   3.377  10.651  0.9064 -0.9881 -1.0216
  762MPD2    H111310   0.754   3.627  10.299 -0.7745  1.0295  0.2605
  762MPD2    H211311   0.482   3.760  10.582 -1.7903 -1.8787  0.5529
  762MPD2    H311312   0.599   3.789  10.390 -2.2064  0.1148  1.6916
  762MPD2     N11313   0.819   3.387  10.438 -0.3813  0.0673  0.7587
  762MPD2    H511314   0.829   3.307  10.498  0.3953 -1.1740 -1.0430
  762MPD2    N111315   0.478   3.553  10.744  0.3369  0.4535  0.3588
  762MPD2    H711316   0.423   3.636  10.762  0.0165  0.9375 -2.8946
  763MPD2     C11317   2.507   4.622  15.852 -0.5368  0.2847  0.3566
  763MPD2    C111318   2.376   4.590  15.883  0.3408  0.3609 -0.3168
  763MPD2    C211319   2.299   4.671  15.966 -0.4421  0.5313 -0.0961
  763MPD2    C311320   2.351   0.051  16.014  0.4908  0.7433  0.8057
  763MPD2    C411321   2.492   0.079  15.996 -0.1024 -0.0738  0.2072
  763MPD2    C511322   2.562   4.728  15.917  0.8176  0.3421  0.4164
  763MPD2     H11323   2.201   4.644  16.002  0.3011  1.7535  2.8891
  763MPD2    H111324   2.542   0.174  16.016  0.1396 -0.2261  0.3356
  763MPD2    H211325   2.572   4.556  15.795  0.4136  1.0103  0.6248
  763MPD2    H311326   2.663   0.013  15.888  0.4803  0.4165 -0.6846
  763MPD2     N11327   2.272   0.149  16.073  0.2005 -0.0391  0.4912
  763MPD2    H511328   2.328   0.230  16.100 -0.0464 -0.0367  0.9960
  763MPD2    N111329   2.318   4.463  15.850 -0.2309 -0.1971 -0.5925
  763MPD2    H711330   2.231   4.447  15.900  0.3645  0.4846  0.6589
  764MPD2     C11331   0.046   0.748  17.739  0.6484 -0.6152 -0.8713
  764MPD2    C111332   4.655   0.712  17.715 -0.3175  0.3337  0.6199
  764MPD2    C211333   4.588   0.646   0.058  0.1797  0.1309  0.0789
  764MPD2    C311334   4.641   0.626   0.182  0.1067 -0.0582  0.9403
  764MPD2    C411335   0.029   0.674   0.206  0.1052 -0.3000  0.4636
  764MPD2    C511336   0.101   0.731   0.103  0.0335  0.7816  0.3154
  764MPD2     H11337   4.489   0.608   0.036 -0.1931  1.4219 -0.4875
  764MPD2    H111338   0.084   0.655   0.297  3.4893  0.4957 -1.4042
  764MPD2    H211339   0.108   0.795  17.664 -0.2997  1.6371 -0.2213
  764MPD2    H311340   0.207   0.745   0.120  0.2574 -0.2577 -0.2155
  764MPD2     N11341   4.558   0.551   0.271  0.0672 -0.0954  0.0376
  764MPD2    H511342   4.468   0.520   0.236  0.0084 -0.5061  0.5521
  764MPD2    N111343   4.587   0.752  17.596 -0.3273 -0.7421 -0.7341
  764MPD2    H711344   4.488   0.730  17.585  0.0940 -3.1676  0.2009
  765MPD2     C11345   4.624   3.523  15.334 -0.0401  0.3201  0.4821
  765MPD2    C111346   4.683   3.557  15.455 -0.0096  0.0713 -0.0074
  765MPD2    C211347   0.033   3.480  15.516 -0.1462  0.5494  0.1927
  765MPD2    C311348   0.084   3.367  15.456  0.3410 -0.4210 -0.7003
  765MPD2    C411349   0.024   3.320  15.335 -0.2540  0.1938 -0.2634
  765MPD2    C511350   4.660   3.402  15.282  0.2302 -0.0739 -0.2772
  765MPD2     H11351   0.070   3.512  15.613  0.2693  0.5711  0.0246
  765MPD2    H111352   0.060   3.231  15.284 -2.0447 -0.4513 -0.3856
  765MPD2    H211353   4.543   3.570  15.279  0.1937 -0.2302 -0.3214
  765MPD2    H311354   4.605   3.359  15.199  0.8242  1.6778 -1.5701
  765MPD2     N11355   0.201   3.304  15.522  0.0597 -0.5640 -0.2150
  765MPD2    H511356   0.243   3.348  15.604  0.8452 -0.5344 -0.6312
  765MPD2    N111357   4.640   3.678  15.510  0.2020  0.4625 -0.6018
  765MPD2    H711358   4.568   3.732  15.462 -1.4699 -0.3468  1.0029
  766MPD2     C11359   4.075   3.682  15.471  0.0975 -0.2357  0.1385
  766MPD2    C111360   4.175   3.771  15.506 -0.4039  0.5207  0.4746
  766MPD2    C211361   4.264   3.809  15.409 -0.8880  0.1437  0.5738
  766MPD2    C311362   4.257   3.754  15.281  0.2905 -0.2571 -0.0496
  766MPD2    C411363   4.152   3.670  15.244 -0.0425 -0.2870  0.0045
  766MPD2    C511364   4.063   3.638  15.346 -0.1380 -0.0694 -0.2027
  766MPD2     H11365   4.340   3.883  15.430  0.0873 -0.7261  0.1256
  766MPD2    H111366   4.137   3.627  15.145 -1.4366 -3.1301  1.4521
  766MPD2    H211367   4.010   3.649  15.551 -2.1746 -0.8409 -1.9668
  766MPD2    H311368   3.972   3.582  15.330  0.5800 -0.8487 -1.6010
  766MPD2     N11369   4.355   3.784  15.184  0.2937 -0.2966  0.6727
  766MPD2    H511370   4.339   3.748  15.090 -1.5808 -1.2994  1.3873
  766MPD2    N111371   4.163   3.826  15.636 -0.0105  0.4949 -0.0194
  766MPD2    H711372   4.085   3.805  15.698  1.6715 -1.0611  1.6162
  767MPD2     C11373   4.102   4.030  15.161  0.5834  0.5746  0.2125
  767MPD2    C111374   4.195   4.090  15.079 -0.4252  0.4462 -0.1186
  767MPD2    C211375   4.194   4.056  14.947 -0.4837 -0.1815  0.6320
  767MPD2    C311376   4.118   3.947  14.906  0.7723 -0.5832  0.3257
  767MPD2    C411377   4.025   3.897  14.993  0.1842 -0.4540  0.1194
  767MPD2    C511378   4.009   3.941  15.119 -0.3282  0.9594 -0.1083
  767MPD2     H11379   4.259   4.094  14.869  1.5315 -2.6156  1.1291
  767MPD2    H111380   3.961   3.813  14.971 -1.5879  0.5953  1.2848
  767MPD2    H211381   4.090   4.072  15.260 -0.9443  0.9450 -0.1239
  767MPD2    H311382   3.934   3.905  15.189 -0.8940 -0.6392 -1.5530
  767MPD2     N11383   4.156   3.896  14.777  0.1523 -0.6085  0.0037
  767MPD2    H511384   4.247   3.925  14.743 -0.6249  0.6181 -1.0692
  767MPD2    N111385   4.278   4.183  15.132 -0.3267 -0.0565  1.1331
  767MPD2    H711386   4.266   4.192  15.232 -1.2102  0.7007  0.9580
  768MPD2     C11387   4.731   1.876  10.983 -0.4486  0.1650  0.0279
  768MPD2    C111388   4.735   1.963  11.090  0.8494 -0.8389 -0.0323
  768MPD2    C211389   0.101   1.959  11.181 -0.6765  0.2634  0.2025
  768MPD2    C311390   0.206   1.876  11.162  0.0589 -0.1057 -0.3426
  768MPD2    C411391   0.206   1.793  11.051  0.3781 -0.6270  0.3500
  768MPD2    C511392   0.102   1.798  10.964  0.7221 -0.5334  0.4793
  768MPD2     H11393   0.096   2.040  11.252 -0.1739 -1.1215  1.7977
  768MPD2    H111394   0.286   1.720  11.047  0.4948 -0.3853 -1.9241
  768MPD2    H211395   4.642   1.875  10.922 -1.4631 -0.0256  1.5018
  768MPD2    H311396   0.097   1.735  10.876 -0.7623 -1.0004  0.9024
  768MPD2     N11397   0.329   1.881  11.237 -0.5708  0.1767  0.6150
  768MPD2    H511398   0.411   1.855  11.183 -1.1896  0.4545 -0.4585
  768MPD2    N111399   4.637   2.063  11.112  0.2432  0.5461 -0.0410
  768MPD2    H711400   4.653   2.128  11.187 -0.0116  0.1639  0.3451
  769MPD2     C11401   1.628   0.424  14.757  0.2560 -0.4489 -0.0130
  769MPD2    C111402   1.512   0.494  14.775  0.7256 -0.4184  0.8390
  769MPD2    C211403   1.515   0.585  14.880 -0.5219 -0.4374 -0.3031
  769MPD2    C311404   1.623   0.594  14.965  1.1028 -0.6147 -0.1016
  769MPD2    C411405   1.745   0.537  14.925 -0.3523 -0.5084 -0.1061
  769MPD2    C511406   1.749   0.453  14.816 -0.1028 -0.5175  0.2850
  769MPD2     H11407   1.426   0.632  14.922 -0.7572  0.0221 -1.3226
  769MPD2    H111408   1.837   0.548  14.981 -1.8523  3.0778  1.6475
  769MPD2    H211409   1.638   0.351  14.678  0.6171 -1.7958  1.2544
  769MPD2    H311410   1.840   0.403  14.785 -1.7706 -1.8117 -2.4778
  769MPD2     N11411   1.605   0.662  15.087 -0.2545  0.2359  0.0251
  769MPD2    H511412   1.515   0.704  15.107 -0.3525 -0.1132  0.3129
  769MPD2    N111413   1.396   0.459  14.702  0.6440  0.2112 -0.3007
  769MPD2    H711414   1.395   0.374  14.647 -1.5057 -1.1830  1.9423
  770MPD2     C11415   0.911   0.132  15.364  0.2024  0.2895  0.4198
  770MPD2    C111416   0.916   0.037  15.261  0.4764 -0.6304 -0.3457
  770MPD2    C211417   0.919   0.081  15.130 -0.2098 -0.0395 -0.2477
  770MPD2    C311418   0.913   0.214  15.100  0.0795  0.5405 -0.6261
  770MPD2    C411419   0.885   0.303  15.200 -0.0534 -0.5249  0.5466
  770MPD2    C511420   0.887   0.262  15.333  0.7136  0.0559 -0.0818
  770MPD2     H11421   0.938   0.012  15.049 -1.0845 -0.7343  0.1288
  770MPD2    H111422   0.862   0.408  15.192  2.3736 -0.0824 -0.6950
  770MPD2    H211423   0.918   0.105  15.468  0.3816 -1.4505 -0.0414
  770MPD2    H311424   0.861   0.332  15.411 -3.1285 -0.8841 -0.5118
  770MPD2     N11425   0.932   0.257  14.968 -0.3170 -0.4258  0.4752
  770MPD2    H511426   0.958   0.191  14.894 -0.8349  0.6338 -0.6504
  770MPD2    N111427   0.911   4.634  15.289  0.4546  0.9077  0.2656
  770MPD2    H711428   0.917   4.608  15.386 -0.5503 -0.5731 -0.0757
  771MPD2     C11429   2.235   3.077  13.759 -0.2020 -0.3788 -0.4004
  771MPD2    C111430   2.135   3.178  13.743 -0.1847  0.3070 -0.1189
  771MPD2    C211431   2.019   3.142  13.679  0.4085  0.6860 -0.3114
  771MPD2    C311432   1.989   3.009  13.643 -0.3783  0.2844  0.4523
  771MPD2    C411433   2.085   2.912  13.666  0.7736 -0.0927  0.5126
  771MPD2    C511434   2.208   2.952  13.719 -0.5865  0.5695  0.8007
  771MPD2     H11435   1.942   3.217  13.661  0.2219  0.0590 -2.1937
  771MPD2    H111436   2.066   2.808  13.643 -2.8618  0.6389  0.0861
  771MPD2    H211437   2.332   3.099  13.802 -0.4440 -1.8027  0.8581
  771MPD2    H311438   2.296   2.889  13.717 -1.7792 -1.0203 -1.5253
  771MPD2     N11439   1.872   2.977  13.574  0.3057  0.0418 -0.2238
  771MPD2    H511440   1.814   3.055  13.544 -0.5073  0.7528  3.2285
  771MPD2    N111441   2.152   3.315  13.773 -0.1429  0.3432  0.4012
  771MPD2    H711442   2.074   3.379  13.755  0.5296  0.9924 -0.2061
  772MPD2     C11443   1.716   3.792  13.964 -0.2415  0.3838 -0.3818
  772MPD2    C111444   1.760   3.662  13.969 -0.1948 -0.7069  0.5812
  772MPD2    C211445   1.677   3.562  13.999 -0.1879  0.5519  0.5291
  772MPD2    C311446   1.539   3.584  14.031  0.0201  0.0282  0.3720
  772MPD2    C411447   1.496   3.718  14.029  0.4892  0.0459 -1.0425
  772MPD2    C511448   1.583   3.822  14.009 -0.5018 -0.0396 -0.1226
  772MPD2     H11449   1.703   3.457  13.989  0.7976  0.9567 -1.1547
  772MPD2    H111450   1.393   3.751  14.040 -0.0299 -2.2676  0.9616
  772MPD2    H211451   1.775   3.881  13.944  0.8265 -0.0655  0.7650
  772MPD2    H311452   1.550   3.925  14.002 -1.0026 -0.1212  1.0406
  772MPD2     N11453   1.444   3.481  14.048  0.4253 -0.3050  0.0579
  772MPD2    H511454   1.348   3.509  14.063  0.5175 -0.9533  1.9009
  772MPD2    N111455   1.895   3.639  13.937  0.2129 -0.7196 -0.3366
  772MPD2    H711456   1.916   3.540  13.928 -0.4636 -0.8303 -0.6811
  773MPD2     C11457   0.672   4.092   0.429  0.2173 -0.3301  0.9924
  773MPD2    C111458   0.758   4.143   0.330 -0.7001 -0.7923 -0.2463
  773MPD2    C211459   0.892   4.094   0.321  0.3331  0.7450 -0.1609
  773MPD2    C311460   0.933   4.008   0.423  0.0258 -1.0284 -0.5183
  773MPD2    C411461   0.851   3.976   0.531 -0.8683  0.8807 -0.3004
  773MPD2    C511462   0.725   4.018   0.529  0.1394 -0.3720  0.2908
  773MPD2     H11463   0.955   4.132   0.241 -0.5198  0.2823 -1.0524
  773MPD2    H111464   0.892   3.925   0.618  1.1243  2.8274 -0.1213
  773MPD2    H211465   0.570   4.126   0.440  0.4548 -0.1764  2.6760
  773MPD2    H311466   0.659   3.984   0.608 -0.6892 -0.2727 -0.3574
  773MPD2     N11467   1.056   3.938   0.418  0.4904 -0.4389  0.1702
  773MPD2    H511468   1.082   3.868   0.486  1.3143 -0.1351  0.1624
  773MPD2    N111469   0.699   4.214   0.222 -0.4221 -0.1537  0.3084
  773MPD2    H711470   0.750   4.214   0.135 -1.2143 -0.2091 -0.1585
  774MPD2     C11471   0.615   3.448  13.136  0.2194 -0.3390 -0.2414
  774MPD2    C111472   0.507   3.506  13.194  1.0400  0.2559  0.4812
  774MPD2    C211473   0.485   3.638  13.167 -0.3576 -0.2991 -0.5989
  774MPD2    C311474   0.577   3.712  13.089  0.2816 -0.2024  0.3199
  774MPD2    C411475   0.682   3.648  13.029 -0.5500  0.0353 -0.3257
  774MPD2    C511476   0.694   3.516  13.049 -0.0556  0.9808  0.6508
  774MPD2     H11477   0.403   3.689  13.215  1.6183  0.1585  2.2815
  774MPD2    H111478   0.767   3.700  12.986 -0.4203  0.3442  0.2973
  774MPD2    H211479   0.633   3.342  13.149  0.5155 -0.3634 -0.8905
  774MPD2    H311480   0.778   3.466  13.004  0.1280  1.5964  0.3015
  774MPD2     N11481   0.565   3.852  13.094 -0.3777 -0.3896  0.2347
  774MPD2    H511482   0.495   3.888  13.158  0.2007 -0.7107  1.0565
  774MPD2    N111483   0.428   3.427  13.286 -0.2333  0.3556 -0.8588
  774MPD2    H711484   0.465   3.337  13.313  3.6298  1.0835 -3.6415
  775MPD2     C11485   1.741   0.484  15.551  0.1140  0.5068 -0.3590
  775MPD2    C111486   1.755   0.591  15.635 -0.2834 -0.2094 -0.6755
  775MPD2    C211487   1.864   0.677  15.621 -0.0876  0.0138  0.1159
  775MPD2    C311488   1.949   0.659  15.517  0.9077 -0.7649  0.0703
  775MPD2    C411489   1.948   0.539  15.445 -1.0518 -1.0817 -0.6524
  775MPD2    C511490   1.846   0.453  15.468 -0.5684 -0.6142  0.5510
  775MPD2     H11491   1.865   0.756  15.695  0.6540  1.1297 -1.0831
  775MPD2    H111492   2.022   0.506  15.373  1.1630  0.9282  0.7115
  775MPD2    H211493   1.662   0.413  15.571 -1.2893  2.0197 -0.5726
  775MPD2    H311494   1.846   0.358  15.415 -0.6844  0.7084 -1.8546
  775MPD2     N11495   2.061   0.738  15.491  0.4806  0.6164  0.5159
  775MPD2    H511496   2.114   0.724  15.405 -1.3438  1.2784 -0.7070
  775MPD2    N111497   1.655   0.600  15.731  0.8427 -0.6934  0.5364
  775MPD2    H711498   1.600   0.515  15.740  0.8938 -0.4891  2.7671
  776MPD2     C11499   1.906   0.413  11.642 -0.1696  0.8822 -0.2722
  776MPD2    C111500   1.834   0.398  11.527 -0.2973 -0.7311  0.1498
  776MPD2    C211501   1.813   0.504  11.442 -0.6714  0.4307  0.8241
  776MPD2    C311502   1.868   0.627  11.463  0.1144 -0.5500 -0.6468
  776MPD2    C411503   1.949   0.641  11.570  1.1166 -1.0222 -0.2712
  776MPD2    C511504   1.966   0.537  11.658 -0.6392 -0.2283 -0.0142
  776MPD2     H11505   1.752   0.489  11.355  2.0312 -0.7549 -0.8688
  776MPD2    H111506   2.000   0.733  11.596 -2.2144  0.0956  2.2379
  776MPD2    H211507   1.923   0.337  11.718  0.0779  0.3931 -0.8219
  776MPD2    H311508   2.028   0.553  11.745  1.1222 -1.6609 -1.0281
  776MPD2     N11509   1.843   0.741  11.380 -0.1589 -0.1702  0.3258
  776MPD2    H511510   1.893   0.826  11.405 -0.1651  0.6000 -2.3085
  776MPD2    N111511   1.770   0.267  11.507 -0.3841 -0.3935 -0.2725
  776MPD2    H711512   1.771   0.204  11.586  2.1374 -0.0516 -0.0358
  777MPD2     C11513   1.110   2.309   0.949  0.4555 -0.6629 -0.6132
  777MPD2    C111514   0.984   2.365   0.971 -0.6773 -0.3870 -0.1921
  777MPD2    C211515   0.878   2.318   0.893  0.4251 -0.3856 -0.2327
  777MPD2    C311516   0.901   2.237   0.783  0.3145  0.3996 -0.4330
  777MPD2    C411517   1.032   2.202   0.747  0.3223  0.0053  0.0379
  777MPD2    C511518   1.136   2.236   0.831  0.5061  0.0125 -0.6305
  777MPD2     H11519   0.776   2.337   0.924 -0.4018 -2.6029 -1.5544
  777MPD2    H111520   1.049   2.149   0.654  0.5901  0.8658 -0.3969
  777MPD2    H211521   1.192   2.338   1.014 -0.8880 -0.5520  1.0403
  777MPD2    H311522   1.233   2.200   0.797  0.9631 -0.7427  1.4447
  777MPD2     N11523   0.793   2.193   0.703  0.4594  0.2141 -0.3476
  777MPD2    H511524   0.701   2.204   0.744  0.9830  0.9364  0.6270
  777MPD2    N111525   0.969   2.458   1.079  0.1186  0.3727  0.2850
  777MPD2    H711526   1.052   2.481   1.133  1.5258 -2.4159 -0.6700
  778MPD2     C11527   2.303   3.453  14.854 -0.1139  0.3742  0.2021
  778MPD2    C111528   2.321   3.333  14.801  0.0357 -0.7227  0.5899
  778MPD2    C211529   2.442   3.303  14.747 -0.1820 -0.5037  0.0786
  778MPD2    C311530   2.541   3.400  14.724  0.5211 -0.3434  0.4904
  778MPD2    C411531   2.514   3.527  14.769  0.0014 -0.0773 -0.2811
  778MPD2    C511532   2.397   3.549  14.839  0.1527 -0.2775 -0.5874
  778MPD2     H11533   2.465   3.200  14.722  0.3255 -0.1865 -0.7960
  778MPD2    H111534   2.584   3.605  14.743 -0.7865  0.9237  0.6078
  778MPD2    H211535   2.207   3.479  14.899 -0.7802  0.2754 -1.1688
  778MPD2    H311536   2.386   3.650  14.876 -0.0729  0.8079 -3.5706
  778MPD2     N11537   2.663   3.356  14.662  0.2584  0.9554 -0.9075
  778MPD2    H511538   2.677   3.257  14.643 -1.6574  0.1415  1.9538
  778MPD2    N111539   2.208   3.241  14.794  0.2587  0.4276 -0.0769
  778MPD2    H711540   2.220   3.152  14.746  0.5732  0.9179 -0.9055
  779MPD2     C11541   1.626   1.706  14.380  0.1727  0.6073  0.4278
  779MPD2    C111542   1.759   1.741  14.386 -0.3213  0.0633  0.3361
  779MPD2    C211543   1.791   1.880  14.363  0.1539  0.1377  0.3949
  779MPD2    C311544   1.696   1.967  14.305  0.0742  0.8104 -0.6281
  779MPD2    C411545   1.563   1.918  14.295 -0.6970 -0.9038 -0.0848
  779MPD2    C511546   1.530   1.792  14.339 -0.4521 -0.1698  0.0558
  779MPD2     H11547   1.894   1.913  14.374  0.5493 -1.2247  0.7899
  779MPD2    H111548   1.492   1.980  14.240  2.7024  0.8487 -2.5449
  779MPD2    H211549   1.590   1.607  14.408 -0.0023  0.3217 -0.8343
  779MPD2    H311550   1.428   1.756  14.337 -0.7286  0.6755 -1.1339
  779MPD2     N11551   1.746   2.090  14.254 -0.0916 -0.2423  0.1065
  779MPD2    H511552   1.846   2.103  14.248 -0.3173  1.5405  0.1431
  779MPD2    N111553   1.854   1.658  14.448  0.5614  0.6250 -0.4339
  779MPD2    H711554   1.948   1.696  14.456  0.3525  0.6740  1.9013
  780MPD2     C11555   0.959   1.589   1.415  0.3795  0.4869 -0.7839
  780MPD2    C111556   0.945   1.565   1.277  0.3482  0.4544  0.2118
  780MPD2    C211557   1.035   1.608   1.186 -0.1019  0.1596 -0.4143
  780MPD2    C311558   1.157   1.662   1.230 -0.1133  0.7192 -0.5097
  780MPD2    C411559   1.171   1.686   1.364  1.0543 -0.3641 -0.5067
  780MPD2    C511560   1.069   1.658   1.455  0.0274  0.9853  0.4094
  780MPD2     H11561   1.021   1.583   1.082 -2.3505 -1.5212  0.3017
  780MPD2    H111562   1.261   1.735   1.400 -0.3233  1.4384  0.4640
  780MPD2    H211563   0.883   1.553   1.484  1.5264 -1.4848 -0.5535
  780MPD2    H311564   1.085   1.668   1.562 -2.1618 -1.7993  1.0038
  780MPD2     N11565   1.261   1.696   1.134 -0.1533  0.3290  0.3892
  780MPD2    H511566   1.251   1.658   1.040  1.2068 -2.8866  1.5403
  780MPD2    N111567   0.829   1.488   1.250  0.2052  0.5649 -0.1477
  780MPD2    H711568   0.786   1.447   1.332 -0.9645  3.5775  0.7546
  781MPD2     C11569   3.897   3.896  12.127 -0.1408  0.5977 -0.3481
  781MPD2    C111570   3.771   3.853  12.102 -0.5795  0.3894  0.9743
  781MPD2    C211571   3.731   3.830  11.972  0.0190 -0.1199 -0.0907
  781MPD2    C311572   3.816   3.871  11.871 -0.1694 -0.7772  0.2662
  781MPD2    C411573   3.942   3.921  11.893  0.5578 -0.9847 -0.3403
  781MPD2    C511574   3.984   3.920  12.022 -0.3810 -0.1906  0.4622
  781MPD2     H11575   3.632   3.794  11.946 -0.2526  0.4086  0.1995
  781MPD2    H111576   4.011   3.957  11.817  0.8329 -0.6226  0.0744
  781MPD2    H211577   3.931   3.900  12.230 -0.7607  1.5038 -0.1718
  781MPD2    H311578   4.086   3.953  12.042  0.3457 -2.0649 -0.1922
  781MPD2     N11579   3.784   3.864  11.735 -0.2289  0.1594  0.4112
  781MPD2    H511580   3.853   3.908  11.675 -1.2814 -0.0694 -0.9511
  781MPD2    N111581   3.672   3.830  12.198 -0.0701 -0.0975 -0.2686
  781MPD2    H711582   3.577   3.820  12.163 -1.7074  2.0360  3.5539
  782MPD2     C11583   1.609   4.225   9.482 -0.6195  0.0995 -0.1583
  782MPD2    C111584   1.616   4.140   9.589 -0.1385  0.5609 -0.0511
  782MPD2    C211585   1.713   4.153   9.684 -0.4281  0.0072  0.4927
  782MPD2    C311586   1.811   4.246   9.675 -0.0154  0.5332 -0.8379
  782MPD2    C411587   1.818   4.324   9.556 -0.1688 -0.3563  0.3458
  782MPD2    C511588   1.717   4.314   9.466  0.6898 -0.0319 -0.1112
  782MPD2     H11589   1.724   4.079   9.762 -1.2020 -0.7287 -0.0920
  782MPD2    H111590   1.898   4.393   9.532  0.1688 -0.2164  1.8854
  782MPD2    H211591   1.525   4.222   9.414 -0.3096  0.0732 -0.5437
  782MPD2    H311592   1.718   4.380   9.380 -1.2718 -0.9605 -0.8540
  782MPD2     N11593   1.896   4.257   9.786  0.0619 -0.4037 -0.2716
  782MPD2    H511594   1.885   4.178   9.850 -1.8168  1.3142  1.5067
  782MPD2    N111595   1.532   4.035   9.622 -0.5302  0.4844  0.2770
  782MPD2    H711596   1.566   3.974   9.696 -0.1794 -0.2774 -0.5039
  783MPD2     C11597   0.778   3.950  10.222  0.2088  0.5273  0.0676
  783MPD2    C111598   0.909   3.973  10.263 -0.0533  0.0150 -0.3696
  783MPD2    C211599   1.017   3.927  10.189 -0.0856 -0.4046 -0.5132
  783MPD2    C311600   0.999   3.873  10.064  0.4574 -0.5136 -0.0176
  783MPD2    C411601   0.866   3.845  10.022 -0.1430 -0.0792 -0.1865
  783MPD2    C511602   0.760   3.877  10.104 -0.0888  0.0526 -0.0790
  783MPD2     H11603   1.120   3.950  10.217 -0.1160 -0.8958 -0.0081
  783MPD2    H111604   0.848   3.795   9.928 -2.5914 -3.5486  2.1274
  783MPD2    H211605   0.687   3.985  10.270 -0.0602  0.2174 -0.2159
  783MPD2    H311606   0.657   3.866  10.069 -0.7138  0.7333  1.5649
  783MPD2     N11607   1.112   3.864   9.981  0.0692 -0.4344  0.1221
  783MPD2    H511608   1.202   3.886  10.022 -0.3602  1.8540 -0.1807
  783MPD2    N111609   0.910   4.060  10.379 -0.4245  0.1655 -0.4723
  783MPD2    H711610   0.819   4.080  10.418  0.1641 -2.1111  2.0864
  784MPD2     C11611   3.293   4.279   0.386  0.1906  0.1751 -0.2126
  784MPD2    C111612   3.312   4.386   0.477  1.1307 -0.3349 -0.2308
  784MPD2    C211613   3.239   4.506   0.459 -0.7677  0.1961 -0.2955
  784MPD2    C311614   3.122   4.502   0.376  0.3817 -0.6690  0.2384
  784MPD2    C411615   3.096   4.390   0.304  0.2193  0.1189 -0.3283
  784MPD2    C511616   3.184   4.283   0.300 -0.7693  0.0827 -0.4422
  784MPD2     H11617   3.247   4.590   0.527 -1.2197  0.0704 -0.0888
  784MPD2    H111618   3.018   4.377   0.230 -2.0102 -1.7254  2.3678
  784MPD2    H211619   3.351   4.187   0.385 -1.2688 -0.7680  1.3230
  784MPD2    H311620   3.174   4.196   0.237 -1.7759 -0.1495  0.0522
  784MPD2     N11621   3.037   4.610   0.367  0.3561  0.5263  0.6115
  784MPD2    H511622   3.068   4.684   0.429  2.4901  1.7280 -1.8896
  784MPD2    N111623   3.405   4.379   0.578  0.1511 -0.5318  0.2781
  784MPD2    H711624   3.410   4.462   0.637 -0.8842  0.3852 -0.9462
  785MPD2     C11625   3.566   3.477  10.553  0.3168  0.5566  0.4848
  785MPD2    C111626   3.520   3.599  10.577 -0.7324 -0.0011 -0.5911
  785MPD2    C211627   3.413   3.645  10.504  0.6435 -0.3705 -0.5771
  785MPD2    C311628   3.371   3.584  10.390  0.4671 -0.1325  0.4563
  785MPD2    C411629   3.432   3.470  10.349  0.2242 -0.4734 -0.0265
  785MPD2    C511630   3.527   3.413  10.436  0.2659  0.0325  0.0269
  785MPD2     H11631   3.372   3.744  10.519  0.9973 -0.3422  0.1815
  785MPD2    H111632   3.416   3.408  10.262 -0.5495 -0.6820  0.2641
  785MPD2    H211633   3.643   3.426  10.610  2.7766  3.7898  0.0589
  785MPD2    H311634   3.572   3.319  10.407  0.3678 -0.3017  1.2714
  785MPD2     N11635   3.276   3.653  10.314  0.1736 -0.5522  0.2023
  785MPD2    H511636   3.249   3.741  10.356  1.3284  0.9724 -2.2787
  785MPD2    N111637   3.580   3.666  10.688  0.2806 -0.4140 -0.2863
  785MPD2    H711638   3.660   3.620  10.731  0.4369 -0.3076 -0.4678
  786MPD2     C11639   2.722   1.514  14.472 -0.3798  0.0846  0.2960
  786MPD2    C111640   2.711   1.393  14.537  0.2154  0.3036 -0.1388
  786MPD2    C211641   2.738   1.390  14.669  1.0495  0.6237 -0.1937
  786MPD2    C311642   2.793   1.497  14.739  0.7469  0.1588  0.7194
  786MPD2    C411643   2.828   1.609  14.670  0.3595  0.0689  0.7641
  786MPD2    C511644   2.782   1.615  14.538  0.8702 -0.0859 -0.1524
  786MPD2     H11645   2.718   1.301  14.727 -0.5702  1.6343  0.7951
  786MPD2    H111646   2.879   1.689  14.722 -0.9276  1.4986 -0.1973
  786MPD2    H211647   2.704   1.521  14.365 -1.1549 -1.0060  0.3628
  786MPD2    H311648   2.809   1.696  14.473 -2.9992  2.3432  1.2556
  786MPD2     N11649   2.825   1.492  14.875 -0.4095 -0.4508  0.1210
  786MPD2    H511650   2.869   1.573  14.917 -0.7663 -1.3961  2.2897
  786MPD2    N111651   2.670   1.277  14.475 -0.0402 -0.3783 -0.3156
  786MPD2    H711652   2.663   1.191  14.528  1.4272 -0.5257 -0.3537
  787MPD2     C11653   3.122   0.872  14.566 -0.0791 -0.3550  0.1613
  787MPD2    C111654   3.086   0.840  14.434  0.9348 -0.3485 -0.2836
  787MPD2    C211655   3.150   0.729  14.370  0.9440 -0.0488  0.6324
  787MPD2    C311656   3.249   0.666  14.440 -0.4179 -0.3655  0.5294
  787MPD2    C411657   3.292   0.705  14.562 -0.3596  0.3348  0.2227
  787MPD2    C511658   3.221   0.803  14.630 -0.5439  0.4407  0.0015
  787MPD2     H11659   3.124   0.692  14.271 -0.3004 -1.1982  1.3999
  787MPD2    H111660   3.372   0.659  14.619  1.0607 -0.4379 -2.4006
  787MPD2    H211661   3.069   0.949  14.621 -0.3353 -0.0992 -0.4466
  787MPD2    H311662   3.243   0.822  14.735 -0.6758 -0.0730  0.1185
  787MPD2     N11663   3.296   0.552  14.367  0.1140  0.3485  0.2697
  787MPD2    H511664   3.239   0.528  14.286 -0.4269  0.6779  0.5530
  787MPD2    N111665   2.981   0.916  14.368 -0.6148  0.1594 -0.5212
  787MPD2    H711666   2.950   0.997  14.421  0.2879  0.3291 -0.2504
  788MPD2     C11667   4.381   4.168   1.059 -0.2170 -1.1032 -1.0689
  788MPD2    C111668   4.392   4.144   0.919  0.8702  0.4341  0.4622
  788MPD2    C211669   4.429   4.249   0.834  0.5049 -0.0599  0.7521
  788MPD2    C311670   4.441   4.380   0.886  0.0896  0.3605  0.2413
  788MPD2    C411671   4.422   4.398   1.022  0.4474  0.3183 -0.8124
  788MPD2    C511672   4.401   4.294   1.109  0.1391  0.0803 -0.0611
  788MPD2     H11673   4.438   4.238   0.726  1.4592 -0.2547  0.8548
  788MPD2    H111674   4.427   4.501   1.057  2.4920 -0.3785  0.9309
  788MPD2    H211675   4.374   4.089   1.133 -2.2373 -1.2684 -1.4393
  788MPD2    H311676   4.378   4.311   1.214 -0.2706  0.1512 -0.1633
  788MPD2     N11677   4.445   4.493   0.799 -0.4278 -0.2742 -0.2672
  788MPD2    H511678   4.433   4.583   0.845 -1.2635 -0.0917 -0.8542
  788MPD2    N111679   4.370   4.011   0.874  0.5575 -0.5267  0.1766
  788MPD2    H711680   4.398   3.992   0.779 -1.4520  0.8205 -0.6679
  789MPD2     C11681   4.670   3.657  16.767 -0.0019  0.1618  0.1090
  789MPD2    C111682   4.608   3.695  16.649 -0.6346 -0.4567 -0.0642
  789MPD2    C211683   4.502   3.780  16.640 -0.8226 -0.4704 -0.4365
  789MPD2    C311684   4.459   3.841  16.758  0.7205 -0.0397  0.2927
  789MPD2    C411685   4.511   3.790  16.877  0.0934  0.0680 -0.3960
  789MPD2    C511686   4.621   3.704  16.887  0.2071 -0.5569  0.1003
  789MPD2     H11687   4.453   3.802  16.545 -1.0093 -0.6462 -0.3836
  789MPD2    H111688   4.477   3.837  16.969 -1.2131 -0.8802 -0.3953
  789MPD2    H211689   0.018   3.594  16.772 -0.3199 -0.3595 -0.8100
  789MPD2    H311690   4.651   3.673  16.986 -0.4205 -0.9740  0.1642
  789MPD2     N11691   4.359   3.939  16.765  0.5827  0.4059  0.3817
  789MPD2    H511692   4.339   3.967  16.860  1.6613 -0.4247  0.8525
  789MPD2    N111693   4.650   3.648  16.522 -0.2657 -0.2756 -0.5952
  789MPD2    H711694   4.612   3.693  16.440  1.0816  0.3301 -0.9008
  790MPD2     C11695   1.158   1.218  13.495  0.3413 -0.3303 -0.6792
  790MPD2    C111696   1.187   1.083  13.479 -0.0327 -0.7649  0.2771
  790MPD2    C211697   1.126   1.001  13.383  0.3771 -0.1336 -0.0089
  790MPD2    C311698   1.032   1.059  13.295 -0.8632 -0.0626 -0.4681
  790MPD2    C411699   1.010   1.198  13.307  0.1150  0.7274 -0.0485
  790MPD2    C511700   1.066   1.272  13.408  0.8285 -0.5566 -0.4514
  790MPD2     H11701   1.150   0.896  13.373 -2.2385 -0.8113  0.6897
  790MPD2    H111702   0.949   1.242  13.229  1.7734  3.0545 -0.0297
  790MPD2    H211703   1.191   1.284  13.574 -4.2514  1.0874  0.0516
  790MPD2    H311704   1.023   1.369  13.430  0.6486 -0.7156 -0.0925
  790MPD2     N11705   0.971   0.981  13.198  0.5526 -0.2328 -0.1434
  790MPD2    H511706   0.984   0.881  13.208 -1.6845 -0.6204 -1.1415
  790MPD2    N111707   1.263   1.022  13.584  0.3316 -0.1165  0.2478
  790MPD2    H711708   1.281   1.074  13.669  3.9159 -0.9504 -0.0101
  791MPD2     C11709   0.363   0.994  12.680 -1.0657  0.0975 -0.1883
  791MPD2    C111710   0.411   0.869  12.696  0.5185  0.1272 -0.4201
  791MPD2    C211711   0.322   0.766  12.681  0.7679  0.4198 -0.3486
  791MPD2    C311712   0.193   0.781  12.637  0.3973  0.6044 -0.2215
  791MPD2    C411713   0.150   0.912  12.623  0.2245  0.3483  0.0881
  791MPD2    C511714   0.234   1.014  12.642  0.0333  0.6929 -0.2835
  791MPD2     H11715   0.347   0.664  12.708 -0.7850  0.2536  0.4541
  791MPD2    H111716   0.052   0.956  12.604 -0.3604 -0.5324  1.0363
  791MPD2    H211717   0.424   1.073  12.722 -1.2816 -0.5333  1.3326
  791MPD2    H311718   0.196   1.112  12.669  0.2259  0.0606  2.2510
  791MPD2     N11719   0.107   0.666  12.618 -0.3865 -0.3796 -0.0149
  791MPD2    H511720   0.155   0.581  12.646  0.2841  0.1550  0.4477
  791MPD2    N111721   0.535   0.864  12.757  0.1643 -0.6103 -0.1908
  791MPD2    H711722   0.585   0.947  12.789  0.0134 -0.1766 -1.0916
  792MPD2     C11723   1.475   0.287  10.805 -0.3801  0.3620 -0.2172
  792MPD2    C111724   1.399   0.365  10.717  0.0864  0.5950  0.3808
  792MPD2    C211725   1.314   0.302  10.623 -0.6918 -0.2673  0.1387
  792MPD2    C311726   1.318   0.162  10.611 -0.3575 -0.5732  0.6775
  792MPD2    C411727   1.398   0.090  10.698 -0.6037  0.0284  0.1801
  792MPD2    C511728   1.478   0.151  10.792 -0.0368  0.6302 -0.4253
  792MPD2     H11729   1.244   0.360  10.564 -1.6852  0.1073  1.7076
  792MPD2    H111730   1.396   4.722  10.688  1.5624  0.1615 -1.6083
  792MPD2    H211731   1.545   0.315  10.882  0.0082 -2.2590  0.3883
  792MPD2    H311732   1.533   0.086  10.859 -1.5696 -0.5883 -0.3732
  792MPD2     N11733   1.224   0.089  10.530 -0.3493 -0.1678  0.1057
  792MPD2    H511734   1.209   4.730  10.547 -1.3394  0.0613  0.5666
  792MPD2    N111735   1.401   0.502  10.725 -0.6406 -0.3745  0.0044
  792MPD2    H711736   1.463   0.534  10.798  0.3650  0.1684 -1.0973
  793MPD2     C11737   0.582   0.287   9.754  0.6001  0.7177  0.7029
  793MPD2    C111738   0.701   0.338   9.800  0.5478 -0.3229  1.0127
  793MPD2    C211739   0.741   0.310   9.926 -0.9945  0.3466 -0.2185
  793MPD2    C311740   0.686   0.213  10.005 -0.2196 -0.5710  0.3397
  793MPD2    C411741   0.564   0.164   9.960  0.1589  0.9342  0.2318
  793MPD2    C511742   0.518   0.194   9.833  0.0306 -0.1906  0.3054
  793MPD2     H11743   0.839   0.337   9.962 -0.8614  0.0683 -0.3729
  793MPD2    H111744   0.515   0.086  10.018  2.1736  0.2564  1.0330
  793MPD2    H211745   0.545   0.305   9.654 -0.3185  2.6609  1.3967
  793MPD2    H311746   0.421   0.153   9.804  0.1237  0.2166 -0.5665
  793MPD2     N11747   0.770   0.163  10.115  0.5125  0.2640 -0.0044
  793MPD2    H511748   0.859   0.210  10.129  1.5276 -1.0779 -1.9283
  793MPD2    N111749   0.780   0.423   9.728 -0.7487 -0.3748  0.3806
  793MPD2    H711750   0.858   0.460   9.781  0.3440 -1.7988 -0.2294
  794MPD2     C11751   0.121   0.076  17.630  0.0182 -0.0523 -0.0213
  794MPD2    C111752   0.179   4.713  17.554  0.3441 -0.1023  0.2740
  794MPD2    C211753   0.157   4.713  17.417  0.2372  0.5937 -0.3257
  794MPD2    C311754   0.094   0.076  17.354  0.1475 -0.1141 -0.2539
  794MPD2    C411755   0.033   0.174  17.429 -0.4380 -0.6066 -0.4175
  794MPD2    C511756   0.048   0.176  17.564 -0.6185 -0.2382  0.1472
  794MPD2     H11757   0.206   4.641  17.354  0.8139 -0.8574  1.7662
  794MPD2    H111758   4.708   0.239  17.371  0.7294 -0.0143 -1.0581
  794MPD2    H211759   0.143   0.075  17.736 -1.7547 -0.0090  0.3315
  794MPD2    H311760   0.009   0.256  17.627  2.2275  2.8653 -2.0514
  794MPD2     N11761   0.066   0.083  17.218 -0.3152  0.0384 -0.0206
  794MPD2    H511762   4.738   0.149  17.183 -0.8138 -0.4913 -0.0562
  794MPD2    N111763   0.261   4.613  17.604  0.9902  0.3700 -0.0516
  794MPD2    H711764   0.305   4.548  17.540  1.0153  0.8539 -0.5265
  795MPD2     C11765   2.595   2.385  13.668  1.1823  0.3207  0.6804
  795MPD2    C111766   2.666   2.354  13.552 -0.1104  0.0579 -0.2285
  795MPD2    C211767   2.778   2.284  13.555 -0.8240 -0.5981  0.0561
  795MPD2    C311768   2.829   2.242  13.680 -0.6349  0.0036 -0.4481
  795MPD2    C411769   2.763   2.276  13.793  0.7164  0.4264  0.2861
  795MPD2    C511770   2.644   2.346  13.791 -0.1963  0.5924 -0.3605
  795MPD2     H11771   2.825   2.260  13.461  0.8706 -2.7332  1.4231
  795MPD2    H111772   2.786   2.237  13.891 -0.4205  1.4767  0.9812
  795MPD2    H211773   2.499   2.434  13.653 -0.2564 -2.2796  1.3806
  795MPD2    H311774   2.590   2.358  13.884  0.9031  0.7232  0.2727
  795MPD2     N11775   2.949   2.162  13.688 -0.1366  0.2949  0.2264
  795MPD2    H511776   2.969   2.131  13.782 -2.0536  0.3508  0.6576
  795MPD2    N111777   2.617   2.391  13.421  0.0655 -0.1227 -0.2984
  795MPD2    H711778   2.666   2.363  13.337  0.7643 -0.0706  0.0882
  796MPD2     C11779   2.684   3.880  15.499 -0.5990  0.5950 -0.7758
  796MPD2    C111780   2.696   3.982  15.586  0.9186  0.2249 -0.2940
  796MPD2    C211781   2.629   4.098  15.569 -0.4665 -0.3500  0.7244
  796MPD2    C311782   2.538   4.107  15.462 -0.3552 -0.2724  0.8492
  796MPD2    C411783   2.528   4.002  15.377 -0.7674  0.1973 -0.7919
  796MPD2    C511784   2.600   3.889  15.393 -0.4852  1.1856 -0.1047
  796MPD2     H11785   2.641   4.181  15.637 -1.3281  0.3934 -0.0371
  796MPD2    H111786   2.454   3.999  15.298  0.3335 -0.3619 -1.8046
  796MPD2    H211787   2.731   3.785  15.522 -1.3417  0.5727  0.6828
  796MPD2    H311788   2.580   3.799  15.336  1.7237  0.8940 -0.4191
  796MPD2     N11789   2.452   4.220  15.460  0.3834  0.2831  0.7613
  796MPD2    H511790   2.468   4.289  15.533 -1.4155  0.6212  0.8345
  796MPD2    N111791   2.778   3.947  15.694  0.3400 -0.6650  0.7972
  796MPD2    H711792   2.813   3.852  15.693  1.9805 -0.0416 -1.4108
  797MPD2     C11793   3.451   3.321  17.189  0.0677 -0.5896  0.0330
  797MPD2    C111794   3.537   3.422  17.209 -0.3601 -0.1665 -0.1484
  797MPD2    C211795   3.545   3.520  17.117  0.3671  0.1590  0.0282
  797MPD2    C311796   3.471   3.523  17.004 -0.2018 -0.5419 -0.5938
  797MPD2    C411797   3.382   3.421  16.981 -0.0141 -0.1024 -0.3369
  797MPD2    C511798   3.384   3.316  17.068 -0.7473  0.2135 -0.5058
  797MPD2     H11799   3.610   3.603  17.141  0.4771 -0.0079  0.3086
  797MPD2    H111800   3.341   3.404  16.883 -1.3465  0.9066  0.0529
  797MPD2    H211801   3.439   3.233  17.253 -1.0610 -1.9915 -2.1117
  797MPD2    H311802   3.336   3.222  17.042  2.3887 -1.9084  1.2959
  797MPD2     N11803   3.483   3.619  16.900 -0.5686  0.5643  0.4077
  797MPD2    H511804   3.468   3.590  16.803 -1.4798 -1.0940  1.0464
  797MPD2    N111805   3.612   3.441  17.329 -0.0160 -0.6240 -0.0487
  797MPD2    H711806   3.677   3.519  17.333 -0.6094 -0.1654  0.6469
  798MPD2     C11807   4.026   3.963  17.130  0.3375 -0.7709  0.3324
  798MPD2    C111808   3.907   3.889  17.109 -0.1230 -0.4950  0.4776
  798MPD2    C211809   3.852   3.819  17.214 -0.1462 -0.6376  0.5904
  798MPD2    C311810   3.916   3.802  17.336 -0.4715 -0.6361 -0.8330
  798MPD2    C411811   4.035   3.880  17.350  0.0878  1.0252  0.0345
  798MPD2    C511812   4.093   3.953  17.251 -0.7303  1.0851 -0.3001
  798MPD2     H11813   3.753   3.776  17.200 -1.3504  1.8396  1.2305
  798MPD2    H111814   4.071   3.885  17.452 -1.1747  2.0745  0.4264
  798MPD2    H211815   4.082   4.023  17.058 -0.2904 -0.0202  0.4634
  798MPD2    H311816   4.184   4.011  17.259  0.3280 -0.5494 -0.4019
  798MPD2     N11817   3.851   3.728  17.434  0.0837  0.2777 -0.1627
  798MPD2    H511818   3.757   3.700  17.408 -0.0350  0.4242  0.1042
  798MPD2    N111819   3.839   3.886  16.987 -0.4161 -0.5115  1.0333
  798MPD2    H711820   3.748   3.842  16.989  0.1489 -1.7065  0.4767
  799MPD2     C11821   2.787   0.083  14.811  0.0663 -0.0725  0.6767
  799MPD2    C111822   2.714   0.007  14.722 -0.4003 -0.0807 -0.1070
  799MPD2    C211823   2.642   0.072  14.615  0.4648  0.2680 -0.0225
  799MPD2    C311824   2.653   0.211  14.595 -0.3970  0.3088  1.3341
  799MPD2    C411825   2.738   0.280  14.678  0.4769 -0.0090 -0.5038
  799MPD2    C511826   2.798   0.217  14.781 -0.5132 -0.5398 -0.0830
  799MPD2     H11827   2.584   0.013  14.546 -1.9718  2.4113  0.1879
  799MPD2    H111828   2.757   0.387  14.669 -0.5390  0.2347  0.2430
  799MPD2    H211829   2.853   0.045  14.888 -1.7075 -0.7764  1.8445
  799MPD2    H311830   2.864   0.274  14.844 -1.0898 -0.8024  0.7551
  799MPD2     N11831   2.591   0.282  14.486  0.1719  0.2886  0.1615
  799MPD2    H511832   2.623   0.376  14.466 -0.2304  0.7782  1.8445
  799MPD2    N111833   2.721   4.602  14.714  0.3172  0.4638  0.2269
  799MPD2    H711834   2.650   4.549  14.666 -0.3147  2.7021 -1.2881
  800MPD2     C11835   2.777   1.571  14.092 -0.4897 -0.1563  0.1387
  800MPD2    C111836   2.898   1.524  14.135  0.2265  0.2450 -0.3342
  800MPD2    C211837   2.944   1.406  14.078  0.5325  0.1267 -0.0011
  800MPD2    C311838   2.872   1.344  13.978 -0.5681  0.1191 -0.1697
  800MPD2    C411839   2.745   1.393  13.936  0.4144  0.4512  0.9190
  800MPD2    C511840   2.702   1.512  13.988  0.4164  0.2480 -0.3347
  800MPD2     H11841   3.044   1.369  14.100  0.7965  1.8409  1.7037
  800MPD2    H111842   2.683   1.343  13.861 -0.8309  1.0684  1.5355
  800MPD2    H211843   2.735   1.658  14.141  1.8255  1.3638 -0.5473
  800MPD2    H311844   2.606   1.553  13.962  0.2380  2.3403  3.6499
  800MPD2     N11845   2.936   1.228  13.925  0.3623  0.2831  0.3611
  800MPD2    H511846   3.024   1.198  13.968  1.2139  0.0249 -1.5889
  800MPD2    N111847   2.971   1.602  14.232  0.5029 -0.0933 -0.0022
  800MPD2    H711848   2.929   1.693  14.249 -0.7157 -0.1849 -2.5368
  801MPD2     C11849   2.967   2.248  14.632 -0.1689  0.5555 -0.0858
  801MPD2    C111850   2.921   2.153  14.546 -0.0689  0.7717  0.7079
  801MPD2    C211851   2.793   2.165  14.492 -0.9488  0.5333 -0.2528
  801MPD2    C311852   2.714   2.268  14.533  0.6487  0.1344 -0.3097
  801MPD2    C411853   2.760   2.361  14.619  0.2814  0.7902  0.3581
  801MPD2    C511854   2.891   2.358  14.663  0.3948  0.4472  0.3293
  801MPD2     H11855   2.750   2.092  14.424  1.7875 -1.5263  0.1880
  801MPD2    H111856   2.699   2.443  14.657 -1.9724 -0.3115 -0.8569
  801MPD2    H211857   3.072   2.240  14.660  0.2974  0.6858 -1.7863
  801MPD2    H311858   2.932   2.442  14.718 -2.2718  0.9865  1.4791
  801MPD2     N11859   2.575   2.269  14.515 -0.1549 -0.3335  0.1049
  801MPD2    H511860   2.522   2.339  14.566 -0.5265 -0.9699  0.5870
  801MPD2    N111861   2.991   2.038  14.506  0.0345 -0.0967  0.0318
  801MPD2    H711862   2.954   1.983  14.429  1.2930  0.4379 -0.9540
  802MPD2     C11863   1.890   2.032  17.487 -0.0131 -0.0226 -0.3687
  802MPD2    C111864   2.016   2.053  17.539  0.0648  0.4742 -0.9263
  802MPD2    C211865   2.129   1.992  17.478  0.2738  0.0347 -0.5208
  802MPD2    C311866   2.122   1.907  17.374 -0.1509  0.0840  0.0870
  802MPD2    C411867   1.993   1.878  17.328  0.4568  0.0377 -0.3440
  802MPD2    C511868   1.888   1.941  17.382 -0.6001 -0.7681 -0.0981
  802MPD2     H11869   2.231   2.015  17.506 -0.2833  0.8371  0.8297
  802MPD2    H111870   1.969   1.814  17.245 -1.1980 -0.2582  0.3690
  802MPD2    H211871   1.805   2.096  17.503  0.5663  0.2660  1.5162
  802MPD2    H311872   1.792   1.927  17.335  0.3995 -2.5782 -1.5889
  802MPD2     N11873   2.239   1.875  17.304 -0.2596  0.2280 -0.4693
  802MPD2    H511874   2.327   1.903  17.348  0.5190  0.0726 -1.9174
  802MPD2    N111875   2.045   2.157  17.637 -0.7962  0.4991  0.0981
  802MPD2    H711876   2.143   2.169  17.661  0.2435  1.2461 -4.5345
  803MPD2     C11877   3.351   0.582  12.239  0.0843  0.3782 -0.9483
  803MPD2    C111878   3.425   0.680  12.292 -0.0225  0.0082  0.3043
  803MPD2    C211879   3.468   0.665  12.422 -0.2804  0.7906  0.8772
  803MPD2    C311880   3.426   0.559  12.503 -0.0787 -0.1337  0.0449
  803MPD2    C411881   3.342   0.468  12.449  0.1018 -0.5135  0.2524
  803MPD2    C511882   3.301   0.478  12.317 -0.0163 -0.2633 -0.0819
  803MPD2     H11883   3.536   0.741  12.457  0.0954  1.8955 -2.2514
  803MPD2    H111884   3.295   0.394  12.512 -0.3150  0.3102  0.9084
  803MPD2    H211885   3.322   0.562  12.137  0.4251  0.1849 -1.0089
  803MPD2    H311886   3.247   0.405  12.259 -1.2182  0.7379 -0.2114
  803MPD2     N11887   3.467   0.540  12.637 -0.1913  0.4712  0.5487
  803MPD2    H511888   3.438   0.453  12.680 -0.5250  0.2105 -0.2159
  803MPD2    N111889   3.472   0.791  12.218 -0.3884 -0.0112 -0.3869
  803MPD2    H711890   3.549   0.842  12.261 -1.5616  2.0218 -0.6841
  804MPD2     C11891   2.967   1.895  16.970 -0.3523  0.6029 -0.2321
  804MPD2    C111892   2.994   1.856  17.105 -0.2132 -0.4017  0.2446
  804MPD2    C211893   3.025   1.953  17.200 -0.6458 -0.7000  0.0948
  804MPD2    C311894   3.073   2.073  17.147 -0.1450 -0.2557 -0.0142
  804MPD2    C411895   3.060   2.099  17.013  0.4996 -0.5186  0.8049
  804MPD2    C511896   3.008   2.015  16.926 -0.7127 -0.6122 -0.6544
  804MPD2     H11897   3.028   1.941  17.308  0.1323  3.6172  0.5551
  804MPD2    H111898   3.101   2.192  16.975 -0.6208 -0.7350 -0.9198
  804MPD2    H211899   2.923   1.825  16.900  2.0127 -0.2372 -0.8677
  804MPD2    H311900   3.001   2.041  16.821 -2.4939  0.8089 -0.1843
  804MPD2     N11901   3.123   2.172  17.241  0.0293 -0.0031  0.2951
  804MPD2    H511902   3.112   2.156  17.341 -1.9470  1.7042  0.3555
  804MPD2    N111903   2.967   1.726  17.151 -0.1370  0.1515  0.2027
  804MPD2    H711904   2.959   1.711  17.251 -0.8537 -0.4889  0.0496
  805MPD2     C11905   2.324   0.450  15.272  0.0786  0.6002 -0.3442
  805MPD2    C111906   2.450   0.445  15.224  0.0812 -0.5507 -0.1454
  805MPD2    C211907   2.556   0.509  15.291 -0.1270  0.5325 -0.6397
  805MPD2    C311908   2.527   0.563  15.412 -0.1356 -0.0500 -0.5089
  805MPD2    C411909   2.405   0.559  15.473  0.2456 -0.4508  0.2348
  805MPD2    C511910   2.310   0.502  15.400 -0.0851  0.7705 -0.2834
  805MPD2     H11911   2.654   0.521  15.246 -0.3799  2.8150 -0.6059
  805MPD2    H111912   2.379   0.594  15.572  0.8481 -0.8427  0.5331
  805MPD2    H211913   2.231   0.416  15.226  1.0954 -0.9952 -1.2130
  805MPD2    H311914   2.210   0.492  15.441  0.3827 -0.7776  0.4646
  805MPD2     N11915   2.637   0.633  15.467 -0.0168  0.5091 -0.0561
  805MPD2    H511916   2.722   0.627  15.412 -0.1759  0.4183 -0.2907
  805MPD2    N111917   2.476   0.394  15.101  0.4009 -0.4188 -0.3689
  805MPD2    H711918   2.569   0.410  15.064  0.8728 -0.7441  0.6784
  806MPD2     C11919   2.142   4.352   0.028 -0.3962 -0.7401  0.2203
  806MPD2    C111920   2.234   4.414   0.108 -0.1464 -0.0320 -0.2101
  806MPD2    C211921   2.286   4.537   0.064  0.4497 -0.3053 -0.3141
  806MPD2    C311922   2.234   4.597  17.700  0.5341 -0.2791 -0.2544
  806MPD2    C411923   2.128   4.540  17.633 -0.0953 -0.0819  0.1637
  806MPD2    C511924   2.089   4.412  17.674  0.0281 -0.1374  0.1583
  806MPD2     H11925   2.375   4.580   0.108  0.2741 -0.1236 -0.1372
  806MPD2    H111926   2.072   4.594  17.558  1.0201  0.1897 -0.4771
  806MPD2    H211927   2.098   4.260   0.066 -0.6682  0.0151  1.7735
  806MPD2    H311928   2.017   4.358  17.615  1.0178  0.0000 -1.1626
  806MPD2     N11929   2.285   4.732  17.677 -0.0127  0.2546 -0.1487
  806MPD2    H511930   2.348   0.034  17.744 -0.1449 -1.6881  1.1651
  806MPD2    N111931   2.263   4.353   0.237 -0.3542  0.3812  0.0049
  806MPD2    H711932   2.211   4.272   0.266 -0.1406  0.1790 -0.1749
  807MPD2     C11933   2.048   3.866   0.824 -0.1183 -1.2391  0.5017
  807MPD2    C111934   2.181   3.905   0.821 -0.1494  0.2706  0.9185
  807MPD2    C211935   2.277   3.829   0.886  0.6856 -0.4662  0.6009
  807MPD2    C311936   2.241   3.714   0.959 -0.4207  1.0893  0.3596
  807MPD2    C411937   2.109   3.674   0.947  0.6100  0.4557  0.7342
  807MPD2    C511938   2.013   3.747   0.885  0.2855 -0.2985 -0.7377
  807MPD2     H11939   2.379   3.865   0.894 -0.1242  2.1768 -0.9603
  807MPD2    H111940   2.069   3.583   0.991  2.6747 -0.3364  0.9571
  807MPD2    H211941   1.979   3.923   0.763  1.8275 -0.0170 -0.5788
  807MPD2    H311942   1.910   3.713   0.886 -0.2748  1.5386  2.6478
  807MPD2     N11943   2.344   3.636   1.030 -0.3341 -0.2882  0.6139
  807MPD2    H511944   2.436   3.675   1.048 -1.1165  1.8685 -0.1947
  807MPD2    N111945   2.230   4.011   0.744 -0.0163  0.0279 -0.0675
  807MPD2    H711946   2.323   4.036   0.777 -0.2665  0.7904  0.0672
  808MPD2     C11947   3.681   1.740   9.728 -0.0399  0.1179 -0.1188
  808MPD2    C111948   3.664   1.658   9.837 -0.1167 -0.6216  0.0882
  808MPD2    C211949   3.575   1.688   9.943 -1.6543  0.5163 -0.0119
  808MPD2    C311950   3.499   1.805   9.925 -0.2968 -0.1873 -1.0969
  808MPD2    C411951   3.517   1.883   9.812 -0.1734 -0.1618  0.3121
  808MPD2    C511952   3.609   1.863   9.719 -0.2055  0.0015 -0.2328
  808MPD2     H11953   3.577   1.627  10.033  0.1363 -0.9169 -1.0454
  808MPD2    H111954   3.463   1.976   9.798  0.7684  0.2385 -0.6407
  808MPD2    H211955   3.759   1.723   9.655 -0.2377  0.1038 -0.3279
  808MPD2    H311956   3.613   1.942   9.645 -0.7497 -0.5338 -0.8340
  808MPD2     N11957   3.419   1.864  10.031  0.0951 -0.0712  0.0419
  808MPD2    H511958   3.383   1.956  10.009  1.4095  0.0962 -1.3725
  808MPD2    N111959   3.737   1.538   9.853  0.4652 -0.7128 -1.1195
  808MPD2    H711960   3.706   1.475   9.927  1.2969 -0.2738 -0.3940
  809MPD2     C11961   3.561   2.629   9.919  0.7179  0.8195  0.0104
  809MPD2    C111962   3.601   2.498   9.943 -0.1258  0.3639  0.2973
  809MPD2    C211963   3.515   2.410  10.006 -0.0358 -0.0017  0.5519
  809MPD2    C311964   3.381   2.440  10.028  0.6410  0.0157 -0.2678
  809MPD2    C411965   3.343   2.565   9.994  0.4586  0.7241 -0.0118
  809MPD2    C511966   3.431   2.657   9.943 -0.6489 -0.1789 -1.4207
  809MPD2     H11967   3.548   2.312  10.038 -0.9280 -1.1202 -1.9153
  809MPD2    H111968   3.242   2.594  10.020 -0.9622 -1.8719 -2.5066
  809MPD2    H211969   3.626   2.707   9.883 -1.7311  3.0588  0.4310
  809MPD2    H311970   3.405   2.760   9.923  1.7131  0.4506 -1.3025
  809MPD2     N11971   3.290   2.346  10.068  0.1907  0.5843  0.0408
  809MPD2    H511972   3.202   2.379  10.106  0.2377 -0.4124  0.9783
  809MPD2    N111973   3.732   2.455   9.918 -0.0389 -0.5168  0.3169
  809MPD2    H711974   3.764   2.368   9.958  1.4076 -0.3158 -0.4100
  810MPD2     C11975   2.717   0.380  10.823  0.1135  0.2648  0.4085
  810MPD2    C111976   2.708   0.439  10.697  0.1437  0.7461  0.3026
  810MPD2    C211977   2.711   0.571  10.693 -0.0500  0.2494  0.1944
  810MPD2    C311978   2.735   0.653  10.804  0.3628  0.5593  0.3335
  810MPD2    C411979   2.749   0.592  10.927  0.1133  0.3369  0.3971
  810MPD2    C511980   2.740   0.456  10.934 -0.2978 -0.8931  0.1509
  810MPD2     H11981   2.696   0.620  10.598 -2.9395 -2.8494 -0.9363
  810MPD2    H111982   2.760   0.642  11.022  0.0518 -0.0724  0.6183
  810MPD2    H211983   2.690   0.276  10.840  4.8780 -1.3592 -1.9183
  810MPD2    H311984   2.742   0.406  11.031 -0.7569 -2.9483 -0.8918
  810MPD2     N11985   2.739   0.795  10.804  0.3658 -0.3278  0.1846
  810MPD2    H511986   2.766   0.833  10.894  0.0679  1.7303 -0.5961
  810MPD2    N111987   2.684   0.368  10.581  0.0684 -0.2731 -0.0750
  810MPD2    H711988   2.695   0.418  10.493  2.0054 -1.4766 -0.5095
  811MPD2     C11989   2.174   0.523   9.937 -0.3137 -0.3723 -0.3466
  811MPD2    C111990   2.275   0.541  10.031  0.4740 -0.0928 -0.4984
  811MPD2    C211991   2.319   0.673  10.041 -0.2963  0.3204  0.1544
  811MPD2    C311992   2.264   0.778   9.970  0.4006 -0.2734  0.1558
  811MPD2    C411993   2.152   0.755   9.892 -0.2569  0.1677  0.4484
  811MPD2    C511994   2.113   0.629   9.873  0.0226  0.1402  0.0081
  811MPD2     H11995   2.407   0.685  10.104 -1.9215 -1.9598  2.8759
  811MPD2    H111996   2.097   0.831   9.838 -0.9781 -0.1859  0.6922
  811MPD2    H211997   2.130   0.425   9.931  1.0669 -1.0467  0.5702
  811MPD2    H311998   2.034   0.611   9.801 -0.2047 -0.9698  0.5266
  811MPD2     N11999   2.325   0.901   9.983 -0.6207 -0.1618  0.1993
  811MPD2    H512000   2.405   0.890  10.044 -0.1792 -1.1665 -0.5641
  811MPD2    N112001   2.323   0.428  10.105  0.3721  0.1858 -0.2235
  811MPD2    H712002   2.290   0.341  10.065  1.0030  0.9938 -2.5512
  812MPD2     C12003   1.444   0.875  12.567 -0.4963 -0.3969  0.3223
  812MPD2    C112004   1.563   0.847  12.498 -0.3655 -0.0122 -0.2293
  812MPD2    C212005   1.603   0.717  12.477 -0.1429  0.3877  0.2670
  812MPD2    C312006   1.517   0.617  12.528 -0.4662 -0.3556  0.3673
  812MPD2    C412007   1.421   0.642  12.610  0.3735 -0.7526 -0.3743
  812MPD2    C512008   1.382   0.773  12.628 -0.0906  0.1518 -0.1160
  812MPD2     H12009   1.696   0.712  12.422  0.6167 -2.4983  1.7746
  812MPD2    H112010   1.371   0.569  12.671 -0.1245 -0.7334 -0.7655
  812MPD2    H212011   1.402   0.973  12.584  0.4341  0.3527 -1.5944
  812MPD2    H312012   1.290   0.785  12.684 -0.7346  2.9229 -1.7520
  812MPD2     N12013   1.561   0.481  12.531  0.0103 -0.3671 -0.1775
  812MPD2    H512014   1.507   0.408  12.575  2.8338 -2.0152  0.5447
  812MPD2    N112015   1.633   0.964  12.451  0.0136 -0.0190 -0.0488
  812MPD2    H712016   1.603   1.056  12.481  3.1063  1.4983 -1.6226
  813MPD2     C12017   0.359   2.398  12.871 -0.2721 -0.2846  0.1038
  813MPD2    C112018   0.402   2.529  12.907 -0.1433 -0.2394 -0.3367
  813MPD2    C212019   0.331   2.597  13.000 -0.0171  0.4915 -0.4752
  813MPD2    C312020   0.228   2.536  13.067 -0.2236 -0.4988 -0.1728
  813MPD2    C412021   0.194   2.402  13.037  0.3363  0.0832  0.0149
  813MPD2    C512022   0.257   2.341  12.938 -0.3017  0.0324 -0.1366
  813MPD2     H12023   0.356   2.696  13.034  0.0885  0.5526 -0.7257
  813MPD2    H112024   0.109   2.355  13.087  2.1087 -1.5454  1.4764
  813MPD2    H212025   0.401   2.330  12.799 -0.6136  1.0213 -1.3275
  813MPD2    H312026   0.230   2.238  12.919 -1.3339  0.2263  0.3127
  813MPD2     N12027   0.177   2.599  13.184 -0.1053  0.5238 -0.5534
  813MPD2    H512028   0.211   2.694  13.196  0.2499  0.1825  1.2304
  813MPD2    N112029   0.522   2.573  12.854 -0.2700  0.0001 -0.1387
  813MPD2    H712030   0.585   2.509  12.806 -0.9908 -0.7779 -0.0303
  814MPD2     C12031   1.724   3.547  12.531  0.4063  0.7151  0.4564
  814MPD2    C112032   1.637   3.571  12.421  0.0415 -0.2695  0.8091
  814MPD2    C212033   1.644   3.689  12.356  0.2877 -0.6802 -0.7603
  814MPD2    C312034   1.725   3.795  12.403  0.4467  0.2603 -0.1296
  814MPD2    C412035   1.806   3.766  12.505  0.4749 -0.2778 -0.4571
  814MPD2    C512036   1.814   3.642  12.565 -0.4777 -0.1242 -0.3521
  814MPD2     H12037   1.571   3.709  12.278  0.4113 -0.7805 -0.8987
  814MPD2    H112038   1.871   3.845  12.541  0.7392 -1.1167  0.8953
  814MPD2    H212039   1.728   3.454  12.586 -0.4178 -0.1213 -0.8873
  814MPD2    H312040   1.872   3.629  12.655  3.1972 -1.9517 -2.9875
  814MPD2     N12041   1.731   3.927  12.348  0.9794 -0.2979 -0.0873
  814MPD2    H512042   1.773   4.001  12.403  0.9448  1.4688 -2.4152
  814MPD2    N112043   1.539   3.475  12.392  0.5118 -1.1257 -0.2886
  814MPD2    H712044   1.486   3.487  12.306 -0.8105  0.7644  0.7914
  815MPD2     C12045   1.844   2.182  11.900 -0.6226 -0.8235  0.2705
  815MPD2    C112046   1.729   2.143  11.830  0.0039 -0.1825  0.6448
  815MPD2    C212047   1.604   2.162  11.891 -0.2346 -1.0642 -0.3871
  815MPD2    C312048   1.598   2.209  12.021 -0.1380 -0.1067  0.1866
  815MPD2    C412049   1.717   2.251  12.080  0.6017  0.6492  0.2724
  815MPD2    C512050   1.835   2.237  12.019  1.1729 -0.1053  0.1240
  815MPD2     H12051   1.514   2.134  11.837 -0.7387 -2.3084  1.1095
  815MPD2    H112052   1.720   2.290  12.181 -1.6901  0.5853  0.3678
  815MPD2    H212053   1.942   2.164  11.858  1.0202  2.5027  2.6989
  815MPD2    H312054   1.927   2.269  12.066  0.3853 -0.7675  2.0937
  815MPD2     N12055   1.476   2.201  12.088  0.4851 -0.4099 -0.6781
  815MPD2    H512056   1.412   2.143  12.036 -0.5448  0.7767 -0.7348
  815MPD2    N112057   1.739   2.087  11.703  0.1478 -0.0392  0.0142
  815MPD2    H712058   1.830   2.073  11.660 -0.3478  1.3080 -1.4615
  816MPD2     C12059   1.982   1.307  17.027  0.3797  0.4667  0.0169
  816MPD2    C112060   1.914   1.314  16.910  0.2231 -0.4115  0.2576
  816MPD2    C212061   1.978   1.290  16.793 -0.0875  0.6171 -0.5849
  816MPD2    C312062   2.115   1.259  16.794  0.0272  0.9537 -0.4431
  816MPD2    C412063   2.178   1.246  16.915  0.1049 -0.7175  0.0946
  816MPD2    C512064   2.110   1.263  17.034  0.4876  0.1355 -0.2754
  816MPD2     H12065   1.928   1.295  16.698  1.0109 -0.9087 -1.2459
  816MPD2    H112066   2.286   1.230  16.918 -0.0168 -1.6545 -0.4667
  816MPD2    H212067   1.924   1.328  17.117  0.7823  1.0542  0.1429
  816MPD2    H312068   2.156   1.240  17.130 -0.2994  1.9235  0.5243
  816MPD2     N12069   2.185   1.266  16.668 -0.1239 -0.6686 -0.5792
  816MPD2    H512070   2.133   1.294  16.585  2.2966  0.6720 -1.6437
  816MPD2    N112071   1.774   1.334  16.929 -0.0742 -0.1311  0.2108
  816MPD2    H712072   1.749   1.364  17.022 -2.9314 -2.2127  0.0951
  817MPD2     C12073   0.835   3.132  10.073 -0.1637  0.0412  0.2789
  817MPD2    C112074   0.894   3.199   9.969  0.2636 -0.4960 -0.0266
  817MPD2    C212075   0.845   3.317   9.929 -0.2885  0.0599 -0.6871
  817MPD2    C312076   0.737   3.374   9.984 -0.2623 -0.4262 -1.3858
  817MPD2    C412077   0.679   3.309  10.089  0.4822  0.3170 -0.6511
  817MPD2    C512078   0.725   3.187  10.134 -0.2128 -0.1027 -0.1874
  817MPD2     H12079   0.894   3.367   9.846  0.8601  0.7197  0.3954
  817MPD2    H112080   0.599   3.356  10.146 -0.2902 -2.7961  0.8307
  817MPD2    H212081   0.886   3.041  10.102  1.0734  1.4960  2.6272
  817MPD2    H312082   0.670   3.147  10.218 -0.0526  0.8212  0.3639
  817MPD2     N12083   0.679   3.491   9.918  0.3251  0.3626  0.6610
  817MPD2    H512084   0.735   3.530   9.843  0.4470  0.7176  0.9396
  817MPD2    N112085   1.010   3.151   9.891 -0.1659 -0.0142 -0.0516
  817MPD2    H712086   1.043   3.208   9.813 -1.0169 -2.1537 -1.9787
  818MPD2     C12087   4.256   3.349  10.191 -0.2346 -0.3249  0.6005
  818MPD2    C112088   4.303   3.275  10.291 -0.9699 -0.5335 -0.4067
  818MPD2    C212089   4.410   3.193  10.265 -0.0309  0.0467 -0.0041
  818MPD2    C312090   4.469   3.186  10.142  0.9134  0.5657 -0.5799
  818MPD2    C412091   4.419   3.253  10.041  0.3458 -0.9443 -0.3684
  818MPD2    C512092   4.317   3.340  10.067  0.0729 -0.1075  0.1142
  818MPD2     H12093   4.450   3.139  10.350  0.5097  0.0055 -0.2839
  818MPD2    H112094   4.459   3.243   9.941  1.9242 -0.3733  0.1996
  818MPD2    H212095   4.168   3.408  10.211 -0.7446 -0.7777 -0.3283
  818MPD2    H312096   4.281   3.405   9.989 -1.3642  0.4926  1.2822
  818MPD2     N12097   4.571   3.093  10.124 -0.4654 -0.0154  0.5613
  818MPD2    H512098   4.581   3.058  10.029 -1.2217 -0.8159  0.7701
  818MPD2    N112099   4.245   3.281  10.423 -0.1539  0.2148  0.7180
  818MPD2    H712100   4.274   3.211  10.490 -1.3255 -0.1013  0.8963
  819MPD2     C12101   3.122   0.048  15.712  0.1999 -1.4082  0.0894
  819MPD2    C112102   3.179   4.666  15.675 -0.2936  0.6953  0.8392
  819MPD2    C212103   3.312   4.652  15.661  0.0840 -0.3762 -0.4327
  819MPD2    C312104   3.405   0.012  15.689  0.3156  0.5219 -0.8693
  819MPD2    C412105   3.348   0.132  15.715  0.5844  0.5228  0.2280
  819MPD2    C512106   3.210   0.155  15.732 -0.2668 -0.1198  0.1971
  819MPD2     H12107   3.355   4.562  15.621 -0.7878 -0.6479 -0.7633
  819MPD2    H112108   3.403   0.226  15.719  1.5687 -0.0878  1.1412
  819MPD2    H212109   3.016   0.072  15.713 -0.1547 -2.8950 -1.6210
  819MPD2    H312110   3.178   0.256  15.756 -1.0734  0.1651 -2.0238
  819MPD2     N12111   3.543   4.724  15.673  0.2956  0.4003 -0.4294
  819MPD2    H512112   3.567   4.637  15.626  0.2215 -0.0147  0.3021
  819MPD2    N112113   3.087   4.560  15.648 -0.1620 -0.1378  0.5133
  819MPD2    H712114   2.988   4.583  15.639  0.2315  1.7750  1.0456
  820MPD2     C12115   2.468   4.330  14.912  0.4397  0.0053  0.8506
  820MPD2    C112116   2.528   4.433  14.978 -0.4110 -0.4370 -0.2133
  820MPD2    C212117   2.623   4.413  15.071  0.3552  0.4848 -0.3940
  820MPD2    C312118   2.646   4.285  15.122  0.3964 -0.4883  0.8621
  820MPD2    C412119   2.580   4.181  15.062  0.3382  0.1911  0.3762
  820MPD2    C512120   2.491   4.206  14.968 -0.3522 -0.6773  0.5411
  820MPD2     H12121   2.671   4.501  15.112 -0.6006  0.1668  1.3859
  820MPD2    H112122   2.602   4.081  15.100 -1.6690 -0.7794 -1.0561
  820MPD2    H212123   2.392   4.346  14.836  0.2915 -0.0736  0.9805
  820MPD2    H312124   2.439   4.117  14.934 -2.4993  0.6088  0.4417
  820MPD2     N12125   2.740   4.254  15.225 -0.5561 -0.2898 -0.1338
  820MPD2    H512126   2.740   4.158  15.255 -1.1438  0.5575  2.5244
  820MPD2    N112127   2.475   4.556  14.936  0.1112  0.8862  0.3214
  820MPD2    H712128   2.417   4.557  14.853 -2.8079 -0.8521  2.3150
  821MPD2     C12129   3.337   1.236  13.196 -0.6894 -0.1477  0.2252
  821MPD2    C112130   3.354   1.281  13.325 -1.0452 -0.7139  0.2292
  821MPD2    C212131   3.459   1.376  13.348 -0.3291  0.0989 -0.5087
  821MPD2    C312132   3.539   1.420  13.248 -0.2617  0.0603 -0.5352
  821MPD2    C412133   3.521   1.372  13.121  0.1081 -0.9367 -0.2232
  821MPD2    C512134   3.423   1.280  13.097  0.2418 -0.1989 -0.3419
  821MPD2     H12135   3.466   1.421  13.447 -2.9938 -1.5545  0.4408
  821MPD2    H112136   3.590   1.409  13.046  1.3531  2.2978  2.5006
  821MPD2    H212137   3.261   1.162  13.176 -2.0381  1.4222 -0.4709
  821MPD2    H312138   3.418   1.241  12.996 -1.9986 -0.3526 -0.1707
  821MPD2     N12139   3.641   1.525  13.266  0.5372 -0.0180 -0.4636
  821MPD2    H512140   3.698   1.552  13.186  1.0597  1.8806  0.5429
  821MPD2    N112141   3.292   1.232  13.440 -0.3497  0.2832  0.0484
  821MPD2    H712142   3.324   1.279  13.524  1.4683  0.1351 -0.5677
  822MPD2     C12143   3.786   1.408  15.723  0.1704  0.3289  0.1514
  822MPD2    C112144   3.703   1.371  15.826 -0.1209  0.9998  0.8614
  822MPD2    C212145   3.644   1.466  15.913 -0.7637  0.1695 -0.1230
  822MPD2    C312146   3.682   1.598  15.902 -0.2780 -0.8086 -0.0084
  822MPD2    C412147   3.769   1.632  15.802 -0.3892 -0.1168 -0.1949
  822MPD2    C512148   3.815   1.540  15.709  1.0017 -0.0377 -0.5303
  822MPD2     H12149   3.579   1.428  15.992 -1.3394 -1.2706 -1.2869
  822MPD2    H112150   3.815   1.729  15.788 -1.6756  0.4553 -0.4491
  822MPD2    H212151   3.841   1.341  15.658  2.3991  1.2377  1.0861
  822MPD2    H312152   3.883   1.567  15.629  1.2431  0.8697 -0.0131
  822MPD2     N12153   3.622   1.693  15.985  0.8729 -0.6082 -0.4543
  822MPD2    H512154   3.563   1.658  16.060 -0.1761  0.3790 -0.8195
  822MPD2    N112155   3.690   1.231  15.855  0.3904  0.6835 -0.1469
  822MPD2    H712156   3.661   1.207  15.949 -1.1367  0.4475 -0.6919
  823MPD2     C12157   3.284   1.833  16.704 -0.2755 -0.2602  0.2017
  823MPD2    C112158   3.333   1.760  16.591 -0.3402  0.2417  0.0259
  823MPD2    C212159   3.347   1.620  16.599  0.9246 -0.8007  0.5721
  823MPD2    C312160   3.326   1.559  16.720 -0.3073 -0.1197  0.2010
  823MPD2    C412161   3.271   1.633  16.827 -0.8207  0.6021  0.1809
  823MPD2    C512162   3.248   1.770  16.822  0.5011 -0.1095  0.5039
  823MPD2     H12163   3.405   1.572  16.522 -2.2567 -0.8149 -1.8189
  823MPD2    H112164   3.231   1.581  16.913  0.7026 -1.5182 -0.3888
  823MPD2    H212165   3.285   1.942  16.704 -1.2459 -0.2516  0.5947
  823MPD2    H312166   3.210   1.821  16.910  0.0406 -1.7978  1.2783
  823MPD2     N12167   3.360   1.425  16.752  0.1527 -0.4559  0.1518
  823MPD2    H512168   3.366   1.398  16.850 -0.6139 -0.4165  0.2084
  823MPD2    N112169   3.376   1.839  16.482 -0.0368  0.0185 -0.2435
  823MPD2    H712170   3.376   1.939  16.497  0.6856  0.0793 -0.6363
  824MPD2     C12171   3.971   0.461  15.576 -0.0742  0.0365 -0.0862
  824MPD2    C112172   4.047   0.564  15.635 -0.2368  0.5764 -0.4280
  824MPD2    C212173   4.188   0.550  15.642 -0.0840  0.2280  1.4544
  824MPD2    C312174   4.253   0.443  15.581  0.3332 -0.9274 -0.6691
  824MPD2    C412175   4.172   0.345  15.520 -0.0241 -0.0767 -0.6328
  824MPD2    C512176   4.040   0.358  15.517  0.9265 -0.0715 -0.6229
  824MPD2     H12177   4.241   0.637  15.679  0.2429 -0.2748  2.1516
  824MPD2    H112178   4.212   0.253  15.478 -0.3440 -0.6397  0.2865
  824MPD2    H212179   3.863   0.455  15.580 -0.0675 -0.5197 -0.7741
  824MPD2    H312180   3.987   0.276  15.471  0.3284  0.1321 -0.2942
  824MPD2     N12181   4.395   0.437  15.580  0.3192  0.1249  0.0028
  824MPD2    H512182   4.454   0.514  15.609 -1.6074  2.3301 -1.9297
  824MPD2    N112183   3.994   0.657  15.722 -0.0978  0.7619 -0.0557
  824MPD2    H712184   4.066   0.717  15.761  2.1482 -1.6567 -0.5456
  825MPD2     C12185   0.300   0.724  15.914 -0.0577 -0.2219 -0.4219
  825MPD2    C112186   0.259   0.714  15.780  0.4797  0.6484 -0.2260
  825MPD2    C212187   0.271   0.829  15.711  0.5084 -0.1359 -0.1482
  825MPD2    C312188   0.324   0.947  15.762 -0.4845  0.2924 -0.2653
  825MPD2    C412189   0.363   0.950  15.894  0.2381 -0.2590 -0.0289
  825MPD2    C512190   0.347   0.837  15.971 -0.0350  0.4915 -0.2361
  825MPD2     H12191   0.235   0.833  15.609  1.3288 -0.7573 -0.4637
  825MPD2    H112192   0.408   1.037  15.940 -0.9309  0.6824 -0.6957
  825MPD2    H212193   0.298   0.641  15.984 -0.8810  0.9907  0.9847
  825MPD2    H312194   0.375   0.844  16.076  2.4920  0.2256 -0.8827
  825MPD2     N12195   0.335   1.073  15.696 -0.9054 -0.4068  0.0132
  825MPD2    H512196   0.359   1.149  15.758  2.2758 -1.2196 -0.2164
  825MPD2    N112197   0.206   0.593  15.725 -0.1471  0.6061 -0.6505
  825MPD2    H712198   0.218   0.512  15.786 -2.5732 -0.6619 -1.8579
  826MPD2     C12199   4.471   0.307  13.531  0.2789  0.4798  0.2627
  826MPD2    C112200   4.554   0.409  13.497  0.0176 -0.1930  0.0035
  826MPD2    C212201   4.555   0.526  13.565  0.0392 -0.7813  0.7732
  826MPD2    C312202   4.462   0.540  13.673 -0.6744  0.3245 -0.2792
  826MPD2    C412203   4.370   0.435  13.690 -0.0428 -0.6498  0.0118
  826MPD2    C512204   4.386   0.315  13.634 -0.0597  0.3074  0.5432
  826MPD2     H12205   4.618   0.608  13.532 -0.8343 -1.4587 -2.6209
  826MPD2    H112206   4.294   0.443  13.767  0.3081  1.3470  0.1588
  826MPD2    H212207   4.475   0.217  13.470  0.0183  1.7804 -1.6466
  826MPD2    H312208   4.318   0.235  13.662  0.7625 -1.4708 -2.5300
  826MPD2     N12209   4.445   0.663  13.740  0.0330 -0.2212  0.4080
  826MPD2    H512210   4.383   0.662  13.821  1.2226  2.6047  1.3778
  826MPD2    N112211   4.639   0.373  13.394 -0.0433  0.0464  0.0133
  826MPD2    H712212   4.640   0.278  13.357 -0.4600  0.5354 -1.2625
  827MPD2     C12213   0.387   2.120  10.216 -0.1672  0.3458 -0.3103
  827MPD2    C112214   0.387   1.982  10.218 -0.0914  0.6932  0.0015
  827MPD2    C212215   0.303   1.908  10.136 -0.1223  0.0394  0.1398
  827MPD2    C312216   0.228   1.972  10.035  0.0712  0.1809  0.3235
  827MPD2    C412217   0.222   2.114  10.040 -0.3096 -0.1671  0.1530
  827MPD2    C512218   0.303   2.182  10.129  0.5693  0.0775  0.1599
  827MPD2     H12219   0.303   1.800  10.130 -1.4398  0.1368 -1.8825
  827MPD2    H112220   0.171   2.173   9.966  1.0034  2.2704  1.2001
  827MPD2    H212221   0.459   2.167  10.282 -0.2045  0.3269 -0.2564
  827MPD2    H312222   0.306   2.290  10.122  0.5566  0.0952  0.4253
  827MPD2     N12223   0.128   1.900   9.965 -0.9515  0.0238 -0.2724
  827MPD2    H512224   0.109   1.803   9.989  0.3984 -0.1325  0.1425
  827MPD2    N112225   0.481   1.930  10.308  0.8559  0.6559  0.4611
  827MPD2    H712226   0.523   1.995  10.374 -0.3851  2.1012 -0.1772
  828MPD2     C12227   4.078   1.723  12.269 -0.0138 -0.4885 -0.0483
  828MPD2    C112228   3.982   1.792  12.202 -0.0366  0.7764  0.1730
  828MPD2    C212229   3.994   1.806  12.062 -0.2495  0.0432  0.1290
  828MPD2    C312230   4.090   1.745  11.992  0.2010  0.1388  0.3854
  828MPD2    C412231   4.173   1.662  12.057  0.3232 -0.5007  0.1890
  828MPD2    C512232   4.172   1.652  12.194 -0.5594 -0.0534 -0.1280
  828MPD2     H12233   3.912   1.850  12.008  0.0974  0.4860 -0.0360
  828MPD2    H112234   4.256   1.621  11.999  0.2459  1.4242 -1.2786
  828MPD2    H212235   4.081   1.699  12.375  1.2414 -0.3827 -0.0666
  828MPD2    H312236   4.246   1.591  12.243  0.7863  1.2848 -0.5117
  828MPD2     N12237   4.092   1.751  11.853 -0.7652  0.0841 -0.0865
  828MPD2    H512238   4.171   1.707  11.807 -0.5034  0.4672 -0.0042
  828MPD2    N112239   3.874   1.853  12.269 -0.3307  0.0387  0.2272
  828MPD2    H712240   3.803   1.897  12.211  1.1652  0.1046 -1.5690
  829MPD2     C12241   3.114   2.084  11.910 -0.9730  0.2410  0.0423
  829MPD2    C112242   3.071   2.031  12.028  0.0652  0.3128  0.1762
  829MPD2    C212243   3.160   1.977  12.122 -0.6895 -0.1277  0.0855
  829MPD2    C312244   3.300   1.998  12.102  0.1521 -0.3326  0.0501
  829MPD2    C412245   3.341   2.052  11.981  1.0034  0.5668  0.3608
  829MPD2    C512246   3.251   2.101  11.891  0.7219  0.2436 -0.1432
  829MPD2     H12247   3.122   1.923  12.208  1.0499 -1.3481  0.0855
  829MPD2    H112248   3.447   2.064  11.959  1.1760 -0.9072  0.4271
  829MPD2    H212249   3.049   2.115  11.829  1.0383 -0.2339 -1.7771
  829MPD2    H312250   3.296   2.139  11.800 -1.9991  0.4059 -1.3967
  829MPD2     N12251   3.394   1.946  12.196 -0.4160  0.3354 -0.3579
  829MPD2    H512252   3.493   1.945  12.172 -0.5948 -1.8153 -1.0408
  829MPD2    N112253   2.933   2.034  12.056 -0.0759  0.1257 -0.5561
  829MPD2    H712254   2.869   2.070  11.986  1.4392 -1.1787 -2.6312
  830MPD2     C12255   4.375   4.491  15.565  0.0643 -0.8999 -0.0457
  830MPD2    C112256   4.270   4.564  15.505  0.0696  0.2887  0.4752
  830MPD2    C212257   4.294   4.659  15.403 -0.3629  0.5623  0.3145
  830MPD2    C312258   4.427   4.673  15.366 -0.3287  0.6822  0.7445
  830MPD2    C412259   4.532   4.610  15.432  0.1714 -0.1300  0.0698
  830MPD2    C512260   4.499   4.507  15.520  0.3222  0.0709  0.0072
  830MPD2     H12261   4.217   4.704  15.343  0.5797 -2.1964 -2.9350
  830MPD2    H112262   4.637   4.624  15.406  0.8779 -3.2422  1.2141
  830MPD2    H212263   4.354   4.414  15.638 -0.1991 -0.0337  0.7909
  830MPD2    H312264   4.583   4.447  15.553 -0.2181  0.1079  1.4591
  830MPD2     N12265   4.465   0.024  15.263 -0.8184 -0.0435  0.3945
  830MPD2    H512266   4.558   0.064  15.263 -0.9485  0.2627  0.1477
  830MPD2    N112267   4.142   4.535  15.562 -0.1583  0.2287  0.0386
  830MPD2    H712268   4.141   4.471  15.640  2.5001  0.6350  0.4018
  831MPD2     C12269   3.919   1.624  16.282  0.2269  0.4374  0.6356
  831MPD2    C112270   3.909   1.523  16.187 -0.7994 -0.3632  0.1506
  831MPD2    C212271   3.795   1.430  16.195  0.0737 -0.1222 -0.2351
  831MPD2    C312272   3.702   1.461  16.296  0.6524  0.5341  0.4301
  831MPD2    C412273   3.724   1.558  16.387 -0.4268 -0.0611  0.7687
  831MPD2    C512274   3.833   1.636  16.385 -0.5769  0.2931  0.6459
  831MPD2     H12275   3.783   1.347  16.127 -0.4009 -0.9847  0.8881
  831MPD2    H112276   3.654   1.576  16.468 -1.2070 -1.3812  0.3830
  831MPD2    H212277   4.005   1.690  16.286  0.7498  0.0048 -3.5417
  831MPD2    H312278   3.851   1.713  16.459 -1.6510  0.2300  0.9666
  831MPD2     N12279   3.571   1.405  16.301 -0.5518 -0.5198 -0.6884
  831MPD2    H512280   3.503   1.450  16.361 -0.0514  1.0226 -1.2716
  831MPD2    N112281   4.012   1.513  16.091 -0.0103 -0.4095 -0.3132
  831MPD2    H712282   4.077   1.591  16.088  1.2538 -1.4499 -0.0512
  832MPD2     C12283   2.326   2.189  17.144 -0.3856 -0.3276 -0.2359
  832MPD2    C112284   2.319   2.325  17.123 -0.1092 -1.0354 -0.2053
  832MPD2    C212285   2.227   2.370  17.030 -0.2017  0.7566  0.3339
  832MPD2    C312286   2.167   2.287  16.939 -0.0804  0.0616  0.1465
  832MPD2    C412287   2.188   2.152  16.951 -0.3402 -0.1606 -0.5176
  832MPD2    C512288   2.259   2.110  17.052  0.2627 -0.1381  0.2785
  832MPD2     H12289   2.224   2.475  17.005  3.2115  0.2318 -2.2534
  832MPD2    H112290   2.152   2.084  16.875  0.7170 -3.5947  2.0746
  832MPD2    H212291   2.395   2.151  17.219 -1.4501 -1.0459  0.3875
  832MPD2    H312292   2.263   2.002  17.061 -1.1210 -0.3248 -1.4526
  832MPD2     N12293   2.071   2.329  16.840 -0.4244  0.4699  0.5383
  832MPD2    H512294   2.034   2.258  16.777 -1.8942  2.1428 -0.4637
  832MPD2    N112295   2.393   2.410  17.208  0.1599 -0.7494  0.3813
  832MPD2    H712296   2.462   2.368  17.270  0.7366 -0.8141 -0.3144
  833MPD2     C12297   0.333   4.618  12.048 -0.0221  1.3169  0.6419
  833MPD2    C112298   0.226   4.531  12.062 -0.0039 -0.1828  0.2254
  833MPD2    C212299   0.244   4.401  12.012  0.1714  0.0337 -0.3267
  833MPD2    C312300   0.356   4.370  11.934  0.6005  0.4811  0.2669
  833MPD2    C412301   0.456   4.465  11.906  0.0581 -0.7016  0.4071
  833MPD2    C512302   0.444   4.580  11.978 -0.0532 -0.1022 -0.4341
  833MPD2     H12303   0.166   4.326  12.012 -0.0652  0.2780 -0.4207
  833MPD2    H112304   0.541   4.441  11.843  0.8752  2.0600  0.4155
  833MPD2    H212305   0.328   4.714  12.098  0.7080  1.8550 -0.3356
  833MPD2    H312306   0.528   4.648  11.969 -0.7540  1.0012  1.4077
  833MPD2     N12307   0.353   4.246  11.874  0.3276 -0.2719  0.1290
  833MPD2    H512308   0.269   4.193  11.895  0.6420 -0.6646  0.3855
  833MPD2    N112309   0.107   4.567  12.120  0.1749  0.0488 -0.8490
  833MPD2    H712310   0.041   4.491  12.135 -1.0558  1.2651 -0.1927
  834MPD2     C12311   4.491   3.501  11.965  0.4287 -0.3556 -0.3622
  834MPD2    C112312   4.427   3.605  11.909 -0.1819  0.8673 -0.6308
  834MPD2    C212313   4.505   3.712  11.871 -0.3307  0.6730  0.3805
  834MPD2    C312314   4.640   3.724  11.875 -0.3962  0.1080  0.2696
  834MPD2    C412315   4.702   3.622  11.936  0.1518  0.8041  0.1409
  834MPD2    C512316   4.632   3.506  11.972 -0.2279 -0.3346 -0.0494
  834MPD2     H12317   4.460   3.796  11.821 -0.2535 -2.1033 -4.3423
  834MPD2    H112318   0.069   3.606  11.943  0.2191  0.4750 -1.5282
  834MPD2    H212319   4.433   3.416  11.995 -0.1016  0.3499  0.6020
  834MPD2    H312320   4.690   3.420  12.004 -1.2714 -1.7587 -2.0221
  834MPD2     N12321   4.701   3.831  11.801 -0.5705  0.3650 -0.0665
  834MPD2    H512322   4.637   3.898  11.759 -1.6111 -0.2570  0.5277
  834MPD2    N112323   4.287   3.591  11.902  0.1277 -0.3904 -0.3075
  834MPD2    H712324   4.250   3.497  11.915 -0.5030 -0.2218 -0.8782
  835MPD2     C12325   4.658   1.479  10.940 -0.5491  0.3271 -0.4255
  835MPD2    C112326   4.577   1.526  11.044  0.3684 -0.0092  0.6842
  835MPD2    C212327   4.621   1.550  11.173 -0.5108  0.4844 -0.1000
  835MPD2    C312328   0.015   1.528  11.196 -0.1365  0.1038 -0.3388
  835MPD2    C412329   0.092   1.465  11.101  0.2474 -0.8141 -0.0116
  835MPD2    C512330   0.046   1.443  10.967  0.2571  0.0541  0.0975
  835MPD2     H12331   4.553   1.585  11.250 -0.8134  0.1451 -0.2110
  835MPD2    H112332   0.195   1.442  11.125  0.6770 -0.5208 -1.5704
  835MPD2    H212333   4.622   1.468  10.838  0.6305  2.5382 -1.0694
  835MPD2    H312334   0.117   1.405  10.894  0.9011  2.1827 -0.3960
  835MPD2     N12335   0.084   1.560  11.316 -0.1895 -0.1114  0.0062
  835MPD2    H512336   0.184   1.538  11.318  0.0402  1.0124  1.0028
  835MPD2    N112337   4.444   1.569  11.016 -0.5775  0.2528 -0.4018
  835MPD2    H712338   4.389   1.622  11.083  0.6590  0.6699  0.2723
  836MPD2     C12339   4.449   1.888  11.648 -0.0143  0.5475  0.1806
  836MPD2    C112340   4.528   1.864  11.763 -0.2382  0.2392 -0.6340
  836MPD2    C212341   4.492   1.912  11.886 -0.1551 -0.7598  0.2514
  836MPD2    C312342   4.370   1.971  11.902 -0.0984 -0.5359  0.3078
  836MPD2    C412343   4.297   2.002  11.792 -0.1375  0.1825 -0.1087
  836MPD2    C512344   4.330   1.960  11.664  0.8258 -0.4234 -0.5867
  836MPD2     H12345   4.553   1.884  11.972 -3.2211 -0.4137  2.5334
  836MPD2    H112346   4.199   2.047  11.806  1.0707  2.7677  0.1861
  836MPD2    H212347   4.476   1.849  11.551  0.7659  2.1713 -0.2531
  836MPD2    H312348   4.264   1.984  11.581 -0.1487  0.9106  0.5700
  836MPD2     N12349   4.318   1.999  12.032  0.6655 -0.1157 -0.0900
  836MPD2    H512350   4.233   2.053  12.040  0.4486 -0.0667 -2.6103
  836MPD2    N112351   4.644   1.794  11.732 -0.0311 -0.7435  0.5203
  836MPD2    H712352   4.660   1.767  11.635 -0.5356  0.2847  0.1456
  837MPD2     C12353   2.841   1.224  10.423 -0.0677 -0.3960 -0.0841
  837MPD2    C112354   2.783   1.325  10.358 -0.0743  0.4707  0.1186
  837MPD2    C212355   2.795   1.457  10.413  0.2912  0.1891 -0.5727
  837MPD2    C312356   2.865   1.474  10.530 -0.3336 -0.0666 -0.7685
  837MPD2    C412357   2.937   1.372  10.585  0.4311 -0.0522 -0.2630
  837MPD2    C512358   2.918   1.247  10.542  1.2810 -0.5086  0.6047
  837MPD2     H12359   2.734   1.537  10.373 -3.1212 -1.0392  2.1529
  837MPD2    H112360   2.993   1.393  10.676  0.5012 -1.1594 -0.0486
  837MPD2    H212361   2.821   1.121  10.395 -1.2967  0.4312 -2.2629
  837MPD2    H312362   2.967   1.163  10.591  0.3151 -1.1989  0.3945
  837MPD2     N12363   2.837   1.599  10.593 -0.3760  0.3501  0.5834
  837MPD2    H512364   2.780   1.660  10.536  1.1481 -0.1334 -1.4681
  837MPD2    N112365   2.687   1.297  10.253  0.6416  0.0916 -0.9052
  837MPD2    H712366   2.673   1.377  10.191  0.0737  0.8654  0.2219
  838MPD2     C12367   0.972   3.885  11.008 -0.3897 -1.3714  0.2808
  838MPD2    C112368   1.029   4.000  11.068  0.0629  0.1431  0.2820
  838MPD2    C212369   0.983   4.038  11.194 -0.4788  0.1352  0.4700
  838MPD2    C312370   0.878   3.972  11.256 -0.3183 -0.7457 -0.3807
  838MPD2    C412371   0.825   3.857  11.192 -0.2232 -0.2167 -0.1927
  838MPD2    C512372   0.875   3.812  11.070 -0.8763 -0.2421  0.0448
  838MPD2     H12373   1.047   4.116  11.235 -0.6973  1.7537 -2.2525
  838MPD2    H112374   0.735   3.821  11.240 -1.5503  0.8939 -1.8383
  838MPD2    H212375   1.011   3.845  10.915  2.6851  0.4442  0.7891
  838MPD2    H312376   0.831   3.735  11.008  1.2025 -2.8352  1.8267
  838MPD2     N12377   0.837   4.016  11.388 -0.1608 -0.1524  0.1181
  838MPD2    H512378   0.890   4.095  11.425 -1.4145  0.6198  0.2623
  838MPD2    N112379   1.150   4.060  11.020 -0.1303  0.2468 -0.0893
  838MPD2    H712380   1.178   4.132  11.086  0.9207  0.0727 -0.3512
  839MPD2     C12381   1.218   4.132  11.558  0.9969 -0.6231  0.5348
  839MPD2    C112382   1.245   4.031  11.469 -0.7123  0.3132  0.1234
  839MPD2    C212383   1.343   4.041  11.378  1.4235 -0.1597  0.1969
  839MPD2    C312384   1.414   4.165  11.362 -0.6276  0.0240 -0.4590
  839MPD2    C412385   1.376   4.269  11.447 -0.1357  0.2070  0.5607
  839MPD2    C512386   1.287   4.254  11.544 -0.1862 -0.4006 -0.0140
  839MPD2     H12387   1.362   3.953  11.318 -0.0352  0.5320 -1.2764
  839MPD2    H112388   1.438   4.358  11.439  0.6255 -0.3751 -0.0928
  839MPD2    H212389   1.138   4.123  11.630  0.5836  2.7679  0.5254
  839MPD2    H312390   1.272   4.334  11.615  0.2379  0.2982 -0.7026
  839MPD2     N12391   1.512   4.189  11.262 -0.9199 -1.0561  0.6290
  839MPD2    H512392   1.552   4.281  11.250 -2.5938 -0.5520 -1.1560
  839MPD2    N112393   1.171   3.906  11.467  0.3767  0.1347  0.3348
  839MPD2    H712394   1.189   3.837  11.395 -1.4165 -2.0993  2.0201
  840MPD2     C12395   1.087   2.111  10.279  0.2114  0.2530  0.3074
  840MPD2    C112396   1.076   2.056  10.402 -0.4330 -0.2371  0.1813
  840MPD2    C212397   1.165   2.097  10.497  0.2714  0.0715  0.2542
  840MPD2    C312398   1.259   2.195  10.479  0.7010 -0.4398  0.1387
  840MPD2    C412399   1.273   2.246  10.353  0.5054 -0.1243 -0.0816
  840MPD2    C512400   1.184   2.207  10.252 -0.3885 -0.3299 -0.0929
  840MPD2     H12401   1.141   2.058  10.596  1.5270 -0.6489  0.2806
  840MPD2    H112402   1.337   2.330  10.326  0.1396  1.1047  2.9041
  840MPD2    H212403   1.011   2.088  10.205  0.7998 -1.2581  0.1742
  840MPD2    H312404   1.185   2.245  10.151  2.2760 -2.3438 -0.8104
  840MPD2     N12405   1.343   2.241  10.578  0.4133  0.1125 -0.3752
  840MPD2    H512406   1.412   2.310  10.550 -1.3601  1.9064 -0.3401
  840MPD2    N112407   0.965   1.974  10.427  0.6526  0.1224  0.1656
  840MPD2    H712408   0.889   1.980  10.360  0.1706  0.0564  0.6986
  841MPD2     C12409   0.781   2.429  14.264 -0.2214  0.2019 -0.0895
  841MPD2    C112410   0.810   2.294  14.241 -0.7948  0.0226  0.2017
  841MPD2    C212411   0.924   2.242  14.304 -0.5391  0.2795 -0.2599
  841MPD2    C312412   1.007   2.321  14.378 -0.5542  0.6363  0.0379
  841MPD2    C412413   0.971   2.450  14.413  0.4491  0.4052 -0.0191
  841MPD2    C512414   0.858   2.497  14.355 -0.2890 -0.1864  0.5579
  841MPD2     H12415   0.943   2.140  14.274 -2.3127 -1.3198  4.0932
  841MPD2    H112416   1.027   2.519  14.474 -0.0292  0.3747  0.4624
  841MPD2    H212417   0.691   2.481  14.234 -1.0543 -1.2330 -0.0943
  841MPD2    H312418   0.828   2.598  14.380 -0.3499  0.0917 -0.6883
  841MPD2     N12419   1.129   2.269  14.435  0.2284  0.4311 -0.1551
  841MPD2    H512420   1.180   2.330  14.498 -1.2342 -0.1454  1.5775
  841MPD2    N112421   0.717   2.210  14.173  0.4255 -0.0653  0.1370
  841MPD2    H712422   0.719   2.110  14.188 -0.1488 -0.3854 -1.9982
  842MPD2     C12423   1.588   2.736  16.933 -0.8237  0.2177 -0.8563
  842MPD2    C112424   1.453   2.701  16.915  1.1468 -0.3757  0.0320
  842MPD2    C212425   1.417   2.572  16.939  0.0209  0.4136 -0.4653
  842MPD2    C312426   1.497   2.484  17.005  0.3210 -0.3738  0.5865
  842MPD2    C412427   1.624   2.525  17.029  0.4844  0.2341  0.1702
  842MPD2    C512428   1.676   2.642  16.984  0.5564 -0.4422 -0.2454
  842MPD2     H12429   1.312   2.542  16.942  0.2281 -0.1959  0.5817
  842MPD2    H112430   1.697   2.457  17.072  1.2570  1.5147  0.8864
  842MPD2    H212431   1.623   2.838  16.916 -1.8178  0.5009 -1.2143
  842MPD2    H312432   1.780   2.663  17.005 -0.4693  2.9259  1.5129
  842MPD2     N12433   1.448   2.362  17.064  0.3796  0.2572 -0.9409
  842MPD2    H512434   1.514   2.305  17.116  0.3551  0.3889 -0.7659
  842MPD2    N112435   1.355   2.803  16.869 -0.0144 -0.6802  0.1636
  842MPD2    H712436   1.395   2.895  16.857  1.5553 -1.1758  1.7370
  843MPD2     C12437   3.472   3.834  17.325  0.1122 -0.2587  0.6897
  843MPD2    C112438   3.430   3.743  17.419 -0.0794 -0.1021 -0.5239
  843MPD2    C212439   3.471   3.760  17.550  0.7015  1.0572 -0.6885
  843MPD2    C312440   3.557   3.866  17.578  1.1489  0.5076  0.0149
  843MPD2    C412441   3.601   3.945  17.476 -0.6893 -0.6385 -1.2644
  843MPD2    C512442   3.562   3.930  17.347  0.3836 -0.0240 -0.3976
  843MPD2     H12443   3.439   3.693  17.629 -2.5467  3.1446 -0.2262
  843MPD2    H112444   3.673   4.022  17.500 -0.2314 -1.5666  0.3306
  843MPD2    H212445   3.427   3.827  17.226  2.0294 -1.0306 -0.1329
  843MPD2    H312446   3.598   3.979  17.257  0.0856  0.7201 -0.1160
  843MPD2     N12447   3.587   3.916  17.709  0.3205 -0.1620 -0.3136
  843MPD2    H512448   3.615   4.013  17.706  0.0833 -0.1676 -2.6205
  843MPD2    N112449   3.332   3.651  17.381  0.1298  0.3638  0.5475
  843MPD2    H712450   3.307   3.651  17.283 -1.1944 -0.6539  0.8814
  844MPD2     C12451   1.780   2.456  16.194 -0.5433  0.0940 -0.9508
  844MPD2    C112452   1.891   2.367  16.204  0.0389 -0.3515 -0.9417
  844MPD2    C212453   2.004   2.394  16.279  0.8461 -0.4298 -0.0199
  844MPD2    C312454   1.996   2.507  16.368 -0.7253 -0.7261 -0.2592
  844MPD2    C412455   1.893   2.599  16.359 -0.0611  0.0616 -0.6333
  844MPD2    C512456   1.795   2.571  16.267  0.7525 -0.5343 -0.3008
  844MPD2     H12457   2.088   2.326  16.284  0.0728 -1.3660  0.1044
  844MPD2    H112458   1.894   2.696  16.407 -2.3368  0.7380 -1.9514
  844MPD2    H212459   1.693   2.441  16.130 -0.3587  2.3811 -1.7358
  844MPD2    H312460   1.712   2.639  16.265  1.8477  0.8074 -0.1529
  844MPD2     N12461   2.099   2.553  16.449  0.4669 -0.5391  0.4699
  844MPD2    H512462   2.090   2.650  16.479 -0.2785 -1.1489  2.1624
  844MPD2    N112463   1.902   2.246  16.134 -0.1666  0.0477 -0.0144
  844MPD2    H712464   1.976   2.179  16.153  0.0828  0.4545  0.4909
  845MPD2     C12465   2.024   3.095  17.142  0.4359 -0.2957  0.4301
  845MPD2    C112466   2.082   2.992  17.212  0.7534  0.4174  0.1941
  845MPD2    C212467   2.144   2.891  17.134  0.0812  0.5738  0.4351
  845MPD2    C312468   2.178   2.913  16.997  0.7304  0.3748 -0.0570
  845MPD2    C412469   2.135   3.029  16.942 -0.0821  0.0218 -0.1774
  845MPD2    C512470   2.049   3.109  17.009 -0.3496  0.0914 -0.3345
  845MPD2     H12471   2.165   2.791  17.171  0.1023  0.1405 -0.7352
  845MPD2    H112472   2.158   3.071  16.844 -0.3569  1.8050  0.5207
  845MPD2    H212473   1.968   3.174  17.191  1.6226  0.2544  0.8901
  845MPD2    H312474   2.013   3.195  16.954 -1.2302 -1.1294 -1.6900
  845MPD2     N12475   2.244   2.811  16.923 -0.5929 -0.5500 -1.2510
  845MPD2    H512476   2.265   2.725  16.973  1.8297  0.9407  0.3255
  845MPD2    N112477   2.054   2.981  17.348 -0.1669 -0.5119  0.3474
  845MPD2    H712478   2.025   3.071  17.385 -2.5976 -1.2864  0.3229
  846MPD2     C12479   4.016   3.520  14.039  0.4094 -0.0993 -0.6227
  846MPD2    C112480   3.882   3.528  14.013  0.5606  1.0981 -0.4135
  846MPD2    C212481   3.797   3.476  14.115  0.1675  0.4377  0.0475
  846MPD2    C312482   3.846   3.418  14.238  0.4579 -0.8253  0.2810
  846MPD2    C412483   3.983   3.410  14.247  0.2346  0.2105 -0.5298
  846MPD2    C512484   4.067   3.463  14.156  0.0047 -0.6042  0.6394
  846MPD2     H12485   3.691   3.490  14.098  0.0931  0.1905  0.3173
  846MPD2    H112486   4.035   3.373  14.335  1.8597  0.2097 -1.4726
  846MPD2    H212487   4.098   3.553  13.975  0.5477  0.1927 -0.2948
  846MPD2    H312488   4.173   3.463  14.178  0.0865  0.7562  0.2854
  846MPD2     N12489   3.754   3.379  14.337 -0.2490 -0.0138  0.3682
  846MPD2    H512490   3.658   3.406  14.319 -0.5069  0.7284  2.9546
  846MPD2    N112491   3.831   3.578  13.888  0.0135 -0.1099  0.1775
  846MPD2    H712492   3.731   3.579  13.872  0.0931  1.6626 -0.2158
  847MPD2     C12493   3.573   4.349  14.017 -0.3675  0.1068 -0.3040
  847MPD2    C112494   3.591   4.269  14.132  0.0659  0.3946  0.4230
  847MPD2    C212495   3.479   4.238  14.207  0.4483  0.0189  0.2777
  847MPD2    C312496   3.359   4.280  14.163  0.1665  1.0578 -0.3974
  847MPD2    C412497   3.342   4.339  14.040  0.2399  0.4642  0.0846
  847MPD2    C512498   3.450   4.379  13.964 -0.5035 -0.2709 -0.5007
  847MPD2     H12499   3.487   4.195  14.306  0.3833  2.2450  1.2603
  847MPD2    H112500   3.245   4.353  13.993  0.4559  0.1240 -0.4714
  847MPD2    H212501   3.649   4.395  13.954  0.1826 -0.8283 -0.3324
  847MPD2    H312502   3.450   4.428  13.867  0.5815 -1.5758 -1.1548
  847MPD2     N12503   3.257   4.258  14.254 -0.0737  0.2031  0.5049
  847MPD2    H512504   3.292   4.230  14.345  0.0818 -1.1870  0.0141
  847MPD2    N112505   3.709   4.225  14.186 -0.2857 -0.6032 -0.2927
  847MPD2    H712506   3.704   4.160  14.264 -3.0076 -0.4157 -0.3097
  848MPD2     C12507   1.550   2.833  16.401 -0.7402 -0.0233 -0.8233
  848MPD2    C112508   1.622   2.845  16.521 -0.1869  0.5582 -0.6228
  848MPD2    C212509   1.645   2.966  16.575  0.3045  0.2940 -0.1005
  848MPD2    C312510   1.617   3.082  16.507  0.9473  0.0053  0.5279
  848MPD2    C412511   1.542   3.074  16.396  0.0828  0.4449 -0.1605
  848MPD2    C512512   1.509   2.951  16.341 -0.2500 -0.0290  0.4192
  848MPD2     H12513   1.705   2.960  16.665 -0.8783  0.8906  0.7199
  848MPD2    H112514   1.524   3.163  16.338 -0.6747  0.0922 -0.4650
  848MPD2    H212515   1.527   2.738  16.353 -0.2473 -0.0124 -1.0841
  848MPD2    H312516   1.457   2.955  16.246  1.0389 -0.7940 -0.3183
  848MPD2     N12517   1.656   3.213  16.558  0.7064  0.0873 -0.2493
  848MPD2    H512518   1.598   3.281  16.512 -0.9050 -2.0064 -1.3338
  848MPD2    N112519   1.667   2.727  16.585  0.3934  0.2363  0.2714
  848MPD2    H712520   1.735   2.744  16.659 -0.2598  1.7068  0.5316
  849MPD2     C12521   0.595   2.706  14.503 -0.1418  0.0863  0.4562
  849MPD2    C112522   0.677   2.802  14.452 -0.0879  0.4964  0.5566
  849MPD2    C212523   0.800   2.820  14.521  0.3833 -0.5707  0.6173
  849MPD2    C312524   0.839   2.744  14.631 -0.4107 -0.4149 -0.6694
  849MPD2    C412525   0.745   2.660  14.683  0.0982  0.4104 -0.1459
  849MPD2    C512526   0.625   2.639  14.619  0.2304 -0.5293  0.8382
  849MPD2     H12527   0.866   2.899  14.487  1.0049 -1.8188 -1.0573
  849MPD2    H112528   0.765   2.607  14.775 -0.2535  0.1826 -0.1996
  849MPD2    H212529   0.501   2.675  14.458 -0.3099 -0.4311  1.1584
  849MPD2    H312530   0.562   2.565  14.667  1.0931 -1.5111  0.4570
  849MPD2     N12531   0.951   2.773  14.712 -0.2649  0.2146 -0.2967
  849MPD2    H512532   0.964   2.724  14.800  0.0367 -0.9593 -1.0126
  849MPD2    N112533   0.659   2.882  14.339 -0.0892 -0.3617 -0.1454
  849MPD2    H712534   0.747   2.921  14.307  0.1297  0.6371  1.7235
  850MPD2     C12535   3.982   1.221  14.466  0.4710  0.2499  0.5533
  850MPD2    C112536   3.984   1.251  14.595 -0.1084  0.0658 -0.4061
  850MPD2    C212537   4.108   1.267  14.653  0.5464  0.1513 -0.0765
  850MPD2    C312538   4.233   1.246  14.589  0.5328  0.2456 -0.7250
  850MPD2    C412539   4.225   1.204  14.458  0.1086  0.1427  0.3201
  850MPD2    C512540   4.102   1.197  14.403 -0.0849 -0.0673 -0.1602
  850MPD2     H12541   4.107   1.321  14.747  2.0936  0.6768 -0.3576
  850MPD2    H112542   4.313   1.167  14.407  1.3877  0.6740  2.1788
  850MPD2    H212543   3.894   1.197  14.407  2.2509  0.0028 -2.0088
  850MPD2    H312544   4.098   1.148  14.307  0.8881 -0.1814 -0.1410
  850MPD2     N12545   4.359   1.253  14.653  0.3125  0.4156  0.3960
  850MPD2    H512546   4.440   1.238  14.593 -1.8111 -0.6317 -2.2409
  850MPD2    N112547   3.856   1.237  14.662 -0.4003 -0.1282  0.1222
  850MPD2    H712548   3.780   1.232  14.595 -1.7774  1.1963  1.5910
  851MPD2     C12549   4.367   0.949  15.319  0.3012 -0.7518  0.0455
  851MPD2    C112550   4.311   0.926  15.195 -0.7985 -0.5374  0.5820
  851MPD2    C212551   4.347   0.804  15.132 -0.4443  0.1030  0.3028
  851MPD2    C312552   4.439   0.717  15.191  0.7389  0.2498  0.3396
  851MPD2    C412553   4.490   0.747  15.311  0.2515 -0.4701 -0.1211
  851MPD2    C512554   4.462   0.865  15.375 -0.1537 -0.3405 -0.5854
  851MPD2     H12555   4.323   0.774  15.030  1.2084  0.6955 -0.2732
  851MPD2    H112556   4.565   0.686  15.361  0.6143 -0.5951 -0.8165
  851MPD2    H212557   4.342   1.038  15.377 -0.3419 -1.9789  1.6422
  851MPD2    H312558   4.498   0.890  15.474  1.4140 -1.4251 -0.8838
  851MPD2     N12559   4.469   0.600  15.123 -0.1939  0.0174 -0.0543
  851MPD2    H512560   4.396   0.571  15.058  1.0939 -1.0944 -0.9968
  851MPD2    N112561   4.222   1.026  15.143  0.7453 -0.4727  0.3694
  851MPD2    H712562   4.218   1.110  15.199  1.6774 -1.1333  1.4207
  852MPD2     C12563   3.500   4.077   9.684  0.3954  0.2645  0.2051
  852MPD2    C112564   3.509   4.095   9.820 -0.4060  0.1499  0.6929
  852MPD2    C212565   3.622   4.166   9.870  0.5387  0.1221  0.2916
  852MPD2    C312566   3.723   4.207   9.786 -1.3480 -0.3338  0.0466
  852MPD2    C412567   3.713   4.178   9.652  0.6408 -0.0300  0.3317
  852MPD2    C512568   3.597   4.132   9.596  0.1077 -0.3935  0.7944
  852MPD2     H12569   3.631   4.177   9.977  0.5604 -1.4557  0.4438
  852MPD2    H112570   3.793   4.199   9.582  1.9948  0.1265  1.9022
  852MPD2    H212571   3.416   4.020   9.646  2.7674 -2.7169 -0.5890
  852MPD2    H312572   3.588   4.102   9.492 -0.8944 -0.0011  0.7625
  852MPD2     N12573   3.833   4.265   9.852  0.2246 -0.0430 -0.2384
  852MPD2    H512574   3.810   4.305   9.943 -0.5013  0.8700 -0.8137
  852MPD2    N112575   3.415   4.041   9.916  0.3208  0.3111 -0.5196
  852MPD2    H712576   3.435   4.068  10.012 -0.0662  0.8412 -0.5910
  853MPD2     C12577   0.941   2.843  12.549  0.1313  0.3452  0.1948
  853MPD2    C112578   0.861   2.932  12.473 -0.3920  0.4551  0.5301
  853MPD2    C212579   0.876   2.942  12.332 -0.2295 -0.2551  0.0064
  853MPD2    C312580   0.968   2.866  12.268 -0.0902  0.2638  0.0621
  853MPD2    C412581   1.045   2.783  12.340 -0.2656  0.3304  0.3673
  853MPD2    C512582   1.030   2.772  12.475  0.0120  0.0217  0.0410
  853MPD2     H12583   0.817   3.015  12.276  0.3602  0.8751  0.8554
  853MPD2    H112584   1.116   2.725  12.283 -0.2054  2.1161 -1.3968
  853MPD2    H212585   0.926   2.828  12.655  0.1633 -0.2683  0.1134
  853MPD2    H312586   1.095   2.705  12.529  2.4458  0.9839 -1.7123
  853MPD2     N12587   0.984   2.865  12.128  0.2116 -0.7973  0.7643
  853MPD2    H512588   1.055   2.804  12.090 -0.5079 -0.3647 -1.2512
  853MPD2    N112589   0.778   3.014  12.550 -0.0676  0.6738 -0.0503
  853MPD2    H712590   0.800   3.023  12.648  1.9852 -2.9600 -0.2189
  854MPD2     C12591   3.027   3.364  12.678  0.4848 -0.2309  0.3457
  854MPD2    C112592   2.893   3.370  12.725  0.5041  0.4294 -0.1946
  854MPD2    C212593   2.866   3.316  12.847  0.8318  0.3674  0.5643
  854MPD2    C312594   2.974   3.252  12.921  0.5008  0.6778 -0.1103
  854MPD2    C412595   3.094   3.232  12.860  0.7968  0.1181  0.0422
  854MPD2    C512596   3.122   3.294  12.739  0.1726 -0.5457  0.5368
  854MPD2     H12597   2.768   3.338  12.887  0.7538  1.2270 -0.1088
  854MPD2    H112598   3.173   3.184  12.917 -0.2429 -0.8714  0.6640
  854MPD2    H212599   3.057   3.404  12.582  0.5326  1.1719  0.9407
  854MPD2    H312600   3.217   3.272  12.692  0.9461  0.9114  1.4167
  854MPD2     N12601   2.954   3.197  13.053  0.4047  0.2585 -0.6291
  854MPD2    H512602   3.034   3.145  13.087 -0.3625 -0.9261 -0.5942
  854MPD2    N112603   2.797   3.449  12.651  0.3354  0.3337  0.0851
  854MPD2    H712604   2.843   3.504  12.580  0.3145  1.7220  1.1578
  855MPD2     C12605   2.754   3.188  13.992 -0.1411 -0.3769  0.6162
  855MPD2    C112606   2.658   3.094  13.956 -0.3324 -0.2383 -0.1891
  855MPD2    C212607   2.642   3.081  13.818  0.2513 -0.4662  0.0140
  855MPD2    C312608   2.704   3.169  13.722 -0.0710 -0.3866  0.0505
  855MPD2    C412609   2.801   3.254  13.773 -0.5575  0.2421 -0.4680
  855MPD2    C512610   2.820   3.263  13.908 -0.1071  0.7196 -0.2254
  855MPD2     H12611   2.583   2.997  13.784  0.8908 -0.2787 -1.5186
  855MPD2    H112612   2.863   3.308  13.702  1.0093  1.1527  1.5526
  855MPD2    H212613   2.777   3.200  14.097  0.8221 -0.6025  0.4281
  855MPD2    H312614   2.885   3.342  13.944 -1.4090  1.8735 -0.4163
  855MPD2     N12615   2.701   3.151  13.580  0.7982  0.0755  0.1442
  855MPD2    H512616   2.770   3.205  13.528 -0.6270 -0.1063 -1.9527
  855MPD2    N112617   2.604   3.005  14.048  0.1118 -0.1206  0.4966
  855MPD2    H712618   2.637   3.013  14.143  0.4811 -0.2307  0.3754
  856MPD2     C12619   0.232   3.901  13.286 -0.5821  0.2455 -0.2275
  856MPD2    C112620   0.168   4.009  13.356 -0.0336  0.5344 -0.9745
  856MPD2    C212621   0.153   4.128  13.289  0.0285  0.1357 -0.8773
  856MPD2    C312622   0.197   4.141  13.160  0.7792 -0.3083 -0.1261
  856MPD2    C412623   0.254   4.039  13.097  0.2585 -0.1579  0.2973
  856MPD2    C512624   0.263   3.918  13.155  0.1792  0.2817  0.7055
  856MPD2     H12625   0.117   4.217  13.340 -0.6633 -0.7206  0.1390
  856MPD2    H112626   0.289   4.053  12.995 -2.3277 -0.1145 -0.5900
  856MPD2    H212627   0.240   3.803  13.333  1.6112  0.5468  0.0154
  856MPD2    H312628   0.304   3.831  13.106 -1.4640  0.7104 -1.4180
  856MPD2     N12629   0.199   4.271  13.090 -0.2803 -0.1711  0.2022
  856MPD2    H512630   0.254   4.270  13.005  0.6211 -0.7942  0.7908
  856MPD2    N112631   0.132   3.995  13.492 -0.4467  0.0925 -0.6421
  856MPD2    H712632   0.161   3.912  13.543 -0.2601  1.2457  1.0956
  857MPD2     C12633   1.696   0.997  13.311  0.0064 -0.0992  0.3361
  857MPD2    C112634   1.752   1.042  13.188  0.9434 -0.0541 -0.0164
  857MPD2    C212635   1.731   1.172  13.153 -0.2270  0.0664 -0.4840
  857MPD2    C312636   1.663   1.263  13.232 -0.0177  0.2054  0.2319
  857MPD2    C412637   1.628   1.216  13.355  0.7652  0.1847  0.4159
  857MPD2    C512638   1.637   1.088  13.396 -0.2836 -0.0177  0.2392
  857MPD2     H12639   1.783   1.209  13.065  0.8368 -0.8183 -0.2259
  857MPD2    H112640   1.592   1.287  13.429 -0.2190 -0.0555  0.1648
  857MPD2    H212641   1.717   0.900  13.355 -2.2214 -0.6522  0.1838
  857MPD2    H312642   1.605   1.053  13.493  0.6106  2.6021  1.4925
  857MPD2     N12643   1.669   1.403  13.199 -0.4083 -0.7463 -0.1371
  857MPD2    H512644   1.719   1.438  13.117  1.3280 -0.1958  1.1567
  857MPD2    N112645   1.833   0.949  13.120  0.0176  0.0893  0.4439
  857MPD2    H712646   1.831   0.859  13.168 -0.7476  0.0243  0.2911
  858MPD2     C12647   2.020   0.897  16.298  0.3813  0.6210  0.0902
  858MPD2    C112648   2.082   0.776  16.334  0.5350  0.4223  0.0877
  858MPD2    C212649   2.092   0.747  16.472 -0.6595 -0.2994 -0.4335
  858MPD2    C312650   2.029   0.831  16.563  0.6329 -0.9054  0.5481
  858MPD2    C412651   1.969   0.949  16.522  0.2687 -0.1286  0.5201
  858MPD2    C512652   1.963   0.981  16.396 -0.2080 -1.3095 -0.3889
  858MPD2     H12653   2.141   0.655  16.500 -0.1875 -0.0006 -0.2580
  858MPD2    H112654   1.911   1.011  16.590 -0.4314 -0.8526  0.5874
  858MPD2    H212655   1.995   0.907  16.193 -3.0123 -0.7113  0.7595
  858MPD2    H312656   1.933   1.079  16.361 -1.7687 -1.2965  0.9921
  858MPD2     N12657   2.019   0.817  16.704 -0.8248 -0.2849 -0.9144
  858MPD2    H512658   1.968   0.891  16.751  0.2658  0.8853 -1.5737
  858MPD2    N112659   2.127   0.694  16.230 -0.2819 -0.2250 -0.3400
  858MPD2    H712660   2.089   0.728  16.143 -0.9425  1.6998  0.6871
  859MPD2     C12661   0.792   2.561  15.949  0.4647 -0.3129  0.2352
  859MPD2    C112662   0.902   2.554  15.861 -0.0053 -0.1666  0.6382
  859MPD2    C212663   0.945   2.426  15.812 -0.2721  0.2115 -0.2304
  859MPD2    C312664   0.897   2.314  15.872 -0.0912 -0.1932 -0.4532
  859MPD2    C412665   0.792   2.317  15.962 -0.0321  0.1658  0.1270
  859MPD2    C512666   0.738   2.443  15.999 -0.3799 -0.8128 -0.3624
  859MPD2     H12667   1.036   2.429  15.753  0.7944  1.1685  1.4442
  859MPD2    H112668   0.747   2.229  16.008  1.5455 -0.2470  0.8990
  859MPD2    H212669   0.747   2.658  15.969  0.1706 -0.4538  0.2510
  859MPD2    H312670   0.648   2.449  16.060  0.0699  0.7434  0.1558
  859MPD2     N12671   0.955   2.193  15.839 -0.0857 -1.1777  0.2012
  859MPD2    H512672   0.920   2.118  15.898  1.9518 -1.6607  0.8226
  859MPD2    N112673   0.944   2.680  15.810 -0.2327  0.1289 -0.1904
  859MPD2    H712674   0.894   2.766  15.832 -0.3691 -0.5333  2.1353
  860MPD2     C12675   4.026   2.623  12.164  0.3834 -0.5935  0.2630
  860MPD2    C112676   4.008   2.742  12.231 -0.4371  0.1066  0.7355
  860MPD2    C212677   3.884   2.758  12.290 -0.9832 -0.6658 -0.5308
  860MPD2    C312678   3.778   2.671  12.272  0.6512  0.2499 -0.8955
  860MPD2    C412679   3.799   2.560  12.197  0.1891 -0.2260 -0.1046
  860MPD2    C512680   3.919   2.544  12.132 -0.7229 -0.4432 -0.1433
  860MPD2     H12681   3.867   2.851  12.343  3.4072 -0.5043  0.5471
  860MPD2    H112682   3.723   2.483  12.192  0.2922 -0.2726 -0.9384
  860MPD2    H212683   4.127   2.597  12.134 -0.0922 -0.0722 -1.7551
  860MPD2    H312684   3.932   2.456  12.071 -0.2008 -0.4237 -0.0591
  860MPD2     N12685   3.651   2.700  12.332  0.8144 -0.5342  0.6612
  860MPD2    H512686   3.642   2.788  12.382 -1.8623 -1.0969  1.1545
  860MPD2    N112687   4.110   2.840  12.245  0.4370 -0.2088  0.2846
  860MPD2    H712688   4.087   2.914  12.310  0.3227 -0.7569  0.8713
  861MPD2     C12689   2.445   0.893  10.956 -0.0490  0.2086  0.0544
  861MPD2    C112690   2.392   1.015  10.986 -1.0471 -0.3122  1.7456
  861MPD2    C212691   2.291   1.070  10.909  0.0707 -0.5868  0.4329
  861MPD2    C312692   2.246   1.003  10.794  0.2846 -0.1235  0.3371
  861MPD2    C412693   2.302   0.875  10.764  0.2120 -0.0901  0.3177
  861MPD2    C512694   2.409   0.828  10.839 -1.4373 -0.2297  0.4296
  861MPD2     H12695   2.248   1.167  10.930  1.1120  0.3758 -1.8240
  861MPD2    H112696   2.295   0.838  10.662  1.2865  0.0908  0.1783
  861MPD2    H212697   2.534   0.854  11.005 -0.2688  1.3766  1.3843
  861MPD2    H312698   2.465   0.741  10.806 -3.6915 -1.1709 -0.9562
  861MPD2     N12699   2.154   1.055  10.703 -0.0090  0.6632 -0.0670
  861MPD2    H512700   2.106   1.001  10.632 -0.2306 -0.4327  0.9228
  861MPD2    N112701   2.428   1.085  11.108  0.2000 -0.0829 -0.1587
  861MPD2    H712702   2.378   1.173  11.120 -1.7449 -0.9055 -2.1258
  862MPD2     C12703   1.587   0.921  10.255 -0.6334  0.8510 -0.2822
  862MPD2    C112704   1.656   0.875  10.367 -0.4261  0.0155  0.0097
  862MPD2    C212705   1.666   0.740  10.404  0.3255 -0.6484 -0.0172
  862MPD2    C312706   1.592   0.653  10.322 -0.1127 -0.1041 -0.3011
  862MPD2    C412707   1.519   0.693  10.217 -0.5910  0.9356 -0.2202
  862MPD2    C512708   1.514   0.830  10.183 -0.6220  0.4381  0.7490
  862MPD2     H12709   1.721   0.703  10.490  0.8564  1.9883  0.7734
  862MPD2    H112710   1.471   0.613  10.162  0.6064 -1.1979  1.8728
  862MPD2    H212711   1.587   1.025  10.223  0.1182  0.8027 -0.4331
  862MPD2    H312712   1.457   0.861  10.096  1.0715  0.8567 -0.2067
  862MPD2     N12713   1.601   0.516  10.334  0.3865 -0.5802  0.0542
  862MPD2    H512714   1.557   0.463  10.259  1.6596 -0.3238 -0.8722
  862MPD2    N112715   1.728   0.962  10.452 -0.3321  0.1879  0.2472
  862MPD2    H712716   1.775   0.916  10.530  0.8054 -1.5568 -1.4813
  863MPD2     C12717   0.190   3.868  17.050 -0.4866  0.5436  0.0503
  863MPD2    C112718   0.242   3.912  16.929 -0.4636 -0.0152  0.1210
  863MPD2    C212719   0.378   3.920  16.917  0.3817  0.2829 -0.3529
  863MPD2    C312720   0.467   3.904  17.022 -0.2899  0.3760 -0.3896
  863MPD2    C412721   0.421   3.847  17.135 -0.0116  0.1101  0.4857
  863MPD2    C512722   0.287   3.828  17.146  0.0127 -0.2020  0.1439
  863MPD2     H12723   0.406   3.964  16.823 -0.4389  3.2911  0.8157
  863MPD2    H112724   0.480   3.826  17.223 -0.6898  0.2630  0.9786
  863MPD2    H212725   0.085   3.853  17.069 -0.7750  3.4326  0.8036
  863MPD2    H312726   0.246   3.791  17.239  1.3726  1.6781  1.4850
  863MPD2     N12727   0.600   3.955  17.024 -0.5926  0.0163  0.6394
  863MPD2    H512728   0.637   3.949  17.118  0.8675 -0.2587  0.0573
  863MPD2    N112729   0.167   3.961  16.822  0.0728 -0.2135  0.2553
  863MPD2    H712730   0.215   3.975  16.734 -1.4105 -2.1460 -0.8804
  864MPD2     C12731   0.781   0.647  16.965  0.2573  0.0528 -0.1068
  864MPD2    C112732   0.826   0.580  16.852 -0.5440  0.1382 -0.3907
  864MPD2    C212733   0.948   0.622  16.784  0.5452  0.4986 -0.8290
  864MPD2    C312734   1.017   0.728  16.838 -0.0864 -0.2897 -0.2742
  864MPD2    C412735   0.976   0.780  16.961  0.0306 -0.1137 -1.3072
  864MPD2    C512736   0.863   0.738  17.029  0.2326 -0.3300 -0.8954
  864MPD2     H12737   0.970   0.577  16.688  0.1601 -0.5653 -0.4212
  864MPD2    H112738   1.028   0.864  17.007 -2.7900 -0.0272  1.7787
  864MPD2    H212739   0.693   0.615  17.018 -0.7722 -1.2079 -2.6023
  864MPD2    H312740   0.831   0.784  17.121  1.7007 -2.4238  0.6632
  864MPD2     N12741   1.125   0.792  16.773 -0.2027 -0.3484 -0.3709
  864MPD2    H512742   1.161   0.875  16.817 -2.2976  0.2443  0.1973
  864MPD2    N112743   0.750   0.467  16.814 -0.7481  0.0827 -0.1338
  864MPD2    H712744   0.658   0.446  16.852  0.9296 -1.6507  2.9666
  865MPD2     C12745   1.386   1.237  16.059 -0.0638 -0.5274  0.1638
  865MPD2    C112746   1.346   1.125  16.136 -0.1495 -0.8174 -0.6843
  865MPD2    C212747   1.331   1.138  16.273  0.1755 -0.3397 -0.3452
  865MPD2    C312748   1.354   1.261  16.337 -0.2996 -0.4734  0.0616
  865MPD2    C412749   1.388   1.370  16.256 -0.6117  0.5194  0.2792
  865MPD2    C512750   1.397   1.353  16.118  0.3141 -0.0803  0.0688
  865MPD2     H12751   1.301   1.051  16.330 -0.0900  0.8642  1.3413
  865MPD2    H112752   1.404   1.473  16.288 -1.6864  1.0978 -1.0180
  865MPD2    H212753   1.391   1.222  15.952  0.0219 -0.5249  0.1669
  865MPD2    H312754   1.422   1.436  16.053 -0.4622 -0.3628 -0.5973
  865MPD2     N12755   1.351   1.277  16.476  0.0180 -0.2127  0.2293
  865MPD2    H512756   1.368   1.374  16.501 -0.2208 -0.3306  0.8292
  865MPD2    N112757   1.333   0.997  16.070  0.6604 -0.0449  0.6200
  865MPD2    H712758   1.362   1.004  15.973  0.5475 -1.0706  0.5188
  866MPD2     C12759   2.896   1.811  11.240 -0.7982  0.3976 -0.6293
  866MPD2    C112760   2.863   1.703  11.168 -0.3591  0.3269  0.2001
  866MPD2    C212761   2.744   1.698  11.093  0.2417  0.1999 -0.3535
  866MPD2    C312762   2.653   1.806  11.112 -0.3746  0.5690 -0.4637
  866MPD2    C412763   2.688   1.906  11.193  0.2320 -0.0974 -0.5445
  866MPD2    C512764   2.813   1.917  11.252  0.0390  0.1959 -0.4426
  866MPD2     H12765   2.722   1.608  11.035  1.3072 -1.4501  1.8195
  866MPD2    H112766   2.619   1.989  11.201 -0.9477 -1.0518 -0.7487
  866MPD2    H212767   2.991   1.820  11.291 -0.1039 -1.2624 -1.6175
  866MPD2    H312768   2.833   2.002  11.317 -0.4721  2.6749 -3.5050
  866MPD2     N12769   2.514   1.798  11.074  0.0062  0.2158  0.0390
  866MPD2    H512770   2.448   1.870  11.103 -0.6906 -0.1095 -0.7418
  866MPD2    N112771   2.954   1.598  11.145  0.2380 -0.1322  0.4103
  866MPD2    H712772   2.928   1.530  11.075  1.6102  0.4102 -0.6122
  867MPD2     C12773   4.415   0.464  16.624 -0.0470  0.9581 -0.3149
  867MPD2    C112774   4.481   0.430  16.736  0.3135 -0.7114 -0.5301
  867MPD2    C212775   4.482   0.525  16.836  0.7340 -0.0315  0.1968
  867MPD2    C312776   4.424   0.649  16.825  0.5151  0.2855  0.5245
  867MPD2    C412777   4.352   0.681  16.714 -0.2073 -0.2792 -0.5248
  867MPD2    C512778   4.349   0.587  16.617 -0.1873 -0.3495 -0.0281
  867MPD2     H12779   4.528   0.490  16.929  0.5100 -1.8398 -0.3748
  867MPD2    H112780   4.283   0.765  16.716 -2.4547 -2.1060 -0.6954
  867MPD2    H212781   4.417   0.394  16.541  0.3566 -0.3341  0.7993
  867MPD2    H312782   4.294   0.617  16.528  0.9947 -0.0165 -0.6468
  867MPD2     N12783   4.428   0.741  16.931  0.1835  0.3304  0.4632
  867MPD2    H512784   4.378   0.829  16.923 -0.0802  0.0102 -1.2547
  867MPD2    N112785   4.542   0.306  16.746  0.0825  0.0234 -0.6116
  867MPD2    H712786   4.547   0.253  16.659 -2.4941 -0.5021 -0.4516
  868MPD2     C12787   1.586   4.651  12.998 -0.8789 -0.5356 -0.0433
  868MPD2    C112788   1.672   4.678  13.104  0.1087 -0.2528  0.4988
  868MPD2    C212789   1.616   4.713  13.225  0.1511  0.4930  0.5112
  868MPD2    C312790   1.477   4.735  13.233  0.0137 -0.3748  0.6566
  868MPD2    C412791   1.394   4.727  13.127  0.9470  0.4119  0.0673
  868MPD2    C512792   1.449   4.678  13.012  0.8109 -0.1809  0.1254
  868MPD2     H12793   1.667   4.711  13.321  1.2504 -0.3795 -0.0804
  868MPD2    H112794   1.289   0.009  13.115  0.7312 -0.7154 -0.0903
  868MPD2    H212795   1.617   4.616  12.900  1.1138  0.7759  0.1230
  868MPD2    H312796   1.385   4.649  12.930 -0.7937 -0.8218  1.5876
  868MPD2     N12797   1.437   0.051  13.358  0.0945  0.2476  0.8185
  868MPD2    H512798   1.519   0.075  13.413 -0.5771 -2.1756  2.8786
  868MPD2    N112799   1.805   4.627  13.081 -0.1703  0.2541 -0.0479
  868MPD2    H712800   1.819   4.600  12.984 -0.5746 -0.5654  0.1232
  869MPD2     C12801   2.648   1.816   0.386  0.0597 -0.1267  0.4821
  869MPD2    C112802   2.624   1.871   0.268  0.6336 -0.7081 -0.4874
  869MPD2    C212803   2.687   1.988   0.239 -0.1035 -0.4546 -0.5452
  869MPD2    C312804   2.794   2.029   0.322  0.7361 -0.9670 -0.2250
  869MPD2    C412805   2.820   1.970   0.443 -0.1364 -0.1174 -0.7770
  869MPD2    C512806   2.738   1.865   0.474 -0.6046 -0.3693 -0.4326
  869MPD2     H12807   2.680   2.028   0.139 -0.5777 -0.7828 -0.6428
  869MPD2    H112808   2.899   1.992   0.514 -1.0720 -0.2308  0.3014
  869MPD2    H212809   2.592   1.728   0.415 -0.5741  0.0140 -0.2968
  869MPD2    H312810   2.757   1.804   0.562 -0.6467  2.0792  1.2628
  869MPD2     N12811   2.884   2.141   0.292 -0.0020  0.8395 -0.0376
  869MPD2    H512812   2.958   2.154   0.359 -0.0682 -0.9947  0.3804
  869MPD2    N112813   2.520   1.811   0.192 -0.9746  0.1462 -0.6096
  869MPD2    H712814   2.479   1.727   0.230 -1.1213 -0.7299 -2.7118
  870MPD2     C12815   2.963   1.113   1.313  0.7458  0.1592  0.1221
  870MPD2    C112816   2.884   1.077   1.208 -0.2403 -0.2749 -0.8556
  870MPD2    C212817   2.773   1.153   1.182  0.0489  0.0740 -0.4001
  870MPD2    C312818   2.728   1.256   1.263 -0.0714 -0.4913 -0.2869
  870MPD2    C412819   2.818   1.304   1.356  0.6477  0.4636  0.0257
  870MPD2    C512820   2.925   1.229   1.379 -0.1183 -0.3781 -0.2844
  870MPD2     H12821   2.705   1.126   1.101 -0.3594  0.7055 -0.2663
  870MPD2    H112822   2.806   1.394   1.415 -0.0663  0.6615 -0.4245
  870MPD2    H212823   3.044   1.056   1.357  2.1043  1.7887 -0.2404
  870MPD2    H312824   2.984   1.251   1.467 -0.8397 -1.7271  0.5437
  870MPD2     N12825   2.614   1.329   1.233  0.0903 -0.4179 -0.6580
  870MPD2    H512826   2.558   1.293   1.157 -0.7064  1.6797 -1.0587
  870MPD2    N112827   2.935   0.976   1.117 -0.0135 -0.6441 -0.1227
  870MPD2    H712828   3.022   0.929   1.142  0.3432  1.3321  2.4169
  871MPD2     C12829   3.599   0.840  16.238 -0.3773  0.3269 -0.2425
  871MPD2    C112830   3.601   0.803  16.373  0.6026  0.1086  0.3135
  871MPD2    C212831   3.630   0.671  16.407  0.7358  0.5207 -0.5781
  871MPD2    C312832   3.637   0.577  16.311 -0.5756 -0.4567  0.1141
  871MPD2    C412833   3.613   0.617  16.181 -0.1032 -0.4356 -0.0116
  871MPD2    C512834   3.601   0.746  16.146 -0.0234 -0.3116 -0.3434
  871MPD2     H12835   3.670   0.644  16.505  1.2240  1.0118 -0.6385
  871MPD2    H112836   3.606   0.541  16.104 -1.2596 -1.1493  0.8017
  871MPD2    H212837   3.589   0.945  16.211 -0.8943 -0.0834 -1.6543
  871MPD2    H312838   3.595   0.768  16.040 -0.7172 -0.4754 -0.3367
  871MPD2     N12839   3.675   0.449  16.356  0.4525 -0.1549 -0.2041
  871MPD2    H512840   3.696   0.435  16.454 -1.8281 -2.4562 -0.0454
  871MPD2    N112841   3.594   0.908  16.470 -0.0689 -0.5636  0.5034
  871MPD2    H712842   3.597   1.005  16.439  0.6626 -0.3126  1.3669
  872MPD2     C12843   4.409   3.469  13.499  0.0825  0.7395 -0.1138
  872MPD2    C112844   4.481   3.438  13.610 -0.0562  0.2427  0.3185
  872MPD2    C212845   4.422   3.384  13.722  0.4015  0.0441  0.1725
  872MPD2    C312846   4.291   3.356  13.728 -0.5247  0.3114 -0.6949
  872MPD2    C412847   4.219   3.386  13.612 -0.3215  0.0659  0.3571
  872MPD2    C512848   4.277   3.442  13.499  0.5058 -0.2354  0.6268
  872MPD2     H12849   4.475   3.362  13.814  0.4897  1.1594  0.3944
  872MPD2    H112850   4.112   3.368  13.601 -0.5748  1.3658  0.6663
  872MPD2    H212851   4.456   3.512  13.412  2.0605 -1.3023 -0.0700
  872MPD2    H312852   4.231   3.465  13.403 -0.3380 -3.3797  0.2936
  872MPD2     N12853   4.220   3.292  13.834  0.4261 -0.5015 -0.1281
  872MPD2    H512854   4.118   3.290  13.835  0.3689  2.0240 -2.4274
  872MPD2    N112855   4.622   3.449  13.597 -0.5921  0.1267 -0.5013
  872MPD2    H712856   4.643   3.520  13.528 -0.3169  2.2142  1.6853
  873MPD2     C12857   1.269   2.640   0.496  0.9870 -0.0156  0.5030
  873MPD2    C112858   1.315   2.533   0.572  0.0555 -0.2855 -0.5074
  873MPD2    C212859   1.293   2.405   0.522 -1.0479 -0.2582  0.6233
  873MPD2    C312860   1.239   2.390   0.394 -0.3135 -0.1072 -0.5246
  873MPD2    C412861   1.207   2.499   0.315  0.5557  0.1762 -0.2475
  873MPD2    C512862   1.232   2.624   0.361 -0.3108 -0.2746 -1.0202
  873MPD2     H12863   1.330   2.325   0.586 -1.9063  0.3269  1.8394
  873MPD2    H112864   1.169   2.490   0.214  0.7624 -1.3673 -0.1859
  873MPD2    H212865   1.269   2.736   0.546 -0.1051  1.3552 -2.1055
  873MPD2    H312866   1.200   2.702   0.292  0.1594  0.7563 -0.0872
  873MPD2     N12867   1.210   2.266   0.339 -0.3009  0.4291 -0.4378
  873MPD2    H512868   1.166   2.266   0.247 -0.0949  1.3568 -0.5310
  873MPD2    N112869   1.347   2.555   0.704  0.2867  0.1591 -0.2510
  873MPD2    H712870   1.347   2.653   0.730  1.5348  0.7523 -2.4814
  874MPD2     C12871   1.304   3.374  16.312 -1.0423  0.4111 -0.3589
  874MPD2    C112872   1.313   3.364  16.448  0.4189  0.3624  0.4163
  874MPD2    C212873   1.380   3.464  16.513 -0.4755  0.3094 -0.1045
  874MPD2    C312874   1.443   3.569  16.445  0.5000  0.8831  0.0302
  874MPD2    C412875   1.444   3.573  16.309  0.0839 -0.1240  0.2673
  874MPD2    C512876   1.372   3.470  16.250 -0.2438 -0.3648  0.7072
  874MPD2     H12877   1.378   3.462  16.621  1.4911  1.1833 -0.0578
  874MPD2    H112878   1.499   3.649  16.255  0.1408  1.1264  2.1144
  874MPD2    H212879   1.236   3.312  16.254  1.5381 -3.0482  0.3564
  874MPD2    H312880   1.371   3.473  16.141  1.8531  1.6970  0.7195
  874MPD2     N12881   1.514   3.677  16.505 -0.0221  0.0182 -0.1639
  874MPD2    H512882   1.527   3.757  16.445  0.6034 -0.3961 -0.5806
  874MPD2    N112883   1.237   3.259  16.509 -0.1987  0.4677 -0.3992
  874MPD2    H712884   1.168   3.218  16.447 -0.0183  0.7631 -0.7954
  875MPD2     C12885   2.500   1.796  14.603  0.1132 -0.4612 -0.4064
  875MPD2    C112886   2.424   1.759  14.711 -0.7253 -0.1034  0.0276
  875MPD2    C212887   2.455   1.812  14.837 -0.1213  0.1648  1.1865
  875MPD2    C312888   2.563   1.897  14.855 -0.6344 -0.1418  0.4260
  875MPD2    C412889   2.636   1.942  14.743  0.1097  0.6605  0.4506
  875MPD2    C512890   2.612   1.876  14.626  0.0841  0.3460  0.6438
  875MPD2     H12891   2.394   1.786  14.923 -0.0576  0.0857  1.2076
  875MPD2    H112892   2.721   2.008  14.757  1.0415  0.0919 -2.3964
  875MPD2    H212893   2.485   1.756  14.504 -1.4646  0.1309 -0.4126
  875MPD2    H312894   2.669   1.917  14.543  0.8706 -2.0188  0.0129
  875MPD2     N12895   2.605   1.943  14.983  0.1845  0.2158 -0.3024
  875MPD2    H512896   2.695   1.990  14.986  0.6104 -0.7160  1.6127
  875MPD2    N112897   2.317   1.666  14.695 -0.2460 -0.7294  0.3198
  875MPD2    H712898   2.253   1.648  14.771 -0.1550 -0.5055  0.4477
  876MPD2     C12899   1.019   3.097  15.930 -0.2935  0.2525 -0.7491
  876MPD2    C112900   1.159   3.084  15.947  0.7006  0.0032  0.0617
  876MPD2    C212901   1.205   2.965  16.006 -0.1923 -0.7037  0.4178
  876MPD2    C312902   1.118   2.865  16.044 -0.0515 -0.4081  0.1517
  876MPD2    C412903   0.985   2.886  16.038 -0.2141 -0.2339 -0.2851
  876MPD2    C512904   0.940   2.996  15.978  0.0073  0.4509 -0.2478
  876MPD2     H12905   1.313   2.951  16.005 -0.2850 -1.2483 -1.4164
  876MPD2    H112906   0.906   2.816  16.061  0.3030 -0.3106  1.2110
  876MPD2    H212907   0.980   3.178  15.870  0.1409  0.0959 -1.2438
  876MPD2    H312908   0.832   3.009  15.979 -0.1676 -1.1117  0.5222
  876MPD2     N12909   1.168   2.736  16.074  0.5881 -0.3957 -0.1056
  876MPD2    H512910   1.263   2.716  16.043  0.0855 -1.0835 -1.1882
  876MPD2    N112911   1.246   3.185  15.896  0.5730 -0.1476  0.2528
  876MPD2    H712912   1.207   3.249  15.828  1.0187  2.2639  2.2851
  877MPD2     C12913   1.308   3.642  15.323  0.2555  0.7362  0.2182
  877MPD2    C112914   1.435   3.608  15.361 -0.2669 -0.7534 -0.1625
  877MPD2    C212915   1.539   3.629  15.279  0.3138 -0.4645  0.2756
  877MPD2    C312916   1.525   3.671  15.148  0.4460 -0.1474  0.0391
  877MPD2    C412917   1.394   3.696  15.106  0.0726 -0.8590  0.1915
  877MPD2    C512918   1.287   3.682  15.193  0.1559  0.2623 -0.0708
  877MPD2     H12919   1.635   3.624  15.329  1.0235 -0.8522 -1.1613
  877MPD2    H112920   1.376   3.719  15.002 -0.6446  1.1984  0.7792
  877MPD2    H212921   1.228   3.633  15.395  0.0942 -0.2045 -0.0886
  877MPD2    H312922   1.189   3.713  15.159  0.5015  2.0554  0.5878
  877MPD2     N12923   1.631   3.705  15.062  0.1512  0.2250 -0.4497
  877MPD2    H512924   1.602   3.742  14.972 -0.0310 -1.1223 -0.9446
  877MPD2    N112925   1.466   3.562  15.495  0.1144  0.8248 -0.0257
  877MPD2    H712926   1.560   3.525  15.499 -0.2880 -0.2140 -0.1479
  878MPD2     C12927   0.524   2.472  13.353  0.3590  0.4927  0.1001
  878MPD2    C112928   0.629   2.558  13.354 -0.1727 -0.6805 -0.0573
  878MPD2    C212929   0.665   2.619  13.472 -0.7256  0.4950  0.1218
  878MPD2    C312930   0.596   2.596  13.592  0.6976  0.5955  0.2421
  878MPD2    C412931   0.503   2.494  13.597  0.0313 -0.4650 -0.1030
  878MPD2    C512932   0.459   2.442  13.479 -0.4534 -0.7777 -0.3572
  878MPD2     H12933   0.735   2.701  13.462 -0.6683  0.3798 -0.4534
  878MPD2    H112934   0.447   2.459  13.682  0.8720 -0.1754  0.5639
  878MPD2    H212935   0.497   2.414  13.266  0.3876  0.6314 -0.0006
  878MPD2    H312936   0.388   2.361  13.474 -1.0001 -0.3686  0.9021
  878MPD2     N12937   0.639   2.674  13.701  0.3849 -0.2086 -0.0659
  878MPD2    H512938   0.702   2.753  13.693 -2.1853  1.7782 -0.6540
  878MPD2    N112939   0.703   2.561  13.228  0.3819 -0.3331  0.7238
  878MPD2    H712940   0.660   2.522  13.145 -3.4236  1.2639  1.9367
  879MPD2     C12941   0.746   3.649  17.264 -0.0337  0.3245  0.0055
  879MPD2    C112942   0.875   3.592  17.275 -0.6760  0.5019  0.2946
  879MPD2    C212943   0.887   3.454  17.292 -0.0572 -0.4151 -0.3307
  879MPD2    C312944   0.775   3.376  17.279 -0.0873  0.3379 -0.1970
  879MPD2    C412945   0.649   3.435  17.269  0.4183  0.6053  0.2336
  879MPD2    C512946   0.634   3.571  17.247  0.5776  0.8419 -0.4928
  879MPD2     H12947   0.985   3.419  17.322 -0.8044 -2.7061 -0.6292
  879MPD2    H112948   0.566   3.366  17.264  2.0318 -1.1487 -2.4398
  879MPD2    H212949   0.731   3.757  17.260  0.0027  0.3300  0.0089
  879MPD2    H312950   0.533   3.606  17.226  0.4377  0.9467  0.3335
  879MPD2     N12951   0.783   3.238  17.296  0.1995 -0.4522  0.0010
  879MPD2    H512952   0.694   3.190  17.310  0.9884 -1.9248 -0.1119
  879MPD2    N112953   0.984   3.682  17.273 -0.2819  0.2159 -0.2294
  879MPD2    H712954   0.964   3.780  17.253  0.7066  0.9341  2.2850
  880MPD2     C12955   2.186   0.479   0.199 -0.3221  0.1243  0.3975
  880MPD2    C112956   2.307   0.538   0.245  0.0552 -0.6250  0.2926
  880MPD2    C212957   2.413   0.452   0.265 -0.4402 -0.3726 -0.7413
  880MPD2    C312958   2.408   0.320   0.231 -0.0860 -0.5969 -0.7440
  880MPD2    C412959   2.287   0.264   0.185 -0.0993  0.2740 -0.1417
  880MPD2    C512960   2.174   0.346   0.172  0.1883  0.0635 -0.0829
  880MPD2     H12961   2.500   0.500   0.307  0.5768 -2.3089 -0.6178
  880MPD2    H112962   2.274   0.158   0.169  0.9706 -0.1741  1.9929
  880MPD2    H212963   2.100   0.545   0.199  0.6624  1.3990  1.2672
  880MPD2    H312964   2.079   0.309   0.136 -0.4289  0.4686  1.0971
  880MPD2     N12965   2.528   0.259   0.251  0.4231 -0.2639  0.4414
  880MPD2    H512966   2.601   0.316   0.293  0.9468 -1.0336  0.5781
  880MPD2    N112967   2.310   0.682   0.264 -0.3571 -0.7347 -0.3931
  880MPD2    H712968   2.225   0.738   0.259 -0.1836 -0.4048  0.4033
  881MPD2     C12969   2.777   1.609  17.725 -0.0824  0.6230 -0.0240
  881MPD2    C112970   2.753   1.490  17.663  0.5438  0.2102  0.1490
  881MPD2    C212971   2.687   1.391  17.731  0.6979 -0.9921  0.5513
  881MPD2    C312972   2.660   1.407   0.111 -1.0052 -0.9209  0.6827
  881MPD2    C412973   2.698   1.520   0.179 -0.5841 -0.5567 -0.3246
  881MPD2    C512974   2.758   1.618   0.103  0.6977 -0.1320  0.8351
  881MPD2     H12975   2.661   1.293  17.692  0.9959 -0.2149 -1.6258
  881MPD2    H112976   2.674   1.539   0.283  3.5111  1.7550  0.2092
  881MPD2    H212977   2.837   1.670  17.660 -0.8340  3.5045  1.9819
  881MPD2    H312978   2.787   1.707   0.158  0.2110  0.9867 -0.7113
  881MPD2     N12979   2.591   1.313   0.191  0.6456 -0.3795 -0.4733
  881MPD2    H512980   2.545   1.353   0.272  0.2303  0.3412 -1.0712
  881MPD2    N112981   2.781   1.471  17.528  0.1967  0.4394 -0.5511
  881MPD2    H712982   2.823   1.551  17.482  1.0113  0.4651  0.2418
  882MPD2     C12983   1.487   3.528  14.452 -0.1641  0.3099 -0.3584
  882MPD2    C112984   1.483   3.614  14.559  0.6564  0.1677 -0.8975
  882MPD2    C212985   1.373   3.607  14.645 -0.4318 -0.1219 -0.6968
  882MPD2    C312986   1.277   3.510  14.632 -0.2886 -0.4284  0.1537
  882MPD2    C412987   1.278   3.420  14.525  0.5231 -0.2445 -0.2537
  882MPD2    C512988   1.382   3.437  14.432  0.6548  0.3625  0.6508
  882MPD2     H12989   1.371   3.661  14.738  1.2766  0.6488 -1.1007
  882MPD2    H112990   1.207   3.340  14.508 -0.3760  0.2057  1.3849
  882MPD2    H212991   1.577   3.521  14.392  1.1077 -0.2645  1.6125
  882MPD2    H312992   1.384   3.370  14.347 -1.3449  1.1160 -0.0110
  882MPD2     N12993   1.166   3.488  14.721 -0.1780  0.7892  0.2521
  882MPD2    H512994   1.099   3.416  14.696 -0.2812  0.4915  1.4093
  882MPD2    N112995   1.601   3.691  14.586 -0.6730 -0.2546  0.1932
  882MPD2    H712996   1.685   3.684  14.530 -1.8325 -1.9503 -1.3429
  883MPD2     C12997   3.022   3.393  16.187 -0.0936  0.3286  0.7602
  883MPD2    C112998   3.099   3.389  16.074 -0.6300  0.5161 -0.1420
  883MPD2    C212999   3.221   3.458  16.073 -0.2364  0.3431  0.4118
  883MPD2    C313000   3.269   3.527  16.186 -0.1145 -0.6243 -0.1177
  883MPD2    C413001   3.179   3.542  16.286  0.1871  0.8822 -0.4310
  883MPD2    C513002   3.060   3.479  16.286 -0.2042  0.3563 -0.4567
  883MPD2     H13003   3.290   3.442  15.990 -2.3860  0.1737 -1.3449
  883MPD2    H113004   3.196   3.603  16.374  0.1764  0.1880  0.0513
  883MPD2    H213005   2.931   3.335  16.191  1.1415 -1.5940  0.5998
  883MPD2    H313006   3.007   3.486  16.380 -2.6769 -0.1185 -1.8091
  883MPD2     N13007   3.393   3.602  16.189  0.7128  0.4459 -0.2769
  883MPD2    H513008   3.453   3.587  16.108  1.5382  1.4989  0.1308
  883MPD2    N113009   3.075   3.312  15.964 -0.7313 -0.4198 -0.3191
  883MPD2    H713010   3.141   3.333  15.890 -0.5596 -1.6503 -0.5311
  884MPD2     C13011   0.462   3.954  15.348 -0.0545 -0.5096  0.5125
  884MPD2    C113012   0.486   4.081  15.293  0.2709 -0.1690  0.5045
  884MPD2    C213013   0.372   4.159  15.280  0.2002  0.0776 -0.2323
  884MPD2    C313014   0.247   4.112  15.306  0.2725 -0.1105  0.3442
  884MPD2    C413015   0.217   3.986  15.345  0.1554  0.0396 -0.2678
  884MPD2    C513016   0.330   3.910  15.371 -0.9077 -0.1928 -0.4000
  884MPD2     H13017   0.378   4.260  15.241 -0.9903  0.0316 -0.5584
  884MPD2    H113018   0.116   3.947  15.353  0.0498  0.4449  0.3378
  884MPD2    H213019   0.535   3.878  15.369  0.2706 -0.5030 -0.5851
  884MPD2    H313020   0.311   3.807  15.399 -0.7546 -0.0471  0.2442
  884MPD2     N13021   0.135   4.194  15.272  0.2304 -0.7880  0.2245
  884MPD2    H513022   0.158   4.274  15.212 -3.6768  0.1127 -0.0531
  884MPD2    N113023   0.612   4.141  15.261  0.3047 -0.4122  0.4102
  884MPD2    H713024   0.611   4.236  15.225  0.6997 -2.0148 -3.8124
  885MPD2     C13025   3.047   3.693  17.647 -0.1933 -0.2504  0.6739
  885MPD2    C113026   3.135   3.796  17.680  0.4203  0.2715 -0.7511
  885MPD2    C213027   3.174   3.892  17.588 -0.0021 -0.1920  0.1248
  885MPD2    C313028   3.119   3.886  17.465 -0.3576  0.2226  0.7794
  885MPD2    C413029   3.019   3.792  17.436 -0.6590 -0.3834 -0.1179
  885MPD2    C513030   2.999   3.691  17.524  0.1272 -0.3128 -0.3178
  885MPD2     H13031   3.247   3.968  17.614 -1.1830  2.1168 -3.3102
  885MPD2    H113032   2.974   3.783  17.338  0.5608 -0.6373 -0.6516
  885MPD2    H213033   3.013   3.618  17.717 -1.5583 -1.0984 -0.8911
  885MPD2    H313034   2.942   3.607  17.486  1.4207 -0.6528 -1.4994
  885MPD2     N13035   3.160   3.976  17.364  0.2653  0.4171 -0.3350
  885MPD2    H513036   3.232   4.042  17.391  2.5186 -2.7463  1.3645
  885MPD2    N113037   3.179   3.786   0.058  0.6518  0.2712 -0.1559
  885MPD2    H713038   3.153   3.703   0.111  1.5087  0.9776  1.3691
  886MPD2     C13039   4.446   2.548  15.188  0.0915 -0.2030 -0.6076
  886MPD2    C113040   4.578   2.535  15.206  0.3843  0.2068  0.1759
  886MPD2    C213041   4.666   2.629  15.157  0.0336  0.3026 -0.7390
  886MPD2    C313042   4.613   2.746  15.111 -0.4286  0.5016  0.0418
  886MPD2    C413043   4.478   2.759  15.089 -0.1395 -0.2509 -0.0546
  886MPD2    C513044   4.396   2.657  15.126 -0.2620  0.5160  0.6954
  886MPD2     H13045   0.033   2.617  15.170 -0.0008 -1.6736 -2.3849
  886MPD2    H113046   4.424   2.843  15.046 -1.2816 -0.5434  0.8300
  886MPD2    H213047   4.383   2.461  15.207 -0.0513  0.3545  1.5023
  886MPD2    H313048   4.289   2.673  15.118 -0.3785 -0.7755 -0.3130
  886MPD2     N13049   4.694   2.848  15.055  0.0151  0.2628 -0.2038
  886MPD2    H513050   4.633   2.917  15.013 -1.4575 -1.4154 -0.8285
  886MPD2    N113051   4.623   2.412  15.260 -0.0251  0.3508 -0.6535
  886MPD2    H713052   4.552   2.342  15.277  0.3884 -0.0901 -0.7362
  887MPD2     C13053   0.576   2.361  15.566 -0.3912  0.5200  0.2954
  887MPD2    C113054   0.455   2.405  15.523  0.5195  0.1871 -0.1633
  887MPD2    C213055   0.428   2.541  15.535 -0.1346  0.2105 -0.0061
  887MPD2    C313056   0.512   2.626  15.601 -0.0035 -1.2478  0.0565
  887MPD2    C413057   0.635   2.576  15.639 -0.0115  0.5759  0.7000
  887MPD2    C513058   0.667   2.442  15.624 -0.2681  0.0116  0.5923
  887MPD2     H13059   0.338   2.577  15.488 -0.6962 -0.9949  0.1331
  887MPD2    H113060   0.709   2.644  15.679  2.5560 -2.3277  0.9174
  887MPD2    H213061   0.608   2.258  15.568 -1.4460  0.1617 -1.4071
  887MPD2    H313062   0.764   2.402  15.653 -0.5768 -1.4477 -0.3713
  887MPD2     N13063   0.477   2.759  15.614 -0.5419 -0.5881  0.2530
  887MPD2    H513064   0.404   2.791  15.550 -0.2245  0.2274  0.2907
  887MPD2    N113065   0.347   2.324  15.476  0.0416 -0.1688  0.1206
  887MPD2    H713066   0.256   2.366  15.461  0.8744  0.7284 -2.3770
  888MPD2     C13067   2.115   2.767  14.783  0.7969 -0.3321  0.4389
  888MPD2    C113068   2.102   2.768  14.922 -0.1766  0.8586  0.1816
  888MPD2    C213069   2.184   2.846  15.003 -0.0020  0.0697 -0.0234
  888MPD2    C313070   2.291   2.921  14.936  0.0044 -0.1993 -0.6249
  888MPD2    C413071   2.299   2.916  14.798  0.1042  0.3138 -0.3715
  888MPD2    C513072   2.222   2.837  14.722  0.6021  0.2429 -0.2336
  888MPD2     H13073   2.158   2.842  15.108 -0.1603 -0.9291 -0.0987
  888MPD2    H113074   2.373   2.980  14.753  0.0100  0.6020 -0.1131
  888MPD2    H213075   2.046   2.709  14.722  0.0180 -0.1093  1.1061
  888MPD2    H313076   2.233   2.826  14.614 -0.7673 -2.9336 -0.0443
  888MPD2     N13077   2.369   3.015  15.007 -0.0724  0.0023 -0.1074
  888MPD2    H513078   2.335   3.036  15.101 -0.2744 -0.6352 -0.0428
  888MPD2    N113079   1.996   2.694  14.979 -0.2403 -0.2785 -0.1223
  888MPD2    H713080   2.003   2.685  15.080 -0.4629 -2.2429 -0.2831
  889MPD2     C13081   1.364   2.193  13.191  0.5377 -0.5310  0.3593
  889MPD2    C113082   1.454   2.182  13.293  0.6164  0.4219  0.0480
  889MPD2    C213083   1.490   2.304  13.357  0.5178  0.3513 -0.5280
  889MPD2    C313084   1.431   2.425  13.327 -0.1140  0.0668 -0.1422
  889MPD2    C413085   1.338   2.430  13.226 -0.1858  0.2976 -0.0090
  889MPD2    C513086   1.311   2.310  13.163  0.4557  0.1832  0.1442
  889MPD2     H13087   1.557   2.289  13.441 -0.3136  0.2403  0.1192
  889MPD2    H113088   1.303   2.521  13.180 -1.6294 -0.4393 -0.3878
  889MPD2    H213089   1.351   2.107  13.127  0.3232  0.9025 -1.5214
  889MPD2    H313090   1.234   2.303  13.086 -0.6119 -1.6296  1.3885
  889MPD2     N13091   1.466   2.541  13.402 -0.4676 -0.2180  0.2197
  889MPD2    H513092   1.535   2.536  13.476 -0.9466  2.5013  0.8344
  889MPD2    N113093   1.539   2.069  13.313  0.6112 -0.6158 -0.5920
  889MPD2    H713094   1.627   2.078  13.363  1.2627  2.1300 -2.2524
  890MPD2     C13095   1.089   4.038  15.025 -0.2270  0.5216  0.0054
  890MPD2    C113096   1.202   4.081  15.064  0.8735  0.2168  0.6944
  890MPD2    C213097   1.248   4.039  15.189 -0.9615 -0.0478  0.2937
  890MPD2    C313098   1.176   3.959  15.268 -0.3350 -0.2783  0.3833
  890MPD2    C413099   1.051   3.909  15.221  0.9020  0.2864  0.3435
  890MPD2    C513100   1.010   3.955  15.094  0.3533 -0.0428  0.7497
  890MPD2     H13101   1.351   4.057  15.216 -0.4915 -2.0953 -0.1362
  890MPD2    H113102   0.989   3.845  15.282  0.0384  0.7190 -0.0796
  890MPD2    H213103   1.046   4.075  14.933 -0.9110  1.2079  0.5989
  890MPD2    H313104   0.914   3.920  15.061  1.4546 -2.4270  0.0987
  890MPD2     N13105   1.223   3.949  15.399 -0.4695  1.0981  0.3052
  890MPD2    H513106   1.305   4.006  15.414 -1.3949  2.6310 -0.4172
  890MPD2    N113107   1.264   4.186  14.993  0.2817  0.4054 -0.0010
  890MPD2    H713108   1.223   4.221  14.907  0.6200  0.0481 -0.3082
  891MPD2     C13109   3.742   2.683  16.403  0.0798 -0.1320 -0.3263
  891MPD2    C113110   3.742   2.804  16.468 -0.2833  0.4887 -0.2743
  891MPD2    C213111   3.795   2.821  16.590 -0.3220 -0.1487 -1.0097
  891MPD2    C313112   3.880   2.717  16.640 -0.8137  0.4632  0.0996
  891MPD2    C413113   3.886   2.600  16.570  0.6071 -0.0779 -0.3444
  891MPD2    C513114   3.812   2.584  16.458 -0.2616 -0.6417  0.4325
  891MPD2     H13115   3.779   2.917  16.636  0.8135  0.6248 -2.2364
  891MPD2    H113116   3.939   2.516  16.613 -0.5589  0.6192  2.3865
  891MPD2    H213117   3.700   2.676  16.303 -0.6857 -0.8544  0.0476
  891MPD2    H313118   3.804   2.486  16.414 -2.4678 -0.1429 -0.2985
  891MPD2     N13119   3.957   2.749  16.759  0.4123 -0.1823  0.0631
  891MPD2    H513120   3.955   2.844  16.794 -0.7313  0.4822 -1.7964
  891MPD2    N113121   3.666   2.903  16.409 -0.8296  0.8510  0.6547
  891MPD2    H713122   3.640   2.893  16.311  0.6382  4.9571 -0.1373
  892MPD2     C13123   0.445   4.128  14.910  0.5702  0.2846 -0.6724
  892MPD2    C113124   0.391   4.006  14.945  0.2567 -0.1789 -0.2220
  892MPD2    C213125   0.479   3.894  14.937  0.5245  0.4376  0.2765
  892MPD2    C313126   0.613   3.905  14.907  0.6568 -0.5389 -0.0246
  892MPD2    C413127   0.659   4.031  14.881 -0.3053  0.3413  0.8325
  892MPD2    C513128   0.577   4.139  14.872 -0.1794 -0.0659  0.0063
  892MPD2     H13129   0.445   3.794  14.962  0.0645  0.8380  1.2458
  892MPD2    H113130   0.762   4.045  14.848  0.3334  1.8340  3.4653
  892MPD2    H213131   0.389   4.221  14.908 -1.4169 -0.8413  2.8002
  892MPD2    H313132   0.610   4.237  14.838 -0.6142 -0.5917 -1.9071
  892MPD2     N13133   0.707   3.794  14.905 -0.1948 -0.2327 -0.4342
  892MPD2    H513134   0.802   3.810  14.875  0.2228 -1.5755  0.1719
  892MPD2    N113135   0.252   3.997  14.978  0.0199 -0.1771  0.5265
  892MPD2    H713136   0.192   4.079  14.974  0.3746  0.1619  2.5398
  893MPD2     C13137   1.673   1.638   1.458 -0.7127 -0.1043 -0.3790
  893MPD2    C113138   1.645   1.586   1.330 -0.2601 -0.6019 -0.8381
  893MPD2    C213139   1.539   1.502   1.313  0.6351 -0.2774  0.7441
  893MPD2    C313140   1.452   1.482   1.416 -0.7661 -0.3061 -0.3725
  893MPD2    C413141   1.473   1.538   1.538 -0.3482 -0.0856  0.5704
  893MPD2    C513142   1.577   1.621   1.551 -0.1998 -0.0252  0.3386
  893MPD2     H13143   1.526   1.462   1.213  0.7632  1.1370  0.1595
  893MPD2    H113144   1.401   1.520   1.617  2.1684 -1.4074  2.5365
  893MPD2    H213145   1.761   1.697   1.484 -2.1028  2.3677 -1.2128
  893MPD2    H313146   1.597   1.673   1.644 -1.1729  1.9706 -0.5707
  893MPD2     N13147   1.332   1.404   1.401  0.1925 -0.0970 -0.2360
  893MPD2    H513148   1.277   1.391   1.485  2.5779  0.2576  1.3779
  893MPD2    N113149   1.740   1.624   1.227 -0.0269  0.0890  0.0667
  893MPD2    H713150   1.812   1.686   1.262 -1.2647  2.2000 -1.1017
  894MPD2     C13151   0.029   3.891   1.062  0.7445 -0.1765  0.5620
  894MPD2    C113152   4.667   3.938   1.147 -0.1449  0.3306  0.5056
  894MPD2    C213153   4.677   4.070   1.184 -1.0023 -0.1074  0.9162
  894MPD2    C313154   0.046   4.151   1.150  0.0736 -0.3904 -0.5741
  894MPD2    C413155   0.153   4.093   1.081 -0.1978 -0.7727 -0.1169
  894MPD2    C513156   0.137   3.968   1.033  0.5741 -0.1399 -0.3323
  894MPD2     H13157   4.597   4.124   1.234 -0.4339  1.1034  0.5305
  894MPD2    H113158   0.238   4.144   1.037  0.4538 -1.8454 -0.1207
  894MPD2    H213159   0.023   3.789   1.025  3.3793  0.5453 -1.8367
  894MPD2    H313160   0.205   3.928   0.959  1.2858  0.7572 -0.1549
  894MPD2     N13161   0.064   4.282   1.195  0.3119  0.1582 -0.1302
  894MPD2    H513162   4.718   4.312   1.241 -0.0885  0.1259 -0.8446
  894MPD2    N113163   4.548   3.858   1.170 -0.0065 -0.3280  0.2860
  894MPD2    H713164   4.476   3.903   1.226 -1.0809 -1.1157 -0.4566
  895MPD2     C13165   4.560   2.658  12.906  0.4386 -0.0404 -0.1268
  895MPD2    C113166   4.423   2.674  12.867  0.3948  0.7252  0.1497
  895MPD2    C213167   4.347   2.560  12.856  0.4636  0.2384 -0.5335
  895MPD2    C313168   4.401   2.433  12.879 -0.5433  0.0989 -0.4569
  895MPD2    C413169   4.529   2.421  12.914 -0.7479  0.6566 -0.7869
  895MPD2    C513170   4.611   2.534  12.935 -0.8155  0.2675 -0.1746
  895MPD2     H13171   4.238   2.554  12.853  0.5069 -0.0394 -1.4128
  895MPD2    H113172   4.574   2.323  12.922 -1.7792  0.3742  1.6717
  895MPD2    H213173   4.625   2.744  12.923  0.5906 -0.9417  3.9351
  895MPD2    H313174   4.709   2.528  12.981 -0.9603  1.0338  0.2341
  895MPD2     N13175   4.312   2.323  12.879  0.2761 -0.0366  0.0749
  895MPD2    H513176   4.222   2.337  12.835 -0.0465  0.0693  0.7768
  895MPD2    N113177   4.347   2.792  12.856  0.0123 -0.4035  1.2090
  895MPD2    H713178   4.252   2.776  12.824  0.1058  2.0789 -0.2906
  896MPD2     C13179   1.770   0.122   1.297 -0.3057  0.6947 -0.9553
  896MPD2    C113180   1.715   0.168   1.182 -0.5058  0.0774  0.4476
  896MPD2    C213181   1.579   0.129   1.156  0.3570 -0.8412  0.2155
  896MPD2    C313182   1.498   0.070   1.251 -0.8863 -0.2062  0.1513
  896MPD2    C413183   1.559   0.034   1.369 -0.0962 -0.2668  0.3895
  896MPD2    C513184   1.693   0.051   1.384 -0.3177 -0.0191  0.1054
  896MPD2     H13185   1.532   0.165   1.065 -1.8953  0.0842  1.7681
  896MPD2    H113186   1.504   4.726   1.450  0.7587 -0.3029  0.9542
  896MPD2    H213187   1.864   0.161   1.335 -1.3537  1.2899  1.0224
  896MPD2    H313188   1.740   0.022   1.477 -1.0456 -0.3214  0.3823
  896MPD2     N13189   1.357   0.046   1.227  0.1415  0.5574 -1.6143
  896MPD2    H513190   1.318   0.064   1.135 -0.5684 -0.3425 -1.4871
  896MPD2    N113191   1.789   0.268   1.115 -0.0356 -0.3288  0.8317
  896MPD2    H713192   1.874   0.298   1.163  0.0699  0.8413 -0.1034
  897MPD2     C13193   3.077   2.814  11.148 -0.0354  0.1227 -0.2484
  897MPD2    C113194   2.992   2.739  11.064 -0.0200  0.6788 -0.1706
  897MPD2    C213195   2.852   2.761  11.066  0.1058  0.0268 -0.2864
  897MPD2    C313196   2.799   2.837  11.169  0.2413 -0.5983  0.1907
  897MPD2    C413197   2.878   2.910  11.252 -0.4997  0.3187 -0.0245
  897MPD2    C513198   3.019   2.899  11.237 -0.3038 -0.0281  0.7704
  897MPD2     H13199   2.791   2.688  11.014  0.1797  0.9678 -1.7012
  897MPD2    H113200   2.842   2.975  11.330 -1.6360 -0.6919  0.2951
  897MPD2    H213201   3.183   2.793  11.154 -0.3055 -1.3012 -0.6344
  897MPD2    H313202   3.085   2.950  11.306  1.6865  0.1310 -1.2434
  897MPD2     N13203   2.665   2.823  11.197  0.1147  0.7934  0.1644
  897MPD2    H513204   2.612   2.769  11.129  1.9601 -1.7740  0.7381
  897MPD2    N113205   3.055   2.631  10.996 -0.8372 -0.0219 -0.2077
  897MPD2    H713206   3.150   2.627  11.032 -0.8153  1.8402 -0.0432
  898MPD2     C13207   4.344   2.692  17.639 -0.2833 -0.0661  0.1136
  898MPD2    C113208   4.453   2.770  17.650  0.4501 -0.1330  0.0072
  898MPD2    C213209   4.443   2.906  17.621 -0.4069  0.7288 -0.4685
  898MPD2    C313210   4.320   2.954  17.575 -0.7082  0.2192  0.3446
  898MPD2    C413211   4.213   2.870  17.578 -0.5307 -0.1927  0.7374
  898MPD2    C513212   4.226   2.740  17.604  0.5119 -0.3359 -0.4572
  898MPD2     H13213   4.522   2.980  17.620  0.4845 -0.2544 -1.3179
  898MPD2    H113214   4.111   2.905  17.565 -0.7029 -0.6379  0.8917
  898MPD2    H213215   4.359   2.587  17.662 -1.0239  0.2568  2.1078
  898MPD2    H313216   4.132   2.685  17.596 -0.8434  1.8917  0.1687
  898MPD2     N13217   4.298   3.086  17.523 -1.3134 -0.4908 -0.0802
  898MPD2    H513218   4.208   3.102  17.478 -0.1674  3.4371 -0.9891
  898MPD2    N113219   4.583   2.717  17.681 -0.2256 -0.0944 -0.2624
  898MPD2    H713220   4.655   2.788  17.666 -0.0680 -0.2402 -0.1890
  899MPD2     C13221   1.237   4.134  17.537  0.7732  0.2528  0.0208
  899MPD2    C113222   1.122   4.071  17.488 -0.2654  0.2396 -0.2085
  899MPD2    C213223   1.067   3.961  17.557 -0.1168 -0.0517  0.2966
  899MPD2    C313224   1.133   3.915  17.669 -0.0387 -0.7756  0.3451
  899MPD2    C413225   1.249   3.970  17.708 -0.0162 -0.9174  0.7795
  899MPD2    C513226   1.295   4.080  17.643 -0.3751 -0.0685  0.1574
  899MPD2     H13227   0.968   3.929  17.527 -0.0859 -0.1673  0.3207
  899MPD2    H113228   1.300   3.923   0.036  1.5132  1.0243  0.9559
  899MPD2    H213229   1.288   4.213  17.484  1.8259 -0.3236  0.1759
  899MPD2    H313230   1.393   4.117  17.674 -0.1378  0.9033 -1.7852
  899MPD2     N13231   1.094   3.793  17.731 -0.8848 -0.3380  0.2952
  899MPD2    H513232   1.173   3.744   0.016  0.0427  0.4128 -0.5899
  899MPD2    N113233   1.070   4.127  17.374 -0.5748  0.2456  0.3104
  899MPD2    H713234   1.105   4.220  17.351  0.1143  0.0980  0.7509
  900MPD2     C13235   1.044   0.653  12.588  0.6636  0.8529 -0.0718
  900MPD2    C113236   0.935   0.560  12.577 -0.2880 -0.1141  0.2936
  900MPD2    C213237   0.818   0.604  12.526  0.0098 -0.7535  0.3218
  900MPD2    C313238   0.797   0.738  12.492  0.1216 -0.4853 -0.1568
  900MPD2    C413239   0.902   0.830  12.499 -0.0905 -0.3797 -0.1086
  900MPD2    C513240   1.019   0.782  12.558  0.1966  0.1201  0.4402
  900MPD2     H13241   0.735   0.535  12.528 -0.5278 -0.0874  0.7649
  900MPD2    H113242   0.893   0.935  12.474 -1.0641  0.1269  2.2950
  900MPD2    H213243   1.146   0.625  12.612 -0.2238 -2.1477  0.1900
  900MPD2    H313244   1.098   0.856  12.561  1.1782 -0.8937 -0.6143
  900MPD2     N13245   0.669   0.775  12.453 -0.5719  0.2653  0.4729
  900MPD2    H513246   0.596   0.707  12.474 -0.5956  0.0981 -0.1505
  900MPD2    N113247   0.962   0.425  12.607 -0.6309 -0.2209 -0.1854
  900MPD2    H713248   1.053   0.404  12.647 -1.0922 -3.5246 -0.8470
  901MPD2     C13249   1.114   4.271  13.098  0.4698 -0.0670  0.7191
  901MPD2    C113250   1.077   4.244  12.968 -0.0194 -0.3800  0.2480
  901MPD2    C213251   1.053   4.359  12.885 -0.6363 -0.5296 -0.3119
  901MPD2    C313252   1.069   4.488  12.941  0.3354 -0.1781  0.1600
  901MPD2    C413253   1.116   4.507  13.066  0.0016  0.6481 -0.1293
  901MPD2    C513254   1.125   4.397  13.145  0.3823 -0.4000  0.4995
  901MPD2     H13255   1.023   4.345  12.781  0.0855 -0.1375 -0.5702
  901MPD2    H113256   1.146   4.605  13.102  0.5071  0.6806 -0.6407
  901MPD2    H213257   1.144   4.192  13.166  0.7545  0.5693  1.3404
  901MPD2    H313258   1.147   4.406  13.251 -3.1574  1.9860  1.0322
  901MPD2     N13259   1.038   4.587  12.851 -0.0121  0.2213 -0.0759
  901MPD2    H513260   1.004   4.569  12.757  1.5924  2.3951 -1.0658
  901MPD2    N113261   1.060   4.110  12.924 -0.7448  0.3457 -0.0335
  901MPD2    H713262   1.057   4.030  12.987  0.4756  0.4725  0.1944
  902MPD2     C13263   0.177   3.211  12.548  0.0783 -0.4937 -0.0874
  902MPD2    C113264   0.148   3.318  12.459  0.5357 -0.3652 -0.3667
  902MPD2    C213265   0.196   3.306  12.330 -0.1741  0.3904  0.0190
  902MPD2    C313266   0.271   3.205  12.283 -1.1242  0.1742  0.4702
  902MPD2    C413267   0.286   3.100  12.367 -0.1049  0.1503 -0.1725
  902MPD2    C513268   0.243   3.102  12.496 -0.2071 -0.4357 -0.1947
  902MPD2     H13269   0.185   3.393  12.266 -2.1515  0.5698  0.6092
  902MPD2    H113270   0.341   3.014  12.331 -0.9000 -0.7454  0.7572
  902MPD2    H213271   0.157   3.210  12.655 -2.9921 -3.6034 -0.7182
  902MPD2    H313272   0.269   3.017  12.557  2.2962  0.9565  0.6812
  902MPD2     N13273   0.317   3.186  12.147  0.2845 -0.3872 -0.3460
  902MPD2    H513274   0.351   3.093  12.125  1.6448 -0.0088  0.1644
  902MPD2    N113275   0.095   3.437  12.510  0.4977  0.1384 -0.3533
  902MPD2    H713276   0.082   3.449  12.610 -0.3547 -0.0356 -0.4384
  903MPD2     C13277   4.575   3.346  11.533 -0.3036 -0.5053  0.2107
  903MPD2    C113278   4.642   3.261  11.609  0.3056  0.1474 -0.1975
  903MPD2    C213279   4.580   3.188  11.711 -0.6235  0.2812 -0.5311
  903MPD2    C313280   4.449   3.212  11.742  0.4370 -0.4712  0.1598
  903MPD2    C413281   4.380   3.294  11.655  0.1828 -0.7890  1.0242
  903MPD2    C513282   4.441   3.358  11.554  0.0264 -0.1171 -0.5537
  903MPD2     H13283   4.632   3.121  11.779 -0.7514 -0.0418 -0.7493
  903MPD2    H113284   4.273   3.310  11.659  0.1101 -0.5821 -1.7327
  903MPD2    H213285   4.617   3.409  11.456 -1.2321 -1.8307 -1.3692
  903MPD2    H313286   4.381   3.420  11.488 -0.5688  1.1423  1.1868
  903MPD2     N13287   4.388   3.164  11.862  0.3131  0.1683 -0.4600
  903MPD2    H513288   4.446   3.112  11.926 -3.0154 -2.8815  0.1178
  903MPD2    N113289   0.042   3.262  11.608  0.4610  0.5886  0.1455
  903MPD2    H713290   0.094   3.335  11.561 -0.4136  0.3352 -1.2111
  904MPD2     C13291   3.958   2.838  13.885  0.4077  1.1504  0.5504
  904MPD2    C113292   4.095   2.818  13.880 -0.6742  0.0564 -0.1563
  904MPD2    C213293   4.140   2.700  13.940 -0.1625  0.3968  0.3325
  904MPD2    C313294   4.054   2.623  14.015 -0.3055  0.0158 -0.3344
  904MPD2    C413295   3.922   2.649  14.029  1.2017  0.5992 -0.1363
  904MPD2    C513296   3.874   2.758  13.965  1.0969 -0.0748 -0.0708
  904MPD2     H13297   4.244   2.674  13.923 -0.0442  1.2179 -0.2150
  904MPD2    H113298   3.851   2.591  14.086 -0.7243  1.0944 -2.0557
  904MPD2    H213299   3.915   2.916  13.824  1.4499  1.9455  0.8349
  904MPD2    H313300   3.769   2.783  13.965  1.2345  0.5138 -0.0901
  904MPD2     N13301   4.119   2.511  14.074 -0.4871  0.0328  0.7824
  904MPD2    H513302   4.215   2.497  14.046  0.1258 -0.0731  2.9291
  904MPD2    N113303   4.184   2.888  13.801 -0.3551 -0.0454 -0.2038
  904MPD2    H713304   4.282   2.862  13.805  0.0014  1.3375  0.2442
  905MPD2     C13305   3.997   2.921  13.082 -0.8282 -0.3159  0.3319
  905MPD2    C113306   4.112   2.864  13.129 -0.2543  0.7434  0.2237
  905MPD2    C213307   4.136   2.729  13.118  0.4824 -0.0359  0.0647
  905MPD2    C313308   4.042   2.656  13.045  0.4877 -0.3335 -0.0753
  905MPD2    C413309   3.922   2.712  13.008 -0.0671  0.1834 -0.0757
  905MPD2    C513310   3.910   2.845  13.017 -0.4314 -0.5632 -0.7689
  905MPD2     H13311   4.229   2.681  13.146  1.3218  2.5147  1.6200
  905MPD2    H113312   3.843   2.645  12.976  1.6840 -0.9821 -1.9389
  905MPD2    H213313   3.986   3.028  13.095 -0.9178 -0.3782  0.7877
  905MPD2    H313314   3.818   2.894  12.985  0.4986  0.7335 -1.5078
  905MPD2     N13315   4.062   2.516  13.045 -0.1016  0.0499 -0.1259
  905MPD2    H513316   4.150   2.484  13.083  0.6548  1.8456 -0.3690
  905MPD2    N113317   4.184   2.940  13.222 -0.2380  0.0191  0.3699
  905MPD2    H713318   4.133   3.026  13.241  0.3948  0.7568 -1.1769
  906MPD2     C13319   1.369   2.412  11.395  0.9208 -0.0805  0.8852
  906MPD2    C113320   1.364   2.303  11.302  0.2972  0.1713  0.1781
  906MPD2    C213321   1.302   2.186  11.331 -0.1121 -0.8019  0.6743
  906MPD2    C313322   1.251   2.168  11.455 -0.2247 -0.1429 -0.4379
  906MPD2    C413323   1.264   2.266  11.548 -0.1248 -0.7152  0.2672
  906MPD2    C513324   1.321   2.392  11.523 -0.0215 -0.1723 -0.5911
  906MPD2     H13325   1.303   2.113  11.251  0.4326 -1.3672  1.1958
  906MPD2    H113326   1.233   2.260  11.651  0.0554 -0.3274  0.3436
  906MPD2    H213327   1.428   2.501  11.376 -1.0268  0.8681 -0.7035
  906MPD2    H313328   1.338   2.465  11.601  0.8705 -0.4405 -0.5301
  906MPD2     N13329   1.182   2.058  11.492  0.1901 -0.1281 -0.0581
  906MPD2    H513330   1.127   2.073  11.577  2.9423  1.9741  1.3253
  906MPD2    N113331   1.424   2.309  11.172  0.3391  0.0136  0.3023
  906MPD2    H713332   1.428   2.219  11.125  2.1091  0.6250 -0.7153
  907MPD2     C13333   0.180   1.755  15.833  0.3763  0.4805 -0.5324
  907MPD2    C113334   0.261   1.642  15.843  0.9012 -1.2900 -0.4178
  907MPD2    C213335   0.340   1.632  15.959 -0.1860  0.0691 -1.0304
  907MPD2    C313336   0.349   1.733  16.050 -0.0960 -0.4939  0.2010
  907MPD2    C413337   0.268   1.843  16.034 -0.0096 -0.5774  0.0944
  907MPD2    C513338   0.183   1.846  15.935  0.1601 -0.4228 -0.3736
  907MPD2     H13339   0.394   1.541  15.981 -0.1023  0.8148  1.8194
  907MPD2    H113340   0.259   1.929  16.101 -1.2409 -0.0974 -0.6975
  907MPD2    H213341   0.099   1.776  15.763  1.7340  3.0523 -1.3234
  907MPD2    H313342   0.099   1.914  15.939 -0.6005 -1.2528 -2.0138
  907MPD2     N13343   0.438   1.706  16.158 -0.1375 -0.0706 -0.3946
  907MPD2    H513344   0.490   1.619  16.158 -0.7104 -0.4250 -2.7573
  907MPD2    N113345   0.271   1.545  15.743  0.3320  0.9944 -0.1037
  907MPD2    H713346   0.317   1.461  15.775 -2.0282 -0.2013  0.1775
  908MPD2     C13347   2.978   1.817  10.235  0.3412  0.1994 -0.1794
  908MPD2    C113348   3.062   1.773  10.339 -0.4980  0.8377 -0.1604
  908MPD2    C213349   3.084   1.860  10.440 -0.0204  0.7709 -1.0098
  908MPD2    C313350   3.035   1.988  10.455  0.1344 -0.2361  0.8990
  908MPD2    C413351   2.963   2.031  10.347  0.3216  0.2714 -0.2958
  908MPD2    C513352   2.932   1.947  10.236 -0.2390 -0.3286  0.1579
  908MPD2     H13353   3.149   1.824  10.519 -0.7944  0.0915 -0.6891
  908MPD2    H113354   2.921   2.131  10.351 -1.5843 -0.6027  1.2083
  908MPD2    H213355   2.951   1.753  10.152 -1.0321 -1.4345  1.5219
  908MPD2    H313356   2.875   1.979  10.150  0.0528 -1.7573 -0.5614
  908MPD2     N13357   3.059   2.073  10.568 -0.4234  0.3567 -0.2651
  908MPD2    H513358   3.091   2.021  10.649 -1.5189 -1.6251 -1.1248
  908MPD2    N113359   3.108   1.641  10.336  0.4788 -0.5892 -1.1039
  908MPD2    H713360   3.089   1.578  10.258  0.2672 -0.6346 -1.0157
  909MPD2     C13361   2.860   4.704  12.001 -0.6940 -0.3582 -0.6929
  909MPD2    C113362   2.882   0.089  11.957  0.4941  0.3606  0.9823
  909MPD2    C213363   2.804   0.199  11.997 -0.3286  0.0678  0.1704
  909MPD2    C313364   2.700   0.186  12.091 -0.1173  0.0566 -0.0365
  909MPD2    C413365   2.687   0.054  12.139  0.1887 -0.3379  0.2416
  909MPD2    C513366   2.762   4.691  12.090  0.3237  0.2009  0.2544
  909MPD2     H13367   2.823   0.302  11.969  0.9763 -0.0615  0.5986
  909MPD2    H113368   2.615   0.042  12.219  0.6199  0.6966  0.7892
  909MPD2    H213369   2.925   4.622  11.970 -0.6772 -1.3494  1.8919
  909MPD2    H313370   2.744   4.593  12.131 -2.4786 -0.7211 -3.0904
  909MPD2     N13371   2.629   0.299  12.132  0.5362 -0.2190 -0.0890
  909MPD2    H513372   2.652   0.383  12.079  1.9846 -0.9843 -0.6457
  909MPD2    N113373   3.003   0.120  11.879 -0.1096 -0.7613 -0.4107
  909MPD2    H713374   3.030   0.217  11.874  0.2675 -0.8940 -0.9957
  910MPD2     C13375   4.006   2.180  15.901  0.0724  0.7630 -0.3490
  910MPD2    C113376   4.122   2.150  15.830 -0.4160  0.1186  0.0862
  910MPD2    C213377   4.127   2.167  15.692  0.2919  0.5204 -0.0671
  910MPD2    C313378   4.014   2.224  15.626  0.1270 -0.5333  1.0964
  910MPD2    C413379   3.897   2.242  15.701  0.2361 -0.1673  0.9186
  910MPD2    C513380   3.891   2.215  15.829  1.1017 -0.3255  0.2935
  910MPD2     H13381   4.222   2.143  15.644 -0.2279 -2.7820  0.5612
  910MPD2    H113382   3.805   2.267  15.650  1.1128  0.5394 -0.3121
  910MPD2    H213383   4.002   2.178  16.010 -2.2155 -1.1548 -0.4562
  910MPD2    H313384   3.795   2.217  15.880  0.8739 -0.0943 -0.1489
  910MPD2     N13385   4.015   2.236  15.481  0.2703  0.8135 -0.1960
  910MPD2    H513386   3.929   2.269  15.439  0.0232 -0.6571 -0.8324
  910MPD2    N113387   4.242   2.097  15.889  0.3209 -0.0680  0.0066
  910MPD2    H713388   4.323   2.081  15.830  0.4126 -1.6113  0.5489
  911MPD2     C13389   2.197   2.429  15.934  0.2355  0.0382  0.3403
  911MPD2    C113390   2.233   2.529  16.016 -0.2221  0.4681 -0.3234
  911MPD2    C213391   2.141   2.624  16.040 -0.2264  0.4567 -0.5688
  911MPD2    C313392   2.012   2.620  15.985  1.0379 -0.0556 -0.5541
  911MPD2    C413393   1.980   2.513  15.906 -0.1782 -0.0441  0.0868
  911MPD2    C513394   2.081   2.423  15.868  0.0546  0.1765  0.2960
  911MPD2     H13395   2.164   2.703  16.110 -1.5387  1.0578 -0.8166
  911MPD2    H113396   1.882   2.489  15.868 -0.1239  1.6088 -1.0778
  911MPD2    H213397   2.260   2.343  15.913 -0.2768  0.1467 -1.6400
  911MPD2    H313398   2.055   2.341  15.801 -0.9817  0.1552  0.7277
  911MPD2     N13399   1.917   2.719  16.013 -1.0300 -0.0456  0.9404
  911MPD2    H513400   1.834   2.709  15.956 -0.3418 -0.3258 -0.0267
  911MPD2    N113401   2.357   2.524  16.087  0.0910  0.2370 -0.2608
  911MPD2    H713402   2.422   2.457  16.048 -0.4510 -0.8296  0.6601
  912MPD2     C13403   1.625   2.656  15.488  0.4979 -0.7347 -0.5575
  912MPD2    C113404   1.623   2.641  15.625  0.3792 -0.3752 -0.7067
  912MPD2    C213405   1.664   2.526  15.677 -0.1929 -0.4346 -0.3113
  912MPD2    C313406   1.725   2.433  15.597  0.0360 -0.4125  0.0550
  912MPD2    C413407   1.730   2.447  15.462 -0.2030  0.0285 -0.3503
  912MPD2    C513408   1.685   2.565  15.406 -0.6775 -0.4997 -0.0276
  912MPD2     H13409   1.664   2.513  15.785  1.7289 -3.6835 -0.6796
  912MPD2    H113410   1.764   2.360  15.407  1.4665  0.2445  0.3416
  912MPD2    H213411   1.591   2.752  15.450  1.0239 -0.7328 -1.0064
  912MPD2    H313412   1.705   2.587  15.302  1.1700  0.7564  0.5965
  912MPD2     N13413   1.764   2.311  15.657  0.6657 -0.3064 -0.0036
  912MPD2    H513414   1.740   2.300  15.755 -0.7827 -3.1290 -0.6883
  912MPD2    N113415   1.591   2.750  15.701 -0.3804  0.4775  0.4448
  912MPD2    H713416   1.558   2.834  15.655  1.0701 -0.1583 -1.7391
  913MPD2     C13417   2.629   3.701  10.217  0.1033 -0.1803  0.0470
  913MPD2    C113418   2.720   3.791  10.261 -0.0864  0.0981  0.0120
  913MPD2    C213419   2.745   3.901  10.175 -0.1431 -0.1646 -0.3021
  913MPD2    C313420   2.683   3.909  10.053  0.3089 -1.0008  0.0418
  913MPD2    C413421   2.592   3.812  10.011 -0.1101 -0.1813  0.1528
  913MPD2    C513422   2.570   3.708  10.092 -0.1031  0.8692  0.0782
  913MPD2     H13423   2.817   3.975  10.209 -0.4641  0.9273 -1.9929
  913MPD2    H113424   2.552   3.807   9.910  1.0128  1.4569 -0.3789
  913MPD2    H213425   2.604   3.612  10.273 -0.9426  0.5185  0.6843
  913MPD2    H313426   2.503   3.630  10.059  2.5083 -1.0668 -0.7172
  913MPD2     N13427   2.692   4.030   9.969  0.0186 -0.1773 -0.2681
  913MPD2    H513428   2.631   4.025   9.888  0.3647  2.0615 -0.6566
  913MPD2    N113429   2.791   3.773  10.383  0.5966 -0.3815  0.1089
  913MPD2    H713430   2.768   3.685  10.428 -2.0328 -0.2699 -1.0427
  914MPD2     C13431   1.148   3.859  11.983 -0.7091 -0.2281  0.9451
  914MPD2    C113432   1.015   3.871  12.023 -0.8174 -0.7271 -0.0009
  914MPD2    C213433   0.977   3.839  12.152  0.2993 -0.1807 -0.4310
  914MPD2    C313434   1.075   3.797  12.242  0.1433  0.7527  0.7453
  914MPD2    C413435   1.208   3.788  12.203 -0.2041  0.0024 -0.2997
  914MPD2    C513436   1.237   3.816  12.072  0.2685  0.0443 -0.1400
  914MPD2     H13437   0.875   3.861  12.182  0.2329  1.0424 -1.5330
  914MPD2    H113438   1.294   3.772  12.267 -1.0478 -1.6907  0.4042
  914MPD2    H213439   1.173   3.891  11.883 -0.0448  0.4580  1.3317
  914MPD2    H313440   1.340   3.826  12.040  0.3445  2.4728  0.9280
  914MPD2     N13441   1.040   3.781  12.377 -0.6769  0.3068  0.0598
  914MPD2    H513442   0.947   3.816  12.395 -0.7258 -0.3128  1.0193
  914MPD2    N113443   0.929   3.936  11.922  0.4159  0.5177  0.0157
  914MPD2    H713444   0.972   3.964  11.835  1.9901 -3.2257 -0.4400
  915MPD2     C13445   3.752   4.359  15.885 -0.0775  0.2629 -0.1243
  915MPD2    C113446   3.666   4.350  15.777  0.0277  0.5612  0.2640
  915MPD2    C213447   3.538   4.402  15.801 -0.0933 -0.5908  0.2725
  915MPD2    C313448   3.502   4.450  15.919  0.0478  0.0853  0.0546
  915MPD2    C413449   3.593   4.470  16.020  0.2514  0.2719 -0.0968
  915MPD2    C513450   3.721   4.431  16.001 -0.0080 -0.7184  0.6608
  915MPD2     H13451   3.468   4.394  15.719  1.9615  0.9870 -1.6194
  915MPD2    H113452   3.577   4.506  16.121  0.8040  0.6516 -0.1406
  915MPD2    H213453   3.857   4.333  15.879  0.1602  0.8993  1.2445
  915MPD2    H313454   3.786   4.441  16.088 -0.1355 -0.1365  0.6889
  915MPD2     N13455   3.368   4.492  15.932  0.0548  0.2917  0.1477
  915MPD2    H513456   3.303   4.476  15.856  0.1408 -0.0099  0.1352
  915MPD2    N113457   3.698   4.289  15.654  0.3417 -0.8767  0.2250
  915MPD2    H713458   3.622   4.290  15.587 -0.4444  0.6189  1.1394
  916MPD2     C13459   1.313   2.390  15.554  0.3582  0.4472 -0.3569
  916MPD2    C113460   1.353   2.307  15.651 -0.0243  0.3986 -0.1849
  916MPD2    C213461   1.425   2.194  15.628  0.4224  0.3302 -0.2334
  916MPD2    C313462   1.487   2.180  15.502  0.1975 -0.3731  0.2611
  916MPD2    C413463   1.445   2.272  15.405  0.4343 -0.9255  0.1862
  916MPD2    C513464   1.363   2.375  15.430  0.0920  0.4587  0.1800
  916MPD2     H13465   1.459   2.125  15.705 -3.5743 -1.3381  0.0392
  916MPD2    H113466   1.493   2.267  15.308  0.6374 -0.8206  0.2809
  916MPD2    H213467   1.243   2.467  15.584 -0.3158  0.6846 -2.5559
  916MPD2    H313468   1.339   2.442  15.349 -1.1735 -1.9420 -1.4236
  916MPD2     N13469   1.569   2.066  15.484 -0.1172 -0.0200 -0.3052
  916MPD2    H513470   1.581   2.012  15.570 -1.1086 -0.0698 -0.2005
  916MPD2    N113471   1.314   2.351  15.781 -0.0902 -0.5101 -0.0842
  916MPD2    H713472   1.257   2.434  15.794 -0.8729 -1.1182  0.3287
  917MPD2     C13473   1.695   3.651  11.110  0.3842  0.2804 -0.3164
  917MPD2    C113474   1.748   3.757  11.184  0.6115 -0.1713 -0.0468
  917MPD2    C213475   1.861   3.825  11.136 -0.0850 -0.3847 -0.4121
  917MPD2    C313476   1.915   3.796  11.014 -0.0991 -0.1089 -0.2934
  917MPD2    C413477   1.857   3.692  10.947  0.4970  0.1377 -0.0917
  917MPD2    C513478   1.747   3.623  10.985 -0.2247 -0.2120  0.6271
  917MPD2     H13479   1.903   3.907  11.193  0.7239 -1.0073 -0.1050
  917MPD2    H113480   1.896   3.667  10.850  1.3749 -0.7142  0.4848
  917MPD2    H213481   1.615   3.600  11.162 -0.2799  1.4579 -0.1814
  917MPD2    H313482   1.701   3.544  10.927 -2.4047  1.7052 -0.2728
  917MPD2     N13483   2.023   3.868  10.944 -0.3830  0.6451  0.7183
  917MPD2    H513484   2.045   3.830  10.853  0.3821  0.2859  1.0560
  917MPD2    N113485   1.692   3.775  11.308 -0.3091  0.0621 -0.3844
  917MPD2    H713486   1.619   3.706  11.325  0.2402  0.0395  1.8815
  918MPD2     C13487   1.727   4.554  11.894 -0.2176 -0.0833 -0.2578
  918MPD2    C113488   1.824   4.462  11.905  0.8735  0.3742 -0.5510
  918MPD2    C213489   1.797   4.330  11.862 -0.3792 -1.0238 -1.0924
  918MPD2    C313490   1.671   4.298  11.817  0.7090 -0.3906 -0.4462
  918MPD2    C413491   1.574   4.398  11.809 -0.1447 -0.4630  0.0070
  918MPD2    C513492   1.604   4.528  11.836  0.1635  0.0874 -0.3640
  918MPD2     H13493   1.871   4.251  11.871 -0.4754 -1.0641 -0.6544
  918MPD2    H113494   1.472   4.377  11.780 -0.5420  0.9300  0.4110
  918MPD2    H213495   1.744   4.659  11.911 -1.6820  0.2139 -0.6189
  918MPD2    H313496   1.532   4.608  11.829  0.1157  0.0714 -0.0386
  918MPD2     N13497   1.644   4.165  11.771  0.1932 -0.2224 -0.3185
  918MPD2    H513498   1.723   4.103  11.755 -0.3394 -0.4806 -1.8823
  918MPD2    N113499   1.948   4.490  11.965  0.0896 -0.3924 -0.0233
  918MPD2    H713500   2.011   4.410  11.974  1.8259  0.7252 -2.1711
  919MPD2     C13501   2.947   3.250  11.244 -0.7432  0.0184  0.7167
  919MPD2    C113502   2.832   3.271  11.318 -0.0087  0.1950  0.1583
  919MPD2    C213503   2.712   3.288  11.247  0.5633 -0.0075 -0.2091
  919MPD2    C313504   2.717   3.301  11.111 -0.2695 -0.7673 -0.1444
  919MPD2    C413505   2.838   3.302  11.040  0.4848 -0.7538 -0.1932
  919MPD2    C513506   2.950   3.260  11.111 -0.4764  0.2058 -0.0576
  919MPD2     H13507   2.616   3.279  11.299  0.5788  2.0721  0.1718
  919MPD2    H113508   2.842   3.313  10.932  0.8058 -0.6480 -0.1701
  919MPD2    H213509   3.043   3.229  11.289 -0.7255 -1.4582 -0.0211
  919MPD2    H313510   3.044   3.260  11.057  0.1967 -1.2066  1.1155
  919MPD2     N13511   2.602   3.310  11.029 -0.2685  0.4359 -0.2653
  919MPD2    H513512   2.618   3.304  10.929  0.6702 -0.7197 -0.0525
  919MPD2    N113513   2.820   3.240  11.457  0.2442 -0.0190 -0.2848
  919MPD2    H713514   2.726   3.230  11.495 -0.0667  1.7286 -0.5916
  920MPD2     C13515   2.415   3.315  10.091  0.0785  0.4435 -0.9285
  920MPD2    C113516   2.296   3.376  10.120  0.6260  0.7380  0.4616
  920MPD2    C213517   2.268   3.398  10.255 -0.0168 -0.3342  0.3557
  920MPD2    C313518   2.363   3.388  10.351 -0.5221 -0.4217 -0.6852
  920MPD2    C413519   2.492   3.356  10.309  0.4465  0.4336 -0.0489
  920MPD2    C513520   2.519   3.330  10.180 -0.1708  0.7383 -0.6108
  920MPD2     H13521   2.167   3.429  10.280  0.9045  3.4258 -0.4699
  920MPD2    H113522   2.573   3.367  10.379  0.1903  0.3569  0.2614
  920MPD2    H213523   2.441   3.280   9.991  0.9293 -0.6634 -0.3156
  920MPD2    H313524   2.619   3.309  10.143 -0.2124  1.5600 -1.1980
  920MPD2     N13525   2.325   3.395  10.488  0.6157  0.0630 -0.3489
  920MPD2    H513526   2.227   3.415  10.506  0.7557  1.1960 -0.8520
  920MPD2    N113527   2.188   3.390  10.029  0.1467  0.2776  0.6024
  920MPD2    H713528   2.100   3.412  10.075 -0.3419 -0.6385  0.0945
  921MPD2     C13529   2.947   3.230  16.529  0.3358 -0.3758  0.4305
  921MPD2    C113530   3.010   3.135  16.466  0.5017 -0.1277  0.4724
  921MPD2    C213531   2.949   3.023  16.415  0.5926  0.3591  0.3235
  921MPD2    C313532   2.817   3.005  16.451 -0.2987  0.2157 -0.7279
  921MPD2    C413533   2.744   3.108  16.511  0.0585  0.4949  0.3190
  921MPD2    C513534   2.811   3.225  16.548  0.1461  0.8367  0.1633
  921MPD2     H13535   3.012   2.952  16.363  1.4533  0.5668  1.0842
  921MPD2    H113536   2.638   3.100  16.530  0.0794 -0.0323  0.1982
  921MPD2    H213537   3.004   3.315  16.565  0.1782 -0.4114  0.7740
  921MPD2    H313538   2.765   3.304  16.606 -2.3132 -0.8359  0.5145
  921MPD2     N13539   2.742   2.888  16.409  0.0342 -0.5429  0.4508
  921MPD2    H513540   2.641   2.899  16.409  0.1694  0.6928 -1.8681
  921MPD2    N113541   3.150   3.160  16.440  0.2897 -0.3391  0.7688
  921MPD2    H713542   3.191   3.239  16.489 -0.4893  0.6713 -0.2081
  922MPD2     C13543   3.779   0.869  17.383  0.3143 -0.2246 -0.2970
  922MPD2    C113544   3.744   0.786  17.490 -0.1856  0.5400 -0.0193
  922MPD2    C213545   3.719   0.651  17.478  0.5447  0.2364  0.1119
  922MPD2    C313546   3.739   0.593  17.351 -0.3567 -0.1325 -0.7339
  922MPD2    C413547   3.796   0.669  17.250 -0.0789  0.6126 -0.5402
  922MPD2    C513548   3.809   0.804  17.266  0.0633 -0.0904 -0.1538
  922MPD2     H13549   3.669   0.598  17.559 -0.1683 -1.2305 -1.2972
  922MPD2    H113550   3.822   0.626  17.154 -2.2295 -0.5442 -0.5956
  922MPD2    H213551   3.795   0.976  17.389 -1.7587  0.1567 -1.3081
  922MPD2    H313552   3.856   0.857  17.184  2.2833 -0.6996  0.7473
  922MPD2     N13553   3.705   0.458  17.334 -0.1830 -0.0745 -0.2108
  922MPD2    H513554   3.641   0.418  17.401 -1.4151  2.3778  0.0787
  922MPD2    N113555   3.715   0.850  17.615  0.2356 -0.7445  0.2231
  922MPD2    H713556   3.682   0.786  17.687 -0.1617 -0.0942  0.6192
  923MPD2     C13557   0.256   2.104   9.408 -0.2595 -0.0334 -0.2771
  923MPD2    C113558   0.338   2.208   9.388  0.0798  0.5575 -0.3715
  923MPD2    C213559   0.472   2.195   9.423  0.4161 -0.4399  0.1729
  923MPD2    C313560   0.515   2.076   9.474 -0.3684  0.1809  0.8763
  923MPD2    C413561   0.428   1.970   9.498  0.4315 -1.0064  0.0118
  923MPD2    C513562   0.297   1.988   9.463 -0.1418  0.5696  0.5723
  923MPD2     H13563   0.537   2.282   9.423  0.2323 -0.3034 -0.6787
  923MPD2    H113564   0.454   1.873   9.539  1.6464 -1.2177 -1.2245
  923MPD2    H213565   0.152   2.117   9.380 -0.6445  0.3860  1.3644
  923MPD2    H313566   0.226   1.911   9.491 -0.0559 -0.0817 -0.9942
  923MPD2     N13567   0.651   2.069   9.519  0.0328  0.2243 -0.7894
  923MPD2    H513568   0.668   1.980   9.566 -0.3561  0.9302  0.6979
  923MPD2    N113569   0.285   2.327   9.339  0.1853  0.1764 -0.0772
  923MPD2    H713570   0.190   2.322   9.304  0.2103 -0.0139 -0.1179
  924MPD2     C13571   0.581   1.025  16.174 -0.1742  0.4435  0.4080
  924MPD2    C113572   0.518   1.064  16.289 -0.2432 -0.6466 -0.3901
  924MPD2    C213573   0.550   1.189  16.341  0.1628  0.0838  0.2722
  924MPD2    C313574   0.637   1.273  16.274 -0.8257 -0.4704 -0.0396
  924MPD2    C413575   0.688   1.238  16.147  0.6450 -0.5704  0.6431
  924MPD2    C513576   0.655   1.113  16.099 -0.3365 -0.5284  0.0628
  924MPD2     H13577   0.495   1.221  16.429  0.4502  1.6473 -0.1187
  924MPD2    H113578   0.770   1.292  16.100 -1.5722  1.2272 -1.1534
  924MPD2    H213579   0.590   0.918  16.162 -0.7523  0.8172 -3.4716
  924MPD2    H313580   0.724   1.084  16.021  0.7808  1.7359  0.2049
  924MPD2     N13581   0.671   1.399  16.325  0.1148  0.8150 -0.1873
  924MPD2    H513582   0.704   1.468  16.259 -0.0734 -0.4569 -1.6186
  924MPD2    N113583   0.430   0.979  16.354 -0.7839 -0.4210 -0.1939
  924MPD2    H713584   0.401   0.896  16.303  0.5863 -0.2285 -1.2618
  925MPD2     C13585   4.285   2.923  14.627  0.0726  0.5527  0.3969
  925MPD2    C113586   4.194   3.020  14.596 -0.4728 -0.3701 -0.1431
  925MPD2    C213587   4.126   3.087  14.700  0.1781 -0.6681  0.2007
  925MPD2    C313588   4.162   3.060  14.828  0.9159  0.4750 -0.6451
  925MPD2    C413589   4.260   2.968  14.856  0.7615 -0.0518  0.2760
  925MPD2    C513590   4.316   2.901  14.753 -0.2954 -0.3702  0.7720
  925MPD2     H13591   4.051   3.163  14.683 -0.5357 -1.1507  1.2028
  925MPD2    H113592   4.293   2.937  14.954 -0.3850 -0.6471  0.4722
  925MPD2    H213593   4.332   2.857  14.555 -0.7467  1.0204 -0.5607
  925MPD2    H313594   4.392   2.829  14.780 -0.7162 -1.6215 -1.4173
  925MPD2     N13595   4.108   3.125  14.937 -0.0096 -0.2271 -0.2347
  925MPD2    H513596   4.142   3.090  15.026 -0.0107  0.5323  0.0618
  925MPD2    N113597   4.161   3.060  14.464  0.5830 -0.1142  0.1142
  925MPD2    H713598   4.092   3.133  14.454  1.0950  0.6846  2.2697
  926MPD2     C13599   2.408   1.719  12.958 -0.3349 -0.1180 -0.0326
  926MPD2    C113600   2.475   1.811  13.039 -0.0466 -0.1709 -0.1850
  926MPD2    C213601   2.563   1.897  12.986 -0.2830  0.4333 -0.1417
  926MPD2    C313602   2.587   1.894  12.845  0.4919 -0.2403  0.5804
  926MPD2    C413603   2.515   1.809  12.767  0.3943  0.3016  0.2824
  926MPD2    C513604   2.431   1.722  12.828  0.3561 -0.3670 -0.1397
  926MPD2     H13605   2.616   1.959  13.057  2.1748 -1.0715 -0.6572
  926MPD2    H113606   2.537   1.804  12.661 -1.6569 -1.2315 -0.0981
  926MPD2    H213607   2.341   1.644  12.999  1.6649 -2.6157 -1.3644
  926MPD2    H313608   2.376   1.662  12.757  3.1416 -1.3091 -1.4712
  926MPD2     N13609   2.674   1.988  12.779 -0.8043  1.0104 -0.3527
  926MPD2    H513610   2.682   1.983  12.678  0.6080  2.2332 -0.2877
  926MPD2    N113611   2.447   1.821  13.176  0.1689  0.3545  0.2783
  926MPD2    H713612   2.484   1.904  13.223  2.1369  1.4198 -3.1504
  927MPD2     C13613   1.793   3.583  17.694 -0.1105 -0.1353 -0.6475
  927MPD2    C113614   1.915   3.565   0.007  0.9124  0.4714 -0.1853
  927MPD2    C213615   2.036   3.572  17.687  0.2928  0.0860  1.5600
  927MPD2    C313616   2.033   3.602  17.552 -0.3304  0.6901 -0.2713
  927MPD2    C413617   1.908   3.636  17.493 -0.7199  0.6100  0.0187
  927MPD2    C513618   1.795   3.618  17.568  0.5548  0.3159  0.2086
  927MPD2     H13619   2.134   3.547  17.725  0.3708 -0.3212  1.0895
  927MPD2    H113620   1.892   3.688  17.399  0.5735 -0.2769 -0.7075
  927MPD2    H213621   1.698   3.570  17.745 -0.9110  1.8863 -1.6012
  927MPD2    H313622   1.696   3.633  17.526  0.9393  2.4713  0.1231
  927MPD2     N13623   2.157   3.612  17.482  0.4944 -0.1867 -0.8436
  927MPD2    H513624   2.240   3.591  17.537 -1.4180 -2.0966  1.3089
  927MPD2    N113625   1.915   3.532   0.141 -0.4483 -0.0496 -0.6443
  927MPD2    H713626   1.825   3.541   0.187  0.3076  3.2297  0.1829
  928MPD2     C13627   4.617   1.835   0.740 -0.9519 -0.2903 -0.1112
  928MPD2    C113628   4.711   1.877   0.826  0.0492  0.7370  0.1534
  928MPD2    C213629   0.100   1.900   0.783 -0.0939 -0.0663  0.0957
  928MPD2    C313630   0.130   1.884   0.647 -0.2955  0.7449 -0.5798
  928MPD2    C413631   0.033   1.841   0.557 -0.0625 -0.1618 -0.0882
  928MPD2    C513632   4.651   1.821   0.610 -0.2964  0.2004  0.4851
  928MPD2     H13633   0.175   1.931   0.855 -1.0080  1.4039  0.4009
  928MPD2    H113634   0.055   1.835   0.451 -0.2506  0.4533 -0.1612
  928MPD2    H213635   4.515   1.813   0.768 -1.4437 -1.0301 -2.4864
  928MPD2    H313636   4.570   1.788   0.546  0.1630  1.9180 -0.9800
  928MPD2     N13637   0.248   1.919   0.586  0.2301 -0.4910  0.4430
  928MPD2    H513638   0.270   1.880   0.495  0.4933  1.2742 -0.2526
  928MPD2    N113639   4.676   1.887   0.964 -0.0127 -0.3920  0.1904
  928MPD2    H713640   4.580   1.856   0.979 -0.0446 -0.6503 -0.5366
  929MPD2     C13641   0.620   2.353  10.327 -0.1098  0.3135 -0.1375
  929MPD2    C113642   0.533   2.406  10.424  0.0248  0.3240  0.5414
  929MPD2    C213643   0.480   2.528  10.392  1.1589  0.4055  0.1985
  929MPD2    C313644   0.463   2.560  10.258  0.3739 -0.7227 -0.2432
  929MPD2    C413645   0.537   2.502  10.161 -0.3107  1.0694  0.1524
  929MPD2    C513646   0.616   2.402  10.196 -0.9666  0.3644 -0.9537
  929MPD2     H13647   0.421   2.577  10.469  2.1078 -0.1833  1.2904
  929MPD2    H113648   0.534   2.543  10.060  1.4375  0.8194  0.0096
  929MPD2    H213649   0.678   2.263  10.339 -0.3152  0.2317  0.2373
  929MPD2    H313650   0.677   2.353  10.121 -0.9254  2.1177 -2.0644
  929MPD2     N13651   0.369   2.660  10.213  0.6369 -0.5661 -0.2083
  929MPD2    H513652   0.344   2.654  10.114 -1.0009  0.1657  0.1554
  929MPD2    N113653   0.507   2.347  10.552 -0.0444 -0.8176  0.7976
  929MPD2    H713654   0.435   2.401  10.600 -0.3064  0.6708 -1.3056
  930MPD2     C13655   1.959   4.289  14.114 -0.4075  0.2992 -0.8969
  930MPD2    C113656   2.078   4.352  14.099 -0.3085 -0.8470  0.2927
  930MPD2    C213657   2.121   4.383  13.969  0.5066 -0.0197 -0.9114
  930MPD2    C313658   2.044   4.337  13.859 -0.1833 -0.0688 -0.2182
  930MPD2    C413659   1.918   4.280  13.876  0.0680 -0.0664 -0.5210
  930MPD2    C513660   1.877   4.257  14.004  0.2629  0.1304  0.1134
  930MPD2     H13661   2.214   4.438  13.957  1.5696 -1.3177  1.2772
  930MPD2    H113662   1.867   4.253  13.785  0.9633 -0.7051 -0.8383
  930MPD2    H213663   1.930   4.254  14.212 -0.1538 -0.1249 -0.9689
  930MPD2    H313664   1.781   4.208  14.014 -0.6595  1.7739 -0.6865
  930MPD2     N13665   2.097   4.358  13.729  0.0309 -0.2665  0.3744
  930MPD2    H513666   2.026   4.346  13.657 -0.9532  1.3536  1.0736
  930MPD2    N113667   2.154   4.392  14.213  0.3322  0.4443  1.0399
  930MPD2    H713668   2.125   4.360  14.305 -1.2741  0.9248  0.6972
  931MPD2     C13669   2.505   3.491   0.718 -0.1709 -0.2103  0.7069
  931MPD2    C113670   2.391   3.414   0.726  0.4306  0.1558  0.4145
  931MPD2    C213671   2.401   3.299   0.796  0.2007  0.4385 -0.5137
  931MPD2    C313672   2.519   3.268   0.862  0.6815 -0.5606  0.0436
  931MPD2    C413673   2.633   3.344   0.849  0.4161  0.0756 -0.4471
  931MPD2    C513674   2.632   3.458   0.765  0.7344  0.3362 -0.0551
  931MPD2     H13675   2.326   3.221   0.789  0.8350 -0.0222 -2.1778
  931MPD2    H113676   2.727   3.305   0.888  0.0113 -0.7184 -0.2575
  931MPD2    H213677   2.506   3.578   0.653  1.0769 -0.4518  0.4115
  931MPD2    H313678   2.717   3.523   0.748  0.6057  0.6787  0.6097
  931MPD2     N13679   2.538   3.143   0.928  0.8072 -0.4212 -0.0159
  931MPD2    H513680   2.632   3.129   0.962  0.8897 -1.1226 -0.5324
  931MPD2    N113681   2.281   3.467   0.651  0.1125 -0.0511  0.0219
  931MPD2    H713682   2.284   3.553   0.598  1.2233 -0.8920 -1.2686
  932MPD2     C13683   3.787   3.146  12.037 -0.5834 -0.0987 -0.0041
  932MPD2    C113684   3.878   3.170  11.939  0.0632  0.3474  0.1535
  932MPD2    C213685   3.962   3.070  11.895 -0.1062 -0.4716 -0.3174
  932MPD2    C313686   3.939   2.942  11.928  0.1679 -0.1467 -0.6731
  932MPD2    C413687   3.836   2.913  12.013 -0.7188 -0.5664 -0.4276
  932MPD2    C513688   3.756   3.016  12.066  0.1287 -0.0843 -0.3210
  932MPD2     H13689   4.031   3.109  11.821 -0.4093 -0.3778 -0.5468
  932MPD2    H113690   3.808   2.810  12.034  1.6232 -1.1967 -0.3781
  932MPD2    H213691   3.732   3.228  12.082 -1.7601  0.0513 -1.6948
  932MPD2    H313692   3.677   2.991  12.136  1.9098 -1.3558  1.2578
  932MPD2     N13693   4.025   2.843  11.882  0.0852  0.2390 -0.1823
  932MPD2    H513694   4.019   2.751  11.923 -0.1380  0.2803 -0.1174
  932MPD2    N113695   3.893   3.304  11.897  0.0002  0.7918  0.0822
  932MPD2    H713696   3.974   3.326  11.839  0.3730  1.2080  0.7672
  933MPD2     C13697   4.189   1.979   1.675 -0.4129 -0.3438  0.6639
  933MPD2    C113698   4.239   2.015   1.556  0.6758  0.6215  0.4840
  933MPD2    C213699   4.168   2.093   1.470 -0.1979  0.0389 -0.2602
  933MPD2    C313700   4.049   2.146   1.513 -0.4584  0.4667 -0.4263
  933MPD2    C413701   3.986   2.108   1.633 -0.1202 -0.6125  0.2993
  933MPD2    C513702   4.066   2.026   1.713  0.0070 -0.3878  0.6501
  933MPD2     H13703   4.212   2.137   1.382  1.8025 -0.9307  0.2726
  933MPD2    H113704   3.890   2.137   1.674 -0.6417 -0.1130 -1.2830
  933MPD2    H213705   4.244   1.908   1.735  0.9035  0.8374  0.8436
  933MPD2    H313706   4.023   1.984   1.804 -0.6069 -0.5077  0.3065
  933MPD2     N13707   3.987   2.241   1.426  1.0981 -0.0098  0.4782
  933MPD2    H513708   4.054   2.277   1.358  0.4401 -1.2174 -0.8196
  933MPD2    N113709   4.357   1.953   1.513  0.4011 -0.4097 -0.2024
  933MPD2    H713710   4.409   1.904   1.585  0.7585  0.1329 -0.0900
  934MPD2     C13711   1.690   0.015   2.007 -0.1610  0.0602 -0.2054
  934MPD2    C113712   1.748   4.696   1.902  0.0162 -0.5416  0.3580
  934MPD2    C213713   1.670   4.619   1.812  0.5118  0.9008  0.0842
  934MPD2    C313714   1.535   4.601   1.839 -0.4809  0.5129  0.8722
  934MPD2    C413715   1.484   4.644   1.960 -0.1810  1.0576 -0.2030
  934MPD2    C513716   1.565   4.718   2.043  0.1967 -0.0258  0.1297
  934MPD2     H13717   1.723   4.578   1.727 -1.8898  0.3138 -1.1309
  934MPD2    H113718   1.380   4.638   1.988 -0.7927 -0.4372 -2.8016
  934MPD2    H213719   1.742   0.075   2.081 -1.5486  1.1994 -0.1495
  934MPD2    H313720   1.523   0.008   2.139 -1.1603 -1.1332 -0.1276
  934MPD2     N13721   1.448   4.536   1.753 -0.6342 -0.5173 -0.3357
  934MPD2    H513722   1.350   4.519   1.775 -0.4999  0.7384  1.2346
  934MPD2    N113723   1.883   4.731   1.866 -0.2710 -0.8145  0.2077
  934MPD2    H713724   1.920   4.696   1.779  2.1159  2.4130 -0.0935
  935MPD2     C13725   1.692   3.863   1.097  0.4432  0.1310  0.0373
  935MPD2    C113726   1.554   3.834   1.101 -0.4913  0.1402  0.4568
  935MPD2    C213727   1.473   3.924   1.168  0.3310  0.2295 -0.4210
  935MPD2    C313728   1.530   4.043   1.209 -0.3174 -0.0992 -0.3023
  935MPD2    C413729   1.660   4.073   1.181 -0.2804 -0.2555  0.4165
  935MPD2    C513730   1.745   3.984   1.125 -0.4275 -0.1338 -0.1428
  935MPD2     H13731   1.371   3.898   1.193  0.9364 -1.1654  0.6010
  935MPD2    H113732   1.699   4.169   1.213  2.3336 -0.4337 -2.1321
  935MPD2    H213733   1.761   3.786   1.064  1.2563  0.7093  0.3867
  935MPD2    H313734   1.849   4.005   1.102 -0.9227  1.3630 -1.0488
  935MPD2     N13735   1.461   4.133   1.295  0.0403 -0.7974  0.8789
  935MPD2    H513736   1.514   4.217   1.315 -0.9707  0.0247  0.1043
  935MPD2    N113737   1.504   3.708   1.054 -0.0703 -0.8193  0.4035
  935MPD2    H713738   1.403   3.704   1.055 -0.0425 -1.4820  0.4993
  936MPD2     C13739   4.724   1.362  12.734 -0.0713  0.2793 -0.5926
  936MPD2    C113740   0.060   1.327  12.842  0.2348  0.1747  0.3847
  936MPD2    C213741   0.198   1.349  12.842  0.2801  0.2228  0.5255
  936MPD2    C313742   0.253   1.399  12.725 -0.1583  0.6335 -0.2954
  936MPD2    C413743   0.178   1.414  12.607 -0.4598 -0.2322 -0.9324
  936MPD2    C513744   0.039   1.404  12.615  0.0838 -0.2293  0.2788
  936MPD2     H13745   0.252   1.322  12.933  0.3041  1.8324  0.9927
  936MPD2    H113746   0.230   1.436  12.514  0.5483  1.1994 -0.0372
  936MPD2    H213747   4.617   1.341  12.728 -0.6295  2.8647  0.3008
  936MPD2    H313748   4.731   1.411  12.518 -2.2619 -1.1128  1.3749
  936MPD2     N13749   0.393   1.417  12.719  1.0891  0.2159  0.3923
  936MPD2    H513750   0.429   1.475  12.644  0.9047  0.1338  0.2420
  936MPD2    N113751   0.011   1.278  12.963  0.1831  0.0501 -0.1524
  936MPD2    H713752   0.082   1.261  13.034 -1.0508  0.3296  1.1566
  937MPD2     C13753   3.185   2.814  12.053  0.3713  0.3175 -0.1305
  937MPD2    C113754   3.219   2.936  11.991  1.2397  0.4250  0.8699
  937MPD2    C213755   3.345   2.942  11.931  0.3396 -0.6062  0.0612
  937MPD2    C313756   3.423   2.827  11.924  0.8921 -0.0969  0.3412
  937MPD2    C413757   3.401   2.712  11.997 -0.7162 -0.3683  0.4228
  937MPD2    C513758   3.275   2.705  12.062 -0.0201 -0.2710 -0.0210
  937MPD2     H13759   3.367   3.027  11.868 -0.3630 -0.9102 -0.5934
  937MPD2    H113760   3.464   2.625  12.009 -0.5853 -0.1629  1.2167
  937MPD2    H213761   3.086   2.788  12.090 -0.1455  1.1329 -0.9330
  937MPD2    H313762   3.244   2.612  12.109 -0.6793 -0.3553 -0.6151
  937MPD2     N13763   3.550   2.844  11.850 -0.4620 -0.0052  0.4787
  937MPD2    H513764   3.562   2.938  11.814  1.7835  0.2145  1.8151
  937MPD2    N113765   3.119   3.028  11.955 -1.0186  0.8665 -0.2305
  937MPD2    H713766   3.159   3.102  11.897  0.2562 -1.3951 -2.2468
  938MPD2     C13767   0.267   3.990   0.250 -0.2451 -0.3278  0.6168
  938MPD2    C113768   0.240   4.028   0.381 -0.1567 -0.6964  0.1236
  938MPD2    C213769   0.249   3.932   0.483  0.0260  0.7740 -0.0189
  938MPD2    C313770   0.275   3.796   0.451  0.2390  0.0190  0.0419
  938MPD2    C413771   0.292   3.760   0.317 -0.0950 -0.4582  0.0736
  938MPD2    C513772   0.292   3.855   0.219  0.3858  0.1563 -0.2790
  938MPD2     H13773   0.250   3.967   0.586  0.9810 -1.5457  0.7683
  938MPD2    H113774   0.327   3.663   0.284  0.5116 -0.5447  0.9615
  938MPD2    H213775   0.267   4.058   0.166 -0.7436  1.0774  1.7407
  938MPD2    H313776   0.301   3.823   0.115  2.0528 -1.4104  0.3479
  938MPD2     N13777   0.265   3.689   0.546  0.0121  0.1895  0.5078
  938MPD2    H513778   0.269   3.595   0.507  1.5214  0.0477  0.9925
  938MPD2    N113779   0.216   4.160   0.420  0.1352  0.2202  0.3956
  938MPD2    H713780   0.204   4.180   0.518 -0.9210 -2.6379  0.8608
  939MPD2     C13781   1.590   0.373   0.638  0.2451  0.4159 -0.2778
  939MPD2    C113782   1.450   0.397   0.650 -0.0605  0.5212  0.0888
  939MPD2    C213783   1.377   0.411   0.536  0.2355  0.1825  0.2310
  939MPD2    C313784   1.436   0.399   0.412  0.0422  0.4377 -0.4590
  939MPD2    C413785   1.569   0.380   0.400 -0.1734 -0.4987 -0.5137
  939MPD2    C513786   1.646   0.363   0.514  0.6779  0.0933  0.1354
  939MPD2     H13787   1.271   0.425   0.558  0.2428  0.5334  0.0354
  939MPD2    H113788   1.614   0.368   0.303 -1.3907 -2.0035 -0.8960
  939MPD2    H213789   1.653   0.349   0.723 -0.8011  1.8814  0.8984
  939MPD2    H313790   1.751   0.339   0.509  0.4821 -1.0153  1.3466
  939MPD2     N13791   1.344   0.413   0.302 -0.0833 -0.0376 -0.3394
  939MPD2    H513792   1.251   0.445   0.329  0.1612  1.1184 -0.8632
  939MPD2    N113793   1.401   0.398   0.787 -0.4420  0.3434 -0.1837
  939MPD2    H713794   1.477   0.390   0.855 -0.1699  0.2484 -0.4970
  940MPD2     C13795   1.183   1.199  14.047  0.3491 -0.0921  0.0373
  940MPD2    C113796   1.071   1.277  14.028 -0.2849 -0.4698 -0.0422
  940MPD2    C213797   1.065   1.369  13.925 -0.1468  0.5167 -0.3503
  940MPD2    C313798   1.183   1.401  13.853 -0.0912  0.0961 -0.3846
  940MPD2    C413799   1.290   1.318  13.877 -0.1003 -0.0564 -0.4964
  940MPD2    C513800   1.287   1.210  13.962 -0.0322  0.6914  0.9815
  940MPD2     H13801   0.977   1.433  13.913  0.9412  1.9326 -0.8006
  940MPD2    H113802   1.376   1.318  13.810  2.1681 -0.1237  2.3783
  940MPD2    H213803   1.183   1.120  14.121 -0.0182 -1.2233 -1.1713
  940MPD2    H313804   1.362   1.132  13.971  0.8047  1.4946  0.9766
  940MPD2     N13805   1.192   1.491  13.743  0.3595  0.4318 -0.0930
  940MPD2    H513806   1.278   1.506  13.690 -0.1108  1.1756 -0.6396
  940MPD2    N113807   0.957   1.257  14.110 -0.5557  0.1982  0.2290
  940MPD2    H713808   0.864   1.277  14.075 -0.7700  0.1183  0.7606
  941MPD2     C13809   4.528   0.790  10.512 -0.6764 -0.4315 -0.0461
  941MPD2    C113810   4.643   0.712  10.504  0.0551 -0.8903  0.1391
  941MPD2    C213811   4.652   0.583  10.547 -0.1581  1.1542  0.1431
  941MPD2    C313812   4.549   0.524  10.613 -0.0839 -1.0802  0.4549
  941MPD2    C413813   4.432   0.597  10.631  0.3586 -0.9890 -0.1751
  941MPD2    C513814   4.425   0.729  10.577 -0.1907  0.7105  0.2017
  941MPD2     H13815   0.006   0.530  10.530 -2.3403 -2.0620 -1.8038
  941MPD2    H113816   4.354   0.554  10.692 -0.6212  1.9166  0.6028
  941MPD2    H213817   4.531   0.894  10.481  0.6422 -0.0677  1.3195
  941MPD2    H313818   4.337   0.787  10.601  0.1634 -0.1478  3.6044
  941MPD2     N13819   4.551   0.397  10.672 -0.0049  0.1159  0.1343
  941MPD2    H513820   4.483   0.369  10.742  0.4865  0.0216  0.5714
  941MPD2    N113821   0.019   0.764  10.441 -0.4358 -0.4500  0.1115
  941MPD2    H713822   0.097   0.699  10.442  1.1132  1.4345  3.6574
  942MPD2     C13823   3.863   2.918   9.578 -0.1476 -0.4409  0.8083
  942MPD2    C113824   3.946   2.912   9.690  0.0168 -0.3952 -0.1464
  942MPD2    C213825   4.078   2.875   9.662 -0.0088 -0.1726  0.4026
  942MPD2    C313826   4.128   2.872   9.536  0.5786 -0.0294  0.0389
  942MPD2    C413827   4.045   2.897   9.429  0.2807  0.3068 -0.4082
  942MPD2    C513828   3.913   2.910   9.447  0.5592  0.3792  0.3816
  942MPD2     H13829   4.147   2.841   9.739  2.8202 -0.6634 -2.3147
  942MPD2    H113830   4.078   2.885   9.327  1.9421 -1.7580  0.3710
  942MPD2    H213831   3.756   2.937   9.581 -0.0588  0.3591 -1.1819
  942MPD2    H313832   3.849   2.921   9.361  0.3188  0.0767  0.5198
  942MPD2     N13833   4.267   2.844   9.510 -0.2286  0.3480  0.0209
  942MPD2    H513834   4.288   2.814   9.415 -3.3912  1.0501 -0.8695
  942MPD2    N113835   3.898   2.910   9.821 -0.1193  0.0309 -0.0894
  942MPD2    H713836   3.957   2.891   9.901 -1.2462 -0.4826  0.6206
  943MPD2     C13837   4.024   0.404  10.285 -0.2944 -0.1312 -0.2251
  943MPD2    C113838   3.888   0.429  10.295  0.3887 -0.0939 -0.3748
  943MPD2    C213839   3.854   0.514  10.396 -0.0934  0.9031  0.3467
  943MPD2    C313840   3.947   0.569  10.485 -0.1941  0.0285  0.4213
  943MPD2    C413841   4.076   0.522  10.484  0.1866 -0.2034  1.0712
  943MPD2    C513842   4.113   0.436  10.387 -0.3378 -0.0341  0.0747
  943MPD2     H13843   3.748   0.538  10.396 -0.0257  1.1875 -1.6434
  943MPD2    H113844   4.160   0.568  10.536  1.5721 -0.4112 -0.9809
  943MPD2    H213845   4.067   0.351  10.201  0.8980 -1.0835  0.9935
  943MPD2    H313846   4.219   0.421  10.370 -0.3294  1.0030 -0.7394
  943MPD2     N13847   3.914   0.670  10.582 -0.3204 -0.0905 -0.4110
  943MPD2    H513848   3.996   0.694  10.637  0.4403 -0.6790 -1.2945
  943MPD2    N113849   3.806   0.382  10.189  0.2000 -0.1932  0.4534
  943MPD2    H713850   3.857   0.338  10.113 -0.3334 -0.4690  0.2581
  944MPD2     C13851   3.226   4.673  11.063 -0.1438 -0.0372  0.2888
  944MPD2    C113852   3.094   4.715  11.076 -0.1606 -0.4152 -0.3050
  944MPD2    C213853   3.061   0.078  11.165  0.0872 -0.2617 -0.3152
  944MPD2    C313854   3.159   0.133  11.241  0.0157  0.1089 -0.6150
  944MPD2    C413855   3.289   0.087  11.233  1.1503  0.1009  0.1732
  944MPD2    C513856   3.318   4.728  11.144 -0.5150  0.0274  0.1436
  944MPD2     H13857   2.962   0.121  11.169  0.4372  0.5736 -0.6364
  944MPD2    H113858   3.376   0.133  11.280 -0.2228  2.2315  0.5960
  944MPD2    H213859   3.250   4.595  10.992 -1.8117 -0.6254  0.3632
  944MPD2    H313860   3.417   4.683  11.146 -1.0170 -1.0885  0.1591
  944MPD2     N13861   3.112   0.235  11.325 -0.0907 -0.7262  0.4110
  944MPD2    H513862   3.012   0.251  11.333  0.0682  1.1645 -1.4333
  944MPD2    N113863   3.005   4.653  10.980 -0.5508  0.0567  0.2948
  944MPD2    H713864   3.053   4.587  10.919 -0.8315  1.8225 -1.8498
    1TMC1    C113865   1.721   0.379  14.179 -0.2112  0.2929 -0.3322
    1TMC1    C213866   1.635   0.406  14.069  0.5823 -0.5884  0.3582
    1TMC1    C313867   1.621   0.303  13.979  0.2757 -0.5427  0.8220
    1TMC1    C413868   1.786   0.252  14.195  0.6739  0.0110 -0.1617
    1TMC1    C513869   1.785   0.164  14.086  0.2537  0.1864  0.5308
    1TMC1    C613870   1.699   0.189  13.984 -0.8822 -0.0035  0.5166
    1TMC1     C13871   1.734   0.470  14.290 -0.7708 -0.2194 -1.1439
    1TMC1     O13872   1.814   0.436  14.376 -0.4230  0.2379  0.6312
    1TMC1     H13873   1.581   0.500  14.069  0.7291 -0.5184 -2.1622
    1TMC1    H113874   1.824   0.221  14.292  0.1650 -0.5005 -0.1266
    1TMC1    H213875   1.683   0.111  13.910  2.2794  1.1021 -1.3707
    1TMC1    C713876   1.816   0.024  14.119  0.3811  0.6560 -0.2128
    1TMC1    C813877   1.571   0.337  13.850  0.5730  0.5558 -0.1804
    1TMC1    O113878   1.751   4.670  14.077  0.2065  0.5496  0.2209
    1TMC1    O213879   1.640   0.314  13.750 -0.4227  0.1319 -0.4924
    1TMC1    O313880   1.908   0.023  14.217  0.1908 -0.5665 -0.7592
    1TMC1    H313881   1.969   0.099  14.210 -0.3880  0.0941  1.5140
    1TMC1    O513882   1.453   0.408  13.861  0.1692 -0.0500  0.3314
    1TMC1    H513883   1.418   0.411  13.952 -0.2810 -0.1290  0.1588
    2MPD2     C13884   1.638   0.904  14.543  0.3788  0.4193 -0.2749
    2MPD2    C113885   1.597   0.921  14.418  0.5546  0.2744  0.7648
    2MPD2    C213886   1.608   0.816  14.327  0.7956 -0.3005  0.1876
    2MPD2    C313887   1.664   0.697  14.367  0.0817  0.0523  0.4599
    2MPD2    C413888   1.703   0.678  14.501 -0.2465  1.1454 -0.0607
    2MPD2    C513889   1.687   0.783  14.588  0.2441  0.1670  0.8548
    2MPD2     H13890   1.585   0.822  14.222  1.8538  2.8341  0.1291
    2MPD2    H113891   1.747   0.588  14.543  0.4324  0.9995 -1.0709
    2MPD2    H213892   1.630   0.985  14.614 -0.9747 -0.9693  1.1656
    2MPD2    H313893   1.720   0.775  14.691 -2.2428 -2.2432  1.4718
    2MPD2     N13894   1.674   0.592  14.274 -0.1426  0.3514 -0.4006
    2MPD2    H513895   1.640   0.614  14.181 -0.6038  0.4508 -0.2083
    2MPD2    N113896   1.577   1.057  14.383 -0.0906  0.4362 -0.1916
    2MPD2    H713897   1.578   1.125  14.458  0.6188  0.2991 -0.0729
    3TMC2    C113898   1.525   1.248  14.256  0.8365 -0.0521 -0.5273
    3TMC2    C213899   1.424   1.271  14.347  1.4625 -0.6837  0.8669
    3TMC2    C313900   1.341   1.376  14.325 -0.2682 -0.0590  0.0760
    3TMC2    C413901   1.545   1.327  14.149 -0.0796 -0.2682 -0.1119
    3TMC2    C513902   1.476   1.444  14.140 -0.3032  0.2348  0.4394
    3TMC2    C613903   1.373   1.467  14.230 -0.0794 -0.8919 -0.3268
    3TMC2     C13904   1.570   1.107  14.250  0.4959 -0.1226  0.6380
    3TMC2     O13905   1.591   1.069  14.137  0.0318  0.3212  0.6195
    3TMC2     H13906   1.379   1.192  14.407 -1.9229  2.2705  2.1943
    3TMC2    H113907   1.621   1.310  14.074 -2.5318 -1.4243 -2.3415
    3TMC2    H213908   1.323   1.562  14.237 -0.6216 -1.4211  2.7644
    3TMC2    C713909   1.502   1.548  14.041 -0.3208  0.0810  0.4240
    3TMC2    C813910   1.243   1.411  14.427  1.0234  0.0197 -0.2158
    3TMC2    O113911   1.605   1.532  13.976  0.2628 -0.6072 -0.0602
    3TMC2    O213912   1.192   1.524  14.421 -0.0812 -0.7722 -0.2316
    3TMC2    O513913   1.250   1.341  14.539 -0.1569  0.5832  0.0316
    3TMC2    H513914   1.280   1.248  14.532 -1.7136 -0.0235  1.6814
    4TMC2    C113915   0.747   2.108  13.787 -0.0160  0.0108  0.2606
    4TMC2    C213916   0.768   2.241  13.769 -0.1021  0.0574 -0.0526
    4TMC2    C313917   0.882   2.291  13.821  0.1154  0.3056 -0.2841
    4TMC2    C413918   0.832   2.029  13.863 -0.6462  0.6661 -0.5060
    4TMC2    C513919   0.946   2.088  13.911 -0.6065 -0.3917 -0.1934
    4TMC2    C613920   0.974   2.223  13.889 -0.3288  0.6045 -0.2310
    4TMC2     C13921   0.643   2.045  13.704 -0.3402 -0.4039  0.7216
    4TMC2     O13922   0.599   1.937  13.738 -0.1850  0.7142 -1.0358
    4TMC2     H13923   0.700   2.303  13.711 -1.2606 -1.6869 -0.5558
    4TMC2    H113924   0.808   1.930  13.899 -3.3076  1.4821 -0.0544
    4TMC2    H213925   1.063   2.269  13.931  1.1678 -1.4841 -1.0985
    4TMC2    C713926   1.048   1.988  13.944  0.1911 -0.3650 -0.3521
    4TMC2    C813927   0.900   2.435  13.794 -0.3595  0.2228 -0.0236
    4TMC2    O113928   1.011   1.874  13.965 -0.1826  0.3538  0.0072
    4TMC2    O213929   0.997   2.467  13.729  0.3318 -0.1434  0.6984
    4TMC2    O513930   0.852   2.493  13.906  0.1902  0.4973  0.0731
    4TMC2    H513931   0.774   2.442  13.938  0.2894 -0.4847 -1.2705
    5MPD2     C13932   0.305   2.028  13.318 -0.7385  0.0359 -0.1171
    5MPD2    C113933   0.418   2.093  13.271 -0.3931 -0.7250  0.0654
    5MPD2    C213934   0.520   2.121  13.367 -0.7752 -0.4025  0.1838
    5MPD2    C313935   0.519   2.070  13.497 -0.2816  0.1515 -0.7033
    5MPD2    C413936   0.399   2.009  13.541 -0.0067  0.7456 -0.2627
    5MPD2    C513937   0.296   1.988  13.451 -0.6384 -0.1425  0.2515
    5MPD2     H13938   0.616   2.160  13.337 -0.3127 -1.1036  0.7389
    5MPD2    H113939   0.384   1.969  13.640 -0.4202 -1.0927 -1.0725
    5MPD2    H213940   0.214   2.011  13.261  0.5873 -1.5542 -1.7450
    5MPD2    H313941   0.202   1.938  13.474 -1.5113  2.0256  1.4198
    5MPD2     N13942   0.625   2.097  13.583  0.0674  0.1142  0.3998
    5MPD2    H513943   0.700   2.156  13.549 -0.7397  0.8182 -0.1587
    5MPD2    N113944   0.429   2.121  13.131  0.0813 -0.4980  0.6058
    5MPD2    H713945   0.360   2.082  13.067 -1.2658 -0.9008  2.3002
    6MPD1     C13946   4.448   3.451  12.411  0.3187  0.2341  0.2386
    6MPD1    C113947   4.402   3.375  12.513 -0.2689 -0.1190  0.2929
    6MPD1    C213948   4.433   3.238  12.505 -0.0468  0.5994 -0.6935
    6MPD1    C313949   4.514   3.191  12.401 -0.1160 -0.0516  0.0766
    6MPD1    C413950   4.551   3.271  12.300  0.2305 -0.5483  0.6107
    6MPD1    C513951   4.517   3.400  12.306 -0.1434  0.1781  0.0457
    6MPD1     H13952   4.391   3.167  12.577  1.3233  1.3481  0.8364
    6MPD1    H113953   4.603   3.241  12.209  0.0797  0.3267  0.2330
    6MPD1    H213954   4.433   3.558  12.409  0.4684  0.2807  2.3485
    6MPD1    H313955   4.544   3.468  12.227  0.5246  0.4947  0.5485
    6MPD1     N13956   4.558   3.060  12.379  0.6346 -0.0482  0.3675
    6MPD1    H513957   4.619   3.037  12.302  0.8682 -0.8088  0.7816
    6MPD1    N113958   4.301   3.428  12.598  0.3179  0.5698 -0.3855
    6MPD1    H613959   4.287   3.386  12.690  0.0535 -1.3175 -1.2918
    6MPD1    H713960   4.323   3.526  12.614  2.3912  0.2002 -0.9912
    7MPD2     C13961   4.593   2.212  12.633 -0.4921  0.3072 -0.1726
    7MPD2    C113962   4.703   2.268  12.578  0.5793 -0.8517 -0.0105
    7MPD2    C213963   0.080   2.202  12.590 -0.2216  0.0135 -0.3849
    7MPD2    C313964   0.099   2.097  12.679 -0.0202  0.2535 -0.1133
    7MPD2    C413965   4.731   2.057  12.751 -0.2707  0.0033 -0.6031
    7MPD2    C513966   4.609   2.110  12.726  0.1330 -0.2433 -0.9840
    7MPD2     H13967   0.166   2.257  12.554 -1.3877  1.1289 -1.4529
    7MPD2    H113968   0.005   1.970  12.815  2.7070  1.1758  0.3697
    7MPD2    H213969   4.494   2.256  12.628 -0.0542  1.1867 -0.9092
    7MPD2    H313970   4.527   2.081  12.790  2.6412 -2.0731  1.4143
    7MPD2     N13971   0.222   2.042  12.716  0.5852  0.2806  0.2154
    7MPD2    H513972   0.233   1.969  12.786  2.4394  0.3853  0.0283
    7MPD2    N113973   4.705   2.385  12.499  0.0856 -0.0152  0.0319
    7MPD2    H713974   0.054   2.419  12.463 -0.8533  1.1122 -1.2113
    8TMC3    C113975   0.462   2.042  12.726 -0.0367  0.8471  0.2509
    8TMC3    C213976   0.452   2.064  12.865  0.8347 -0.4610 -0.8617
    8TMC3    C313977   0.547   2.142  12.925 -0.1876 -0.7389 -0.0332
    8TMC3    C413978   0.556   2.108  12.649  0.5501  0.1640 -0.4197
    8TMC3    C513979   0.648   2.180  12.717 -0.5605  0.8785  0.2831
    8TMC3    C613980   0.651   2.190  12.850 -0.1942 -0.2276 -0.0178
    8TMC3     C13981   0.339   2.082  12.656  1.2405  0.1006 -0.0621
    8TMC3     O13982   0.361   2.155  12.555 -0.4127 -0.0784  0.7998
    8TMC3     H13983   0.377   2.009  12.919 -0.8526 -1.3520 -4.1368
    8TMC3    H113984   0.566   2.091  12.542 -0.8268 -0.8583 -0.3866
    8TMC3    H213985   0.725   2.253  12.899 -0.3964  1.1988 -1.5820
    8TMC3    C713986   0.683   2.297  12.654  0.9062  0.0895 -0.6962
    8TMC3    C813987   0.547   2.167  13.070  0.2269 -0.3019  0.5739
    8TMC3    O113988   0.771   2.363  12.713 -0.1233  0.3727  0.3027
    8TMC3    O213989   0.641   2.226  13.127 -0.2002  0.6640 -0.6310
    9TMC3    C113990   4.600   2.832  12.409 -0.5213  0.4547 -0.5031
    9TMC3    C213991   4.728   2.845  12.350 -0.1758  0.3893 -0.0369
    9TMC3    C313992   0.058   2.728  12.326 -0.4768  0.3617 -0.8768
    9TMC3    C413993   4.552   2.704  12.445  0.9604 -0.8514  0.4472
    9TMC3    C513994   4.634   2.594  12.419  0.2363  0.5571 -0.1435
    9TMC3    C613995   0.010   2.604  12.352  0.2679  0.0883  0.2977
    9TMC3     C13996   4.519   2.951  12.452 -0.2871 -0.1055  0.5940
    9TMC3     O13997   4.426   2.937  12.525  0.1120  0.2217  0.5138
    9TMC3     H13998   0.026   2.946  12.338 -1.3475  0.7764 -0.4447
    9TMC3    H113999   4.456   2.699  12.496  0.2947  0.0861 -0.7045
    9TMC3    H214000   0.064   2.525  12.302 -1.6823 -1.8896  1.3068
    9TMC3    C714001   4.595   2.461  12.468  0.0698 -0.0077  0.6519
    9TMC3    C814002   0.204   2.740  12.315 -0.1313 -0.0330 -0.3833
    9TMC3    O114003   4.475   2.452  12.504  0.7897  0.1375 -0.2806
    9TMC3    O214004   0.257   2.832  12.255 -0.0104 -0.1286 -0.2013
   10MPD2     C14005   0.642   2.569  12.511  0.2975  0.4467  0.5990
   10MPD2    C114006   0.550   2.466  12.525  0.0993 -0.0191 -0.5816
   10MPD2    C214007   0.425   2.491  12.476 -0.1376  0.4806 -0.6695
   10MPD2    C314008   0.390   2.612  12.409 -0.4775  0.1606 -0.7420
   10MPD2    C414009   0.487   2.708  12.389 -0.2073 -0.4572  0.1346
   10MPD2    C514010   0.613   2.684  12.437 -0.2149 -0.0287 -0.6692
   10MPD2     H14011   0.348   2.418  12.496 -1.0049  1.6888  0.4050
   10MPD2    H114012   0.471   2.808  12.350 -1.0951 -1.1409 -1.2779
   10MPD2    H214013   0.741   2.561  12.554 -0.1419  0.4516  1.6023
   10MPD2    H314014   0.691   2.756  12.418 -0.0770  0.1338  0.5305
   10MPD2     N14015   0.258   2.630  12.378 -0.2227 -0.9198  0.1413
   10MPD2    H514016   0.193   2.565  12.421 -0.7019 -0.5853 -0.0903
   10MPD2    N114017   0.572   2.341  12.588 -0.6342  0.1410 -0.1117
   10MPD2    H714018   0.507   2.268  12.561  2.3478 -2.3202 -0.5812
   11MPD2     C14019   1.530   1.812  13.914 -0.4177  0.0563 -0.0077
   11MPD2    C114020   1.411   1.760  13.957  0.4179 -0.4839  0.3734
   11MPD2    C214021   1.300   1.838  13.957 -0.3319  0.1659  0.2269
   11MPD2    C314022   1.292   1.975  13.920 -1.0636 -1.2241  0.0447
   11MPD2    C414023   1.416   2.027  13.872 -0.2664 -0.0493  0.4841
   11MPD2    C514024   1.534   1.945  13.883 -0.1383  0.6596 -0.4833
   11MPD2     H14025   1.207   1.790  13.985  0.0504 -0.9521 -0.3791
   11MPD2    H114026   1.416   2.132  13.844 -1.2166 -0.2600 -0.3387
   11MPD2    H214027   1.628   1.766  13.925  0.5189  1.8217 -0.9507
   11MPD2    H314028   1.633   1.979  13.855  1.1642 -2.0141  0.8663
   11MPD2     N14029   1.173   2.045  13.921 -0.2268  0.2693  0.0754
   11MPD2    H514030   1.182   2.144  13.900 -1.2334  0.3907  0.2312
   11MPD2    N114031   1.395   1.631  14.025  0.2891  0.3061 -0.1229
   11MPD2    H714032   1.310   1.615  14.078 -0.0120  1.8712 -0.1152
    1MPD1     C14033   3.568   3.009  17.069 -0.8353 -0.4108 -0.3219
    1MPD1    C114034   3.609   3.001  16.938  0.3871 -0.1211 -0.0264
    1MPD1    C214035   3.737   3.045  16.905 -0.0759  0.4582  0.3492
    1MPD1    C314036   3.815   3.114  16.995  0.2848  0.6453  0.5868
    1MPD1    C414037   3.766   3.130  17.121 -0.4811  0.8714 -0.1524
    1MPD1    C514038   3.646   3.071  17.163  0.3361 -0.0559 -0.3012
    1MPD1     H14039   3.753   3.047  16.798 -0.2678  2.3719  0.3682
    1MPD1    H114040   3.818   3.185  17.199  1.1115  0.1832 -0.7311
    1MPD1    H214041   3.477   2.962  17.106 -1.3592  2.1740  1.6529
    1MPD1    H314042   3.609   3.081  17.264  0.6868  0.2270 -0.2007
    1MPD1     N14043   3.950   3.153  16.969  0.3175  0.0575 -0.1126
    1MPD1    H514044   3.994   3.201  17.046 -2.9835  0.7700  1.3497
    1MPD1    N114045   3.530   2.930  16.847  0.2467  0.6520 -0.3876
    1MPD1    H614046   3.429   2.935  16.862  0.4175 -0.0992  1.0062
    1MPD1    H714047   3.551   2.954  16.751  1.5795 -1.0588 -0.5106
    2MPD1     C14048   0.086   3.532  17.251  0.9430  0.1407  0.3030
    2MPD1    C114049   0.135   3.499  17.130  0.0986  0.6521  0.0672
    2MPD1    C214050   0.048   3.429  17.044 -0.0569  0.0198 -0.9460
    2MPD1    C314051   4.659   3.402  17.080  0.3817  0.3317 -0.2444
    2MPD1    C414052   4.615   3.444  17.212 -0.0858 -0.0277 -0.0651
    2MPD1    C514053   4.703   3.500  17.294 -0.0592  0.2359  0.4869
    2MPD1     H14054   0.093   3.393  16.952 -1.1219 -1.1776 -0.9963
    2MPD1    H114055   4.511   3.438  17.242 -0.8444  1.9663 -2.2121
    2MPD1    H214056   0.148   3.596  17.313 -0.9456  1.2150  1.0840
    2MPD1    H314057   4.677   3.545  17.389 -0.7788  0.8553 -0.0035
    2MPD1     N14058   4.572   3.338  16.987 -0.2064 -0.8181 -0.0605
    2MPD1    H514059   4.601   3.341  16.890 -0.7369  0.0474 -0.1921
    2MPD1    N114060   0.263   3.518  17.087  0.1246  0.5648 -0.0111
    2MPD1    H614061   0.300   3.591  17.147  1.0007 -0.4944  0.7357
    2MPD1    H714062   0.265   3.541  16.988  0.2908 -0.3756 -0.2304
    3TMC3    C114063   4.354   3.272  16.916  0.3083 -0.0365 -0.2415
    3TMC3    C214064   4.387   3.316  16.795 -0.4205 -0.1155  1.1027
    3TMC3    C314065   4.291   3.309  16.697  0.6736 -0.6696 -0.2724
    3TMC3    C414066   4.237   3.207  16.943 -0.2427  0.2233  0.3021
    3TMC3    C514067   4.147   3.195  16.843  0.3789 -0.2782  0.2265
    3TMC3    C614068   4.175   3.235  16.716 -0.0276 -0.4393  0.1834
    3TMC3     C14069   4.447   3.291  17.025  0.6060 -0.5101 -0.2729
    3TMC3     O14070   4.408   3.266  17.139 -0.3691 -0.5170  0.4003
    3TMC3     H14071   4.465   3.391  16.787 -1.9832  1.3705 -0.2366
    3TMC3    H114072   4.212   3.185  17.046 -2.0153 -2.6795 -0.7331
    3TMC3    H214073   4.096   3.233  16.642  0.5556 -1.4158 -0.4152
    3TMC3    C714074   4.019   3.131  16.851 -0.0166 -1.0019 -0.1224
    3TMC3    C814075   4.324   3.329  16.560  0.4558 -0.2731  0.3229
    3TMC3    O114076   3.986   3.055  16.760 -0.6351  0.4127  0.2273
    3TMC3    O214077   4.226   3.361  16.496  0.3722 -0.0417 -0.0358
    4MPD1     C14078   4.616   3.217  16.156 -0.0771 -0.3634  0.5610
    4MPD1    C114079   4.691   3.180  16.270 -0.0701 -0.0940 -0.5844
    4MPD1    C214080   4.634   3.203  16.391  0.0960  0.3082 -0.2276
    4MPD1    C314081   4.508   3.267  16.400  0.3720  0.1985  0.0476
    4MPD1    C414082   4.446   3.307  16.286  0.0931 -0.4767  0.2631
    4MPD1    C514083   4.491   3.271  16.165 -0.7059 -0.0938  0.2114
    4MPD1     H14084   4.685   3.166  16.479 -3.2758  0.8160  1.9264
    4MPD1    H114085   4.351   3.359  16.294  0.6900  0.6890 -0.0997
    4MPD1    H214086   4.659   3.207  16.057  0.9854 -1.0708  1.1027
    4MPD1    H314087   4.437   3.301  16.076 -0.5162 -0.8979 -0.1811
    4MPD1     N14088   4.447   3.282  16.527 -0.0251  0.3612  0.2423
    4MPD1    H514089   4.516   3.257  16.598  0.2980 -2.4178 -1.0447
    4MPD1    N114090   0.068   3.104  16.258  0.5651 -0.7009  0.5268
    4MPD1    H614091   0.136   3.138  16.326  1.9942 -0.3566 -1.0870
    4MPD1    H714092   0.112   3.106  16.167 -1.9722  0.8737 -0.6686
    1TCq1    O114093   4.451   2.820  10.461  0.1519 -0.3622  0.8356
    1TCq1    C114094   4.535   2.722  10.430  0.9015  0.1172  0.4175
    1TCq1    O214095   4.540   2.642  10.340 -0.1969  0.2175 -0.5869
    1TCq1    C214096   4.648   2.733  10.525  0.0541 -0.1760 -0.2525
    1TCq1    C314097   0.003   2.633  10.515 -0.1303 -1.0917  0.0967
    1TCq1    C414098   0.123   2.638  10.581  0.0233 -0.0624  0.6650
    1TCq1    C514099   0.126   2.727  10.682 -0.2266  0.3946 -0.8225
    1TCq1    C614100   0.033   2.825  10.697  0.1373 -0.3507  1.1266
    1TCq1    C714101   4.660   2.829  10.620 -0.3558  0.1163 -0.2224
    1TCq1    C814102   0.019   2.897  10.823  0.2520 -0.2137 -1.0511
    1TCq1    O414103   4.648   2.940  10.858 -0.3566 -0.1294 -0.3766
    1TCq1    C914104   0.202   2.518  10.592  0.1953  0.3397 -0.2332
    1TCq1    O514105   0.302   2.513  10.671 -0.0789 -0.1291 -0.0365
    1TCq1    O614106   0.163   2.416  10.527 -0.0466  0.0577 -0.4527
    1TCq1    H114107   4.449   2.854  10.553 -2.9075 -1.3882  1.1571
    1TCq1    H214108   0.002   2.558  10.436 -2.3827 -0.8008 -0.1353
    1TCq1    H314109   0.203   2.706  10.756 -0.5142  3.0406  0.2286
    1TCq1    H414110   4.590   2.910  10.635 -1.0509 -0.2126 -1.7522
    2MPD1     C14111   0.252   3.079  11.261  0.4439 -0.4050  0.0926
    2MPD1    C114112   0.346   3.029  11.171 -0.1900  0.0455 -0.3666
    2MPD1    C214113   0.307   2.970  11.048 -0.0911 -0.0521  0.8569
    2MPD1    C314114   0.175   2.958  11.016 -0.3006 -0.2915 -0.3324
    2MPD1    C414115   0.083   3.004  11.111 -0.3731 -0.3136 -0.8441
    2MPD1    C514116   0.127   3.062  11.223 -0.2948 -0.0916  0.2740
    2MPD1     H14117   0.377   2.941  10.971 -2.2401 -2.8701 -0.0600
    2MPD1    H114118   4.715   3.001  11.099 -0.6657 -0.2589  1.7081
    2MPD1    H214119   0.286   3.134  11.348 -0.1947 -3.0515  2.0117
    2MPD1    H314120   0.055   3.111  11.288 -1.3958 -0.2722 -0.8137
    2MPD1     N14121   0.143   2.905  10.888  0.3230  0.1931 -0.2410
    2MPD1    H514122   0.229   2.881  10.839  2.0033  1.6015  1.9875
    2MPD1    N114123   0.484   3.045  11.200 -0.3272  0.8089 -0.3504
    2MPD1    H614124   0.498   3.023  11.298 -1.1652  1.2288 -0.1410
    2MPD1    H714125   0.531   2.965  11.157  0.7025  2.2174 -1.8434
    1TMC1    C114126   0.662   0.658  10.081 -0.3782 -0.5061  0.4042
    1TMC1    C214127   0.740   0.764  10.110  0.4835 -0.4468 -0.1866
    1TMC1    C314128   0.760   0.864  10.021 -0.4821  0.4587  0.4301
    1TMC1    C414129   0.598   0.649   9.956  0.2755  0.2759  0.1971
    1TMC1    C514130   0.611   0.756   9.874  0.0077 -0.3102 -0.6594
    1TMC1    C614131   0.701   0.859   9.897  0.0048 -0.1795 -0.3148
    1TMC1     C14132   0.646   0.544  10.169  0.1823  0.1047  0.0303
    1TMC1     O14133   0.543   0.472  10.150  0.3889  0.1047  0.2928
    1TMC1     H14134   0.778   0.768  10.212 -0.4699 -0.0814  0.1612
    1TMC1    H114135   0.527   0.569   9.941 -0.3751  1.0287 -0.7190
    1TMC1    H214136   0.722   0.931   9.819  1.1994  1.6584  1.7080
    1TMC1    C714137   0.573   0.748   9.731  0.0103  0.3234 -0.3663
    1TMC1    C814138   0.840   0.984  10.057 -0.5037 -0.1962  0.1312
    1TMC1    O114139   0.655   0.720   9.644 -0.8299  0.2008 -0.1513
    1TMC1    O214140   0.876   1.048   9.963 -0.2530  0.2328 -0.1926
    1TMC1    O314141   0.455   0.685   9.736  0.0632  0.2897 -0.1523
    1TMC1    H314142   0.405   0.720   9.813  2.2782 -0.2205  1.5284
    1TMC1    O514143   0.781   1.045  10.163 -0.3275 -0.1988 -0.5545
    1TMC1    H514144   0.746   0.979  10.226  0.2982  0.2330  0.2421
    2MPD1     C14145   0.803   0.300  10.586 -0.2695  0.1632  0.1259
    2MPD1    C114146   0.911   0.380  10.551 -0.2116  0.4675  0.7242
    2MPD1    C214147   0.887   0.461  10.444 -0.5887  0.0227 -0.2835
    2MPD1    C314148   0.769   0.445  10.366 -0.4957 -0.1262  0.1440
    2MPD1    C414149   0.673   0.345  10.395 -0.2171 -0.2785  0.2043
    2MPD1    C514150   0.689   0.275  10.514  1.2150 -0.4610 -0.0123
    2MPD1     H14151   0.954   0.543  10.420  0.7961 -1.2542 -0.7936
    2MPD1    H114152   0.586   0.331  10.332  1.7933 -0.3649 -2.6096
    2MPD1    H214153   0.809   0.238  10.674 -1.0792 -1.2169 -0.7913
    2MPD1    H314154   0.610   0.207  10.544  0.3215  0.9972  0.9725
    2MPD1     N14155   0.751   0.536  10.260 -0.2268  0.0329 -0.1372
    2MPD1    H514156   0.825   0.604  10.252  0.3236 -0.5064  0.2747
    2MPD1    N114157   1.017   0.400  10.636  0.6031  0.0205 -0.8105
    2MPD1    H614158   1.042   0.315  10.686  1.1851  0.7365  0.1258
    2MPD1    H714159   1.091   0.430  10.573  0.2521  0.2807 -1.1031
    1MPD1     C14160   1.970   2.056  12.567  0.2451  0.3528  0.0317
    1MPD1    C114161   1.868   2.052  12.474 -0.4418  0.2080  0.6531
    1MPD1    C214162   1.770   2.152  12.469 -0.2139  0.4234 -0.0727
    1MPD1    C314163   1.775   2.259  12.564 -0.5940  0.0868  0.2078
    1MPD1    C414164   1.875   2.255  12.657 -0.6954 -0.1702 -0.7514
    1MPD1    C514165   1.972   2.163  12.655  0.4603 -0.3720 -0.2327
    1MPD1     H14166   1.685   2.148  12.401 -0.6100  0.3743  0.4262
    1MPD1    H114167   1.890   2.343  12.718 -2.2728  0.9550 -1.9883
    1MPD1    H214168   2.047   1.980  12.563 -1.0745 -1.0958  1.9261
    1MPD1    H314169   2.050   2.171  12.730 -0.0334  0.7299  0.1688
    1MPD1     N14170   1.681   2.364  12.549  0.4419 -0.0057 -0.2782
    1MPD1    H514171   1.613   2.359  12.473 -1.6525  2.9734  1.3970
    1MPD1    N114172   1.869   1.939  12.382  0.7341  0.1349  0.2829
    1MPD1    H614173   1.870   1.859  12.445  0.7597  0.8980  1.2434
    1MPD1    H714174   1.781   1.930  12.330  1.3271 -2.5144 -0.2563
    2MPD1     C14175   1.184   2.662  10.778  0.5807  0.4116  0.1328
    2MPD1    C114176   1.260   2.637  10.668  0.3279 -0.1475 -0.4131
    2MPD1    C214177   1.389   2.686  10.681 -0.0411 -0.2797  0.6015
    2MPD1    C314178   1.446   2.748  10.790  0.3960  0.2103 -0.5355
    2MPD1    C414179   1.367   2.772  10.894 -1.0441  0.5296  0.1540
    2MPD1    C514180   1.234   2.736  10.882 -0.4807  0.2929  0.4683
    2MPD1     H14181   1.449   2.650  10.599 -0.2751  1.5312 -0.3830
    2MPD1    H114182   1.408   2.823  10.981  0.4090  1.1570 -0.9081
    2MPD1    H214183   1.082   2.631  10.797 -0.0831  1.9069 -0.9826
    2MPD1    H314184   1.161   2.754  10.960 -1.6670 -0.1990 -0.5272
    2MPD1     N14185   1.580   2.785  10.798 -0.0513  0.3834  0.7639
    2MPD1    H514186   1.616   2.826  10.884  1.7459  1.8015 -0.6551
    2MPD1    N114187   1.220   2.547  10.570 -1.6012  0.2414  0.2607
    2MPD1    H614188   1.272   2.546  10.482 -2.3433  0.1990 -0.1794
    2MPD1    H714189   1.120   2.555  10.554 -2.3958 -0.9995  4.7943
    3MPD1     C14190   2.241   2.902  10.099  0.3120  0.2208  0.5670
    3MPD1    C114191   2.122   2.840  10.120  0.2782 -0.3565 -0.1873
    3MPD1    C214192   2.055   2.872  10.235 -0.2715  0.0593  0.0886
    3MPD1    C314193   2.113   2.943  10.337 -0.0364  0.9659  0.9962
    3MPD1    C414194   2.234   3.003  10.316  0.0988  0.2142 -0.5492
    3MPD1    C514195   2.302   2.977  10.199 -0.1395  0.0207  0.2483
    3MPD1     H14196   1.955   2.834  10.250 -1.3651  3.2082  0.6221
    3MPD1    H114197   2.273   3.076  10.386 -0.8794  0.5965 -0.4009
    3MPD1    H214198   2.285   2.895  10.000 -0.4688  1.0362  0.1666
    3MPD1    H314199   2.393   3.027  10.168  1.4008 -2.3534  1.0004
    3MPD1     N14200   2.031   2.966  10.448 -0.4843 -0.0279 -0.2997
    3MPD1    H514201   1.942   2.918  10.444  0.2841 -1.6126  1.8806
    3MPD1    N114202   2.058   2.773  10.008 -0.1527 -0.2337  0.1510
    3MPD1    H614203   1.991   2.701  10.034 -1.5101 -0.0192 -2.7879
    3MPD1    H714204   2.132   2.724   9.958 -1.1307  0.3061 -1.8342
    4MPD2     C14205   1.286   2.548  12.037  0.0912  0.6166  0.4027
    4MPD2    C114206   1.347   2.653  12.103 -0.2787  0.7278 -0.2875
    4MPD2    C214207   1.412   2.749  12.029 -0.2790  0.3296 -0.6411
    4MPD2    C314208   1.425   2.741  11.891  0.6808  0.1995 -0.6402
    4MPD2    C414209   1.360   2.643  11.820 -0.0901  0.0383 -0.4160
    4MPD2    C514210   1.293   2.546  11.900  0.3111  1.0363  0.1619
    4MPD2     H14211   1.443   2.835  12.086  0.5023 -0.2002 -0.2750
    4MPD2    H114212   1.354   2.648  11.712 -1.3514  2.8451 -0.2320
    4MPD2    H214213   1.242   2.466  12.092  0.1643 -0.8734 -1.7668
    4MPD2    H314214   1.227   2.474  11.852 -0.2385  1.6596 -0.0140
    4MPD2     N14215   1.496   2.835  11.815 -0.4933  0.5125  0.0718
    4MPD2    H514216   1.488   2.825  11.714  1.9937  1.6731 -0.2463
    4MPD2    N114217   1.370   2.653  12.247 -0.2060 -0.0431 -0.0871
    4MPD2    H714218   1.428   2.724  12.291 -1.9687  2.0252 -1.0823
    5TMC3    C114219   1.359   2.609  12.471  0.4339 -0.0465  0.4336
    5TMC3    C214220   1.459   2.526  12.522 -0.2442  0.3184 -0.7714
    5TMC3    C314221   1.581   2.575  12.564 -0.0399 -0.0636 -0.4337
    5TMC3    C414222   1.371   2.743  12.488 -0.2742 -0.2777  0.0429
    5TMC3    C514223   1.494   2.789  12.533 -0.5351  0.2177  0.0411
    5TMC3    C614224   1.599   2.708  12.569 -0.4494 -0.0600  0.7367
    5TMC3     C14225   1.317   2.574  12.339 -0.3771  0.6468  0.0746
    5TMC3     O14226   1.222   2.495  12.331 -0.0996  0.1961 -0.6448
    5TMC3     H14227   1.447   2.421  12.498  0.0384 -0.0093  0.4918
    5TMC3    H114228   1.294   2.814  12.461  0.3511  0.4579  0.1877
    5TMC3    H214229   1.699   2.736  12.601 -0.8003  1.3129  0.6338
    5TMC3    C714230   1.537   2.902  12.448  0.2408 -0.3471 -0.5436
    5TMC3    C814231   1.694   2.490  12.600  0.1689 -0.0672 -0.8121
    5TMC3    O114232   1.470   2.918  12.343 -0.2424  0.2679 -0.7968
    5TMC3    O214233   1.781   2.534  12.674 -0.5273  0.3855 -0.0133
    6TMC3    C114234   1.787   2.854  10.724  0.5176 -0.0149 -0.3391
    6TMC3    C214235   1.847   2.940  10.632 -0.6329  0.1843  0.1494
    6TMC3    C314236   1.969   2.999  10.672 -0.2999  0.4067 -0.3458
    6TMC3    C414237   1.838   2.828  10.847 -0.2458 -0.3127  0.5163
    6TMC3    C514238   1.952   2.897  10.889  0.0829  0.6153  0.2604
    6TMC3    C614239   2.015   2.981  10.802 -0.1475  0.5161 -0.1769
    6TMC3     C14240   1.661   2.798  10.691  0.0650  1.2207 -0.3946
    6TMC3     O14241   1.640   2.788  10.571  0.3229 -0.0109  0.0957
    6TMC3     H14242   1.803   2.949  10.533  0.9252 -0.3611 -0.5861
    6TMC3    H114243   1.800   2.747  10.908 -2.2581  0.6662  0.5557
    6TMC3    H214244   2.097   3.045  10.832  0.1522  0.9056 -1.8073
    6TMC3    C714245   1.982   2.899  11.033  0.2448  0.4822  0.1030
    6TMC3    C814246   2.069   3.028  10.564  0.2316  0.3568 -0.1541
    6TMC3    O114247   1.899   2.851  11.111  0.0532 -0.2044  0.5456
    6TMC3    O214248   2.179   3.064  10.600  0.3209  0.4720  0.2672
    7MPD2     C14249   1.920   3.178  12.273 -0.7401  0.1864 -0.0507
    7MPD2    C114250   1.811   3.125  12.208 -0.1107  0.8515  0.9022
    7MPD2    C214251   1.712   3.058  12.277  0.2458 -0.5729 -0.1760
    7MPD2    C314252   1.734   3.041  12.415 -1.1021  0.4583  0.1513
    7MPD2    C414253   1.836   3.096  12.482  0.1382  0.7709  0.6371
    7MPD2    C514254   1.931   3.170  12.408  0.2577  1.0949  0.0012
    7MPD2     H14255   1.631   3.015  12.220 -0.3571  0.9671 -0.4930
    7MPD2    H114256   1.844   3.095  12.590  0.5601 -0.4995  0.5948
    7MPD2    H214257   1.996   3.230  12.215  0.6738 -1.7366  0.0720
    7MPD2    H314258   2.011   3.225  12.457  0.3959  1.1646 -0.3021
    7MPD2     N14259   1.650   2.957  12.494  0.3745 -0.2023 -0.0327
    7MPD2    H514260   1.670   2.947  12.593 -0.5152  1.3155  0.3066
    7MPD2    N114261   1.786   3.147  12.072  0.4597 -0.3198  0.4991
    7MPD2    H714262   1.693   3.119  12.041  1.1447  1.8082 -3.5202
    8TMC3    C114263   1.809   3.150  11.844  0.2383  0.1358  1.0732
    8TMC3    C214264   1.890   3.101  11.759  0.0210 -0.0309 -0.0566
    8TMC3    C314265   1.828   3.019  11.662 -0.0617  0.1457 -1.0535
    8TMC3    C414266   1.671   3.134  11.848  0.7081  0.6545  0.3321
    8TMC3    C514267   1.613   3.041  11.761  0.1936 -0.7083  0.0946
    8TMC3    C614268   1.693   2.988  11.664 -0.7335  0.6288  0.5542
    8TMC3     C14269   1.873   3.182  11.975 -0.5910 -0.0144 -1.1342
    8TMC3     O14270   1.994   3.178  11.981  0.3347 -0.0182  1.0910
    8TMC3     H14271   1.996   3.119  11.773  0.0005 -0.6206  0.8949
    8TMC3    H114272   1.609   3.188  11.918  0.3183  1.0563 -0.3218
    8TMC3    H214273   1.638   2.928  11.593 -0.9000  1.3959  0.0390
    8TMC3    C714274   1.568   2.937  11.864 -0.4616  0.5402  0.0559
    8TMC3    C814275   1.905   2.965  11.549  0.7912 -0.1150 -0.7468
    8TMC3    O114276   1.590   2.963  11.978  0.4710  0.3905  0.4677
    8TMC3    O214277   1.834   2.920  11.465 -0.3538 -0.6268  0.5086
    9MPD2     C14278   2.236   3.083  11.421  0.8599  0.6543 -0.2407
    9MPD2    C114279   2.116   3.026  11.419 -0.2147  0.6237 -0.0325
    9MPD2    C214280   2.071   2.991  11.296 -0.0135  0.1704  0.4232
    9MPD2    C314281   2.153   2.986  11.188 -0.3047 -0.4931 -0.4391
    9MPD2    C414282   2.286   3.027  11.205  1.3025  0.6592  0.4687
    9MPD2    C514283   2.319   3.090  11.316  0.1693  0.6419 -0.1201
    9MPD2     H14284   1.970   2.951  11.289 -0.3999  0.8771  2.0006
    9MPD2    H114285   2.354   3.049  11.124  0.7690  0.6004 -0.0011
    9MPD2    H214286   2.273   3.117  11.517 -0.3093  2.0793 -0.3172
    9MPD2    H314287   2.418   3.133  11.322  0.2091  0.9095 -2.7437
    9MPD2     N14288   2.104   2.957  11.058 -0.1434  0.3569  0.1367
    9MPD2    H514289   2.176   2.972  10.987 -0.7367 -0.8947 -0.7535
    9MPD2    N114290   2.036   3.019  11.539  0.0145 -0.2176  0.0979
    9MPD2    H714291   2.086   3.053  11.621 -1.4280  0.8755  0.5220
    1MPD1     C14292   2.153   1.296  15.223  0.4625  0.5092 -0.1564
    1MPD1    C114293   2.188   1.426  15.258  0.5448  0.0715  0.2062
    1MPD1    C214294   2.189   1.453  15.393  0.5704  0.2208  0.4301
    1MPD1    C314295   2.143   1.362  15.483 -0.0412  0.3369 -0.5023
    1MPD1    C414296   2.102   1.239  15.443 -0.3920 -0.2797 -1.2055
    1MPD1    C514297   2.112   1.200  15.308 -0.4003 -0.2554  0.3037
    1MPD1     H14298   2.231   1.544  15.435  3.9587 -1.7681  1.3519
    1MPD1    H114299   2.045   1.167  15.501 -1.1102 -0.6053 -2.3194
    1MPD1    H214300   2.154   1.263  15.120 -2.6855  0.3956 -0.1326
    1MPD1    H314301   2.082   1.101  15.273  0.7831 -0.3834 -0.3342
    1MPD1     N14302   2.130   1.385  15.621 -0.2010  0.5156 -0.2338
    1MPD1    H514303   2.099   1.305  15.675 -0.8412  1.7401  1.2086
    1MPD1    N114304   2.234   1.516  15.161  0.1337 -0.2955  0.1157
    1MPD1    H614305   2.219   1.616  15.173  0.6726 -0.1571 -0.3654
    1MPD1    H714306   2.198   1.482  15.072  1.5547  1.2255 -1.0469
    2TMC2    C114307   2.135   1.363  16.029 -0.7974  0.3041  0.1442
    2TMC2    C214308   2.089   1.471  16.098  0.6149 -0.1913  0.4947
    2TMC2    C314309   2.038   1.578  16.028  0.0368  0.3976  0.0946
    2TMC2    C414310   2.145   1.365  15.889  0.7267  0.4327  0.1158
    2TMC2    C514311   2.103   1.486  15.825  0.0972  0.2770 -0.1939
    2TMC2    C614312   2.058   1.601  15.894  0.0378  0.3959 -0.0569
    2TMC2     C14313   2.175   1.246  16.111  0.6333  0.6141 -0.0816
    2TMC2     O14314   2.139   1.254  16.228 -0.0199  0.2282 -0.0987
    2TMC2     H14315   2.088   1.478  16.206 -4.4382 -0.4420  0.4505
    2TMC2    H114316   2.194   1.287  15.832 -2.8978 -0.4993 -1.7196
    2TMC2    H214317   2.013   1.687  15.846  4.5053  2.4486 -0.5006
    2TMC2    C714318   2.132   1.506  15.688  0.4189 -0.1238 -0.2784
    2TMC2    C814319   1.971   1.684  16.105  0.4245  0.7479  1.1156
    2TMC2    O114320   2.141   1.619  15.653  0.2126  0.2754  0.5908
    2TMC2    O214321   1.974   1.801  16.068  0.1646 -0.3556 -0.3263
    2TMC2    O514322   1.857   1.627  16.162  0.0043  0.2844  0.4621
    2TMC2    H514323   1.870   1.529  16.165 -0.1105  0.2746  0.6732
    3MPD1     C14324   2.488   0.864  16.247 -0.1373 -0.0017  0.2517
    3MPD1    C114325   2.523   0.899  16.119 -0.1532 -0.8654 -0.2612
    3MPD1    C214326   2.443   0.999  16.056 -0.2740 -0.1452  0.2162
    3MPD1    C314327   2.341   1.065  16.124 -0.5246  0.0581 -0.7814
    3MPD1    C414328   2.314   1.016  16.256 -1.0183  0.2749  0.9973
    3MPD1    C514329   2.384   0.913  16.309  0.2724 -0.2229 -0.3877
    3MPD1     H14330   2.459   1.027  15.952 -1.7869  1.4413  0.4172
    3MPD1    H114331   2.237   1.061  16.317  0.2192  1.7878  1.4239
    3MPD1    H214332   2.537   0.784  16.301  2.7025  1.7756  0.3159
    3MPD1    H314333   2.365   0.886  16.413  2.2305 -2.4847 -0.6187
    3MPD1     N14334   2.277   1.164  16.056  0.1217 -0.1004  0.3088
    3MPD1    H514335   2.306   1.186  15.962 -0.6692 -0.8079 -0.1032
    3MPD1    N114336   2.609   0.823  16.030 -0.0946  0.1583 -0.7114
    3MPD1    H614337   2.660   0.876  15.960  1.4076  0.7175  0.7918
    3MPD1    H714338   2.682   0.792  16.094 -0.4730 -0.9028 -0.7881
    1TMC1    C114339   4.470   0.800  13.182 -0.4490  0.2916  0.1987
    1TMC1    C214340   4.460   0.791  13.319 -0.7023 -0.6173  0.1590
    1TMC1    C314341   4.346   0.745  13.375 -0.7035 -0.0237 -0.3771
    1TMC1    C414342   4.373   0.747  13.098  0.3497 -0.5029 -0.0561
    1TMC1    C514343   4.257   0.703  13.159  0.4085  0.4494 -0.1887
    1TMC1    C614344   4.247   0.697  13.296 -0.4191  0.0473 -0.1538
    1TMC1     C14345   4.594   0.855  13.127 -0.2419  0.2518 -0.2232
    1TMC1     O14346   4.584   0.890  13.011  0.1134  0.0002 -0.7202
    1TMC1     H14347   4.528   0.851  13.378 -0.4989  0.5630 -1.2776
    1TMC1    H114348   4.402   0.731  12.995  0.6608 -1.4689  0.1841
    1TMC1    H214349   4.158   0.656  13.342 -0.1990  0.6684  0.8166
    1TMC1    C714350   4.180   0.597  13.092 -0.1587  0.0398 -0.7545
    1TMC1    C814351   4.302   0.842  13.478 -0.1518  0.5641 -0.4846
    1TMC1    O114352   4.129   0.501  13.153  0.1271  0.8738 -0.6852
    1TMC1    O214353   4.340   0.956  13.477 -0.4647  0.3451  0.1847
    1TMC1    O314354   4.157   0.645  12.963  0.0736 -0.1678 -0.0081
    1TMC1    H314355   4.182   0.737  12.941  0.5369 -0.2840  0.0414
    1TMC1    O514356   4.191   0.793  13.538  0.0567  0.5814 -0.2530
    1TMC1    H514357   4.184   0.695  13.535 -0.3816  0.5874  0.6073
    2MPD2     C14358   0.147   0.900  13.055 -0.0428  0.3072 -0.0052
    2MPD2    C114359   0.096   0.850  13.172  0.4481 -0.0032  0.3834
    2MPD2    C214360   0.190   0.831  13.268 -0.3164 -1.1749 -0.1290
    2MPD2    C314361   0.325   0.838  13.247  0.3010  0.3271 -0.3249
    2MPD2    C414362   0.375   0.883  13.126  0.0014 -0.3362  0.5903
    2MPD2    C514363   0.284   0.916  13.034  0.6636  0.1184 -0.3343
    2MPD2     H14364   0.152   0.814  13.368  2.2959 -2.2205  0.6747
    2MPD2    H114365   0.479   0.889  13.098  0.4533 -2.6718  1.7184
    2MPD2    H214366   0.082   0.941  12.978  1.0261  0.3546 -0.8883
    2MPD2    H314367   0.316   0.964  12.943  0.6455  1.2281  0.2482
    2MPD2     N14368   0.410   0.800  13.349 -0.5250  0.0613  0.1236
    2MPD2    H514369   0.366   0.778  13.438 -1.6859  0.5301 -0.3309
    2MPD2    N114370   4.703   0.833  13.207 -0.6926  0.2263  0.5146
    2MPD2    H714371   4.695   0.791  13.300 -1.5892 -0.9481 -0.0835
    3TCq1    O114372   0.999   0.774  13.540  0.3709 -0.1617 -0.1992
    3TCq1    C114373   0.918   0.760  13.644 -0.1744  0.0575 -0.2272
    3TCq1    O214374   0.960   0.755  13.756 -0.3651 -0.2781  0.1542
    3TCq1    C214375   0.782   0.732  13.611 -0.2944 -0.4533 -0.2837
    3TCq1    C314376   0.713   0.656  13.699  0.3588 -0.6437  0.4022
    3TCq1    C414377   0.582   0.626  13.674  0.1060 -0.3389 -0.6547
    3TCq1    C514378   0.526   0.666  13.554  0.1523 -0.4700  1.0456
    3TCq1    C614379   0.598   0.741  13.470 -0.1370 -0.0619 -0.1116
    3TCq1    C714380   0.728   0.780  13.499 -0.1102  0.1814  0.9319
    3TCq1    C814381   0.547   0.784  13.342 -0.6976  0.7451 -0.0085
    3TCq1    O414382   0.628   0.811  13.252 -0.0590  0.0549 -0.3412
    3TCq1    C914383   0.504   0.537  13.754 -0.2611  0.6998 -0.7743
    3TCq1    O514384   0.377   0.545  13.741 -0.8642  0.0244 -0.0226
    3TCq1    O614385   0.568   0.481  13.845 -0.2149 -0.4546  0.3139
    3TCq1    H114386   0.962   0.741  13.456 -0.2986 -2.3575  0.9510
    3TCq1    H214387   0.766   0.622  13.788  0.1011  0.4103  0.9632
    3TCq1    H314388   0.422   0.636  13.542 -0.1024  0.8915 -0.0521
    3TCq1    H414389   0.777   0.841  13.424  0.0763 -0.0626  0.8547
    1MPD2     C14390   4.086   2.085  14.085  0.5028 -0.3619  0.5647
    1MPD2    C114391   4.085   2.015  14.209  0.3154 -0.4461  0.9175
    1MPD2    C214392   4.207   1.981  14.261  0.4139 -0.8173  0.5731
    1MPD2    C314393   4.328   2.010  14.207 -0.4472  0.8568 -0.1159
    1MPD2    C414394   4.330   2.070  14.085 -0.5115 -0.5460 -0.6478
    1MPD2    C514395   4.209   2.104  14.022  0.0027  0.0293  0.0179
    1MPD2     H14396   4.212   1.945  14.364  1.4672  1.5971  1.3694
    1MPD2    H114397   4.424   2.078  14.032  0.6808  0.0614  1.5466
    1MPD2    H214398   3.992   2.105  14.035  1.2216  0.7961 -0.3216
    1MPD2    H314399   4.215   2.148  13.924 -0.1171  1.3319  0.5892
    1MPD2     N14400   4.438   1.982  14.295 -0.4076  0.5239 -0.1951
    1MPD2    H514401   4.422   1.946  14.388 -0.1437  1.5786  0.2629
    1MPD2    N114402   3.962   1.997  14.279  0.1479 -0.1269 -0.4621
    1MPD2    H714403   3.903   2.080  14.271  0.0151 -0.3486 -1.7199
    2TMC3    C114404   3.857   1.955  14.499 -0.2799 -0.3905 -0.1734
    2TMC3    C214405   3.892   1.926  14.628  0.1113  0.0198  0.5476
    2TMC3    C314406   3.826   1.987  14.721 -0.2254 -0.3624 -0.2240
    2TMC3    C414407   3.756   2.034  14.463  0.1958 -0.0916 -0.3019
    2TMC3    C514408   3.689   2.098  14.568 -0.2028  0.3076 -0.2407
    2TMC3    C614409   3.724   2.070  14.692  0.3411  0.1640  0.5700
    2TMC3     C14410   3.958   1.920  14.394  0.2527  0.1229 -0.1745
    2TMC3     O14411   4.031   1.825  14.426 -0.2390 -0.5404 -0.4027
    2TMC3     H14412   3.964   1.848  14.648 -1.1308 -1.0968  0.6264
    2TMC3    H114413   3.723   2.030  14.360  1.5764 -2.7792 -0.6447
    2TMC3    H214414   3.675   2.117  14.776 -0.0294 -1.3422  1.2115
    2TMC3    C714415   3.560   2.172  14.549 -0.0868  0.3502  0.4898
    2TMC3    C814416   3.907   2.012  14.837  0.1403 -0.8686 -0.1668
    2TMC3    O114417   3.480   2.159  14.640 -0.5345  0.4514 -0.0978
    2TMC3    O214418   3.855   2.028  14.946 -0.0071 -0.5173  0.2248
    3TCq1    O114419   3.209   2.441  13.343  0.5246  0.2145 -0.4771
    3TCq1    C114420   3.181   2.493  13.461 -0.1864  0.5593 -0.4655
    3TCq1    O214421   3.103   2.576  13.493 -0.3383 -0.2319  0.8978
    3TCq1    C214422   3.269   2.432  13.561  0.1407 -0.4873 -0.1184
    3TCq1    C314423   3.402   2.423  13.545 -0.2787  0.2002 -0.3908
    3TCq1    C414424   3.480   2.406  13.657  0.4650 -0.5695 -0.5749
    3TCq1    C514425   3.425   2.385  13.780  0.1120  0.7824 -0.1983
    3TCq1    C614426   3.292   2.392  13.794 -0.0426 -0.0642 -0.4184
    3TCq1    C714427   3.213   2.417  13.688  0.0115  0.0029 -0.0076
    3TCq1    C814428   3.232   2.366  13.925 -0.2120  0.4176 -0.2514
    3TCq1    O414429   3.114   2.362  13.934  0.2102 -0.2724  0.4508
    3TCq1    C914430   3.622   2.416  13.650 -0.1631  0.1595 -0.5073
    3TCq1    O514431   3.695   2.406  13.750  0.1938  0.1636 -0.3713
    3TCq1    O614432   3.666   2.434  13.534 -0.2036  0.5635 -0.5249
    3TCq1    H114433   3.271   2.365  13.338 -1.2040 -1.1019 -1.5499
    3TCq1    H214434   3.442   2.445  13.447  0.5512 -0.1933 -0.1502
    3TCq1    H314435   3.493   2.365  13.862 -0.7079  0.5587  0.4259
    3TCq1    H414436   3.105   2.429  13.690 -0.0223 -0.4099  0.4857
    4MPD2     C14437   3.191   2.304  14.215 -0.0927 -0.3773  0.0544
    4MPD2    C114438   3.311   2.298  14.150 -0.8986  0.2668 -0.8242
    4MPD2    C214439   3.424   2.279  14.219  0.2664 -0.3284  0.5252
    4MPD2    C314440   3.425   2.255  14.354  0.1924  0.5049  1.0253
    4MPD2    C414441   3.304   2.263  14.419  0.2423  0.8773  0.0837
    4MPD2    C514442   3.190   2.296  14.352 -0.0573 -0.5531  0.4661
    4MPD2     H14443   3.519   2.274  14.166 -0.4731 -0.8143 -0.7634
    4MPD2    H114444   3.297   2.257  14.527 -2.1058 -1.1122 -0.1591
    4MPD2    H214445   3.108   2.357  14.169 -0.0446 -0.9590 -0.7153
    4MPD2    H314446   3.094   2.304  14.402 -0.5008 -0.8420 -0.3436
    4MPD2     N14447   3.548   2.222  14.417  0.7839 -0.1302 -0.1698
    4MPD2    H514448   3.629   2.223  14.356  1.0308  2.2204  0.1945
    4MPD2    N114449   3.329   2.326  14.016 -0.3275 -0.2196 -0.1209
    4MPD2    H714450   3.426   2.326  13.985 -0.9278 -1.2019 -2.0110
    5TMC2    C114451   4.623   1.949  14.605 -0.8256  0.1784  0.0308
    5TMC2    C214452   4.697   2.060  14.634  0.4234 -0.2502 -0.1912
    5TMC2    C314453   4.739   2.132  14.533 -0.2984  0.2159 -0.3239
    5TMC2    C414454   4.600   1.924  14.477  0.0938  0.1222  0.7954
    5TMC2    C514455   4.656   1.996  14.372  0.3047 -0.0312 -0.4549
    5TMC2    C614456   4.721   2.110  14.400  0.2095  0.0484 -0.3516
    5TMC2     C14457   4.492   1.939  14.678  0.0834  0.3001 -0.0340
    5TMC2     O14458   4.400   1.912  14.603 -1.1479 -0.0220  0.0958
    5TMC2     H14459   4.725   2.087  14.735 -0.1252  0.8721 -0.3437
    5TMC2    H114460   4.550   1.832  14.449 -0.2675  0.0500  1.6821
    5TMC2    H214461   0.016   2.178  14.324 -0.2472  1.9633  1.1684
    5TMC2    C714462   4.565   2.021  14.265 -0.4761  0.5382  0.5118
    5TMC2    C814463   0.115   2.204  14.575 -0.7052  0.3589 -0.2695
    5TMC2    O114464   4.608   2.075  14.162 -0.0353  0.6919  0.3543
    5TMC2    O214465   0.189   2.172  14.670  0.9424  0.1641 -0.2969
    5TMC2    O514466   0.093   2.336  14.547 -0.4357 -1.0033 -0.1194
    5TMC2    H514467   0.009   2.353  14.500  1.4371  1.6247 -2.5144
    6MPD2     C14468   4.141   1.963  15.028 -0.1979  0.3781 -0.0428
    6MPD2    C114469   4.144   2.003  14.894  0.3993 -0.7234 -0.6515
    6MPD2    C214470   4.264   1.995  14.829 -0.2623 -0.2098 -0.3311
    6MPD2    C314471   4.386   1.963  14.892 -0.3695 -0.8701 -0.3221
    6MPD2    C414472   4.386   1.950  15.029  0.9066  0.0806 -0.4326
    6MPD2    C514473   4.261   1.937  15.091 -0.3968 -0.0068 -0.2229
    6MPD2     H14474   4.265   2.027  14.725 -3.6330  3.8342  0.8860
    6MPD2    H114475   4.481   1.938  15.080 -0.2525 -2.8325  1.0088
    6MPD2    H214476   4.047   1.932  15.074 -0.2242  0.0705 -0.3049
    6MPD2    H314477   4.262   1.915  15.197  1.7581 -0.5962 -0.3587
    6MPD2     N14478   4.502   1.954  14.812 -0.2136  0.2344 -0.6797
    6MPD2    H514479   4.593   1.948  14.856 -1.6267  0.6222  2.3074
    6MPD2    N114480   4.041   2.033  14.805 -0.0071 -0.1855 -0.0902
    6MPD2    H714481   4.062   2.049  14.707  0.3944  1.2514  0.2255
  945NH4     N114482   4.110   1.356   7.416  0.6773  0.2748 -0.0804
  945NH4     H214483   4.133   1.258   7.393 -0.4109 -0.0518  0.1836
  945NH4     H314484   4.083   1.406   7.329 -0.1475  1.2491  0.7244
  945NH4     H414485   4.193   1.403   7.457  0.9371  0.0058 -0.3088
  945NH4     H514486   4.030   1.359   7.483  1.2931 -1.4113  0.7174
  946SOD     NA14487   2.050   3.472  15.915 -0.1427  0.0220  0.0237
  947SOD     NA14488   2.909   4.371  14.017  0.1711 -0.3197 -0.2293
  948SOD     NA14489   3.215   1.833  12.936 -0.0025 -0.1537  0.0383
  949SOD     NA14490   1.063   2.486  16.951  0.7855  0.3149  0.0964
  950SOD     NA14491   1.087   1.946  10.867  0.4364 -0.4952 -0.0590
  951SOD     NA14492   0.077   4.422   6.950 -0.5590  0.2602  0.1518
  952SOD     NA14493   4.048   3.658  10.334 -0.4699 -0.1120 -0.1409
  953SOL     OW14494   3.812   1.043   3.222 -0.7322 -0.1525 -0.6583
  953SOL    HW114495   3.877   0.976   3.241  1.9744  3.3099  2.2092
  953SOL    HW214496   3.735   0.989   3.240 -1.1557  1.3220  2.0936
  954SOL     OW14497   2.514   3.011   9.778 -0.7927 -0.1519  0.1755
  954SOL    HW114498   2.593   3.049   9.741 -0.7592 -2.4242 -2.1225
  954SOL    HW214499   2.537   3.028   9.869 -0.4215  1.6293 -0.2611
  955SOL     OW14500   3.852   3.283   4.350  0.0641 -0.1955 -0.3886
  955SOL    HW114501   3.854   3.351   4.418 -3.9138 -0.8256  0.3829
  955SOL    HW214502   3.841   3.205   4.404 -0.5506 -0.2981 -0.6657
  956SOL     OW14503   4.602   1.182  10.160  0.1089 -0.2424 -0.4868
  956SOL    HW114504   4.624   1.091  10.181  0.9766 -0.1754 -1.1353
  956SOL    HW214505   4.572   1.167  10.070  0.0396  1.7133 -0.7887
  957SOL     OW14506   1.246   4.092   3.005 -0.1654  0.0536  0.4931
  957SOL    HW114507   1.151   4.094   2.993 -0.1046 -1.0447 -0.2133
  957SOL    HW214508   1.257   4.001   2.977  0.7637  0.6770 -1.1705
  958SOL     OW14509   0.075   1.663   6.494 -0.2173  0.0046 -0.1134
  958SOL    HW114510   0.070   1.754   6.524 -0.9221 -0.1336  0.1958
  958SOL    HW214511   0.159   1.625   6.516 -0.3922 -2.1191 -3.1590
  959SOL     OW14512   1.816   2.488   1.900 -0.0087 -0.2907 -0.5461
  959SOL    HW114513   1.753   2.533   1.955  0.6130 -1.4368  1.1215
  959SOL    HW214514   1.768   2.409   1.874 -0.2777 -0.5590  0.7355
  960SOL     OW14515   0.951   2.557   9.513  0.1485  0.3328  0.1650
  960SOL    HW114516   0.859   2.547   9.487  0.4269  0.9969 -1.0989
  960SOL    HW214517   0.973   2.636   9.464 -2.9179  0.6901 -0.6970
  961SOL     OW14518   1.229   1.231   7.020 -0.0832 -0.0324  0.2127
  961SOL    HW114519   1.257   1.176   7.093  1.1453  0.4274  0.0869
  961SOL    HW214520   1.142   1.264   7.041 -0.2024 -1.5546  2.0487
  962SOL     OW14521   0.817   4.412  17.369  0.5824  0.3942  0.3176
  962SOL    HW114522   0.799   4.501  17.341 -0.5576 -0.2963 -1.1159
  962SOL    HW214523   0.912   4.414  17.384  0.8120  1.5832 -1.4016
  963SOL     OW14524   0.908   2.292   3.972  0.2854 -0.2082  0.5947
  963SOL    HW114525   0.949   2.348   3.907  1.0065 -1.1002  0.2824
  963SOL    HW214526   0.876   2.364   4.027  0.6538 -2.0539  3.2270
  964SOL     OW14527   3.806   0.987   4.704  0.4920  0.2501  0.5993
  964SOL    HW114528   3.847   0.975   4.619 -1.5775 -0.3585 -0.2952
  964SOL    HW214529   3.841   1.076   4.717 -0.3965  0.3951  2.0537
  965SOL     OW14530   2.356   0.523  16.711 -0.3862  0.4741  0.5151
  965SOL    HW114531   2.409   0.603  16.713  0.0881  0.1580  0.6713
  965SOL    HW214532   2.273   0.572  16.713  0.3093  1.7319 -1.4605
  966SOL     OW14533   3.458   3.626   2.356 -0.0372  0.4516 -0.1040
  966SOL    HW114534   3.483   3.586   2.440 -0.2883 -1.3836 -0.8879
  966SOL    HW214535   3.423   3.712   2.379  1.7969  0.4841  2.6542
  967SOL     OW14536   3.200   0.611  13.257 -0.4166 -0.5983 -0.0564
  967SOL    HW114537   3.170   0.528  13.220 -1.0059 -0.3929 -0.0366
  967SOL    HW214538   3.114   0.644  13.283  0.3265  2.3309 -1.3411
  968SOL     OW14539   0.981   4.609   6.288 -0.1333  0.1275 -0.5907
  968SOL    HW114540   0.923   4.620   6.363  0.7724 -2.9888  0.5693
  968SOL    HW214541   1.007   4.517   6.292 -0.1859  0.1111 -0.6306
  969SOL     OW14542   0.578   2.251   6.881  0.5897 -0.3037  0.2792
  969SOL    HW114543   0.651   2.189   6.868 -0.5026 -1.1236 -1.9198
  969SOL    HW214544   0.610   2.309   6.950  1.9430 -1.7900  0.9165
  970SOL     OW14545   3.587   3.420   1.694 -0.8832  0.0897  0.1044
  970SOL    HW114546   3.606   3.365   1.770  1.2062 -1.1227 -1.3045
  970SOL    HW214547   3.629   3.364   1.628  0.6944  1.0746  0.2777
  971SOL     OW14548   4.447   0.333   9.812  0.7782 -0.3999 -0.3022
  971SOL    HW114549   4.410   0.246   9.819  2.6214 -1.1300  0.5224
  971SOL    HW214550   4.507   0.327   9.737  0.3127 -1.1488 -0.6132
  972SOL     OW14551   1.847   3.408   6.355 -0.2956  0.3378 -0.2501
  972SOL    HW114552   1.907   3.439   6.423  0.5326 -0.0009 -0.8240
  972SOL    HW214553   1.764   3.436   6.392 -0.3592 -0.5359  0.2858
  973SOL     OW14554   4.462   0.211  16.277  0.9205 -0.0366  0.7445
  973SOL    HW114555   4.417   0.189  16.196  0.7981 -0.4233  0.9206
  973SOL    HW214556   4.406   0.283  16.308  0.2969 -0.7428  1.2487
  974SOL     OW14557   2.404   0.733   1.745 -0.2547 -0.1770 -0.2379
  974SOL    HW114558   2.319   0.777   1.733 -0.3990 -0.5480 -0.6037
  974SOL    HW214559   2.404   0.707   1.653  3.3729  0.8048 -0.5187
  975SOL     OW14560   1.776   1.660   7.816  0.1650  0.9242 -0.4614
  975SOL    HW114561   1.830   1.583   7.797 -1.2265  0.0489 -0.8610
  975SOL    HW214562   1.845   1.726   7.807  0.1257  1.1094  0.5508
  976SOL     OW14563   2.215   4.679   5.046 -0.0034 -0.4795  0.2726
  976SOL    HW114564   2.242   4.588   5.057  2.9907  0.6311  2.3173
  976SOL    HW214565   2.231   4.720   5.131  0.2392 -0.8157  0.3888
  977SOL     OW14566   4.281   2.054   0.595  0.5078  0.1575  0.3989
  977SOL    HW114567   4.356   2.067   0.653  0.3340  0.7936  0.4914
  977SOL    HW214568   4.322   2.079   0.513  1.4081 -0.6128  0.6091
  978SOL     OW14569   1.028   4.199  16.536 -0.1262  0.2278  0.4047
  978SOL    HW114570   0.934   4.189  16.553 -0.1211 -1.6324 -0.6301
  978SOL    HW214571   1.064   4.205  16.624 -1.4410 -0.3244  0.9732
  979SOL     OW14572   3.475   2.788   4.331  0.2907 -0.0589 -0.2127
  979SOL    HW114573   3.472   2.777   4.426 -2.2756 -1.3333 -0.4216
  979SOL    HW214574   3.384   2.798   4.302  0.3448 -0.3908 -0.5122
  980SOL     OW14575   3.849   2.620   8.790 -0.1713  0.0999  0.2529
  980SOL    HW114576   3.847   2.538   8.840  0.4372 -0.5528 -0.8024
  980SOL    HW214577   3.760   2.655   8.785 -0.2885 -0.4554 -1.5171
  981SOL     OW14578   4.398   4.038   1.354  0.4107 -0.4290 -0.1756
  981SOL    HW114579   4.336   4.061   1.423 -0.9022  0.5144 -1.6576
  981SOL    HW214580   4.483   4.038   1.398 -0.1372 -0.4611  0.8911
  982SOL     OW14581   0.051   3.876   8.159 -0.0833 -0.4620  0.2045
  982SOL    HW114582   0.108   3.937   8.206  1.3307 -1.4478 -0.2407
  982SOL    HW214583   0.105   3.835   8.092 -2.0716 -1.3676 -0.8497
  983SOL     OW14584   0.640   0.449   4.674 -0.0479 -0.2049  0.3214
  983SOL    HW114585   0.637   0.521   4.611  2.5973 -0.1931  0.2229
  983SOL    HW214586   0.734   0.433   4.676 -0.4368 -2.2371  2.6732
  984SOL     OW14587   3.778   4.555   6.822 -0.1497  0.3351 -0.3012
  984SOL    HW114588   3.781   4.625   6.758 -2.7523  0.0123 -0.7765
  984SOL    HW214589   3.778   4.598   6.908 -1.7297  1.6379 -0.9508
  985SOL     OW14590   4.499   1.608   4.749 -0.3483  0.6804 -0.0203
  985SOL    HW114591   4.502   1.701   4.727  1.4641  0.2243 -1.6740
  985SOL    HW214592   4.475   1.571   4.664 -0.2644 -0.9918  0.6909
  986SOL     OW14593   1.801   1.933   1.812  0.1035 -0.5840 -0.1643
  986SOL    HW114594   1.734   1.866   1.798 -0.1905 -0.4518  0.6261
  986SOL    HW214595   1.873   1.886   1.770 -1.7896 -2.4217 -1.3924
  987SOL     OW14596   4.524   2.270   1.570  0.2638 -0.0491 -0.1093
  987SOL    HW114597   4.500   2.238   1.483 -0.8200  0.3093  0.0563
  987SOL    HW214598   4.464   2.345   1.573 -0.6711 -0.8494  1.1258
  988SOL     OW14599   0.778   4.557   3.284 -0.6457  0.0579 -0.3567
  988SOL    HW114600   0.687   4.579   3.305 -1.0251 -1.5577 -0.3070
  988SOL    HW214601   0.766   4.483   3.224 -2.5436  1.7333 -2.0520
  989SOL     OW14602   3.984   3.074   5.304  0.0229  0.0186  0.4482
  989SOL    HW114603   4.065   3.112   5.271 -0.1657 -0.4131 -0.4988
  989SOL    HW214604   3.978   3.011   5.232  0.2382  2.0469 -1.3243
  990SOL     OW14605   0.718   4.697   2.475 -0.3105  0.2585  0.0018
  990SOL    HW114606   0.761   0.040   2.496 -0.4091  0.2357  0.2981
  990SOL    HW214607   0.764   4.630   2.525  0.8592  0.7734 -0.3771
  991SOL     OW14608   2.394   3.549   3.891  0.4570 -0.6116 -0.2486
  991SOL    HW114609   2.413   3.527   3.982  2.2673  0.1338 -0.4491
  991SOL    HW214610   2.363   3.639   3.905 -1.2166 -1.0239 -1.3180
  992SOL     OW14611   3.075   0.696   3.820 -0.6132 -0.1806  0.2774
  992SOL    HW114612   3.116   0.645   3.890 -0.6472  0.5474  0.8249
  992SOL    HW214613   3.134   0.771   3.813  1.0471 -1.4574  0.7454
  993SOL     OW14614   4.310   3.753  12.904 -0.9636  0.4530 -0.1198
  993SOL    HW114615   4.311   3.694  12.829 -0.7331  1.7346 -1.1209
  993SOL    HW214616   4.216   3.757  12.920 -1.1459  2.0000 -1.5843
  994SOL     OW14617   3.798   2.230  14.248 -0.1035  0.3338 -0.3523
  994SOL    HW114618   3.860   2.302  14.252  0.5816 -0.3280  0.9745
  994SOL    HW214619   3.778   2.234  14.154 -0.8200 -1.9496 -0.3063
  995SOL     OW14620   0.630   3.942   4.306 -0.1533  0.6674  0.2951
  995SOL    HW114621   0.613   4.034   4.283  0.8189  0.7752 -0.0032
  995SOL    HW214622   0.588   3.889   4.238  0.8757  0.2294  0.0050
  996SOL     OW14623   1.542   4.504   5.376 -0.1700  0.3866 -0.2435
  996SOL    HW114624   1.537   4.434   5.312 -0.5793  0.0604  0.1469
  996SOL    HW214625   1.593   4.573   5.333 -0.0343  0.1618 -0.4422
  997SOL     OW14626   0.270   0.323  17.753  0.2851 -0.2648  0.4220
  997SOL    HW114627   0.221   0.290   0.072 -1.2999  0.3223 -0.3406
  997SOL    HW214628   0.204   0.338  17.684  0.4502 -1.3577  0.0245
  998SOL     OW14629   1.704   1.476   4.291 -0.9042 -0.2834  0.5236
  998SOL    HW114630   1.645   1.450   4.220  0.0057 -3.3338  0.8677
  998SOL    HW214631   1.676   1.566   4.300 -0.3747  0.0938 -1.4996
  999SOL     OW14632   2.578   0.717  13.532  0.0929  0.1233 -0.1584
  999SOL    HW114633   2.583   0.628  13.566 -3.5710 -0.1878 -0.4022
  999SOL    HW214634   2.656   0.713  13.477  1.0273 -0.6356  1.2147
 1000SOL     OW14635   2.430   2.083   9.045 -0.9261 -0.6133  0.1638
 1000SOL    HW114636   2.467   2.074   8.957  0.1388  1.1899  0.4324
 1000SOL    HW214637   2.508   2.087   9.101 -0.1478  1.6528 -1.1061
 1001SOL     OW14638   3.552   0.971  10.179 -0.2500 -0.4280 -0.1696
 1001SOL    HW114639   3.587   1.029  10.112  1.2782 -1.4212 -0.2388
 1001SOL    HW214640   3.575   1.006  10.265  0.6987 -2.4526  0.4061
 1002SOL     OW14641   4.556   0.806  16.381 -0.4749 -0.0135  0.1306
 1002SOL    HW114642   4.495   0.859  16.329 -0.6200  1.4570  1.8160
 1002SOL    HW214643   4.558   0.723  16.333  0.8726 -0.1873  0.4970
 1003SOL     OW14644   1.359   0.231   4.658  0.1762 -0.1429  0.0421
 1003SOL    HW114645   1.441   0.280   4.655  1.6454 -2.6597 -0.7064
 1003SOL    HW214646   1.342   0.243   4.751  0.1983  0.5779 -0.0436
 1004SOL     OW14647   3.636   1.142  12.791  0.2146 -0.0951  0.7725
 1004SOL    HW114648   3.712   1.133  12.733 -0.6121  2.4994 -0.7446
 1004SOL    HW214649   3.597   1.218  12.748  0.8278 -0.6809 -0.8114
 1005SOL     OW14650   2.417   3.615   3.144 -0.0398  0.4531 -0.4544
 1005SOL    HW114651   2.495   3.611   3.088  1.4347  1.4125  1.5651
 1005SOL    HW214652   2.457   3.646   3.225  1.6380  1.0657 -1.5107
 1006SOL     OW14653   1.745   1.962   8.357  0.0765  0.3858  0.4047
 1006SOL    HW114654   1.684   1.896   8.325 -2.4742  2.0770  1.7604
 1006SOL    HW214655   1.792   1.911   8.424  4.3940  2.0044 -1.3725
 1007SOL     OW14656   2.700   2.522  10.644 -0.3726 -0.5486 -0.1947
 1007SOL    HW114657   2.755   2.526  10.722  0.1414 -1.1485 -0.5267
 1007SOL    HW214658   2.652   2.605  10.639  0.1841 -0.2319 -0.2678
 1008SOL     OW14659   0.087   4.693   2.175 -0.4118  0.0431 -0.2943
 1008SOL    HW114660   0.048   4.617   2.132 -3.1314  1.7231 -0.8015
 1008SOL    HW214661   0.140   4.656   2.245  0.0771  1.9606  0.3362
 1009SOL     OW14662   4.204   1.837   8.107  0.4487  0.2800 -0.1303
 1009SOL    HW114663   4.165   1.796   8.030 -0.9667 -0.4812  0.9899
 1009SOL    HW214664   4.170   1.769   8.166  0.8435  0.5129  0.3756
 1010SOL     OW14665   2.524   1.749   8.898 -0.5523  0.0354 -0.7105
 1010SOL    HW114666   2.551   1.691   8.970 -1.3945  1.3849  0.6845
 1010SOL    HW214667   2.505   1.682   8.832 -0.2586 -0.9460  0.2005
 1011SOL     OW14668   3.071   1.080  12.564  0.3797 -0.4797  0.3899
 1011SOL    HW114669   3.057   0.995  12.522  1.3714 -0.4587  0.0210
 1011SOL    HW214670   3.092   1.138  12.491 -0.1082 -0.3054  0.3897
 1012SOL     OW14671   2.021   1.561   8.697  0.0215 -0.0821  0.7267
 1012SOL    HW114672   1.965   1.586   8.771 -0.3565 -1.6311  0.9654
 1012SOL    HW214673   1.964   1.507   8.642  0.7362  0.1672 -0.2517
 1013SOL     OW14674   2.524   2.871   3.117  0.8251  0.7095  0.1056
 1013SOL    HW114675   2.468   2.941   3.084  0.4484  0.3857  0.0544
 1013SOL    HW214676   2.615   2.894   3.095  0.8911  0.2010 -0.1485
 1014SOL     OW14677   3.308   0.850  14.974  0.1853 -0.1344  0.1498
 1014SOL    HW114678   3.339   0.856  15.065  1.7546  0.2258 -0.4007
 1014SOL    HW214679   3.284   0.941  14.958 -0.4531 -0.5850 -1.4667
 1015SOL     OW14680   4.195   0.430  17.085 -0.4902  0.3564  0.2714
 1015SOL    HW114681   4.142   0.401  17.011  0.2478  2.2402 -1.0066
 1015SOL    HW214682   4.182   0.525  17.078  0.5315  0.4976  0.3281
 1016SOL     OW14683   2.226   4.237   7.295 -0.6698  0.4880 -0.0850
 1016SOL    HW114684   2.230   4.197   7.382  0.7878 -3.8249 -2.1403
 1016SOL    HW214685   2.159   4.188   7.247 -0.4584 -0.9561  1.0843
 1017SOL     OW14686   2.548   3.711   2.182  0.1280 -0.0676  0.1931
 1017SOL    HW114687   2.628   3.719   2.235  0.5416  0.5585 -0.5224
 1017SOL    HW214688   2.558   3.792   2.133 -0.3099 -1.0485 -1.5010
 1018SOL     OW14689   0.349   2.724   4.113  0.6521 -0.0230  0.2826
 1018SOL    HW114690   0.357   2.764   4.027 -0.0773 -0.7862 -0.1359
 1018SOL    HW214691   0.442   2.720   4.136  0.8183  0.5719 -0.2845
 1019SOL     OW14692   2.331   0.101  11.500  0.0729 -0.3376 -0.6727
 1019SOL    HW114693   2.395   0.032  11.484 -1.1031 -1.5411 -0.1626
 1019SOL    HW214694   2.397   0.171  11.507 -1.1745  0.7055  0.8348
 1020SOL     OW14695   4.690   1.152   7.319  0.6835  0.4196 -0.0025
 1020SOL    HW114696   4.705   1.107   7.236 -2.2132  2.5875 -1.6969
 1020SOL    HW214697   0.011   1.226   7.316  2.0578 -0.7385 -0.7283
 1021SOL     OW14698   3.667   3.855   3.880  0.5851  0.0759 -0.0452
 1021SOL    HW114699   3.605   3.919   3.844  1.2111  1.0050  0.5221
 1021SOL    HW214700   3.753   3.877   3.845 -0.2304  1.3202 -1.2428
 1022SOL     OW14701   4.368   2.033   7.021 -0.2133  0.6550  0.7733
 1022SOL    HW114702   4.339   2.051   7.110  1.5492 -0.1058  1.4966
 1022SOL    HW214703   4.311   2.089   6.969  0.9884 -0.2952 -1.6088
 1023SOL     OW14704   0.720   0.776   4.080 -0.0481  0.2841  0.0469
 1023SOL    HW114705   0.812   0.779   4.056  0.2434  0.2763  1.1779
 1023SOL    HW214706   0.719   0.720   4.158 -0.0268 -0.6832 -0.6475
 1024SOL     OW14707   3.130   3.593  11.559 -0.1876 -0.5757 -0.0779
 1024SOL    HW114708   3.202   3.644  11.596  2.3736 -2.3232 -2.6062
 1024SOL    HW214709   3.090   3.559  11.639  0.1567  0.7697  0.6630
 1025SOL     OW14710   3.290   3.117  11.112  0.0610  0.1438 -0.6011
 1025SOL    HW114711   3.342   3.195  11.092 -2.4980  1.7761 -0.8234
 1025SOL    HW214712   3.285   3.112  11.208  0.1587 -2.3390 -0.7166
 1026SOL     OW14713   3.126   1.966   8.722 -1.0803 -0.0155 -0.4560
 1026SOL    HW114714   3.154   1.935   8.808 -1.3410  0.1240 -0.3219
 1026SOL    HW214715   3.045   2.010   8.750 -1.1893 -0.0933 -0.6459
 1027SOL     OW14716   1.492   2.912  12.919 -0.1341 -0.2901  0.4134
 1027SOL    HW114717   1.398   2.911  12.901  0.4581 -0.5139 -2.6707
 1027SOL    HW214718   1.496   2.877  13.008  0.2621 -0.6162  0.2649
 1028SOL     OW14719   0.458   4.590   1.033 -0.5613  0.2689  0.6963
 1028SOL    HW114720   0.461   4.576   0.939  0.5372  0.7991  0.6498
 1028SOL    HW214721   0.392   4.657   1.018 -1.5855  0.0699  4.1407
 1029SOL     OW14722   2.906   0.474   5.039 -0.1634 -0.0491  0.3714
 1029SOL    HW114723   2.901   0.455   4.945  1.0913  0.5485  0.1917
 1029SOL    HW214724   2.813   0.463   5.061 -0.6224  0.4479 -1.2949
 1030SOL     OW14725   2.538   3.262  12.276 -0.3286  0.4757 -0.1172
 1030SOL    HW114726   2.525   3.292  12.186  1.7108  3.3007  0.5469
 1030SOL    HW214727   2.458   3.219  12.305  0.4566  1.0426  2.8961
 1031SOL     OW14728   0.803   0.909   2.155 -0.1808  0.1465  0.2490
 1031SOL    HW114729   0.848   0.880   2.235  0.6228  0.5813 -0.0379
 1031SOL    HW214730   0.732   0.964   2.187  0.1892  0.5757  0.3235
 1032SOL     OW14731   3.205   1.687   8.618 -0.1771  0.5126 -0.1842
 1032SOL    HW114732   3.185   1.777   8.641 -2.5022  0.3285 -1.5342
 1032SOL    HW214733   3.138   1.669   8.552 -1.1200 -0.3678  0.9966
 1033SOL     OW14734   1.872   2.373   4.199 -0.3196 -0.2224  0.2795
 1033SOL    HW114735   1.869   2.395   4.106 -0.4344 -1.3061  0.0334
 1033SOL    HW214736   1.926   2.438   4.245 -2.7094  1.3057  0.9682
 1034SOL     OW14737   1.397   1.863   6.478  0.3938  0.3796 -0.2365
 1034SOL    HW114738   1.480   1.884   6.519  0.8484 -0.6758 -0.6272
 1034SOL    HW214739   1.412   1.776   6.441 -0.4800  0.5177 -0.9266
 1035SOL     OW14740   1.743   1.749  16.566 -0.4647 -0.2131  0.1715
 1035SOL    HW114741   1.812   1.804  16.529  1.7179 -1.2506  2.6824
 1035SOL    HW214742   1.666   1.789  16.525  1.6949  1.5456 -2.2037
 1036SOL     OW14743   3.999   1.990  17.312  0.5262  0.1806  0.3259
 1036SOL    HW114744   3.922   1.945  17.346  0.2238  0.5365  0.1044
 1036SOL    HW214745   4.048   1.926  17.260 -0.5436  0.7862 -1.4169
 1037SOL     OW14746   1.712   2.335   8.598  0.7970 -0.4025 -0.2266
 1037SOL    HW114747   1.732   2.266   8.660  1.6360  0.1453  0.1051
 1037SOL    HW214748   1.653   2.287   8.540  1.5142  0.3266 -1.5488
 1038SOL     OW14749   0.509   4.738   5.124 -0.6025 -0.1320 -0.0349
 1038SOL    HW114750   0.571   4.697   5.063  0.0361 -1.8751  1.7875
 1038SOL    HW214751   0.510   4.691   5.207 -0.8886 -1.1893 -0.6183
 1039SOL     OW14752   4.330   4.409   8.297  0.6909  0.2952  0.0024
 1039SOL    HW114753   4.327   4.351   8.373 -0.0665  0.7807  0.3371
 1039SOL    HW214754   4.243   4.400   8.258 -0.3997  2.7136  1.8722
 1040SOL     OW14755   4.098   4.515   0.945 -0.0944 -0.5806 -0.7051
 1040SOL    HW114756   4.088   4.495   1.038 -0.2675 -0.3221 -0.6669
 1040SOL    HW214757   4.176   4.572   0.947 -0.3504 -0.2918  0.9711
 1041SOL     OW14758   4.556   3.206   1.678  0.2355  0.0526 -0.2404
 1041SOL    HW114759   4.528   3.277   1.736 -1.7651 -1.2589  0.3806
 1041SOL    HW214760   4.636   3.187   1.726  2.1225 -1.6670 -4.0482
 1042SOL     OW14761   2.654   0.025   4.792 -0.5357 -0.6247 -0.3684
 1042SOL    HW114762   2.606   4.738   4.871 -0.1835  1.5884  0.5988
 1042SOL    HW214763   2.605   0.010   4.711 -1.4885 -1.2230  0.3163
 1043SOL     OW14764   3.222   4.229   1.414 -0.2464 -0.3276  0.2307
 1043SOL    HW114765   3.184   4.227   1.502  1.2775  2.3721  0.9471
 1043SOL    HW214766   3.180   4.153   1.375  0.2505 -0.4532 -0.0499
 1044SOL     OW14767   0.935   0.474  11.918 -0.6065 -0.0506 -0.1344
 1044SOL    HW114768   0.968   0.385  11.907  1.6902  0.6617  1.0659
 1044SOL    HW214769   1.003   0.519  11.868 -1.0777 -0.7803 -1.4586
 1045SOL     OW14770   0.324   0.246  12.280 -0.3407  0.2459 -0.3484
 1045SOL    HW114771   0.251   0.222  12.338  1.4148 -3.2888  0.4092
 1045SOL    HW214772   0.380   0.295  12.339 -0.4758  0.9925 -0.8420
 1046SOL     OW14773   4.282   0.337   8.283  0.0847 -0.0755 -0.2501
 1046SOL    HW114774   4.208   0.376   8.237  0.9847  2.6426  0.5540
 1046SOL    HW214775   4.262   0.347   8.376 -0.3547 -2.8689 -0.0529
 1047SOL     OW14776   0.916   4.396  14.890 -0.3642 -0.4814 -0.7417
 1047SOL    HW114777   0.847   4.428  14.832 -1.9506 -1.3149  0.6884
 1047SOL    HW214778   0.897   4.434  14.976  2.6690  0.6406 -0.5630
 1048SOL     OW14779   3.818   3.863   8.284  0.3464 -0.1415  0.0758
 1048SOL    HW114780   3.907   3.871   8.317  0.9676  1.4052 -1.9392
 1048SOL    HW214781   3.840   3.842   8.193 -0.3232 -0.3988 -0.0276
 1049SOL     OW14782   0.107   3.536   3.821 -0.1701  0.1333  0.1516
 1049SOL    HW114783   0.088   3.480   3.896  1.7671 -0.4799  0.1779
 1049SOL    HW214784   0.073   3.621   3.848  0.3321  0.1499  0.7179
 1050SOL     OW14785   2.042   0.534   9.174  0.6299  0.2757  0.2476
 1050SOL    HW114786   2.127   0.493   9.192  0.8037  0.0543 -1.0752
 1050SOL    HW214787   1.990   0.492   9.242 -0.5342 -0.3255 -1.0269
 1051SOL     OW14788   2.342   2.034   2.713 -0.1618 -0.4297 -0.1275
 1051SOL    HW114789   2.277   2.003   2.775 -1.0114 -0.7658 -1.1899
 1051SOL    HW214790   2.389   1.955   2.687 -0.1810 -0.4080 -0.2264
 1052SOL     OW14791   1.642   0.213   2.644  0.0855 -0.6606 -0.2952
 1052SOL    HW114792   1.644   0.154   2.719  2.6842 -0.2944 -0.0579
 1052SOL    HW214793   1.644   0.295   2.692 -0.4953 -1.7389  1.5526
 1053SOL     OW14794   2.745   4.551  17.702 -0.6103  0.1595 -0.1344
 1053SOL    HW114795   2.786   4.555   0.033  1.4353 -1.1912 -1.0300
 1053SOL    HW214796   2.778   4.466  17.672  0.1717  0.1744  0.6853
 1054SOL     OW14797   3.758   0.679   6.209  0.2517  0.2523  0.5164
 1054SOL    HW114798   3.784   0.704   6.298 -1.8567  1.2218  0.8634
 1054SOL    HW214799   3.662   0.675   6.213  0.0909  1.7724 -2.0690
 1055SOL     OW14800   2.763   4.044  16.599  0.1173  0.1806 -0.2597
 1055SOL    HW114801   2.746   4.117  16.658  1.3227 -0.2194  0.5802
 1055SOL    HW214802   2.770   4.086  16.513 -0.2660 -2.3946 -1.5680
 1056SOL     OW14803   1.803   1.931  12.017 -0.2599 -0.6939 -0.0705
 1056SOL    HW114804   1.820   2.004  11.958  1.5983 -0.5775  0.6163
 1056SOL    HW214805   1.862   1.958  12.087  0.6745  1.6635 -1.7949
 1057SOL     OW14806   1.718   1.143   3.300 -0.3439  0.3929 -0.0540
 1057SOL    HW114807   1.638   1.195   3.296 -0.2985  0.2783 -2.1266
 1057SOL    HW214808   1.705   1.099   3.384 -0.0463  0.1414 -0.1405
 1058SOL     OW14809   2.791   3.248   5.888  0.7668  0.1048  0.4548
 1058SOL    HW114810   2.854   3.215   5.952 -1.1439 -1.0053  1.7543
 1058SOL    HW214811   2.716   3.196   5.916  0.2612  0.0438 -1.0369
 1059SOL     OW14812   1.393   3.262   8.280  0.0441 -0.2943  0.0820
 1059SOL    HW114813   1.453   3.290   8.350 -0.7423 -0.3405  0.7678
 1059SOL    HW214814   1.446   3.288   8.204  0.0770 -0.3885  0.0727
 1060SOL     OW14815   0.717   1.739  17.644 -0.2409  0.5529 -0.3164
 1060SOL    HW114816   0.806   1.753  17.678 -0.7434 -1.9650  2.0429
 1060SOL    HW214817   0.705   1.825  17.605 -1.4406  0.2519 -0.6017
 1061SOL     OW14818   1.556   2.009  16.057 -0.1231 -0.0354 -0.4354
 1061SOL    HW114819   1.466   1.980  16.042 -0.5646  1.8095 -1.2982
 1061SOL    HW214820   1.543   2.091  16.010  0.8026  0.6707  0.5274
 1062SOL     OW14821   0.887   3.570   9.722  0.1669 -0.1983  0.1039
 1062SOL    HW114822   0.924   3.651   9.757  0.1132 -0.5815  1.0441
 1062SOL    HW214823   0.880   3.603   9.632  0.2405 -1.0298 -0.2102
 1063SOL     OW14824   1.097   0.365   8.583  0.1453  0.1228  0.0239
 1063SOL    HW114825   1.100   0.460   8.574 -0.3210  0.1498  0.1592
 1063SOL    HW214826   1.057   0.340   8.500 -0.5395  1.0633  0.0773
 1064SOL     OW14827   0.800   4.002   0.021  0.4060 -0.6287 -0.0172
 1064SOL    HW114828   0.764   3.963   0.101 -2.4843 -0.9993 -1.5069
 1064SOL    HW214829   0.835   3.930  17.724  1.1964 -0.3337  0.1080
 1065SOL     OW14830   2.611   4.197   2.338 -0.6200  0.8216  0.8225
 1065SOL    HW114831   2.698   4.158   2.352 -0.0177  1.0996 -2.0008
 1065SOL    HW214832   2.565   4.171   2.417 -0.3465  2.0615  1.3936
 1066SOL     OW14833   4.695   2.427   7.660 -0.1832 -0.5176 -0.4478
 1066SOL    HW114834   0.023   2.481   7.701  0.6122 -1.5052 -0.4794
 1066SOL    HW214835   4.670   2.373   7.736 -2.1173  0.2231 -0.5653
 1067SOL     OW14836   3.546   4.281   1.663 -0.2747  0.1774  0.0146
 1067SOL    HW114837   3.609   4.352   1.660 -0.3478  0.3279  2.2161
 1067SOL    HW214838   3.494   4.319   1.734 -1.4622 -1.6737  0.1632
 1068SOL     OW14839   2.803   0.525   3.419 -0.4347  0.0527 -0.8818
 1068SOL    HW114840   2.728   0.565   3.375 -2.2287 -1.3912  0.8730
 1068SOL    HW214841   2.798   0.566   3.505 -2.0459 -0.7038 -0.6389
 1069SOL     OW14842   4.399   2.296   1.319 -0.4176 -0.0853  0.3326
 1069SOL    HW114843   4.460   2.291   1.246 -0.2350  0.0493  0.4754
 1069SOL    HW214844   4.321   2.332   1.276 -0.2822  0.6423  0.6939
 1070SOL     OW14845   2.592   1.488   7.527  0.4760  0.3776  0.4112
 1070SOL    HW114846   2.677   1.444   7.532  0.6971  0.7162 -0.3525
 1070SOL    HW214847   2.527   1.418   7.534  0.3932  0.6409  2.1652
 1071SOL     OW14848   2.527   0.328   9.433  0.4431  0.6568 -0.0909
 1071SOL    HW114849   2.563   0.292   9.352 -0.4828 -1.2811  0.3632
 1071SOL    HW214850   2.554   0.258   9.492  0.0073  0.8591  0.3453
 1072SOL     OW14851   0.239   0.982   6.470  1.2034 -0.0883 -1.1405
 1072SOL    HW114852   0.246   1.005   6.563 -0.3340 -2.2263 -0.5069
 1072SOL    HW214853   0.227   0.887   6.477  2.2166 -0.1415 -0.0082
 1073SOL     OW14854   0.687   2.953   4.023 -0.9690 -0.4764 -0.1725
 1073SOL    HW114855   0.689   3.048   4.030 -3.2253 -0.4008 -0.6177
 1073SOL    HW214856   0.640   2.936   3.941 -0.9132 -0.6498 -0.1702
 1074SOL     OW14857   4.384   1.379   2.728  0.1652 -0.5847  0.4875
 1074SOL    HW114858   4.338   1.300   2.757 -1.0868 -0.1714 -0.3588
 1074SOL    HW214859   4.403   1.353   2.638  0.6967  0.2011  0.3803
 1075SOL     OW14860   0.002   4.223   6.849  0.0658 -0.0316  0.5730
 1075SOL    HW114861   4.722   4.133   6.873 -0.6237  0.0425  0.2743
 1075SOL    HW214862   4.662   4.246   6.802 -0.4266 -0.4375  1.2056
 1076SOL     OW14863   4.630   0.138   6.509 -0.6957  0.0186 -0.2066
 1076SOL    HW114864   4.548   0.181   6.530 -0.4364 -0.3050  1.5009
 1076SOL    HW214865   4.647   0.166   6.419 -0.9524 -1.6289 -0.7758
 1077SOL     OW14866   2.904   3.688   3.296 -0.1665  0.2719 -0.3329
 1077SOL    HW114867   2.955   3.733   3.364  0.1366 -2.0464  1.0078
 1077SOL    HW214868   2.977   3.676   3.236  0.3172 -2.4909  0.8051
 1078SOL     OW14869   2.384   0.330   4.042 -0.3535  0.1844  0.3863
 1078SOL    HW114870   2.374   0.244   4.002  0.8460 -0.4152  1.3620
 1078SOL    HW214871   2.328   0.380   3.983 -3.0434 -1.3193  1.6704
 1079SOL     OW14872   0.027   1.878   5.545 -0.2007  0.5672  0.4373
 1079SOL    HW114873   0.086   1.805   5.525 -0.9942 -0.3793  1.6011
 1079SOL    HW214874   4.735   1.854   5.632  2.3988  0.1658  1.2807
 1080SOL     OW14875   0.413   0.543  14.677  0.1298 -0.1390  0.6095
 1080SOL    HW114876   0.435   0.633  14.655 -0.7928  0.6439  2.7908
 1080SOL    HW214877   0.358   0.512  14.606  1.7494 -0.5291 -0.4621
 1081SOL     OW14878   2.383   1.730   6.607  0.2915  0.4338  0.4284
 1081SOL    HW114879   2.337   1.650   6.632  3.5938 -1.8295 -0.7403
 1081SOL    HW214880   2.368   1.722   6.513 -0.7545  1.8536  0.4732
 1082SOL     OW14881   1.972   0.680   5.582 -0.0727 -0.2310 -0.4840
 1082SOL    HW114882   1.968   0.612   5.649 -0.2946  1.3999  1.1393
 1082SOL    HW214883   1.877   0.688   5.580 -0.0880 -0.6931 -2.6550
 1083SOL     OW14884   2.865   2.292  17.565 -0.4186  0.2213 -0.2209
 1083SOL    HW114885   2.899   2.210  17.532  1.5347  0.6623  0.7256
 1083SOL    HW214886   2.836   2.269  17.654  1.8537 -0.3329  0.3651
 1084SOL     OW14887   2.509   4.098  11.165  0.1677 -0.1241 -0.4070
 1084SOL    HW114888   2.579   4.160  11.143  0.1859 -0.8064 -2.2836
 1084SOL    HW214889   2.445   4.156  11.206 -0.3025 -1.9525  1.3888
 1085SOL     OW14890   1.571   1.924   1.467  0.4380 -0.7114 -0.4111
 1085SOL    HW114891   1.629   1.978   1.414  1.6017 -0.8948  0.6899
 1085SOL    HW214892   1.532   1.870   1.398  0.3502 -2.3114  0.8654
 1086SOL     OW14893   3.734   2.732   2.538 -0.1343  0.1516  0.0504
 1086SOL    HW114894   3.659   2.791   2.546  0.9372  1.5431 -0.2336
 1086SOL    HW214895   3.755   2.702   2.626  1.4762  3.2088  0.7173
 1087SOL     OW14896   0.802   4.151   9.861 -0.1981  0.5423 -0.0679
 1087SOL    HW114897   0.851   4.086   9.812 -0.9918 -0.9834  1.1710
 1087SOL    HW214898   0.707   4.145   9.852  0.2488 -1.8367 -2.9353
 1088SOL     OW14899   3.097   2.554   9.702  0.0096  0.3080 -0.4980
 1088SOL    HW114900   3.178   2.606   9.699 -0.0830  0.6530  2.8047
 1088SOL    HW214901   3.050   2.584   9.780 -0.6249 -0.3782 -0.6231
 1089SOL     OW14902   4.592   1.301   8.240  0.1547 -0.1399  0.1565
 1089SOL    HW114903   4.576   1.260   8.155  0.3896 -0.0356  0.0611
 1089SOL    HW214904   4.540   1.241   8.293 -2.3348  1.5732 -0.3775
 1090SOL     OW14905   0.158   1.840   5.927 -0.0099 -0.4589  0.1744
 1090SOL    HW114906   0.137   1.916   5.981 -1.5704  0.4563 -1.7229
 1090SOL    HW214907   0.076   1.823   5.881  0.8323 -3.8241 -0.1241
 1091SOL     OW14908   0.605   1.645   7.680 -0.1708  0.5959  0.7440
 1091SOL    HW114909   0.545   1.710   7.717 -2.7851 -1.1380 -0.4721
 1091SOL    HW214910   0.686   1.661   7.728  0.9194  1.9865 -1.5711
 1092SOL     OW14911   3.260   2.557   6.364 -0.4684 -0.0135  0.3282
 1092SOL    HW114912   3.290   2.577   6.452 -0.6780  2.0996 -0.0904
 1092SOL    HW214913   3.174   2.598   6.373  1.4476  4.1584 -0.2725
 1093SOL     OW14914   0.949   1.039   4.072 -0.5823  0.0992 -0.1841
 1093SOL    HW114915   0.964   1.074   3.984  2.7980 -3.4771 -1.0473
 1093SOL    HW214916   0.966   0.947   4.052 -0.2782  0.0460  0.3158
 1094SOL     OW14917   1.599   2.430  13.681 -0.1832  0.0930 -0.3474
 1094SOL    HW114918   1.666   2.491  13.711 -0.4259  0.1204  0.1334
 1094SOL    HW214919   1.656   2.356  13.657 -2.1298 -1.7125  0.6258
 1095SOL     OW14920   1.251   3.750   5.449  0.6718 -0.0202  0.5580
 1095SOL    HW114921   1.159   3.726   5.454  0.2173  1.7581  0.7126
 1095SOL    HW214922   1.275   3.759   5.357 -0.7258  1.5600  0.3429
 1096SOL     OW14923   0.055   3.156   1.784  0.2717 -0.8032  0.0929
 1096SOL    HW114924   0.082   3.078   1.736  1.4468 -1.6799  2.2171
 1096SOL    HW214925   0.134   3.210   1.775 -0.2978  0.2536  1.3535
 1097SOL     OW14926   1.600   1.387  11.679  0.5778 -0.2890 -0.0963
 1097SOL    HW114927   1.659   1.381  11.604 -2.9572 -0.1260 -2.8857
 1097SOL    HW214928   1.546   1.457  11.644 -0.9652 -1.0544  0.7450
 1098SOL     OW14929   2.448   1.848   4.971 -0.4727 -0.1999 -0.0933
 1098SOL    HW114930   2.420   1.771   5.019 -0.5834 -1.2721 -1.8556
 1098SOL    HW214931   2.362   1.867   4.935  0.0771  1.4129 -0.5642
 1099SOL     OW14932   1.280   1.024  16.923  0.4327 -0.2281 -0.1228
 1099SOL    HW114933   1.278   1.059  17.012  0.1960  0.2156 -0.3039
 1099SOL    HW214934   1.243   1.099  16.876 -0.2510 -0.5109 -0.0440
 1100SOL     OW14935   1.477   1.900   4.852  0.0282 -0.2746  0.0437
 1100SOL    HW114936   1.468   1.995   4.844  0.0467 -0.1789  1.2548
 1100SOL    HW214937   1.409   1.863   4.795  0.6470 -0.9775 -0.2528
 1101SOL     OW14938   0.997   0.426  14.276 -0.5324  0.6490  0.0230
 1101SOL    HW114939   1.005   0.439  14.182  1.2298  1.2402  0.2594
 1101SOL    HW214940   0.906   0.455  14.280  0.7954  4.6746  0.1079
 1102SOL     OW14941   2.839   3.957   3.222  0.0562  0.1398 -0.1757
 1102SOL    HW114942   2.817   3.865   3.236 -1.2596  0.6254  1.0228
 1102SOL    HW214943   2.875   3.953   3.133  0.9251  1.3628  0.1254
 1103SOL     OW14944   0.048   2.451   4.064 -0.1811 -0.0880  0.0816
 1103SOL    HW114945   0.089   2.366   4.048  0.8658  0.6588 -1.1920
 1103SOL    HW214946   0.010   2.473   3.978  1.3566 -1.3548 -0.9230
 1104SOL     OW14947   2.595   0.043   1.208  0.1894  0.3981 -0.1009
 1104SOL    HW114948   2.538   0.109   1.167  0.2486 -0.8659 -2.2340
 1104SOL    HW214949   2.627   4.731   1.134 -0.1626  1.7706 -1.2257
 1105SOL     OW14950   2.026   1.212   6.990  0.3603 -0.1202  0.0399
 1105SOL    HW114951   2.053   1.241   7.077  2.2465 -0.5589 -0.3888
 1105SOL    HW214952   1.941   1.256   6.982  0.2302 -0.4101 -0.1879
 1106SOL     OW14953   3.712   1.394   8.463  0.4953 -0.1533  0.3562
 1106SOL    HW114954   3.637   1.438   8.423  1.3311  2.1038  1.3049
 1106SOL    HW214955   3.685   1.389   8.554 -1.1595 -0.4993 -0.1650
 1107SOL     OW14956   1.882   1.266   5.992  0.5130 -0.1536  0.4115
 1107SOL    HW114957   1.953   1.240   6.050 -0.9939 -0.4540  2.1178
 1107SOL    HW214958   1.827   1.187   5.988 -0.2885  0.4241 -0.1520
 1108SOL     OW14959   3.754   0.830   8.076  0.1508  0.0038 -0.2717
 1108SOL    HW114960   3.786   0.775   8.147  0.9973  2.6509  1.3941
 1108SOL    HW214961   3.667   0.795   8.057  0.5611 -1.6313  0.9206
 1109SOL     OW14962   3.014   1.681  17.475  0.6253 -0.1611  0.1810
 1109SOL    HW114963   3.055   1.601  17.442  1.8571 -0.4461  2.4159
 1109SOL    HW214964   3.078   1.726  17.529  3.1782 -2.7080 -0.7338
 1110SOL     OW14965   0.038   1.980   4.672 -0.0296  0.1405  0.0092
 1110SOL    HW114966   4.699   1.937   4.636  1.7482 -0.3826 -3.2860
 1110SOL    HW214967   0.007   1.990   4.762  0.5938  1.8452  0.0267
 1111SOL     OW14968   0.483   4.731   6.520  0.0428  0.6406 -0.3480
 1111SOL    HW114969   0.421   0.039   6.464 -0.4529  1.1064  0.5879
 1111SOL    HW214970   0.534   0.066   6.553 -0.0170  0.7714 -0.5519
 1112SOL     OW14971   1.127   1.621   6.245 -0.3960 -0.0383 -0.1445
 1112SOL    HW114972   1.201   1.636   6.186 -0.9980 -0.4439 -1.0069
 1112SOL    HW214973   1.058   1.653   6.187 -2.4805  1.1458  3.0021
 1113SOL     OW14974   0.855   3.657   1.703 -0.0718  0.1161  0.2445
 1113SOL    HW114975   0.831   3.688   1.615  1.0989  0.1052 -0.0797
 1113SOL    HW214976   0.836   3.564   1.687  2.4208 -0.4690  0.6724
 1114SOL     OW14977   4.076   0.221  12.430 -0.0326  0.5098  0.1253
 1114SOL    HW114978   4.102   0.129  12.426  0.4831  0.7346 -1.6917
 1114SOL    HW214979   4.011   0.230  12.361  0.4323 -0.2365 -0.4159
 1115SOL     OW14980   4.510   2.337   4.458  0.3073  0.2254  0.2754
 1115SOL    HW114981   4.558   2.404   4.409 -1.4633  1.1552 -0.2306
 1115SOL    HW214982   4.424   2.380   4.466 -0.9453 -2.5982  1.8790
 1116SOL     OW14983   2.521   3.364   0.074 -0.4762 -0.6449  0.4756
 1116SOL    HW114984   2.491   3.414   0.150 -0.5228 -0.4112  0.3019
 1116SOL    HW214985   2.612   3.338   0.089  0.1690  0.8307 -0.9854
 1117SOL     OW14986   0.197   3.464   3.590 -0.2252 -0.0101  0.2225
 1117SOL    HW114987   0.162   3.453   3.679  1.8633  1.1806  1.1780
 1117SOL    HW214988   0.169   3.383   3.547 -0.4256  0.1476  0.0596
 1118SOL     OW14989   4.101   4.357  14.876  0.1334 -0.0845  0.5107
 1118SOL    HW114990   4.063   4.324  14.794 -1.9120  1.4822  0.8286
 1118SOL    HW214991   4.139   4.273  14.902  2.0616  1.3161  2.1444
 1119SOL     OW14992   0.533   0.323  11.796 -0.5791 -0.3258 -0.5673
 1119SOL    HW114993   0.517   0.283  11.881 -0.2689 -0.1676 -0.4370
 1119SOL    HW214994   0.574   0.255  11.743 -1.0089 -2.9571  2.5030
 1120SOL     OW14995   1.550   4.660   8.930 -0.8136  0.0797 -0.2007
 1120SOL    HW114996   1.551   0.012   8.958 -1.7318 -0.5646  1.9475
 1120SOL    HW214997   1.551   4.607   9.010  3.3302  0.7592  0.1961
 1121SOL     OW14998   2.099   2.656   7.022  0.0377 -0.3851  0.3967
 1121SOL    HW114999   2.097   2.668   7.117 -1.2547 -1.0128  0.4573
 1121SOL    HW215000   2.067   2.743   7.000  1.2060  0.1962  1.0380
 1122SOL     OW15001   3.983   4.136   7.853  0.0010  0.2420 -0.2564
 1122SOL    HW115002   4.039   4.205   7.817 -1.6932  0.8267 -1.7958
 1122SOL    HW215003   4.008   4.064   7.795  0.4715  1.5519 -1.6813
 1123SOL     OW15004   0.785   3.373   4.572 -0.7903  0.3875 -0.5077
 1123SOL    HW115005   0.768   3.371   4.666 -0.9348  0.5170 -0.5324
 1123SOL    HW215006   0.734   3.300   4.537  2.1544 -1.1027 -1.7060
 1124SOL     OW15007   3.481   3.697   3.607  0.1499  0.0696  0.1903
 1124SOL    HW115008   3.410   3.642   3.575 -0.7286  2.3584 -1.7742
 1124SOL    HW215009   3.466   3.697   3.702 -1.4394  1.7255 -0.0511
 1125SOL     OW15010   2.249   2.309   2.589 -0.3673  0.2342  0.6565
 1125SOL    HW115011   2.292   2.232   2.553  1.8254  0.5222  2.5967
 1125SOL    HW215012   2.275   2.374   2.523 -0.9825  2.3335  2.4606
 1126SOL     OW15013   1.685   0.170  15.404  0.2539 -0.5807  0.1665
 1126SOL    HW115014   1.600   0.139  15.371 -0.9211  1.2967  1.4567
 1126SOL    HW215015   1.703   0.102  15.469 -1.3991 -1.1356  0.0454
 1127SOL     OW15016   3.632   1.069  13.300 -0.0364  0.0621 -0.9118
 1127SOL    HW115017   3.665   1.082  13.212  0.3431 -1.0383 -0.9275
 1127SOL    HW215018   3.543   1.100  13.285  0.5731  1.8048 -0.9137
 1128SOL     OW15019   3.781   1.379   7.333 -0.0959 -0.1926 -0.3378
 1128SOL    HW115020   3.725   1.380   7.411  0.5650 -0.6745  0.1395
 1128SOL    HW215021   3.726   1.420   7.265 -0.0341  3.1852  1.6410
 1129SOL     OW15022   2.900   1.533   7.518  0.6618 -0.4368 -0.3951
 1129SOL    HW115023   2.886   1.606   7.458 -1.8471  0.2020  0.9997
 1129SOL    HW215024   2.991   1.554   7.543  0.7011  0.2739 -1.1076
 1130SOL     OW15025   1.336   1.857   2.305 -0.1584  0.4289  0.0088
 1130SOL    HW115026   1.328   1.944   2.346  0.6250  0.0417  0.9726
 1130SOL    HW215027   1.299   1.793   2.366  0.2618 -0.2085 -0.4164
 1131SOL     OW15028   2.061   4.320  16.316  0.3566  0.9300 -0.4014
 1131SOL    HW115029   2.108   4.260  16.373 -0.1252 -0.3838 -1.4051
 1131SOL    HW215030   2.004   4.258  16.271 -1.3654  0.8608  1.8742
 1132SOL     OW15031   3.827   3.969   7.185 -0.4259  0.3252  0.3396
 1132SOL    HW115032   3.861   4.015   7.262  1.1039 -1.2366  0.5831
 1132SOL    HW215033   3.897   3.998   7.127 -1.4277 -0.1507 -1.0906
 1133SOL     OW15034   0.160   3.582   7.392  0.1523  0.9725  0.4841
 1133SOL    HW115035   0.153   3.581   7.487 -0.1656 -0.5625  0.4499
 1133SOL    HW215036   0.133   3.673   7.381 -0.9372  1.1542  4.6386
 1134SOL     OW15037   3.575   2.603  16.719  0.7855  0.4264  0.7452
 1134SOL    HW115038   3.664   2.637  16.727  0.5820  0.7665  1.5013
 1134SOL    HW215039   3.534   2.630  16.801  0.6582 -0.6367  1.0376
 1135SOL     OW15040   1.177   2.305   1.936 -0.3580 -0.3881 -0.4841
 1135SOL    HW115041   1.141   2.296   1.847 -0.4308  0.9062 -0.5853
 1135SOL    HW215042   1.138   2.387   1.964 -0.6516  0.3255 -2.9633
 1136SOL     OW15043   2.913   0.967  11.447  0.4898 -0.5568  0.5103
 1136SOL    HW115044   2.994   0.997  11.490  1.7197  1.1489 -2.9294
 1136SOL    HW215045   2.905   1.039  11.384  1.8149 -0.5491  0.3296
 1137SOL     OW15046   2.921   4.234  10.514  0.2337 -0.0807 -0.3317
 1137SOL    HW115047   2.893   4.168  10.451 -1.0529 -0.2196  0.3676
 1137SOL    HW215048   2.945   4.305  10.455  1.2302 -1.8868 -2.0836
 1138SOL     OW15049   1.135   4.378   0.359  0.2408  0.2763  0.1894
 1138SOL    HW115050   1.124   4.336   0.444  0.5926 -0.5783 -0.1961
 1138SOL    HW215051   1.193   4.311   0.324  0.3677  0.1761  0.5912
 1139SOL     OW15052   0.367   1.132   5.666 -0.4713  0.5502 -0.3207
 1139SOL    HW115053   0.323   1.115   5.749 -2.3103  0.3699 -1.3311
 1139SOL    HW215054   0.450   1.094   5.694 -0.7225  0.2450 -0.0017
 1140SOL     OW15055   1.201   1.249   4.176 -0.3583 -0.1872 -0.5957
 1140SOL    HW115056   1.176   1.331   4.220 -0.4249 -0.3954 -0.2514
 1140SOL    HW215057   1.135   1.190   4.211 -2.0214  1.9687 -0.0598
 1141SOL     OW15058   3.256   3.485  11.152 -0.2481 -0.3075 -0.4254
 1141SOL    HW115059   3.197   3.556  11.178 -0.1653 -0.4672  0.1761
 1141SOL    HW215060   3.287   3.513  11.065 -1.3213  1.1596 -0.3487
 1142SOL     OW15061   4.309   4.347  11.018  0.2691  0.5308 -0.0068
 1142SOL    HW115062   4.239   4.401  11.055  1.9304  1.8472  1.2317
 1142SOL    HW215063   4.336   4.398  10.942  0.4885  1.0243  0.3974
 1143SOL     OW15064   4.482   1.322   5.444 -0.1144  0.3814 -0.0450
 1143SOL    HW115065   4.410   1.379   5.470 -1.5129 -0.7119 -1.4677
 1143SOL    HW215066   4.527   1.369   5.374 -1.1404 -0.6254 -1.3808
 1144SOL     OW15067   3.164   4.147   1.987 -0.7694 -0.1521 -0.8097
 1144SOL    HW115068   3.101   4.106   1.928 -0.7582 -0.9482 -0.2580
 1144SOL    HW215069   3.233   4.081   1.986  0.2327  0.8491  4.5522
 1145SOL     OW15070   2.322   0.311   7.787  0.4825 -0.8086 -0.7528
 1145SOL    HW115071   2.401   0.259   7.774  1.3962  0.3043  0.3606
 1145SOL    HW215072   2.295   0.343   7.701  1.6570  0.2946 -0.7204
 1146SOL     OW15073   3.323   4.477   3.627  0.1716  0.1109  0.3659
 1146SOL    HW115074   3.359   4.390   3.607  0.2003  0.3347 -0.5629
 1146SOL    HW215075   3.233   4.457   3.654 -0.6624  2.8966 -0.3959
 1147SOL     OW15076   1.570   4.240   7.903 -0.2039  0.4068 -0.1595
 1147SOL    HW115077   1.626   4.177   7.857  0.8051 -0.0968  1.7480
 1147SOL    HW215078   1.515   4.267   7.829  0.5933  0.7671 -0.6245
 1148SOL     OW15079   3.491   3.561  15.886 -0.0546  0.0686 -0.2901
 1148SOL    HW115080   3.521   3.526  15.802  1.3375 -1.7232  0.9651
 1148SOL    HW215081   3.490   3.656  15.882  0.1614  0.0606 -0.5425
 1149SOL     OW15082   0.911   0.320  13.698 -0.1471 -0.0371 -0.1341
 1149SOL    HW115083   0.860   0.332  13.618 -1.3728  0.4915  0.7200
 1149SOL    HW215084   0.893   0.399  13.749  0.4562  0.5161 -0.7791
 1150SOL     OW15085   1.459   3.195   0.095 -0.3506  0.1656 -0.5182
 1150SOL    HW115086   1.383   3.251   0.077 -0.0777  0.3886 -0.9710
 1150SOL    HW215087   1.411   3.117   0.125  0.4304  1.0370  3.0296
 1151SOL     OW15088   0.743   1.270   8.870  0.1238 -0.2907  0.1090
 1151SOL    HW115089   0.710   1.231   8.789  3.0219 -1.6388 -0.4289
 1151SOL    HW215090   0.658   1.290   8.910  0.5295 -0.4131  1.0423
 1152SOL     OW15091   2.096   2.655   7.303  0.2986 -0.1105 -0.1061
 1152SOL    HW115092   2.043   2.713   7.358 -1.1504 -0.6113 -1.0025
 1152SOL    HW215093   2.186   2.674   7.333  0.3722  0.4639 -0.6996
 1153SOL     OW15094   1.015   2.427   3.577  0.0531 -0.2674  0.0967
 1153SOL    HW115095   0.985   2.490   3.642 -0.5559 -1.2092  0.7324
 1153SOL    HW215096   1.086   2.387   3.627 -0.8580 -1.1497  0.6853
 1154SOL     OW15097   3.256   4.209   9.376  0.4893 -0.1799  0.3099
 1154SOL    HW115098   3.288   4.120   9.391 -0.7124 -0.9096 -1.5461
 1154SOL    HW215099   3.238   4.223   9.283  1.7917  0.4575  0.1437
 1155SOL     OW15100   3.293   0.122   0.307  0.2702  0.2997  0.0485
 1155SOL    HW115101   3.339   0.195   0.265 -0.5530  0.9619  0.2849
 1155SOL    HW215102   3.323   0.140   0.396 -1.3835  0.5544  0.5646
 1156SOL     OW15103   3.138   0.137   8.370 -0.6156 -0.4172  0.3039
 1156SOL    HW115104   3.140   0.050   8.330  1.4021  1.1789 -3.0482
 1156SOL    HW215105   3.045   0.137   8.390 -0.6189 -0.6748  0.2908
 1157SOL     OW15106   0.706   2.659   6.774 -0.2768 -0.1446 -0.6545
 1157SOL    HW115107   0.763   2.728   6.807  1.2506 -0.7809 -1.9326
 1157SOL    HW215108   0.769   2.587   6.761  0.7831  0.6579  0.0189
 1158SOL     OW15109   0.970   1.030   2.949  0.2591  0.8751  0.1072
 1158SOL    HW115110   0.881   1.054   2.976  0.6304  1.0242  1.1842
 1158SOL    HW215111   1.025   1.037   3.027  0.4210  2.9023 -0.1894
 1159SOL     OW15112   0.784   1.315   3.913 -0.2845  0.6991  0.2434
 1159SOL    HW115113   0.770   1.372   3.838  2.9506 -1.5095 -2.0110
 1159SOL    HW215114   0.847   1.260   3.867  0.6145  2.2109 -0.3431
 1160SOL     OW15115   0.005   4.737   0.717  0.6012  0.2946  0.7005
 1160SOL    HW115116   0.026   0.036   0.631 -2.3707  0.4158  0.0143
 1160SOL    HW215117   4.698   0.070   0.759 -2.1944 -0.8569 -0.3680
 1161SOL     OW15118   2.905   2.423   9.186  0.1679  0.3505  0.3886
 1161SOL    HW115119   2.833   2.486   9.191 -0.4331 -0.3000 -0.0833
 1161SOL    HW215120   2.956   2.442   9.107 -0.1922 -0.5092 -0.0600
 1162SOL     OW15121   0.553   0.689   9.399 -0.1367  0.0953 -0.0817
 1162SOL    HW115122   0.580   0.687   9.491  3.3462  3.2416 -1.0436
 1162SOL    HW215123   0.523   0.601   9.376 -0.6170  0.2234  0.0557
 1163SOL     OW15124   0.430   0.103   2.100  0.0836  0.1046  0.0475
 1163SOL    HW115125   0.378   0.032   2.063  0.0262 -0.7849  1.8571
 1163SOL    HW215126   0.496   0.057   2.151  2.3361  0.6405 -2.3285
 1164SOL     OW15127   2.397   0.176   4.976  0.5130 -0.2853  0.1041
 1164SOL    HW115128   2.336   0.164   4.903 -0.1807  0.7911  0.5124
 1164SOL    HW215129   2.348   0.132   5.045  0.4593 -0.5675 -0.1141
 1165SOL     OW15130   2.656   0.174   8.456  0.6920 -0.2552 -0.3842
 1165SOL    HW115131   2.638   0.235   8.528  0.3599  0.6835 -1.2684
 1165SOL    HW215132   2.721   0.119   8.500  0.5808 -0.3626 -0.3512
 1166SOL     OW15133   1.637   4.175   2.481 -0.4537 -0.1893 -0.1475
 1166SOL    HW115134   1.626   4.172   2.386  1.1097  1.0152 -0.3540
 1166SOL    HW215135   1.717   4.227   2.488 -0.6009 -0.2580  1.9780
 1167SOL     OW15136   2.635   2.099   9.229 -0.7531  0.2672 -0.0424
 1167SOL    HW115137   2.696   2.055   9.171 -0.0640  0.4981  0.5066
 1167SOL    HW215138   2.679   2.075   9.311 -0.7105  1.5514  0.3110
 1168SOL     OW15139   2.006   4.537   1.637 -0.1595 -0.0410  0.1032
 1168SOL    HW115140   2.032   4.493   1.718 -0.8806  1.8602  1.3692
 1168SOL    HW215141   2.064   4.488   1.579 -0.3473 -1.9149  1.4984
 1169SOL     OW15142   3.971   0.200   9.731  0.2967  0.6233 -0.4023
 1169SOL    HW115143   4.003   0.117   9.696 -0.4114  0.3253 -0.3562
 1169SOL    HW215144   3.982   0.263   9.659 -0.1248 -0.6372 -1.5626
 1170SOL     OW15145   2.240   1.846   1.827 -0.6341 -0.1270  0.1979
 1170SOL    HW115146   2.193   1.778   1.875 -1.9713 -0.1167 -1.1116
 1170SOL    HW215147   2.166   1.876   1.774 -1.4431 -0.0637  1.3528
 1171SOL     OW15148   4.729   4.390   3.459  0.0745 -0.1244 -0.2371
 1171SOL    HW115149   0.065   4.360   3.409 -0.1467  0.1566 -0.7443
 1171SOL    HW215150   4.660   4.361   3.399  0.1153 -0.7184  0.0039
 1172SOL     OW15151   2.610   2.433   4.197  0.1419 -0.0144 -0.1809
 1172SOL    HW115152   2.570   2.453   4.282  1.9062 -1.8189  1.0717
 1172SOL    HW215153   2.540   2.379   4.159  1.5886 -1.3773 -0.8688
 1173SOL     OW15154   2.751   2.566   3.334 -0.5169 -0.5807  0.2097
 1173SOL    HW115155   2.688   2.524   3.393 -2.9466  2.7469  0.0133
 1173SOL    HW215156   2.691   2.574   3.260  3.7100 -1.5073 -3.2888
 1174SOL     OW15157   1.533   2.736   7.350  0.2723 -0.0606  0.8967
 1174SOL    HW115158   1.451   2.686   7.352  0.4193 -0.3482 -0.0418
 1174SOL    HW215159   1.536   2.759   7.257 -2.3098  1.6168  1.2426
 1175SOL     OW15160   3.560   2.052   5.285 -0.5227  0.1231 -0.1979
 1175SOL    HW115161   3.512   2.020   5.209 -1.2733  1.2840 -0.2211
 1175SOL    HW215162   3.650   2.043   5.256 -0.7201 -1.1872 -0.4208
 1176SOL     OW15163   1.630   1.314   9.982  0.2455  0.1131  0.5462
 1176SOL    HW115164   1.700   1.345   9.925  0.5789 -0.4696  0.6436
 1176SOL    HW215165   1.590   1.238   9.940  1.0836  1.1714 -2.1193
 1177SOL     OW15166   4.292   0.143   4.797  0.1232 -0.8272  0.0851
 1177SOL    HW115167   4.200   0.128   4.815  0.7824 -4.4439  0.3310
 1177SOL    HW215168   4.283   0.223   4.746 -0.4849  0.1961  1.7705
 1178SOL     OW15169   0.897   0.185   4.997 -0.6465  0.2402 -0.7433
 1178SOL    HW115170   0.821   0.241   5.012  0.8093  1.7457  1.1392
 1178SOL    HW215171   0.950   0.263   4.979 -0.5016  0.4458  0.5729
 1179SOL     OW15172   0.039   1.047   4.981  0.7076 -0.4691  0.1283
 1179SOL    HW115173   0.059   1.139   4.965  0.4870 -0.7636 -1.8924
 1179SOL    HW215174   0.097   1.002   4.920  1.2053 -0.2779  0.4577
 1180SOL     OW15175   3.648   4.357   4.979 -0.6924  0.2827 -0.6608
 1180SOL    HW115176   3.604   4.441   4.992 -1.3622 -0.1809  0.0529
 1180SOL    HW215177   3.734   4.393   4.956  0.5328 -0.1040  3.3156
 1181SOL     OW15178   3.699   2.566   6.529 -0.3836  0.1143  0.0141
 1181SOL    HW115179   3.660   2.482   6.555 -1.6911  0.5159 -0.6294
 1181SOL    HW215180   3.671   2.570   6.438  0.9833 -1.6514 -0.4852
 1182SOL     OW15181   1.149   1.282   8.029  0.0427  0.6629  0.9861
 1182SOL    HW115182   1.055   1.260   8.030  0.0384  0.6628 -0.0075
 1182SOL    HW215183   1.185   1.203   7.989  0.0006  0.3834  1.4999
 1183SOL     OW15184   3.406   2.414   3.633 -0.3683 -0.4471  0.5008
 1183SOL    HW115185   3.311   2.422   3.644 -0.2753  0.8868  0.3936
 1183SOL    HW215186   3.411   2.429   3.538  0.3975 -0.5692  0.5284
 1184SOL     OW15187   0.836   0.084  11.172  0.0864 -0.4931  0.6106
 1184SOL    HW115188   0.879   0.069  11.088 -0.5276  0.0670  0.1945
 1184SOL    HW215189   0.879   0.164  11.203 -0.1403 -0.1085 -0.0647
 1185SOL     OW15190   1.035   3.430   2.999  0.4199  0.9311  0.4512
 1185SOL    HW115191   1.106   3.495   3.002 -0.3646  1.8634 -0.8880
 1185SOL    HW215192   1.012   3.433   3.091 -0.0034 -0.2441  0.3777
 1186SOL     OW15193   3.894   2.227  11.629  0.1479 -0.1478 -0.0480
 1186SOL    HW115194   3.925   2.280  11.703  0.8510  2.3657 -2.1529
 1186SOL    HW215195   3.859   2.291  11.568  1.7976  0.4150 -0.4134
 1187SOL     OW15196   0.491   1.531  12.449  0.2590 -0.1448 -0.1222
 1187SOL    HW115197   0.554   1.519  12.378 -0.3743 -0.0510 -0.7104
 1187SOL    HW215198   0.416   1.563  12.398  0.5185  1.5241  0.5577
 1188SOL     OW15199   1.307   0.206   7.716  0.0746 -0.7468 -0.0054
 1188SOL    HW115200   1.248   0.142   7.677  0.3499  0.8375 -3.0029
 1188SOL    HW215201   1.257   0.287   7.704  1.9016  0.3630 -0.1655
 1189SOL     OW15202   0.099   3.499   8.022  0.1093  0.3448 -0.3213
 1189SOL    HW115203   0.036   3.462   8.084 -0.0879  2.9969  1.0426
 1189SOL    HW215204   0.183   3.488   8.065 -0.9631 -1.4366  1.3128
 1190SOL     OW15205   3.373   2.502  12.822 -0.0574 -0.1446  0.0541
 1190SOL    HW115206   3.300   2.521  12.882  0.1251  0.1885  0.1714
 1190SOL    HW215207   3.350   2.410  12.805 -4.0828  1.3115 -2.2749
 1191SOL     OW15208   1.323   3.822   2.173 -0.5222 -0.1394  0.1838
 1191SOL    HW115209   1.264   3.762   2.127 -3.0697  2.6008 -0.1579
 1191SOL    HW215210   1.378   3.847   2.099 -1.5162  1.1076 -0.1473
 1192SOL     OW15211   1.999   2.053   4.240 -0.2631 -0.3410  0.2222
 1192SOL    HW115212   1.965   2.015   4.159  2.4360  1.1415 -1.5918
 1192SOL    HW215213   1.972   1.978   4.292  0.5534 -1.0059 -0.3117
 1193SOL     OW15214   4.716   2.910   7.089  0.2071  0.6060  0.1007
 1193SOL    HW115215   4.729   2.876   7.177 -1.7857 -1.2461 -0.3118
 1193SOL    HW215216   0.067   2.933   7.068  0.0005  1.1685 -0.1929
 1194SOL     OW15217   0.422   1.408  13.780 -0.0592  0.1998 -0.3724
 1194SOL    HW115218   0.459   1.496  13.794  3.5885 -1.4423  0.3941
 1194SOL    HW215219   0.360   1.400  13.852 -0.6588 -0.5650 -0.9796
 1195SOL     OW15220   2.468   1.415   5.182 -0.7233  0.1285  0.0080
 1195SOL    HW115221   2.431   1.327   5.188 -1.0710  0.4489  2.4533
 1195SOL    HW215222   2.402   1.475   5.216  0.1792  1.6859 -0.9527
 1196SOL     OW15223   0.318   0.840   7.225  0.8418 -0.5098  0.3188
 1196SOL    HW115224   0.352   0.826   7.137  0.5842 -1.5895  0.3881
 1196SOL    HW215225   0.231   0.800   7.218  1.0435 -1.1314  1.3661
 1197SOL     OW15226   2.287   2.101  11.957  0.6474 -0.6183  0.0524
 1197SOL    HW115227   2.240   2.180  11.932  1.0347 -0.4357 -0.0920
 1197SOL    HW215228   2.345   2.097  11.881 -1.5899 -1.8317 -1.6034
 1198SOL     OW15229   1.787   2.834   7.073  0.3751  0.6915 -0.0896
 1198SOL    HW115230   1.762   2.744   7.094 -0.6886  0.4564 -2.3527
 1198SOL    HW215231   1.765   2.832   6.979 -4.4790  1.5091  1.0367
 1199SOL     OW15232   1.449   2.173   1.008 -0.5146  0.6708  0.2085
 1199SOL    HW115233   1.490   2.211   1.086 -0.3567  0.4925  0.2131
 1199SOL    HW215234   1.449   2.239   0.939 -0.1745 -0.0928 -0.5182
 1200SOL     OW15235   1.037   3.890   4.939 -0.2823  0.4550 -0.2858
 1200SOL    HW115236   1.111   3.941   4.972 -2.1680  2.8788  0.1590
 1200SOL    HW215237   1.089   3.821   4.897 -0.9633  0.5533 -1.2888
 1201SOL     OW15238   1.913   1.194   8.352  0.2017 -0.0932 -0.4242
 1201SOL    HW115239   1.921   1.279   8.396 -0.7390  0.3040 -1.0145
 1201SOL    HW215240   1.848   1.219   8.287  0.0389 -0.8096 -0.5304
 1202SOL     OW15241   0.869   1.838  11.992 -0.2183 -0.4770  0.3407
 1202SOL    HW115242   0.834   1.887  11.917 -1.4401  0.5185  1.5656
 1202SOL    HW215243   0.797   1.830  12.054 -1.2534 -3.6599 -1.2534
 1203SOL     OW15244   1.959   3.304   6.816 -0.0278  0.8667 -0.1410
 1203SOL    HW115245   1.967   3.380   6.873  1.7862  0.3591  0.2863
 1203SOL    HW215246   2.051   3.289   6.794 -0.6281 -2.2348 -0.5943
 1204SOL     OW15247   2.782   3.594   4.124 -0.3425  0.0316 -0.0738
 1204SOL    HW115248   2.868   3.552   4.119 -0.2642  0.1933 -0.1016
 1204SOL    HW215249   2.749   3.590   4.034 -2.6213  2.1803  0.6406
 1205SOL     OW15250   0.911   4.171  14.310 -0.1270 -0.1411  0.5381
 1205SOL    HW115251   0.826   4.146  14.273  0.0519  0.9373 -0.6221
 1205SOL    HW215252   0.958   4.206  14.234  0.6444  1.2136  1.6360
 1206SOL     OW15253   0.152   2.003   6.638 -0.5045  0.8994  0.2689
 1206SOL    HW115254   0.220   2.045   6.690  1.8796 -0.1618 -1.9487
 1206SOL    HW215255   0.077   2.008   6.696 -0.0502 -0.8082  1.0071
 1207SOL     OW15256   3.791   0.472   9.083 -0.1665 -0.2500  0.2049
 1207SOL    HW115257   3.811   0.419   9.006  1.1527  2.5514 -1.3902
 1207SOL    HW215258   3.833   0.409   9.141 -1.1129  0.3495  1.5499
 1208SOL     OW15259   4.591   3.531   6.031  0.1989  0.2641 -0.0927
 1208SOL    HW115260   4.528   3.496   5.969 -0.9994 -0.9186  1.7811
 1208SOL    HW215261   4.657   3.463   6.046  0.6669  0.7286 -0.0439
 1209SOL     OW15262   1.708   1.741   5.627 -0.4462 -0.1349  0.3239
 1209SOL    HW115263   1.705   1.751   5.532  0.6937 -0.4093  0.2528
 1209SOL    HW215264   1.688   1.648   5.640  3.0908 -0.8218  0.9511
 1210SOL     OW15265   1.471   1.496   7.865 -0.2595 -0.1910 -0.1163
 1210SOL    HW115266   1.486   1.403   7.850 -1.2602  0.0103 -2.3149
 1210SOL    HW215267   1.491   1.536   7.780  1.4744  1.7880  1.2093
 1211SOL     OW15268   0.228   2.095  17.269  0.2491  0.3618  0.3619
 1211SOL    HW115269   0.224   2.037  17.344  0.2632 -0.8617 -0.5949
 1211SOL    HW215270   0.321   2.094  17.249  0.1833  0.4450  0.0471
 1212SOL     OW15271   2.930   0.728   6.730  0.2158 -0.5246  0.8201
 1212SOL    HW115272   2.898   0.812   6.698 -0.2343 -0.6691  0.8908
 1212SOL    HW215273   2.975   0.750   6.811 -0.3283 -1.3748  1.3610
 1213SOL     OW15274   4.713   2.528   3.182  0.0320 -0.9615  0.0372
 1213SOL    HW115275   4.724   2.497   3.092 -1.9744 -1.3651 -0.0722
 1213SOL    HW215276   0.029   2.468   3.232  0.2930  1.0163  2.0987
 1214SOL     OW15277   0.735   0.668   4.511 -0.0388 -0.0477 -0.0979
 1214SOL    HW115278   0.823   0.687   4.477 -0.2231  0.5013 -0.2706
 1214SOL    HW215279   0.719   0.760   4.535  0.3082 -0.3901  1.4507
 1215SOL     OW15280   0.183   1.347  14.413 -0.0510 -0.4201 -0.0084
 1215SOL    HW115281   0.103   1.363  14.463  1.0605 -0.7972  1.8984
 1215SOL    HW215282   0.147   1.286  14.348  0.4204 -2.6093  1.7794
 1216SOL     OW15283   4.468   0.387   4.584  0.6344 -0.0773  0.2928
 1216SOL    HW115284   4.449   0.469   4.538  1.9169  0.4941  0.7723
 1216SOL    HW215285   4.562   0.371   4.583  0.4835 -0.9047 -0.1034
 1217SOL     OW15286   4.033   3.244   1.666 -0.2284 -0.2478 -0.3425
 1217SOL    HW115287   3.991   3.173   1.617  0.2638  0.1976 -1.4057
 1217SOL    HW215288   4.090   3.202   1.730 -0.3541  0.3753  0.1820
 1218SOL     OW15289   0.158   2.834   6.201 -0.2864  0.0174  0.1992
 1218SOL    HW115290   0.217   2.870   6.134  0.6067  1.0965  1.5659
 1218SOL    HW215291   0.207   2.858   6.279  0.7903  1.2880 -0.8508
 1219SOL     OW15292   4.549   0.220   6.993 -0.3610 -0.5525  0.1719
 1219SOL    HW115293   4.531   0.285   6.924 -2.3085 -2.0346 -0.7251
 1219SOL    HW215294   4.633   0.177   6.978 -0.1320  0.0304 -0.1860
 1220SOL     OW15295   2.849   2.623  15.602 -0.2717 -0.0545  0.0348
 1220SOL    HW115296   2.803   2.548  15.641 -0.0309 -1.2423 -1.9921
 1220SOL    HW215297   2.894   2.590  15.524  2.3071  1.8560  0.7227
 1221SOL     OW15298   4.322   0.890   4.407 -0.3225 -0.3157  0.3353
 1221SOL    HW115299   4.379   0.897   4.483  0.1928 -0.7633 -0.0076
 1221SOL    HW215300   4.279   0.975   4.410 -1.4119 -0.8742  0.6925
 1222SOL     OW15301   3.182   4.604   5.303  0.1178 -0.1166  0.1599
 1222SOL    HW115302   3.217   4.652   5.378  0.0705  0.3543 -0.1147
 1222SOL    HW215303   3.160   4.672   5.240  0.3455  1.0961  1.3863
 1223SOL     OW15304   1.212   0.441   7.631  0.5911  0.4044 -0.6768
 1223SOL    HW115305   1.208   0.497   7.709 -1.7692  2.0483 -1.9476
 1223SOL    HW215306   1.149   0.479   7.569 -2.3057 -0.2484  1.8391
 1224SOL     OW15307   0.047   3.532  11.048  0.1322 -0.4524 -0.2855
 1224SOL    HW115308   4.700   3.544  11.009  0.3930  1.3439 -0.3304
 1224SOL    HW215309   0.083   3.459  10.997 -0.1861 -1.3670  0.7957
 1225SOL     OW15310   0.561   2.520  15.120  0.3008  0.4896 -0.4922
 1225SOL    HW115311   0.588   2.486  15.034 -0.2397 -1.4063  0.0847
 1225SOL    HW215312   0.470   2.532  15.094 -0.3384 -0.9390  1.1061
 1226SOL     OW15313   0.358   1.753   0.055  0.3276 -0.0216  0.0970
 1226SOL    HW115314   0.311   1.708   0.124 -0.9491  2.4823  0.8778
 1226SOL    HW215315   0.364   1.845   0.083 -2.1565  0.4914 -1.0506
 1227SOL     OW15316   3.070   0.482  14.896  0.6796  0.3249 -0.4830
 1227SOL    HW115317   3.024   0.509  14.817  0.5132 -1.6473 -1.0576
 1227SOL    HW215318   3.089   0.561  14.947 -1.1427  0.8685 -0.6477
 1228SOL     OW15319   3.417   1.282  10.084  0.5069  0.1029 -0.0114
 1228SOL    HW115320   3.502   1.325  10.096  0.6353  0.6897 -3.0158
 1228SOL    HW215321   3.413   1.293   9.989  1.5900 -1.0066 -0.1913
 1229SOL     OW15322   1.203   1.391   1.665 -0.0091  0.2494  0.1206
 1229SOL    HW115323   1.223   1.478   1.700 -0.6763  0.7366 -0.7173
 1229SOL    HW215324   1.115   1.366   1.693  0.8571 -1.9035  0.9498
 1230SOL     OW15325   4.727   4.202   7.821 -0.0920  0.0881 -0.7380
 1230SOL    HW115326   4.636   4.172   7.828  0.0343 -0.2184 -0.3517
 1230SOL    HW215327   0.046   4.126   7.818  0.1821  0.3260 -1.3016
 1231SOL     OW15328   2.737   1.372   2.436  0.2634 -0.2653 -0.0244
 1231SOL    HW115329   2.707   1.281   2.445  0.5325 -0.4921 -1.4605
 1231SOL    HW215330   2.813   1.356   2.380  1.8556  2.6343  1.3008
 1232SOL     OW15331   2.050   4.664   4.816  0.1717  0.0342 -0.0261
 1232SOL    HW115332   2.110   4.608   4.767 -0.2307  0.4867 -1.0333
 1232SOL    HW215333   2.097   4.680   4.897  0.9312 -0.7685 -0.3130
 1233SOL     OW15334   1.380   2.040   8.182  0.1295  0.5481 -0.2185
 1233SOL    HW115335   1.318   2.104   8.147  1.5958  1.2369 -1.5248
 1233SOL    HW215336   1.326   1.961   8.194  2.1853 -0.7421  0.6345
 1234SOL     OW15337   2.924   4.091   6.006  0.1736  0.5332 -0.3055
 1234SOL    HW115338   2.932   4.186   6.000  0.3203  0.5790  0.6198
 1234SOL    HW215339   2.840   4.084   6.051 -1.1537 -1.6488 -3.0956
 1235SOL     OW15340   0.266   3.166  16.466 -0.2993 -0.1032  0.0952
 1235SOL    HW115341   0.315   3.243  16.494  0.3813 -1.1501  1.7591
 1235SOL    HW215342   0.308   3.094  16.514 -1.1899 -0.6049  0.1206
 1236SOL     OW15343   0.583   1.482   1.458  0.0880 -0.2257  0.1505
 1236SOL    HW115344   0.589   1.512   1.549  0.2549 -0.8372  0.3435
 1236SOL    HW215345   0.492   1.454   1.466 -0.1381  1.3629  3.3649
 1237SOL     OW15346   3.813   0.252   8.306  0.4861 -0.1271 -0.3895
 1237SOL    HW115347   3.828   0.158   8.300  0.5872 -0.1358  0.0517
 1237SOL    HW215348   3.889   0.274   8.360  1.5430  1.1962 -2.4044
 1238SOL     OW15349   1.385   4.218  13.524 -0.1551  0.0232 -0.2707
 1238SOL    HW115350   1.381   4.139  13.471 -2.4887  0.8113 -1.2422
 1238SOL    HW215351   1.364   4.181  13.610  2.1163  0.0997  0.3190
 1239SOL     OW15352   0.647   3.967   8.202  0.2069  0.1508  0.4920
 1239SOL    HW115353   0.650   3.872   8.209  0.3236  0.0350 -1.0896
 1239SOL    HW215354   0.659   3.990   8.294  1.1623 -0.2081  0.4571
 1240SOL     OW15355   2.930   1.162  11.250 -0.2032  0.2663 -0.3303
 1240SOL    HW115356   2.958   1.186  11.161  1.9707  0.9483  0.5258
 1240SOL    HW215357   2.904   1.250  11.278  0.2628  0.3565 -0.1814
 1241SOL     OW15358   3.005   1.962   3.553  0.3682  0.1390 -0.5261
 1241SOL    HW115359   3.004   2.017   3.474  2.9636 -1.6734 -1.8215
 1241SOL    HW215360   3.049   2.020   3.615 -0.8192  2.2025 -1.6156
 1242SOL     OW15361   3.104   3.833   1.693  0.3335  0.5590  0.2159
 1242SOL    HW115362   3.130   3.811   1.603 -0.0281  0.6672  0.0874
 1242SOL    HW215363   3.185   3.797   1.730 -0.7221 -0.6995  1.3042
 1243SOL     OW15364   2.067   4.472   1.893 -0.4168 -0.1321 -0.3445
 1243SOL    HW115365   2.156   4.506   1.890 -0.1064 -0.7467  1.8916
 1243SOL    HW215366   2.096   4.385   1.921 -2.1785  0.6041  3.6314
 1244SOL     OW15367   0.307   4.094  16.022  0.0764 -0.3636  0.1214
 1244SOL    HW115368   0.250   4.090  15.945 -0.9127  0.3841  0.8179
 1244SOL    HW215369   0.283   4.020  16.077  0.0285 -0.0473  0.5307
 1245SOL     OW15370   0.695   0.495   0.679 -1.1186 -1.1103 -0.1838
 1245SOL    HW115371   0.743   0.434   0.623  1.9421 -0.0715  1.3279
 1245SOL    HW215372   0.758   0.564   0.701  0.9166 -3.6719  2.0853
 1246SOL     OW15373   4.231   0.319   5.501  0.0923  0.0052 -0.0239
 1246SOL    HW115374   4.272   0.405   5.512 -0.2577  0.1119  0.3944
 1246SOL    HW215375   4.261   0.276   5.580 -0.4779 -0.8175 -0.2621
 1247SOL     OW15376   1.564   0.457   9.200  0.1685 -0.1135 -0.1520
 1247SOL    HW115377   1.569   0.544   9.159  1.3021 -0.9011 -1.6867
 1247SOL    HW215378   1.647   0.419   9.170  0.0833  0.7819 -1.5622
 1248SOL     OW15379   4.311   2.347  13.500 -0.0890  0.0191 -0.3619
 1248SOL    HW115380   4.339   2.424  13.550 -0.3870 -0.0259 -0.1224
 1248SOL    HW215381   4.398   2.307  13.492  0.1234  1.0576 -3.0510
 1249SOL     OW15382   0.360   0.979  11.146 -0.3485  0.3305  0.3752
 1249SOL    HW115383   0.450   0.992  11.177 -0.0104 -0.2495 -0.3647
 1249SOL    HW215384   0.364   0.887  11.118 -0.6312  0.8328 -1.3384
 1250SOL     OW15385   4.587   4.333   4.500  0.1572 -0.5603  0.1389
 1250SOL    HW115386   4.519   4.276   4.466  0.7267 -0.2250 -1.5650
 1250SOL    HW215387   4.545   4.356   4.583  1.9521  0.2247  0.8296
 1251SOL     OW15388   3.840   2.541   9.481  0.2475 -0.0952  0.0299
 1251SOL    HW115389   3.794   2.592   9.414  3.4840  1.3613 -1.1052
 1251SOL    HW215390   3.802   2.582   9.558 -0.2830 -1.0750  0.2861
 1252SOL     OW15391   1.618   1.020  14.991  0.1926 -0.1765  0.0077
 1252SOL    HW115392   1.693   1.023  14.933  1.1161  0.6323  1.2514
 1252SOL    HW215393   1.654   1.049  15.075  2.5300 -0.9540 -0.7309
 1253SOL     OW15394   3.142   3.760  15.823 -0.2969  0.4070 -0.2163
 1253SOL    HW115395   3.184   3.758  15.909  1.5867  1.1819 -1.1300
 1253SOL    HW215396   3.154   3.849  15.791  0.1068 -0.2566 -1.9149
 1254SOL     OW15397   3.025   3.840   3.489  0.2797 -0.5989 -0.1391
 1254SOL    HW115398   2.994   3.924   3.455  1.9161 -0.1121 -0.4287
 1254SOL    HW215399   3.044   3.858   3.581 -2.7819 -0.6334  0.4746
 1255SOL     OW15400   1.433   3.386   4.512  0.3274  0.2223  0.0937
 1255SOL    HW115401   1.467   3.447   4.446  1.1661  0.9528  1.2106
 1255SOL    HW215402   1.512   3.377   4.565  0.7001  1.7438 -0.1941
 1256SOL     OW15403   3.770   2.951   3.432  0.0741 -0.0565  0.1029
 1256SOL    HW115404   3.754   2.893   3.506 -0.8098 -2.0648 -1.6615
 1256SOL    HW215405   3.697   3.012   3.442 -0.2379 -0.1014 -1.8818
 1257SOL     OW15406   2.903   0.415   1.849 -0.2008 -0.6739  0.1340
 1257SOL    HW115407   2.949   0.424   1.932 -0.4821 -0.9456  0.3157
 1257SOL    HW215408   2.977   0.412   1.788 -1.2542  1.2084 -1.2438
 1258SOL     OW15409   0.686   1.356   6.263  0.3857 -0.0154 -0.2785
 1258SOL    HW115410   0.628   1.341   6.338 -0.3672  0.3164 -0.8000
 1258SOL    HW215411   0.765   1.373   6.315  0.3314  2.4491 -0.9926
 1259SOL     OW15412   1.834   2.511   0.676  0.3728 -0.0028 -0.4529
 1259SOL    HW115413   1.771   2.447   0.642 -1.0796  1.1009  0.1775
 1259SOL    HW215414   1.908   2.455   0.648  0.8951 -0.7562  2.4774
 1260SOL     OW15415   2.380   0.435   5.569  0.4808 -0.4450 -0.3384
 1260SOL    HW115416   2.443   0.392   5.627  0.3690 -1.1614 -0.7480
 1260SOL    HW215417   2.413   0.525   5.576  0.6136 -0.4085 -1.4061
 1261SOL     OW15418   1.721   2.554  12.041  0.1121 -0.1986 -0.1980
 1261SOL    HW115419   1.694   2.528  11.953 -1.0643  1.4355 -0.3419
 1261SOL    HW215420   1.640   2.552  12.093  0.4511 -0.7868  0.2932
 1262SOL     OW15421   1.285   1.784   7.348  0.3581 -0.4971  0.1475
 1262SOL    HW115422   1.201   1.792   7.393  0.0021 -0.5580 -0.5124
 1262SOL    HW215423   1.335   1.846   7.401 -0.0012  0.3462 -0.5010
 1263SOL     OW15424   3.437   1.337   5.907 -0.2128  0.3129  0.0191
 1263SOL    HW115425   3.451   1.243   5.898 -1.7940 -0.1179  2.2412
 1263SOL    HW215426   3.518   1.357   5.953 -0.5287  2.6354 -0.4128
 1264SOL     OW15427   2.029   1.098   2.701 -0.3981 -0.3066 -0.1249
 1264SOL    HW115428   2.047   1.135   2.788  2.6766  0.0929 -0.9330
 1264SOL    HW215429   1.937   1.075   2.709 -0.5191  0.6619  1.3274
 1265SOL     OW15430   3.476   2.968  13.337 -0.4104 -0.8773  0.3900
 1265SOL    HW115431   3.545   2.993  13.276  0.3482 -1.8312  0.8426
 1265SOL    HW215432   3.466   3.052  13.381 -0.2192 -0.8986  0.4737
 1266SOL     OW15433   3.037   2.246   5.064  0.2608 -0.2965  0.1789
 1266SOL    HW115434   3.131   2.253   5.044  0.1032 -0.9191 -0.7802
 1266SOL    HW215435   3.046   2.288   5.149 -0.6152 -1.7562  0.9870
 1267SOL     OW15436   1.597   0.968   5.041  0.4086 -0.2363  0.1582
 1267SOL    HW115437   1.565   1.035   5.100 -1.2791  0.3169 -1.3823
 1267SOL    HW215438   1.593   0.886   5.090 -0.6176  0.1030  0.6239
 1268SOL     OW15439   4.564   1.045   2.149 -0.2673  0.3175  0.3456
 1268SOL    HW115440   4.601   1.016   2.232  2.9563  0.3087 -1.1192
 1268SOL    HW215441   4.481   0.996   2.153 -1.4615  2.3429 -0.0105
 1269SOL     OW15442   2.694   3.584   9.474  0.2534 -0.4350  0.5528
 1269SOL    HW115443   2.775   3.533   9.476  0.5503 -0.0270 -0.9604
 1269SOL    HW215444   2.698   3.635   9.393 -1.8632 -1.2666 -0.0777
 1270SOL     OW15445   4.234   0.725  12.563  0.3799  0.0809  0.6201
 1270SOL    HW115446   4.274   0.764  12.640 -0.2779 -0.3210  1.1709
 1270SOL    HW215447   4.175   0.796  12.538 -0.9136 -1.3324 -0.3550
 1271SOL     OW15448   2.634   4.555   8.335 -0.1502  0.0291 -0.4057
 1271SOL    HW115449   2.641   4.604   8.253 -0.0816  2.2174  0.8867
 1271SOL    HW215450   2.672   4.474   8.300 -0.1497 -0.1576  0.0268
 1272SOL     OW15451   2.228   3.258   0.031 -0.2560  0.3703  0.2403
 1272SOL    HW115452   2.189   3.330   0.080  2.5415  2.1928 -0.1602
 1272SOL    HW215453   2.310   3.250   0.080 -0.6760 -2.1894  0.5273
 1273SOL     OW15454   3.285   1.678   2.692  0.2583 -0.0708 -0.0490
 1273SOL    HW115455   3.308   1.704   2.782  0.8642  0.0829 -0.2486
 1273SOL    HW215456   3.190   1.692   2.683  0.7110  2.0224 -1.5342
 1274SOL     OW15457   1.217   3.703   5.762 -0.1367 -0.2075  0.2573
 1274SOL    HW115458   1.291   3.643   5.755  1.3215  1.5377  0.4453
 1274SOL    HW215459   1.205   3.694   5.856  1.1831 -1.1181  0.3332
 1275SOL     OW15460   0.865   4.307   7.423 -0.3805 -0.3344 -0.4268
 1275SOL    HW115461   0.915   4.226   7.412 -0.5793 -0.6620  1.1646
 1275SOL    HW215462   0.848   4.302   7.517  2.0879  0.8059  0.0886
 1276SOL     OW15463   0.183   3.499  11.597 -0.1690 -0.4678 -0.2122
 1276SOL    HW115464   0.237   3.499  11.517  0.5289  0.5343  0.2630
 1276SOL    HW215465   0.227   3.574  11.638  0.8433 -0.6063 -1.0225
 1277SOL     OW15466   0.652   0.254   6.463 -0.2467 -0.1187  0.0724
 1277SOL    HW115467   0.651   0.240   6.369 -2.7374 -0.0536  0.0906
 1277SOL    HW215468   0.729   0.200   6.477  0.8966  1.7430  0.9451
 1278SOL     OW15469   3.430   4.185  16.143  0.3199  0.1708  0.5257
 1278SOL    HW115470   3.488   4.221  16.211  0.5705  0.6955  0.0383
 1278SOL    HW215471   3.452   4.249  16.075  0.5166  0.2529  0.6664
 1279SOL     OW15472   4.477   1.486   9.598  0.5582 -0.7188  0.2596
 1279SOL    HW115473   4.386   1.506   9.577  0.8739  0.8432  0.4019
 1279SOL    HW215474   4.478   1.391   9.582  0.1367 -0.6086 -0.4169
 1280SOL     OW15475   1.482   1.900  12.274 -0.0229  0.1263  0.3317
 1280SOL    HW115476   1.544   1.828  12.273 -0.1992 -0.0260  0.0756
 1280SOL    HW215477   1.497   1.934  12.362 -2.0259  0.1798  0.6629
 1281SOL     OW15478   3.376   1.769   9.236  0.0019  0.1509  0.0571
 1281SOL    HW115479   3.406   1.831   9.170 -0.4629  0.1618 -0.1422
 1281SOL    HW215480   3.284   1.794   9.239 -0.0671 -0.0771 -0.1101
 1282SOL     OW15481   3.620   2.134   6.324  0.4396  0.1043  0.3749
 1282SOL    HW115482   3.538   2.088   6.308 -0.5825  2.2839 -0.6694
 1282SOL    HW215483   3.598   2.223   6.352 -1.8562 -0.6871  1.1175
 1283SOL     OW15484   0.497   2.980   1.669  0.2005  0.1992  0.0228
 1283SOL    HW115485   0.513   2.967   1.576 -0.0340  0.3849 -0.0441
 1283SOL    HW215486   0.445   3.059   1.652  1.2979  0.4778 -2.0799
 1284SOL     OW15487   2.640   1.742   6.801 -0.5536  0.9214 -0.1354
 1284SOL    HW115488   2.713   1.680   6.809 -0.1168  1.3514 -0.7979
 1284SOL    HW215489   2.603   1.721   6.715  1.2689 -1.2953 -0.3648
 1285SOL     OW15490   0.082   4.432  10.198 -0.4429  0.1842 -0.1311
 1285SOL    HW115491   0.030   4.468  10.126 -0.2778  0.8342  0.0771
 1285SOL    HW215492   0.072   4.492  10.272 -1.0033  2.0688 -1.7238
 1286SOL     OW15493   3.805   3.506   3.932  0.6999  0.5564 -0.4598
 1286SOL    HW115494   3.829   3.432   3.876  1.7742 -0.2495  1.0673
 1286SOL    HW215495   3.826   3.582   3.878  3.6537 -0.8659 -1.3070
 1287SOL     OW15496   3.739   0.776   4.460  0.8391  0.2812 -0.2718
 1287SOL    HW115497   3.834   0.767   4.463  0.7802 -0.6060 -1.3742
 1287SOL    HW215498   3.699   0.702   4.506 -2.0478  2.0206  0.0013
 1288SOL     OW15499   2.311   3.064  13.152 -0.1485 -0.7228 -0.0896
 1288SOL    HW115500   2.303   3.036  13.243  1.3601  2.1362  0.9117
 1288SOL    HW215501   2.384   3.017  13.112  0.3112  0.0806 -0.2031
 1289SOL     OW15502   0.103   4.732  13.065  0.1703 -0.0063 -0.4576
 1289SOL    HW115503   0.160   4.656  13.077  0.3209 -0.0314 -1.3597
 1289SOL    HW215504   0.167   0.050  13.025 -1.1882  1.8330  0.0270
 1290SOL     OW15505   4.055   1.727   7.691  0.1878  0.0757 -0.0289
 1290SOL    HW115506   3.980   1.772   7.729  0.2357 -0.0111  0.1731
 1290SOL    HW215507   4.036   1.736   7.598  2.3857 -1.2672 -0.6213
 1291SOL     OW15508   0.290   3.107   2.669 -0.3382 -0.1070 -0.1873
 1291SOL    HW115509   0.285   3.054   2.590  0.9787 -0.2290 -0.1922
 1291SOL    HW215510   0.348   3.052   2.722 -0.4070  0.6823  0.7023
 1292SOL     OW15511   0.744   1.814   7.059  0.0406 -0.3349  0.1957
 1292SOL    HW115512   0.652   1.787   7.056 -0.5388  1.8381 -2.0496
 1292SOL    HW215513   0.746   1.825   7.154 -1.5362  1.0672  0.0669
 1293SOL     OW15514   1.155   4.676   4.943  0.0239  0.1528 -0.6363
 1293SOL    HW115515   1.226   4.661   4.880 -0.4051 -0.0092 -1.0744
 1293SOL    HW215516   1.093   4.606   4.925  0.2887 -0.3978  0.6018
 1294SOL     OW15517   4.190   2.508   0.180 -0.2430 -0.1459 -0.0548
 1294SOL    HW115518   4.268   2.562   0.174 -0.2137 -0.0752  0.8540
 1294SOL    HW215519   4.209   2.458   0.259  1.2682  0.1826 -0.2147
 1295SOL     OW15520   0.463   2.068   8.819 -0.3686  0.8563 -0.2789
 1295SOL    HW115521   0.546   2.093   8.860  0.3668 -0.2761 -1.0640
 1295SOL    HW215522   0.467   1.973   8.832 -1.8394  0.8878  0.4488
 1296SOL     OW15523   3.935   1.406   7.622  0.4509  0.5725  0.2368
 1296SOL    HW115524   3.993   1.433   7.694 -0.4618  0.3220  1.0646
 1296SOL    HW215525   3.877   1.335   7.651  1.4875 -0.0759  0.7560
 1297SOL     OW15526   0.746   0.766   6.257  0.0176 -0.9943  0.3815
 1297SOL    HW115527   0.713   0.690   6.305  2.4532 -1.4389  1.3410
 1297SOL    HW215528   0.830   0.723   6.239  0.3623 -1.7629  3.9249
 1298SOL     OW15529   2.398   3.717   8.042 -0.5883 -0.0288 -0.5602
 1298SOL    HW115530   2.423   3.682   7.957 -0.0381 -1.6505  0.2772
 1298SOL    HW215531   2.307   3.746   8.028 -0.5902  0.0467 -0.3989
 1299SOL     OW15532   1.985   3.350   7.519  0.2945 -0.5876  0.2349
 1299SOL    HW115533   1.903   3.399   7.514  1.4384  1.2233 -0.7067
 1299SOL    HW215534   2.040   3.418   7.556  1.4593 -1.3713 -0.0468
 1300SOL     OW15535   0.177   1.146   4.344 -0.9277 -0.4026 -0.7432
 1300SOL    HW115536   0.122   1.224   4.339  0.5861  0.7546  0.9276
 1300SOL    HW215537   0.199   1.127   4.253 -1.5736  2.4509 -1.4657
 1301SOL     OW15538   1.825   0.885   7.066 -0.3477  0.0608 -0.2866
 1301SOL    HW115539   1.778   0.958   7.108  1.1521  1.6949 -1.4447
 1301SOL    HW215540   1.899   0.877   7.126  0.0038  4.0492 -0.1326
 1302SOL     OW15541   3.198   0.399   5.467  0.4290  0.4003  0.1441
 1302SOL    HW115542   3.230   0.426   5.553 -3.2059 -0.0046  1.6502
 1302SOL    HW215543   3.274   0.347   5.441  0.3301  1.4253 -2.2472
 1303SOL     OW15544   3.594   1.602   7.928 -0.3480  0.4159  0.0659
 1303SOL    HW115545   3.551   1.523   7.961  2.4555 -0.1503  2.3176
 1303SOL    HW215546   3.603   1.589   7.834 -0.7300 -0.9527  0.2236
 1304SOL     OW15547   1.219   2.740   3.171 -0.4417 -0.0881 -0.1740
 1304SOL    HW115548   1.196   2.732   3.264  0.1192  1.7046  0.1237
 1304SOL    HW215549   1.303   2.694   3.168  0.4079  1.2702  2.1641
 1305SOL     OW15550   2.212   0.980   7.252 -0.5602 -0.2531 -0.3052
 1305SOL    HW115551   2.134   0.926   7.251  0.7327 -2.1201  0.1264
 1305SOL    HW215552   2.202   1.045   7.322  0.3579 -0.9274  0.4588
 1306SOL     OW15553   2.509   4.356   2.123 -0.6905 -0.1524 -0.2339
 1306SOL    HW115554   2.531   4.288   2.187 -0.0529 -0.0139 -0.3055
 1306SOL    HW215555   2.525   4.435   2.174  2.4860 -1.8369  1.4661
 1307SOL     OW15556   1.207   3.354   2.025 -0.1212 -0.3416  0.5766
 1307SOL    HW115557   1.187   3.296   2.099 -0.5613 -0.1563  0.6070
 1307SOL    HW215558   1.289   3.311   2.001 -0.8604 -0.7235 -1.2400
 1308SOL     OW15559   3.348   4.275   3.390  0.0247 -0.3113 -0.8177
 1308SOL    HW115560   3.322   4.182   3.386  1.5338 -0.8403  1.5639
 1308SOL    HW215561   3.442   4.270   3.374 -0.0129 -0.8790 -0.8851
 1309SOL     OW15562   0.011   0.902  14.448  0.2762 -0.2910 -0.9210
 1309SOL    HW115563   0.042   0.965  14.384  1.5398 -1.6273 -1.6387
 1309SOL    HW215564   0.023   0.945  14.532 -1.4480  2.2947 -2.0215
 1310SOL     OW15565   3.056   1.265   3.498 -0.4250  0.5378 -0.0108
 1310SOL    HW115566   3.033   1.308   3.580  0.9757  2.2608 -0.5239
 1310SOL    HW215567   3.085   1.178   3.526 -1.2611 -0.5437 -2.4885
 1311SOL     OW15568   4.538   1.704   0.307  0.6567  0.5415 -0.5882
 1311SOL    HW115569   4.584   1.627   0.274  0.2308  0.2533 -0.5064
 1311SOL    HW215570   4.601   1.776   0.301  1.1835  0.1496  0.1915
 1312SOL     OW15571   2.637   3.532   7.198 -0.6623  0.1854  0.1217
 1312SOL    HW115572   2.640   3.482   7.116 -0.9517 -0.7540  0.6856
 1312SOL    HW215573   2.725   3.565   7.217 -1.1417  1.1073  0.7482
 1313SOL     OW15574   1.351   0.076   3.784  0.2963 -0.1694 -0.6073
 1313SOL    HW115575   1.321   0.167   3.777 -1.7573 -0.9266 -1.7222
 1313SOL    HW215576   1.446   0.085   3.775  0.3236 -0.0241 -0.1795
 1314SOL     OW15577   1.722   1.832   2.790  0.0693  0.0892 -0.4608
 1314SOL    HW115578   1.751   1.912   2.746  0.0108 -0.0808 -0.8059
 1314SOL    HW215579   1.804   1.817   2.837  0.1543  3.8568  0.5867
 1315SOL     OW15580   1.330   4.399   7.204 -0.7579  0.0934  0.6548
 1315SOL    HW115581   1.248   4.421   7.250 -1.2592  1.6683 -1.0034
 1315SOL    HW215582   1.290   4.346   7.135  0.0873 -0.7073  0.7812
 1316SOL     OW15583   1.071   4.227   4.355  0.2105  0.2933  0.1887
 1316SOL    HW115584   1.051   4.312   4.316 -0.8984 -0.5193 -0.9540
 1316SOL    HW215585   1.107   4.171   4.287  0.8014 -0.9099  1.4847
 1317SOL     OW15586   0.872   4.216   8.420  0.3153  0.3645  0.5512
 1317SOL    HW115587   0.784   4.185   8.443 -0.3988 -0.8426 -3.6848
 1317SOL    HW215588   0.874   4.300   8.466 -0.0195  2.2992 -2.9797
 1318SOL     OW15589   1.836   1.343  15.011  0.6639 -0.1148  0.3280
 1318SOL    HW115590   1.827   1.283  15.086  0.3152 -0.1167  0.2864
 1318SOL    HW215591   1.795   1.288  14.944 -0.3264  0.7786  0.2129
 1319SOL     OW15592   3.706   0.022   4.254 -0.2969  0.3324  0.2450
 1319SOL    HW115593   3.666   0.049   4.171  0.5654 -1.0561 -0.6201
 1319SOL    HW215594   3.631   0.024   4.314 -1.2413  0.3775 -0.9328
 1320SOL     OW15595   0.014   3.387   2.700  0.2074 -0.1497  0.2678
 1320SOL    HW115596   4.658   3.386   2.708  0.1390  1.1544 -0.4263
 1320SOL    HW215597   0.036   3.344   2.618  1.5245  0.8637  0.0857
 1321SOL     OW15598   0.815   0.453  13.947 -0.1400  0.6390  0.2864
 1321SOL    HW115599   0.739   0.470  13.891  0.4077 -1.6194 -1.1645
 1321SOL    HW215600   0.781   0.380  13.999 -0.8434  0.3810 -0.5274
 1322SOL     OW15601   0.949   4.465   6.618  0.0483 -0.2893 -0.2391
 1322SOL    HW115602   0.935   4.459   6.713  0.3834  2.6995 -0.0227
 1322SOL    HW215603   1.040   4.437   6.612 -0.3341 -1.5401 -0.3132
 1323SOL     OW15604   0.415   3.879   7.402  0.2447 -0.2435 -0.5676
 1323SOL    HW115605   0.480   3.943   7.374  1.3293 -1.3181 -0.4836
 1323SOL    HW215606   0.434   3.808   7.340  0.1887 -1.2429  0.5624
 1324SOL     OW15607   3.240   1.015   8.957 -0.4203 -0.1670  0.0127
 1324SOL    HW115608   3.155   1.054   8.978 -0.5788 -0.6864  0.3318
 1324SOL    HW215609   3.260   0.981   9.044  1.5399  0.3107 -0.2600
 1325SOL     OW15610   2.807   0.707   9.672  0.3619 -0.0449  0.0118
 1325SOL    HW115611   2.724   0.731   9.712  1.2537  1.3926  1.0063
 1325SOL    HW215612   2.768   0.649   9.606 -1.2341  0.2971  0.6574
 1326SOL     OW15613   4.144   1.626   0.145 -0.3718  0.0900  0.2606
 1326SOL    HW115614   4.069   1.670   0.105  0.5755  1.7818  0.3449
 1326SOL    HW215615   4.218   1.681   0.119 -0.2568 -0.3327 -0.3088
 1327SOL     OW15616   4.288   2.444  13.215  0.6827 -0.5041  0.0867
 1327SOL    HW115617   4.376   2.408  13.210  0.1692 -1.3681 -2.6348
 1327SOL    HW215618   4.263   2.430  13.306 -1.9624  1.8704 -0.2523
 1328SOL     OW15619   3.113   3.218   4.779 -0.5126  0.2646  0.0047
 1328SOL    HW115620   3.145   3.308   4.778  1.5204 -0.4711 -2.0201
 1328SOL    HW215621   3.093   3.192   4.689 -0.5096  4.2222 -1.1143
 1329SOL     OW15622   3.565   0.291   8.421  0.6275 -0.7766 -0.1330
 1329SOL    HW115623   3.653   0.280   8.385  0.2469 -0.7778 -1.0735
 1329SOL    HW215624   3.533   0.204   8.396  0.0765 -0.3488 -0.9541
 1330SOL     OW15625   0.541   2.261   8.077 -0.2140  0.1194 -0.2601
 1330SOL    HW115626   0.566   2.301   7.994 -0.4203  0.7081 -0.0327
 1330SOL    HW215627   0.605   2.306   8.132 -1.0390  2.4535 -1.2283
 1331SOL     OW15628   3.575   0.315  17.603  0.6431  0.4460 -0.2451
 1331SOL    HW115629   3.605   0.250  17.538 -3.2839 -0.0550 -1.5440
 1331SOL    HW215630   3.495   0.274  17.634 -0.9893  1.4380 -3.2033
 1332SOL     OW15631   0.326   0.747  11.924 -0.0046 -0.4856  0.2888
 1332SOL    HW115632   0.251   0.688  11.931 -1.1008  0.6326 -1.8459
 1332SOL    HW215633   0.396   0.685  11.943 -0.2718 -1.2987 -1.4038
 1333SOL     OW15634   1.854   4.013  15.913  0.6258  0.0459 -0.0755
 1333SOL    HW115635   1.786   3.949  15.889 -0.3316  1.2108 -0.5070
 1333SOL    HW215636   1.837   4.094  15.864  1.7981  0.5824  0.4145
 1334SOL     OW15637   1.862   0.650   1.532  0.4075  0.4393 -0.7780
 1334SOL    HW115638   1.832   0.571   1.487 -0.1269  0.3015 -0.1762
 1334SOL    HW215639   1.909   0.605   1.603 -0.2442 -0.0465 -0.6533
 1335SOL     OW15640   3.039   1.650   3.696  0.1389  0.1660  0.3913
 1335SOL    HW115641   3.079   1.705   3.628  0.7879 -3.6932 -2.3146
 1335SOL    HW215642   3.040   1.711   3.770 -1.5733  1.1811 -0.4047
 1336SOL     OW15643   4.430   4.616   2.005  0.1752 -0.0859 -0.4218
 1336SOL    HW115644   4.492   4.629   1.933 -0.8428  0.0910 -1.2591
 1336SOL    HW215645   4.387   4.701   2.008 -1.7400 -1.1527  2.6936
 1337SOL     OW15646   3.040   4.276   5.463  0.5956 -0.4108  0.2354
 1337SOL    HW115647   3.131   4.300   5.444  0.3088 -1.7219 -2.8769
 1337SOL    HW215648   3.041   4.185   5.435 -0.1724 -0.3966  0.1688
 1338SOL     OW15649   2.165   1.790   2.508 -0.2191  0.0406 -0.3712
 1338SOL    HW115650   2.197   1.726   2.571 -0.2870  0.7015  0.3351
 1338SOL    HW215651   2.099   1.835   2.561  1.1413  0.4471  0.9537
 1339SOL     OW15652   2.409   3.717   5.500  0.1308  0.1916  0.3355
 1339SOL    HW115653   2.366   3.697   5.583  1.6763  2.2073  1.6364
 1339SOL    HW215654   2.439   3.632   5.469  1.0149  1.2109 -1.6246
 1340SOL     OW15655   1.589   0.212   7.134 -0.6754 -0.0853  0.2103
 1340SOL    HW115656   1.509   0.175   7.097 -0.0662 -1.6297  0.3984
 1340SOL    HW215657   1.584   0.304   7.111  0.3754 -0.7987 -2.8351
 1341SOL     OW15658   2.120   1.649   1.985  0.2789 -0.7692  0.9010
 1341SOL    HW115659   2.093   1.567   1.945  1.9500 -1.4290  1.1019
 1341SOL    HW215660   2.099   1.638   2.078  0.0250 -0.9572  0.8189
 1342SOL     OW15661   0.599   0.425  12.149  0.3660  0.2390  0.3767
 1342SOL    HW115662   0.690   0.440  12.122  0.9990 -1.4116  1.5977
 1342SOL    HW215663   0.550   0.473  12.082  3.3016  1.1126 -1.1454
 1343SOL     OW15664   2.108   3.642   7.599  0.4809 -0.3496 -0.3198
 1343SOL    HW115665   2.176   3.649   7.533  0.3840  1.6579 -0.1852
 1343SOL    HW215666   2.155   3.663   7.679  0.1539  0.4553 -0.3420
 1344SOL     OW15667   1.020   0.601   3.697  0.3485  0.7822 -0.3971
 1344SOL    HW115668   1.112   0.576   3.691  0.6118  1.3465  1.1392
 1344SOL    HW215669   0.991   0.627   3.610  1.5771  2.0058 -0.4528
 1345SOL     OW15670   1.997   0.347   2.533  0.1879  0.3096 -0.6602
 1345SOL    HW115671   2.033   0.279   2.590  0.4358  0.3817 -0.7309
 1345SOL    HW215672   2.017   0.307   2.448 -1.0048  0.3774 -0.9656
 1346SOL     OW15673   2.576   3.930   0.544 -0.3192  0.0786  0.6675
 1346SOL    HW115674   2.666   3.906   0.525 -0.7879  0.3832 -1.8771
 1346SOL    HW215675   2.561   3.969   0.458  0.4322  1.6395  1.2613
 1347SOL     OW15676   0.992   0.334   3.123 -0.1009 -0.3094  0.4429
 1347SOL    HW115677   0.929   0.288   3.067  1.4788 -2.4652  0.4282
 1347SOL    HW215678   1.067   0.285   3.088 -0.4289 -0.1077 -0.5573
 1348SOL     OW15679   2.966   0.243   9.107  0.4376  0.0271  0.1494
 1348SOL    HW115680   2.942   0.179   9.175  1.2796 -0.1400  0.2925
 1348SOL    HW215681   2.992   0.318   9.161  1.2881  0.2487 -0.5750
 1349SOL     OW15682   1.065   3.496  10.018 -0.3218  0.3933 -0.0204
 1349SOL    HW115683   1.002   3.462   9.954  1.5231  1.7896 -2.5853
 1349SOL    HW215684   1.023   3.487  10.103 -0.9342  2.1363 -0.1312
 1350SOL     OW15685   2.229   2.020   0.121 -0.1793  0.3194  0.1723
 1350SOL    HW115686   2.139   1.987   0.117 -0.0247 -0.1336  0.4998
 1350SOL    HW215687   2.231   2.047   0.213  0.8187  0.4027  0.1195
 1351SOL     OW15688   0.092   4.495   3.900 -0.1947  0.2342  0.2679
 1351SOL    HW115689   0.152   4.551   3.850  1.6393 -2.2599 -0.3493
 1351SOL    HW215690   0.015   4.512   3.845  0.6853  0.2316 -0.9749
 1352SOL     OW15691   4.589   2.608   4.697 -0.0857 -0.5231 -0.4278
 1352SOL    HW115692   4.551   2.655   4.771 -2.2872 -0.1813 -1.7745
 1352SOL    HW215693   4.619   2.522   4.729 -0.5636 -0.4732  0.1469
 1353SOL     OW15694   4.641   0.831   2.349 -0.0571  0.2538  0.6945
 1353SOL    HW115695   4.642   0.735   2.350  2.3384  0.2804 -0.3285
 1353SOL    HW215696   4.549   0.857   2.337  0.8224  1.7946 -2.6099
 1354SOL     OW15697   3.957   4.320   4.889 -0.1122  0.1208 -0.3300
 1354SOL    HW115698   3.952   4.410   4.920 -1.8331 -0.6089  1.5670
 1354SOL    HW215699   4.006   4.275   4.958  1.3325 -0.8609 -1.9868
 1355SOL     OW15700   4.281   0.776  11.635 -0.0712  0.1868 -0.7542
 1355SOL    HW115701   4.311   0.703  11.581  3.4588 -0.6408  2.2662
 1355SOL    HW215702   4.361   0.829  11.633 -0.4521  0.8311  1.6747
 1356SOL     OW15703   4.705   1.306   6.933 -0.1915 -0.3770  0.0402
 1356SOL    HW115704   0.000   1.295   6.845  1.1818  0.6016  0.4597
 1356SOL    HW215705   4.713   1.401   6.939  2.5448 -0.5636 -0.4967
 1357SOL     OW15706   2.298   1.293   2.297 -0.3657  0.2707 -0.1797
 1357SOL    HW115707   2.271   1.255   2.214 -0.2399 -0.4787  0.1234
 1357SOL    HW215708   2.312   1.212   2.347  0.4773  0.5855  0.0901
 1358SOL     OW15709   3.908   2.227   1.961 -0.7005 -0.6954 -0.2831
 1358SOL    HW115710   3.841   2.172   1.920 -1.5659 -0.7525  1.1776
 1358SOL    HW215711   3.848   2.297   1.989  0.8166  0.7840 -0.7288
 1359SOL     OW15712   0.661   2.734  12.046 -0.2662 -0.0223  0.2398
 1359SOL    HW115713   0.634   2.802  12.108  0.3195  0.1677  0.2854
 1359SOL    HW215714   0.606   2.760  11.973  1.0119 -0.1146 -0.7528
 1360SOL     OW15715   3.876   1.764  17.600  0.1222  0.5179 -0.2480
 1360SOL    HW115716   3.926   1.805  17.669 -0.8555 -1.3202  1.5776
 1360SOL    HW215717   3.954   1.732  17.555  1.4720 -0.7733  3.0139
 1361SOL     OW15718   1.875   3.422   8.290 -0.6770 -0.2731 -0.3013
 1361SOL    HW115719   1.789   3.459   8.308 -0.4157  0.7166 -1.0954
 1361SOL    HW215720   1.903   3.467   8.210  1.6643  0.1162  0.7363
 1362SOL     OW15721   2.975   1.940   4.688 -0.0280  0.2369  0.1998
 1362SOL    HW115722   2.918   2.016   4.678 -1.2361 -1.1072 -3.0148
 1362SOL    HW215723   2.920   1.864   4.670  2.4300 -1.4228 -0.2356
 1363SOL     OW15724   1.055   4.338   2.607  0.9040 -0.0243 -0.4520
 1363SOL    HW115725   1.040   4.251   2.571  1.5195  0.3194 -1.5600
 1363SOL    HW215726   1.109   4.310   2.681 -1.0165 -0.6073  0.7107
 1364SOL     OW15727   2.179   3.445  12.675  0.0741 -0.0506  0.1844
 1364SOL    HW115728   2.114   3.400  12.730  0.0892 -0.5529 -0.2112
 1364SOL    HW215729   2.174   3.386  12.600  2.7263  0.0147 -0.0440
 1365SOL     OW15730   1.074   2.861  17.422 -0.2063 -0.0851 -0.3085
 1365SOL    HW115731   1.000   2.828  17.371 -0.7305  2.0022 -0.8956
 1365SOL    HW215732   1.018   2.900  17.489  0.7777  3.0067 -1.2810
 1366SOL     OW15733   2.316   3.856   2.295  0.1163 -0.3183 -0.0896
 1366SOL    HW115734   2.278   3.769   2.309 -1.1189  0.4557  1.3534
 1366SOL    HW215735   2.396   3.829   2.250 -0.7134 -0.1473 -1.6614
 1367SOL     OW15736   1.997   3.948   4.043 -0.0578  0.1728  0.1224
 1367SOL    HW115737   2.083   3.974   4.011  0.3224  0.8657  1.7338
 1367SOL    HW215738   2.010   3.864   4.087 -0.5091 -0.1134 -0.2947
 1368SOL     OW15739   2.209   2.719   0.804 -0.9709  0.0285  0.2116
 1368SOL    HW115740   2.302   2.697   0.798 -0.2134  2.9509  1.1800
 1368SOL    HW215741   2.170   2.672   0.730  0.1146 -1.1453  0.3740
 1369SOL     OW15742   0.326   0.833   9.309  0.3332 -0.5700  0.2626
 1369SOL    HW115743   0.266   0.761   9.330  1.0093 -1.2997 -0.3065
 1369SOL    HW215744   0.409   0.794   9.337  1.4544  0.5884 -1.4786
 1370SOL     OW15745   1.478   4.715  14.117  0.3754 -0.3935  0.6889
 1370SOL    HW115746   1.530   4.686  14.192  0.5049 -0.1732  0.6865
 1370SOL    HW215747   1.533   4.685  14.045 -0.0061  0.4022  0.0641
 1371SOL     OW15748   4.275   2.023  16.965 -0.5985  0.2852  0.0025
 1371SOL    HW115749   4.245   2.092  16.906 -0.3987  0.6617  0.3444
 1371SOL    HW215750   4.335   1.974  16.909 -0.8667 -0.1800  0.1248
 1372SOL     OW15751   4.629   1.043   0.860 -0.3441  0.1172  0.3577
 1372SOL    HW115752   4.657   1.116   0.806  0.5855  0.0117  0.6937
 1372SOL    HW215753   4.597   0.974   0.802 -0.6858  2.5692 -2.3120
 1373SOL     OW15754   2.185   3.688  10.695 -0.0019 -0.1747  0.0203
 1373SOL    HW115755   2.256   3.703  10.633 -1.2444 -1.8370 -1.7889
 1373SOL    HW215756   2.241   3.680  10.773 -2.2511 -0.6250  1.5909
 1374SOL     OW15757   4.687   0.561   2.286 -0.3833 -0.2816  0.1442
 1374SOL    HW115758   4.717   0.521   2.204 -1.3177  1.1505 -0.9217
 1374SOL    HW215759   4.613   0.505   2.309 -0.3576 -0.8232 -1.0673
 1375SOL     OW15760   2.484   0.753  16.688 -0.4168 -0.4586 -0.0606
 1375SOL    HW115761   2.436   0.814  16.744 -0.3996 -0.8686  0.3993
 1375SOL    HW215762   2.501   0.794  16.603  1.8267 -0.9128  0.1700
 1376SOL     OW15763   0.762   0.954   6.900 -0.6448 -0.4695  0.2841
 1376SOL    HW115764   0.857   0.960   6.892 -0.7939 -0.1242 -1.2333
 1376SOL    HW215765   0.745   0.906   6.819 -1.4243  1.2273 -0.5531
 1377SOL     OW15766   3.440   1.515   2.508 -0.3641  0.6290 -0.1429
 1377SOL    HW115767   3.382   1.484   2.438  0.4290 -0.9315 -0.1150
 1377SOL    HW215768   3.389   1.572   2.565  0.3063 -0.3638  1.4330
 1378SOL     OW15769   1.061   4.539   3.289 -0.7261 -0.1816 -0.4323
 1378SOL    HW115770   0.973   4.562   3.259 -1.3735 -1.7789  0.2487
 1378SOL    HW215771   1.058   4.561   3.382 -1.3051  0.3554 -0.5811
 1379SOL     OW15772   4.439   1.223   1.895  0.1721  0.7382  0.0835
 1379SOL    HW115773   4.378   1.208   1.967 -1.0900  2.5816 -0.6075
 1379SOL    HW215774   4.405   1.302   1.853 -2.2207  0.7847  2.1171
 1380SOL     OW15775   0.518   0.551   6.171 -0.7674  0.1141  0.6598
 1380SOL    HW115776   0.468   0.531   6.251 -0.6256 -0.0386  0.7100
 1380SOL    HW215777   0.605   0.530   6.204 -0.2381  0.1641 -0.7304
 1381SOL     OW15778   4.458   0.928   5.282  0.4516 -0.0948 -0.2472
 1381SOL    HW115779   4.436   0.987   5.209  0.5005  2.0044  1.4161
 1381SOL    HW215780   4.553   0.928   5.282  0.4666  2.8505 -1.0475
 1382SOL     OW15781   1.955   2.070   1.984 -0.6921 -0.0980 -0.1414
 1382SOL    HW115782   1.891   2.030   1.925  2.0430 -0.6545 -2.7171
 1382SOL    HW215783   1.900   2.125   2.039  2.0866  0.6398  1.9224
 1383SOL     OW15784   0.199   1.380   3.662 -0.1793  0.0985 -0.1609
 1383SOL    HW115785   0.272   1.439   3.643  1.9688 -2.0195  1.5684
 1383SOL    HW215786   0.167   1.448   3.723 -2.7021  0.0770 -1.4632
 1384SOL     OW15787   3.333   4.292   5.744  0.3106 -0.4768  0.2082
 1384SOL    HW115788   3.330   4.297   5.840  0.0114 -0.1889  0.1823
 1384SOL    HW215789   3.336   4.384   5.720 -2.4201 -0.3371  0.4522
 1385SOL     OW15790   0.895   0.081   8.086  0.2552 -0.7581 -0.2946
 1385SOL    HW115791   0.929   0.014   8.027  2.5257  0.9009 -0.8897
 1385SOL    HW215792   0.817   0.117   8.044  0.6627 -0.3902 -0.7466
 1386SOL     OW15793   4.038   0.203   8.425  0.1627 -0.6538  0.4241
 1386SOL    HW115794   4.097   0.265   8.469 -0.5774  0.4581 -0.1370
 1386SOL    HW215795   4.100   0.165   8.363 -2.1796 -3.6413 -0.0715
 1387SOL     OW15796   0.016   1.768   2.572 -0.4038 -0.0801  0.4154
 1387SOL    HW115797   4.725   1.685   2.534  1.1511  0.0961 -1.2752
 1387SOL    HW215798   0.014   1.832   2.501 -0.6923  0.7140  1.1433
 1388SOL     OW15799   1.673   1.796   8.686  0.0561  0.0796  0.2700
 1388SOL    HW115800   1.587   1.781   8.727  0.6353 -4.4102 -0.2574
 1388SOL    HW215801   1.658   1.742   8.609 -1.2272  0.1945  0.4351
 1389SOL     OW15802   4.369   4.048   6.461 -0.1717  0.5345 -0.0111
 1389SOL    HW115803   4.284   4.035   6.504 -0.3464  1.2489 -0.1468
 1389SOL    HW215804   4.328   4.043   6.374 -2.6785  2.0290  1.0638
 1390SOL     OW15805   1.729   4.311   7.204  0.0722  0.2575  0.7069
 1390SOL    HW115806   1.779   4.345   7.278 -1.6987  1.2510  1.4647
 1390SOL    HW215807   1.653   4.297   7.261 -0.5292 -0.6381 -0.3144
 1391SOL     OW15808   1.663   4.425  14.228 -0.0782  0.6185  0.8053
 1391SOL    HW115809   1.609   4.457  14.300 -1.9903 -0.5259 -0.1374
 1391SOL    HW215810   1.679   4.502  14.173  0.5214  0.6292  0.9981
 1392SOL     OW15811   2.085   1.810   0.362  0.2244 -0.0120  0.2847
 1392SOL    HW115812   2.026   1.851   0.299 -2.0044 -1.5003  1.4025
 1392SOL    HW215813   2.128   1.882   0.408 -0.1659 -1.0998  2.3389
 1393SOL     OW15814   0.988   2.156  10.795 -0.3123 -0.5137 -0.0816
 1393SOL    HW115815   1.063   2.197  10.752 -0.3809 -3.2513 -2.8375
 1393SOL    HW215816   0.918   2.221  10.794 -1.0687 -1.3194  1.0005
 1394SOL     OW15817   3.335   2.491  15.744 -0.2680  0.1225  0.4811
 1394SOL    HW115818   3.257   2.479  15.690  0.2274  2.2008 -0.7162
 1394SOL    HW215819   3.294   2.510  15.829 -1.8749  0.9648 -0.4949
 1395SOL     OW15820   2.105   1.646  16.894  0.4920 -0.4603 -0.0003
 1395SOL    HW115821   2.155   1.656  16.975  0.9363  0.2673 -0.3690
 1395SOL    HW215822   2.043   1.576  16.916 -0.7497  0.1628 -1.5338
 1396SOL     OW15823   4.085   2.648   7.493  0.2743  0.3893 -0.3571
 1396SOL    HW115824   4.058   2.739   7.504  0.9416  0.8856 -2.8181
 1396SOL    HW215825   4.181   2.649   7.487  0.2500 -2.9334 -1.4133
 1397SOL     OW15826   0.619   3.286   8.826 -0.1195  0.0193 -0.0619
 1397SOL    HW115827   0.585   3.347   8.891 -1.4345 -0.1451 -0.5824
 1397SOL    HW215828   0.555   3.215   8.831  0.7428 -0.6735  1.1526
 1398SOL     OW15829   2.399   0.614   9.674 -0.1655 -0.1923  0.1162
 1398SOL    HW115830   2.402   0.529   9.630  0.3807 -0.3053  0.3712
 1398SOL    HW215831   2.309   0.642   9.657  0.0194  0.0994 -0.3818
 1399SOL     OW15832   1.600   2.530   0.414 -0.3799 -0.8184 -0.1254
 1399SOL    HW115833   1.616   2.483   0.495  2.0685  1.2027  0.5642
 1399SOL    HW215834   1.509   2.506   0.402 -0.4211  0.2487 -2.0385
 1400SOL     OW15835   1.541   2.214   9.231  0.2560  0.6783  0.4105
 1400SOL    HW115836   1.621   2.166   9.250 -0.4876 -1.2976 -1.4070
 1400SOL    HW215837   1.477   2.143   9.238  0.3405  0.3439 -1.9688
 1401SOL     OW15838   3.234   1.705  17.646  0.3429  0.5651 -0.3972
 1401SOL    HW115839   3.308   1.670  17.597  0.1092  1.3168 -1.3039
 1401SOL    HW215840   3.275   1.788  17.671 -2.6806  1.4021  1.8386
 1402SOL     OW15841   2.006   1.979   6.936  0.1797  0.6460  1.0058
 1402SOL    HW115842   1.983   2.004   6.846  1.0178 -2.5707 -0.0909
 1402SOL    HW215843   1.927   1.997   6.987  0.5828  3.5037  0.6361
 1403SOL     OW15844   4.503   1.028   8.893 -0.3263 -0.2135 -0.3099
 1403SOL    HW115845   4.596   1.022   8.868  0.2228 -0.8594  1.8500
 1403SOL    HW215846   4.502   1.117   8.928 -0.2971 -0.6573  0.8287
 1404SOL     OW15847   1.450   2.319   5.428 -0.0138  0.1552 -0.0640
 1404SOL    HW115848   1.492   2.275   5.501  1.8975 -1.1837 -1.9500
 1404SOL    HW215849   1.406   2.248   5.381 -0.4960  1.5718 -1.7911
 1405SOL     OW15850   1.486   4.381   0.336  0.4286  0.0755 -0.1935
 1405SOL    HW115851   1.453   4.389   0.246 -0.0741  3.4867  0.3035
 1405SOL    HW215852   1.538   4.304   0.313  0.6028  0.2037 -0.2329
 1406SOL     OW15853   4.099   4.249   2.294 -0.5726 -0.3343  0.4280
 1406SOL    HW115854   4.080   4.192   2.369 -1.8552  0.2554  0.5501
 1406SOL    HW215855   4.083   4.187   2.222 -0.7696 -1.1404  1.1576
 1407SOL     OW15856   3.459   2.443   4.989 -0.1682 -0.0566 -0.3939
 1407SOL    HW115857   3.514   2.520   5.001  0.9108 -0.6192 -1.6592
 1407SOL    HW215858   3.496   2.397   4.913 -2.3576 -1.9313 -0.3507
 1408SOL     OW15859   2.488   3.957   3.033  0.2662 -0.1947  0.3938
 1408SOL    HW115860   2.526   3.870   3.029  0.6907  0.0480 -0.8787
 1408SOL    HW215861   2.402   3.937   2.994 -0.1571  0.5762  0.9343
 1409SOL     OW15862   4.240   2.141  17.216  0.3834  0.5584 -0.0716
 1409SOL    HW115863   4.153   2.103  17.226  0.3383  1.0911  1.5925
 1409SOL    HW215864   4.265   2.116  17.127  0.7501  0.6371  0.0086
 1410SOL     OW15865   2.955   2.954  12.618  0.1754 -0.9732  0.3503
 1410SOL    HW115866   2.984   3.037  12.580  0.9591 -1.4248 -0.0259
 1410SOL    HW215867   2.871   2.987  12.651  1.0809 -2.0020  3.7141
 1411SOL     OW15868   1.850   0.525   8.974  0.5233  0.6578 -0.6172
 1411SOL    HW115869   1.929   0.484   8.940  0.3396 -0.7986  0.7084
 1411SOL    HW215870   1.879   0.572   9.052  0.8584  2.2650 -1.7285
 1412SOL     OW15871   4.681   1.552   1.149  0.0305  0.2708  0.5199
 1412SOL    HW115872   4.632   1.492   1.092 -0.8768 -0.4307  2.0412
 1412SOL    HW215873   4.626   1.578   1.223 -0.0752  0.4112  0.3918
 1413SOL     OW15874   4.041   0.791  17.603 -0.1764  0.4554  0.2231
 1413SOL    HW115875   3.951   0.810  17.579 -0.1553 -1.7654 -1.5765
 1413SOL    HW215876   4.076   0.864  17.551  0.1458 -0.5532 -0.9762
 1414SOL     OW15877   3.733   2.891   6.488  0.1230 -0.6012 -0.0937
 1414SOL    HW115878   3.708   2.831   6.418  0.2692 -3.1645  2.0224
 1414SOL    HW215879   3.827   2.885   6.504  0.2235 -0.1935 -0.5316
 1415SOL     OW15880   3.399   0.226   0.559  0.4423  0.4349  0.0385
 1415SOL    HW115881   3.398   0.318   0.531  0.1866  0.5790  0.5379
 1415SOL    HW215882   3.415   0.243   0.651  1.3796 -0.0060 -0.0473
 1416SOL     OW15883   2.829   1.666   8.796  0.3545  0.1146  1.0248
 1416SOL    HW115884   2.753   1.720   8.818 -0.5124 -1.4393  1.8221
 1416SOL    HW215885   2.883   1.676   8.875 -2.2829  3.2651  2.4217
 1417SOL     OW15886   0.888   1.367   4.480 -0.2009 -0.2951  0.0571
 1417SOL    HW115887   0.827   1.439   4.469 -1.0115 -1.1045 -0.7128
 1417SOL    HW215888   0.963   1.390   4.425  0.1742  1.6370  1.3747
 1418SOL     OW15889   0.806   3.434  11.022 -0.5538  0.5281  0.0706
 1418SOL    HW115890   0.897   3.453  11.044 -0.3156 -0.5678  0.0441
 1418SOL    HW215891   0.785   3.368  11.088  1.8174  1.4366  1.7669
 1419SOL     OW15892   3.792   2.398   5.831 -0.0600  0.1530 -0.3005
 1419SOL    HW115893   3.838   2.444   5.761  1.5829 -0.3278  0.4627
 1419SOL    HW215894   3.710   2.371   5.790 -1.3485  2.0546  0.9859
 1420SOL     OW15895   1.818   3.067   6.813 -0.2236 -0.2346  0.2769
 1420SOL    HW115896   1.865   3.148   6.790  1.9248 -1.6511 -0.3183
 1420SOL    HW215897   1.890   3.006   6.799 -0.7297 -1.7501  4.4275
 1421SOL     OW15898   0.230   2.592   2.209  0.3516 -0.0393 -0.0545
 1421SOL    HW115899   0.157   2.650   2.232  1.1212  0.1287  1.9481
 1421SOL    HW215900   0.272   2.636   2.135 -0.7638  0.1041 -0.5986
 1422SOL     OW15901   2.097   0.413  12.612 -0.3547 -0.2841  0.0468
 1422SOL    HW115902   2.158   0.345  12.641  1.2332  1.1528  0.0536
 1422SOL    HW215903   2.149   0.491  12.628 -2.0840  1.0958 -0.9981
 1423SOL     OW15904   1.383   3.464   8.726 -0.1484 -0.3192  0.2817
 1423SOL    HW115905   1.296   3.454   8.766  0.1020 -0.9205  0.6843
 1423SOL    HW215906   1.403   3.373   8.704  3.3666 -0.4331  3.8991
 1424SOL     OW15907   3.495   3.092   8.100  0.0718  0.5199  0.0838
 1424SOL    HW115908   3.459   3.163   8.153  2.0624 -0.4420  2.7197
 1424SOL    HW215909   3.448   3.090   8.017 -0.9112 -0.7656  0.6733
 1425SOL     OW15910   4.458   1.885   2.346  0.0641 -0.3508  0.2329
 1425SOL    HW115911   4.389   1.870   2.410 -0.6886 -0.6223 -0.6292
 1425SOL    HW215912   4.400   1.908   2.273 -1.0758  0.3676  1.3740
 1426SOL     OW15913   1.863   2.267  13.260  0.2152 -0.0207 -0.0967
 1426SOL    HW115914   1.846   2.341  13.318  0.1024 -0.6151  0.6266
 1426SOL    HW215915   1.839   2.194  13.318  1.7919 -1.2820 -0.9988
 1427SOL     OW15916   2.522   2.621  12.324 -0.2223 -0.0601 -0.4337
 1427SOL    HW115917   2.560   2.607  12.411 -0.6377  0.2434 -0.2026
 1427SOL    HW215918   2.461   2.547  12.326  0.5358 -0.6113  2.9381
 1428SOL     OW15919   4.584   0.829   4.578  0.3643  0.2236  0.2639
 1428SOL    HW115920   4.650   0.843   4.509 -1.7666 -1.5784 -2.1234
 1428SOL    HW215921   4.638   0.823   4.657  1.8571 -2.4050 -0.9714
 1429SOL     OW15922   4.378   0.557   7.311  0.4561  0.2728  0.5448
 1429SOL    HW115923   4.356   0.493   7.378 -0.5510  0.1224  0.0766
 1429SOL    HW215924   4.385   0.639   7.360  1.0117  0.9198 -0.5998
 1430SOL     OW15925   3.716   4.556  14.690  0.0132 -0.4102  0.1472
 1430SOL    HW115926   3.743   4.633  14.639  0.0893 -0.0960  0.6686
 1430SOL    HW215927   3.787   4.551  14.753  1.2560 -0.9213 -1.2789
 1431SOL     OW15928   0.998   1.453   7.022  0.4029 -0.0562 -0.2463
 1431SOL    HW115929   1.070   1.506   6.987  0.1880 -0.1839 -0.8786
 1431SOL    HW215930   0.930   1.459   6.954  0.8934  2.4939 -0.5381
 1432SOL     OW15931   4.105   2.333   5.704 -0.4957 -0.0952  0.3310
 1432SOL    HW115932   4.139   2.422   5.694 -1.6973  0.3119 -0.2120
 1432SOL    HW215933   4.161   2.291   5.639 -1.0955 -1.5310  0.7458
 1433SOL     OW15934   4.582   4.142   3.583  0.4464  0.6343 -0.1127
 1433SOL    HW115935   4.642   4.110   3.516  0.6047 -0.7034  0.6674
 1433SOL    HW215936   4.506   4.158   3.528 -1.1532  0.7494  2.1090
 1434SOL     OW15937   2.809   0.931  11.125 -0.2860  0.6443  0.2256
 1434SOL    HW115938   2.718   0.945  11.151 -0.1975  0.0523  0.8598
 1434SOL    HW215939   2.856   0.993  11.180 -3.0961  0.4404  2.8372
 1435SOL     OW15940   2.257   0.247   6.976 -0.2499 -0.4008 -0.0891
 1435SOL    HW115941   2.319   0.183   6.940  1.2860  1.1450 -0.2336
 1435SOL    HW215942   2.310   0.324   6.998  3.3988 -3.0101  0.2716
 1436SOL     OW15943   4.074   4.240   8.307 -0.3459 -0.1233 -0.1676
 1436SOL    HW115944   3.994   4.239   8.256  0.5948  1.9255 -1.6953
 1436SOL    HW215945   4.123   4.169   8.265 -0.9235 -0.4205 -0.3305
 1437SOL     OW15946   4.312   2.343   5.298  0.3301 -0.1346  0.2450
 1437SOL    HW115947   4.398   2.384   5.299  0.4014 -0.3277  1.1798
 1437SOL    HW215948   4.252   2.417   5.306  0.8602  0.4314 -0.9452
 1438SOL     OW15949   0.282   0.227   7.323  0.1145 -0.3208 -0.1612
 1438SOL    HW115950   0.312   0.236   7.233  2.2000  0.5853  0.6244
 1438SOL    HW215951   0.293   0.318   7.351  1.0925 -0.2235 -0.9021
 1439SOL     OW15952   1.636   1.067   9.046 -0.4161  0.3442  0.3001
 1439SOL    HW115953   1.722   1.046   9.082  0.1246 -1.4127 -2.0354
 1439SOL    HW215954   1.649   1.032   8.957 -3.7935 -0.2867  0.0338
 1440SOL     OW15955   2.535   0.778   6.112 -0.1764  0.1504 -0.0844
 1440SOL    HW115956   2.587   0.853   6.083  0.4471  0.4965  1.8903
 1440SOL    HW215957   2.603   0.746   6.171 -1.6820  0.0229  1.5916
 1441SOL     OW15958   4.066   2.999   9.102 -0.1343  0.4430  0.0562
 1441SOL    HW115959   4.070   3.078   9.156  0.1944 -0.0619  0.7680
 1441SOL    HW215960   4.014   3.036   9.031 -0.8252  0.5424  0.6166
 1442SOL     OW15961   1.597   1.305   2.810  0.0076 -0.0666 -0.4842
 1442SOL    HW115962   1.602   1.216   2.846  1.2565  0.5360  0.8208
 1442SOL    HW215963   1.691   1.320   2.798  0.3076  0.0848  2.2113
 1443SOL     OW15964   1.232   3.091  10.675  0.8785  0.0665 -0.1810
 1443SOL    HW115965   1.310   3.040  10.655  1.2744  0.9457 -0.8824
 1443SOL    HW215966   1.192   3.014  10.714  0.4806  0.8676  1.0065
 1444SOL     OW15967   1.235   1.620   5.147 -0.3683  0.5041 -0.2649
 1444SOL    HW115968   1.215   1.530   5.172  0.1106  0.7753  1.0975
 1444SOL    HW215969   1.234   1.607   5.052 -2.7491 -3.1606  0.2541
 1445SOL     OW15970   3.745   3.669   6.808  0.1470  0.0756  0.1921
 1445SOL    HW115971   3.733   3.698   6.898 -1.7388  1.1953 -0.4226
 1445SOL    HW215972   3.657   3.689   6.775 -1.0799 -0.8156  2.8985
 1446SOL     OW15973   1.222   2.002   5.711  0.0143 -0.0713  0.4421
 1446SOL    HW115974   1.311   1.989   5.742 -1.5235 -1.0099  4.4708
 1446SOL    HW215975   1.231   1.945   5.635 -0.6922 -1.9776  1.7794
 1447SOL     OW15976   2.414   3.486  16.956  0.0631  0.2746 -0.1428
 1447SOL    HW115977   2.498   3.506  16.999  0.8617  0.5392 -1.8254
 1447SOL    HW215978   2.454   3.441  16.881 -3.3616  0.2757 -1.9526
 1448SOL     OW15979   1.432   4.086   4.588  0.0696 -0.2295 -0.2783
 1448SOL    HW115980   1.424   4.102   4.494 -0.5174  0.9057 -0.0424
 1448SOL    HW215981   1.512   4.128   4.618 -1.2141 -0.8420  4.0272
 1449SOL     OW15982   0.882   1.486   0.478 -0.2536  0.2562  0.1659
 1449SOL    HW115983   0.796   1.459   0.510 -0.8359 -0.0589 -1.6641
 1449SOL    HW215984   0.868   1.579   0.463 -0.5865  0.1381 -0.2523
 1450SOL     OW15985   3.344   4.452   1.302 -0.6862 -0.1863  0.6684
 1450SOL    HW115986   3.312   4.376   1.350 -0.1012 -0.8470  0.0041
 1450SOL    HW215987   3.278   4.518   1.323  0.1096  0.4819  1.0687
 1451SOL     OW15988   1.237   1.065   6.641 -0.6156 -0.0678 -0.4820
 1451SOL    HW115989   1.248   1.150   6.600 -0.6445  0.5017  0.6924
 1451SOL    HW215990   1.309   1.074   6.703 -1.2423 -0.3652  0.2942
 1452SOL     OW15991   4.670   0.497   8.055  0.2524  0.0199 -0.0038
 1452SOL    HW115992   4.712   0.420   8.018 -0.2027  0.2043 -0.9057
 1452SOL    HW215993   4.577   0.481   8.036  0.1833  0.7888 -0.3336
 1453SOL     OW15994   4.107   3.881   6.422 -0.4913 -0.1745 -0.3011
 1453SOL    HW115995   4.046   3.927   6.364 -2.5958  0.1949  2.1739
 1453SOL    HW215996   4.124   3.804   6.368  0.3612 -0.6066  0.5667
 1454SOL     OW15997   4.256   3.310  11.034  0.2305  0.3015 -0.4396
 1454SOL    HW115998   4.318   3.243  11.061  0.7429  0.9871  0.0837
 1454SOL    HW215999   4.170   3.273  11.053  1.1482 -2.4313 -1.6546
 1455SOL     OW16000   2.560   0.982   7.529 -0.1407 -0.0878  0.4094
 1455SOL    HW116001   2.504   0.971   7.605  0.8619 -2.9013  0.7769
 1455SOL    HW216002   2.628   1.043   7.557  0.2265 -0.3605  0.1265
 1456SOL     OW16003   3.705   3.603  10.194  0.3856 -0.5610  0.0474
 1456SOL    HW116004   3.625   3.551  10.204 -0.3566  0.2141 -1.8111
 1456SOL    HW216005   3.728   3.605  10.101  1.8941 -0.7662  0.4167
 1457SOL     OW16006   2.312   0.631   0.594  0.6471 -0.3141 -0.0203
 1457SOL    HW116007   2.305   0.553   0.649  0.4052  1.4412  2.4648
 1457SOL    HW216008   2.237   0.630   0.534 -1.3345 -0.9655  2.4765
 1458SOL     OW16009   2.314   3.868  16.294 -0.2406 -0.3143 -0.6778
 1458SOL    HW116010   2.227   3.907  16.292 -0.5561 -0.9962 -0.2989
 1458SOL    HW216011   2.328   3.859  16.199 -0.4317  1.3299 -0.8476
 1459SOL     OW16012   2.686   0.808  12.438  0.3936  0.9999  0.0890
 1459SOL    HW116013   2.747   0.825  12.509  0.1277 -1.0937  0.8324
 1459SOL    HW216014   2.739   0.759  12.374 -0.7058 -0.7657  0.5171
 1460SOL     OW16015   2.094   3.066   6.321 -0.3590 -0.1359 -0.3504
 1460SOL    HW116016   2.119   3.120   6.245  1.3796  0.0657  0.3571
 1460SOL    HW216017   2.178   3.019   6.324  1.0825  2.4685  0.7177
 1461SOL     OW16018   4.124   2.444   8.573  0.2201 -0.0233 -0.1114
 1461SOL    HW116019   4.086   2.527   8.545  0.0330 -0.4404 -1.1195
 1461SOL    HW216020   4.128   2.407   8.485 -1.5743 -3.4010  1.2282
 1462SOL     OW16021   4.449   3.664   5.254  0.1043  0.5707  0.3726
 1462SOL    HW116022   4.512   3.684   5.322 -1.7919 -0.5640  2.4849
 1462SOL    HW216023   4.498   3.614   5.188 -1.0528 -0.8842  0.5996
 1463SOL     OW16024   3.964   3.492   1.753  0.0031  0.3015 -0.1854
 1463SOL    HW116025   3.969   3.456   1.842 -0.4157 -0.8438 -0.6196
 1463SOL    HW216026   3.952   3.410   1.704  1.4730  0.2423 -0.4542
 1464SOL     OW16027   3.174   1.384   2.063 -0.5014 -0.0144  1.0292
 1464SOL    HW116028   3.095   1.333   2.046  0.3481 -0.5415 -1.3647
 1464SOL    HW216029   3.243   1.333   2.021 -1.0222 -0.1271  0.3049
 1465SOL     OW16030   4.690   0.485   6.728  0.2352  0.4099  0.6097
 1465SOL    HW116031   4.707   0.576   6.750  0.5737  0.5750 -0.3601
 1465SOL    HW216032   4.596   0.474   6.747  0.4966 -0.5027  1.3946
 1466SOL     OW16033   1.327   2.720   2.782  0.2082  0.1556 -0.1162
 1466SOL    HW116034   1.277   2.783   2.834  0.7658 -0.4390  1.1536
 1466SOL    HW216035   1.375   2.779   2.724 -0.1877  0.6076  0.0188
 1467SOL     OW16036   1.475   4.641   2.790 -0.9563  0.0322 -0.0734
 1467SOL    HW116037   1.536   4.704   2.828  0.7386 -1.4236 -0.3944
 1467SOL    HW216038   1.526   4.562   2.805 -0.0410  0.2837 -1.8214
 1468SOL     OW16039   2.830   3.883   0.459 -0.6091 -0.0164 -0.0156
 1468SOL    HW116040   2.855   3.941   0.386 -2.3145  1.9265  0.9508
 1468SOL    HW216041   2.821   3.797   0.418  0.4462 -0.9390  1.6867
 1469SOL     OW16042   3.877   2.074   4.882 -0.0056 -0.5031  0.2643
 1469SOL    HW116043   3.932   2.016   4.830 -0.6613 -0.7770 -0.1233
 1469SOL    HW216044   3.928   2.155   4.888  0.3247 -0.8825  2.5782
 1470SOL     OW16045   2.963   2.985   5.767  0.0341  0.3146  0.6624
 1470SOL    HW116046   2.988   3.052   5.704 -4.0115 -0.8156 -2.1166
 1470SOL    HW216047   3.021   3.011   5.839 -0.8835 -0.0772  1.5499
 1471SOL     OW16048   0.340   4.500   3.432  0.2767 -0.2437 -0.1079
 1471SOL    HW116049   0.360   4.580   3.383  0.2420 -1.2077 -1.6719
 1471SOL    HW216050   0.291   4.450   3.366  2.4560  0.2200 -2.0700
 1472SOL     OW16051   4.527   0.646   7.637 -0.2209 -0.3352 -0.1500
 1472SOL    HW116052   4.490   0.662   7.550  1.5302  2.9393 -0.2789
 1472SOL    HW216053   4.575   0.563   7.634 -0.1208 -0.2428 -1.2291
 1473SOL     OW16054   2.271   2.047   9.951 -0.7192  0.1984 -0.2221
 1473SOL    HW116055   2.362   2.061   9.975 -1.1388  2.5039  0.0430
 1473SOL    HW216056   2.225   2.061  10.034 -1.5017  0.5381 -0.7166
 1474SOL     OW16057   2.161   3.161   2.411  1.2431  0.2480 -0.1637
 1474SOL    HW116058   2.110   3.239   2.432  0.8351  0.0542 -0.4212
 1474SOL    HW216059   2.177   3.185   2.319 -1.6687 -2.3296 -1.3606
 1475SOL     OW16060   3.234   1.312   4.878  0.4037 -0.2842 -0.1176
 1475SOL    HW116061   3.169   1.381   4.895  0.8534 -0.1178  0.9590
 1475SOL    HW216062   3.176   1.241   4.903  1.1194 -1.1988 -1.0707
 1476SOL     OW16063   0.728   3.954   1.657 -0.1696  0.8046  0.6088
 1476SOL    HW116064   0.734   4.030   1.715 -0.1837  0.4917  1.0244
 1476SOL    HW216065   0.731   3.996   1.571 -4.3964  1.2477  0.6560
 1477SOL     OW16066   3.821   3.181   7.531 -0.0165 -0.0015 -0.5592
 1477SOL    HW116067   3.754   3.145   7.590  1.4389 -0.8087  0.6204
 1477SOL    HW216068   3.786   3.142   7.451  1.7072  1.3137 -1.9317
 1478SOL     OW16069   4.512   1.370   6.068  0.1261  0.1116 -0.1310
 1478SOL    HW116070   4.476   1.414   5.991  1.4330  1.9819  0.3222
 1478SOL    HW216071   4.519   1.451   6.120 -2.5554  0.6512 -0.6338
 1479SOL     OW16072   0.973   0.187   4.258  0.3309  0.2222  0.1140
 1479SOL    HW116073   1.005   0.132   4.186 -0.4432  1.2728 -1.0354
 1479SOL    HW216074   0.880   0.196   4.236  0.7475 -0.9314 -2.2046
 1480SOL     OW16075   3.687   1.660  14.317  0.4708 -0.3461  0.6222
 1480SOL    HW116076   3.627   1.619  14.380  0.9536 -2.0468 -0.0194
 1480SOL    HW216077   3.774   1.631  14.347  0.8114 -1.7715 -1.7542
 1481SOL     OW16078   1.861   1.835   0.588 -0.4976 -0.0753  0.0373
 1481SOL    HW116079   1.942   1.829   0.537 -1.7905 -0.8807 -1.9482
 1481SOL    HW216080   1.795   1.803   0.526 -0.7258 -0.7768  0.6372
 1482SOL     OW16081   1.324   4.298  16.412  0.2612  0.0688 -0.3816
 1482SOL    HW116082   1.308   4.390  16.392 -0.7131  0.3556  1.7076
 1482SOL    HW216083   1.233   4.268  16.418  0.8389 -1.4451  1.0415
 1483SOL     OW16084   0.668   3.650  15.563  0.1641 -0.0036  0.5834
 1483SOL    HW116085   0.618   3.623  15.486  0.0114 -1.6008  1.2206
 1483SOL    HW216086   0.659   3.565  15.608 -0.6554 -0.2901 -0.1205
 1484SOL     OW16087   4.035   2.688  13.465 -0.4308 -0.6503 -0.7091
 1484SOL    HW116088   4.078   2.606  13.486  0.1083  0.8185  3.8052
 1484SOL    HW216089   3.972   2.682  13.537 -0.8287  0.3495 -0.9752
 1485SOL     OW16090   1.815   4.073  16.454  0.8414 -0.1752  0.5256
 1485SOL    HW116091   1.817   4.053  16.548  0.5539 -1.3867  0.2697
 1485SOL    HW216092   1.882   4.010  16.428  1.4748  0.3160  0.9534
 1486SOL     OW16093   3.491   3.420  11.639 -0.0457 -0.2088  0.1622
 1486SOL    HW116094   3.491   3.326  11.659 -1.9726  0.2041  2.0902
 1486SOL    HW216095   3.410   3.426  11.589 -0.5701  1.5267  1.2354
 1487SOL     OW16096   1.164   0.512  13.710  0.4029 -0.0953 -0.3841
 1487SOL    HW116097   1.121   0.595  13.690  0.8632  0.7386  2.0564
 1487SOL    HW216098   1.240   0.507  13.653  0.0507 -3.5614 -0.5499
 1488SOL     OW16099   2.518   4.738   4.574 -0.4434  0.0523  0.2926
 1488SOL    HW116100   2.482   0.083   4.548 -0.6742  0.1826  1.0149
 1488SOL    HW216101   2.453   4.680   4.533  0.7130 -1.8196  1.0931
 1489SOL     OW16102   4.035   2.722   9.063  0.3163 -0.0451  0.2088
 1489SOL    HW116103   4.105   2.721   8.999 -1.7652 -1.4825 -2.0539
 1489SOL    HW216104   4.030   2.818   9.071 -0.5309 -0.0724  0.0218
 1490SOL     OW16105   0.520   0.423   9.262  0.0743 -0.1872 -0.0768
 1490SOL    HW116106   0.593   0.433   9.201  1.2879  1.7254  1.6918
 1490SOL    HW216107   0.495   0.332   9.246  1.3976 -0.2777 -1.6018
 1491SOL     OW16108   1.739   3.701   6.215  0.1048 -0.3611  0.0205
 1491SOL    HW116109   1.820   3.682   6.169  0.1414  0.8899 -0.4488
 1491SOL    HW216110   1.769   3.706   6.306 -1.7285  1.2042  0.5432
 1492SOL     OW16111   4.505   0.529   8.684 -0.5298 -0.1652  0.2582
 1492SOL    HW116112   4.522   0.499   8.594 -0.7603  0.8283 -0.1116
 1492SOL    HW216113   4.542   0.617   8.681 -0.7234 -0.1209 -0.8826
 1493SOL     OW16114   2.643   3.837   8.957 -0.0769  0.0408  0.0156
 1493SOL    HW116115   2.550   3.856   8.942 -0.6353 -0.9264  2.2125
 1493SOL    HW216116   2.684   3.917   8.924  0.6202 -0.0758  0.6076
 1494SOL     OW16117   4.165   2.322   5.983  0.1787 -0.0163 -0.0561
 1494SOL    HW116118   4.134   2.295   5.897 -0.5801  0.9799 -0.0887
 1494SOL    HW216119   4.189   2.240   6.026  0.6808  0.0163 -0.2807
 1495SOL     OW16120   0.769   0.666  10.676  0.3157 -0.3238  0.1757
 1495SOL    HW116121   0.702   0.610  10.637 -0.5785  1.4695 -0.8699
 1495SOL    HW216122   0.718   0.731  10.724  0.1480 -0.0044 -0.4371
 1496SOL     OW16123   4.217   4.262  13.865  0.5576  0.0663  0.9361
 1496SOL    HW116124   4.247   4.172  13.874  0.5796 -0.0375 -0.2542
 1496SOL    HW216125   4.130   4.243  13.829 -0.1768  0.9908  2.1788
 1497SOL     OW16126   2.476   4.596  16.546 -0.4087 -0.2612  0.5956
 1497SOL    HW116127   2.460   4.642  16.464 -2.4173 -1.9947  0.0157
 1497SOL    HW216128   2.471   4.672  16.604 -1.9168  1.3567 -1.6735
 1498SOL     OW16129   4.303   3.010   1.492  0.5306 -0.5827  0.5426
 1498SOL    HW116130   4.327   3.028   1.401 -1.6605  0.7195  0.2164
 1498SOL    HW216131   4.341   3.079   1.547  1.4648 -0.8448  0.2332
 1499SOL     OW16132   1.641   1.244  14.594 -0.7314  0.1379  0.1020
 1499SOL    HW116133   1.609   1.269  14.680 -1.8785  1.4980 -0.7137
 1499SOL    HW216134   1.688   1.323  14.566 -0.7358 -1.1172 -3.4645
 1500SOL     OW16135   4.592   1.073  10.709  0.3217  0.1646 -0.3146
 1500SOL    HW116136   4.640   1.134  10.653  0.4023 -1.5005 -2.0675
 1500SOL    HW216137   4.501   1.097  10.692  0.4522 -0.7380 -2.3217
 1501SOL     OW16138   4.143   1.512   9.158 -0.3973 -0.3048 -0.3433
 1501SOL    HW116139   4.126   1.420   9.139 -1.7944 -0.0985 -0.1257
 1501SOL    HW216140   4.237   1.516   9.140 -0.4680  1.2232 -0.4211
 1502SOL     OW16141   1.831   2.145   7.883  0.7034  0.1976 -0.1629
 1502SOL    HW116142   1.800   2.087   7.953  0.4092  0.5257 -0.0239
 1502SOL    HW216143   1.926   2.146   7.894  0.7410  2.1658 -0.7886
 1503SOL     OW16144   1.790   4.485  14.707 -0.0381 -0.1612 -0.6554
 1503SOL    HW116145   1.754   4.397  14.694  1.1250 -1.2428  3.5331
 1503SOL    HW216146   1.784   4.520  14.618 -1.2585  1.7565  0.1863
 1504SOL     OW16147   0.408   3.526   4.143  0.3699 -0.2422  1.0007
 1504SOL    HW116148   0.414   3.497   4.052  0.7769  0.5306  0.7821
 1504SOL    HW216149   0.317   3.555   4.148  0.7595  1.5482 -2.4531
 1505SOL     OW16150   2.170   3.858   9.693  0.1309  0.0169  0.5513
 1505SOL    HW116151   2.115   3.788   9.659  1.7158 -0.1253 -1.6576
 1505SOL    HW216152   2.223   3.814   9.760 -0.7112 -1.0696  0.5005
 1506SOL     OW16153   0.161   3.402   9.401 -0.1955  0.4854 -0.0698
 1506SOL    HW116154   0.138   3.430   9.489  0.9995  1.0361  0.0599
 1506SOL    HW216155   0.243   3.356   9.414 -1.3345 -1.3272  0.7573
 1507SOL     OW16156   2.532   1.170   8.538 -0.1804 -0.4301  0.3775
 1507SOL    HW116157   2.594   1.142   8.605  1.4566 -0.0631 -0.9838
 1507SOL    HW216158   2.453   1.119   8.553 -0.3143  0.2588  2.0073
 1508SOL     OW16159   1.234   3.373   0.057  0.2477 -0.2105 -0.4473
 1508SOL    HW116160   1.199   3.411   0.138  0.6597 -0.5349 -0.1174
 1508SOL    HW216161   1.263   3.453   0.012  3.7377 -0.2659  1.6814
 1509SOL     OW16162   3.569   0.409   3.912  0.4566 -0.3596  0.4680
 1509SOL    HW116163   3.542   0.320   3.932  1.2008 -1.2964 -2.8236
 1509SOL    HW216164   3.651   0.407   3.963  0.1054 -2.0885  0.9393
 1510SOL     OW16165   0.942   0.827  14.865 -0.0301 -0.0404 -0.2638
 1510SOL    HW116166   0.900   0.746  14.838  0.6212 -0.8554  1.1687
 1510SOL    HW216167   0.901   0.843  14.950  2.7154 -1.1686  1.2933
 1511SOL     OW16168   2.753   3.959  11.426  0.0560 -0.0634 -0.3381
 1511SOL    HW116169   2.756   4.054  11.415 -2.2336  0.0314 -0.0355
 1511SOL    HW216170   2.665   3.926  11.442  0.2892 -0.9598 -0.8687
 1512SOL     OW16171   3.017   0.019  15.315 -0.4335 -0.3901  0.6380
 1512SOL    HW116172   2.924   0.003  15.327 -0.9946  1.3642 -1.3922
 1512SOL    HW216173   3.051   4.670  15.333 -1.0431 -0.8549 -0.4625
 1513SOL     OW16174   0.736   2.608  15.321  0.3442 -0.3108 -0.0396
 1513SOL    HW116175   0.679   2.674  15.360  0.4571 -1.8256  2.7232
 1513SOL    HW216176   0.678   2.569  15.256 -1.3321  3.7149 -0.9480
 1514SOL     OW16177   1.576   4.493   7.566  0.3084 -0.1945  0.1514
 1514SOL    HW116178   1.516   4.438   7.616  0.1211 -1.2648 -1.2479
 1514SOL    HW216179   1.513   4.556   7.532 -1.7999 -1.7806  1.1416
 1515SOL     OW16180   4.254   3.518   5.636  0.5390  0.3394 -0.3642
 1515SOL    HW116181   4.207   3.599   5.615 -0.0057 -0.3863 -1.9525
 1515SOL    HW216182   4.189   3.469   5.686 -0.6602  2.9788  0.6302
 1516SOL     OW16183   0.602   2.084   6.244 -0.1150 -0.1890  0.0708
 1516SOL    HW116184   0.529   2.068   6.184  0.4059 -0.6150 -0.4603
 1516SOL    HW216185   0.611   2.179   6.237 -0.5830 -0.2463 -1.3565
 1517SOL     OW16186   1.990   0.906   6.394 -0.1402 -0.4362  0.1004
 1517SOL    HW116187   1.973   0.985   6.446 -0.1028 -0.8261  0.7049
 1517SOL    HW216188   1.938   0.847   6.449 -2.8225  1.6207 -0.1974
 1518SOL     OW16189   0.778   3.624   3.507 -0.2462  0.2846 -0.4798
 1518SOL    HW116190   0.848   3.683   3.480  0.8834 -1.7461 -1.9869
 1518SOL    HW216191   0.740   3.658   3.588  0.1351  0.3684 -0.3330
 1519SOL     OW16192   3.131   3.601   3.154  0.4021  0.4252 -0.0197
 1519SOL    HW116193   3.071   3.530   3.134  2.8328 -1.2487 -1.3408
 1519SOL    HW216194   3.192   3.578   3.085  0.8608 -0.8139  0.7881
 1520SOL     OW16195   2.279   2.806  15.391 -0.0639  0.0168  0.0404
 1520SOL    HW116196   2.237   2.767  15.468  0.5064  0.2073  0.4443
 1520SOL    HW216197   2.356   2.751  15.378 -1.1901 -1.3144 -1.0068
 1521SOL     OW16198   3.891   0.934   0.674 -0.2265  0.4399 -0.5029
 1521SOL    HW116199   3.959   0.876   0.710 -0.2198  1.5623  1.2985
 1521SOL    HW216200   3.900   0.921   0.580 -2.6284 -0.2651 -0.6350
 1522SOL     OW16201   4.588   0.873   7.795  0.6966  0.4413 -0.3192
 1522SOL    HW116202   4.503   0.916   7.790  0.3782 -0.1765 -0.2266
 1522SOL    HW216203   4.567   0.789   7.754 -0.2305  1.5563 -2.1279
 1523SOL     OW16204   2.051   3.718  16.655 -0.2313 -0.3114 -0.1650
 1523SOL    HW116205   2.064   3.809  16.679  1.1703 -0.7400  0.6826
 1523SOL    HW216206   2.096   3.677  16.729  0.5007  1.5227  0.4099
 1524SOL     OW16207   1.464   0.797  17.220 -0.1153 -0.0528  0.6818
 1524SOL    HW116208   1.548   0.843  17.228  0.3096 -1.0281  1.8513
 1524SOL    HW216209   1.423   0.862  17.163  1.2067 -0.7969 -1.0855
 1525SOL     OW16210   1.272   0.189   7.425  0.1943 -0.1800 -0.3665
 1525SOL    HW116211   1.270   0.271   7.475 -0.7164 -2.0174  2.6061
 1525SOL    HW216212   1.198   0.141   7.464  1.0182 -0.3283  1.0122
 1526SOL     OW16213   3.480   2.669   1.901 -0.2022 -0.0440 -0.2809
 1526SOL    HW116214   3.407   2.607   1.905 -0.5494  0.2751 -1.8685
 1526SOL    HW216215   3.486   2.711   1.987 -1.9991  2.7066 -1.5078
 1527SOL     OW16216   3.996   2.265   4.210  0.1598 -0.5522 -0.1405
 1527SOL    HW116217   3.981   2.202   4.281 -0.3205  2.2675  2.2483
 1527SOL    HW216218   3.910   2.306   4.198  0.5470  0.0053 -1.0476
 1528SOL     OW16219   4.621   1.264   3.949  0.0371 -0.2240 -0.2090
 1528SOL    HW116220   4.672   1.183   3.952  1.1087  0.4103 -1.3750
 1528SOL    HW216221   4.595   1.259   3.857 -0.6277 -1.6724  0.0684
 1529SOL     OW16222   0.929   0.336  11.270 -0.5360  0.0245 -0.8208
 1529SOL    HW116223   0.970   0.414  11.233  0.9552  0.0073  0.8202
 1529SOL    HW216224   0.843   0.372  11.291 -0.5678  0.7048 -2.1373
 1530SOL     OW16225   2.071   3.503   5.253 -0.5437  0.4219  0.7078
 1530SOL    HW116226   2.163   3.475   5.245 -0.2812  1.1694  1.1418
 1530SOL    HW216227   2.062   3.576   5.191 -0.9795  0.4573  0.8149
 1531SOL     OW16228   1.874   3.610   7.713 -0.0214  0.1466 -0.4197
 1531SOL    HW116229   1.817   3.682   7.686 -1.1137 -0.8195 -0.6824
 1531SOL    HW216230   1.951   3.630   7.660  0.8282  0.8653  1.1078
 1532SOL     OW16231   2.801   4.357   1.871  0.1747 -0.0280 -0.2457
 1532SOL    HW116232   2.750   4.324   1.797  1.7309  0.4636 -1.5349
 1532SOL    HW216233   2.833   4.280   1.919 -0.3938  0.1120  0.3626
 1533SOL     OW16234   2.829   1.239   4.383 -0.2463  0.0636  0.5527
 1533SOL    HW116235   2.911   1.264   4.425 -0.1123  0.9707 -0.2392
 1533SOL    HW216236   2.825   1.146   4.405  0.2566  0.0614  0.6320
 1534SOL     OW16237   2.875   0.486   6.597  0.3139 -0.2785  0.8087
 1534SOL    HW116238   2.808   0.529   6.543 -0.3727 -0.3589  1.6001
 1534SOL    HW216239   2.874   0.553   6.665 -0.5700  0.4960  0.0351
 1535SOL     OW16240   3.881   2.607   4.251 -0.2925  0.1704 -0.0127
 1535SOL    HW116241   3.935   2.553   4.308  1.5701  2.1164  0.0637
 1535SOL    HW216242   3.906   2.688   4.295 -1.2204 -0.0653  0.9365
 1536SOL     OW16243   4.005   4.707   9.066 -0.4619 -0.2393 -0.3663
 1536SOL    HW116244   4.055   4.643   9.117  0.1860  0.4717 -0.1170
 1536SOL    HW216245   3.924   4.656   9.058 -2.0990  2.1255  1.2544
 1537SOL     OW16246   4.434   1.449   5.809  0.3346 -0.3657  0.1208
 1537SOL    HW116247   4.370   1.417   5.746  1.2308  1.6410 -1.8377
 1537SOL    HW216248   4.510   1.462   5.752  0.1511 -0.5379 -0.1625
 1538SOL     OW16249   1.934   2.638   0.081  0.2423 -0.2957  0.1004
 1538SOL    HW116250   1.881   2.608   0.155  1.8920  2.3712  2.4195
 1538SOL    HW216251   1.980   2.705   0.133  1.3790 -1.1271  0.1730
 1539SOL     OW16252   0.412   1.676   5.874  0.0622  0.5592  0.0947
 1539SOL    HW116253   0.340   1.612   5.870  1.2194 -0.6766 -0.7405
 1539SOL    HW216254   0.363   1.744   5.920  1.6864  1.2552  0.7792
 1540SOL     OW16255   3.073   2.641   8.402  0.4174 -0.2692  0.3749
 1540SOL    HW116256   3.001   2.668   8.345 -2.4348  1.2426  4.6689
 1540SOL    HW216257   3.127   2.580   8.352  1.6537  2.1545 -1.2605
 1541SOL     OW16258   2.149   1.775   7.161  0.2776 -0.0042 -0.0601
 1541SOL    HW116259   2.072   1.827   7.140 -0.9717 -2.0923 -0.6419
 1541SOL    HW216260   2.177   1.745   7.074  0.9635 -0.7514  0.4222
 1542SOL     OW16261   0.699   0.690   0.047 -0.5557 -0.8414 -0.5688
 1542SOL    HW116262   0.693   0.618   0.109  1.2409 -1.3555 -1.0034
 1542SOL    HW216263   0.736   0.757   0.105 -0.4538 -0.1168 -1.4608
 1543SOL     OW16264   1.803   2.956   0.857  0.1242 -0.0122  0.0062
 1543SOL    HW116265   1.722   2.993   0.892  0.1157 -2.1544  2.2299
 1543SOL    HW216266   1.778   2.864   0.854  1.2393 -0.2714 -0.9131
 1544SOL     OW16267   0.962   0.824   5.807  0.2946  0.0369 -0.2073
 1544SOL    HW116268   0.925   0.829   5.895 -0.3323 -0.7698 -0.4293
 1544SOL    HW216269   0.933   0.735   5.788  2.3528 -0.6383 -0.1724
 1545SOL     OW16270   0.452   0.461  15.523  0.0152 -0.0334 -0.5618
 1545SOL    HW116271   0.465   0.556  15.515  1.3590 -0.0622  1.2083
 1545SOL    HW216272   0.416   0.453  15.435  0.0871  0.6952 -0.6587
 1546SOL     OW16273   2.932   1.592   5.784  0.1156  0.2270 -0.2195
 1546SOL    HW116274   2.912   1.601   5.877 -1.3044 -1.4663 -0.3757
 1546SOL    HW216275   2.877   1.517   5.762  1.7883 -0.9010 -0.5512
 1547SOL     OW16276   2.858   0.280   6.108  0.1391 -0.1977 -0.6267
 1547SOL    HW116277   2.944   0.277   6.150 -0.2163 -2.3383 -0.0642
 1547SOL    HW216278   2.837   0.373   6.117  0.1710 -0.2739  0.2504
 1548SOL     OW16279   2.554   1.562   4.368  0.3051  0.2089 -0.2246
 1548SOL    HW116280   2.466   1.565   4.407  0.0101  0.5029 -0.9097
 1548SOL    HW216281   2.583   1.473   4.384  1.7982  0.8852  0.8013
 1549SOL     OW16282   0.797   3.223   7.326  0.1007  0.2987 -0.8314
 1549SOL    HW116283   0.860   3.293   7.343  0.2951  0.1748 -1.0446
 1549SOL    HW216284   0.719   3.252   7.374 -2.0053 -1.8885 -2.9194
 1550SOL     OW16285   3.763   2.272   7.434  0.1138  0.3659  0.6327
 1550SOL    HW116286   3.815   2.272   7.353 -1.2923 -0.3090 -0.2612
 1550SOL    HW216287   3.715   2.354   7.437  0.2032  0.4876 -0.7984
 1551SOL     OW16288   1.574   3.580  13.125 -0.0815  0.1714  0.5162
 1551SOL    HW116289   1.504   3.645  13.115  0.0705  0.0698 -1.2360
 1551SOL    HW216290   1.597   3.570  13.033 -0.2900  1.9637  0.2805
 1552SOL     OW16291   3.116   3.712   9.611  0.3107 -0.5098  0.2321
 1552SOL    HW116292   3.083   3.675   9.693 -1.0578  1.4554  0.5917
 1552SOL    HW216293   3.160   3.795   9.631  1.7684 -1.1602 -0.3371
 1553SOL     OW16294   0.698   3.124   5.627  0.6132 -0.0014  0.1134
 1553SOL    HW116295   0.678   3.143   5.535 -1.0737  0.8807  0.6652
 1553SOL    HW216296   0.791   3.142   5.640  0.9247 -1.8023  0.4633
 1554SOL     OW16297   3.466   0.325   9.405 -0.1284  0.1270  0.4139
 1554SOL    HW116298   3.446   0.236   9.432  2.3563 -1.1371 -1.8450
 1554SOL    HW216299   3.554   0.324   9.441 -0.1740  1.6314  0.5890
 1555SOL     OW16300   0.368   0.073  10.230  0.0072  0.8437  0.2381
 1555SOL    HW116301   0.462   0.054  10.225 -0.8223 -2.9754 -1.2019
 1555SOL    HW216302   0.339   4.735  10.182  0.6291  1.1884 -0.6870
 1556SOL     OW16303   4.584   1.178   4.333 -0.0442 -0.3076 -0.1061
 1556SOL    HW116304   4.508   1.127   4.305 -1.8249  2.8734 -1.0792
 1556SOL    HW216305   4.575   1.258   4.282 -0.1199  0.4926  1.1523
 1557SOL     OW16306   3.708   4.488  15.134 -0.1069 -0.0290 -0.3500
 1557SOL    HW116307   3.751   4.499  15.050  0.7297  1.5915  0.2840
 1557SOL    HW216308   3.786   4.481  15.189 -1.3913 -2.6288  1.1349
 1558SOL     OW16309   4.526   3.998   8.215 -0.3578 -0.2427  0.6893
 1558SOL    HW116310   4.563   4.075   8.258 -1.2234 -1.1899  3.1077
 1558SOL    HW216311   4.608   3.948   8.212  0.4752  1.1486  0.3067
 1559SOL     OW16312   4.065   4.365   7.696 -0.6730 -0.4135 -0.4424
 1559SOL    HW116313   3.978   4.346   7.659 -1.9203  0.8040  1.8152
 1559SOL    HW216314   4.119   4.357   7.618 -1.0619 -1.6781 -0.5819
 1560SOL     OW16315   2.644   3.743   5.161  0.6278 -0.1976  0.1047
 1560SOL    HW116316   2.637   3.693   5.080 -2.4948  0.3094  0.0417
 1560SOL    HW216317   2.578   3.811   5.146  0.8763  0.1985  0.7870
 1561SOL     OW16318   3.882   1.600   5.249  0.0382 -0.0367 -0.3346
 1561SOL    HW116319   3.863   1.668   5.184  0.1035  0.1659 -0.1436
 1561SOL    HW216320   3.866   1.647   5.331  2.4202  1.4030 -0.7222
 1562SOL     OW16321   2.041   1.058   3.908  0.2088  0.3184 -0.3429
 1562SOL    HW116322   2.127   1.034   3.945  0.9044  1.1002 -1.4441
 1562SOL    HW216323   2.018   1.110   3.985  1.3315  1.1474 -0.5509
 1563SOL     OW16324   4.560   2.944   7.989  0.2775 -0.6620 -0.5372
 1563SOL    HW116325   4.598   3.011   7.932 -1.7532 -0.0451 -1.1647
 1563SOL    HW216326   4.594   2.859   7.961  2.5976  0.3643 -0.8707
 1564SOL     OW16327   0.350   1.466  17.380  0.5535  0.2835 -0.2613
 1564SOL    HW116328   0.432   1.497  17.342  0.8380 -0.8640 -0.5883
 1564SOL    HW216329   0.347   1.515  17.463 -0.2886  0.3410 -0.3343
 1565SOL     OW16330   1.424   3.299   3.421  0.2815 -0.1831  0.0357
 1565SOL    HW116331   1.517   3.276   3.413  0.5211  0.5824  0.5817
 1565SOL    HW216332   1.414   3.364   3.352 -0.0073  0.3628  0.5903
 1566SOL     OW16333   4.314   0.821   3.909 -0.0149  0.6833 -0.0837
 1566SOL    HW116334   4.248   0.752   3.913 -1.3198  2.0007  0.7438
 1566SOL    HW216335   4.357   0.816   3.823  0.3730  1.3570  0.0673
 1567SOL     OW16336   3.059   2.202   8.227 -0.0315  0.1020  0.0336
 1567SOL    HW116337   3.111   2.170   8.301  0.2419 -1.4031 -0.8182
 1567SOL    HW216338   3.078   2.296   8.223 -1.7732  0.4035 -1.0359
 1568SOL     OW16339   2.031   0.409   1.286  0.2000  0.2151  0.1679
 1568SOL    HW116340   2.111   0.441   1.246  1.6341 -2.5334  0.8009
 1568SOL    HW216341   1.971   0.483   1.285  0.2458  0.2325 -1.7769
 1569SOL     OW16342   3.242   4.036  15.879  0.8432  0.1053 -0.2021
 1569SOL    HW116343   3.236   3.983  15.959  2.4224 -0.3117 -0.3618
 1569SOL    HW216344   3.335   4.052  15.864  0.7383  0.7221 -0.2057
 1570SOL     OW16345   3.785   0.233   1.169  0.1762  0.1129 -0.6196
 1570SOL    HW116346   3.854   0.286   1.206 -0.5816 -0.5475  1.7292
 1570SOL    HW216347   3.802   0.254   1.077  0.0012  2.6347 -0.0767
 1571SOL     OW16348   3.228   1.175  12.161 -0.1596  0.3821 -0.2036
 1571SOL    HW116349   3.280   1.176  12.241 -2.5496  4.2580  1.3086
 1571SOL    HW216350   3.192   1.087  12.170 -1.1604  0.6063 -1.9184
 1572SOL     OW16351   0.727   1.320  15.156  0.1251 -0.2624  0.0349
 1572SOL    HW116352   0.763   1.397  15.110  0.0645 -0.1685  0.1458
 1572SOL    HW216353   0.786   1.248  15.132  1.3301  0.4510  0.8364
 1573SOL     OW16354   0.175   2.012  13.018 -0.2946 -0.3732 -0.0629
 1573SOL    HW116355   0.139   1.928  13.045 -0.2038  0.0057  1.2432
 1573SOL    HW216356   0.097   2.062  13.041 -1.2316 -1.3727 -1.0597
 1574SOL     OW16357   2.780   2.462   7.120  0.1530 -0.3164  0.4077
 1574SOL    HW116358   2.809   2.506   7.040  1.1948 -3.1864 -0.7936
 1574SOL    HW216359   2.751   2.384   7.073 -0.0283 -0.5700  0.9351
 1575SOL     OW16360   1.870   4.396   6.039 -0.2173 -0.1131  0.0937
 1575SOL    HW116361   1.818   4.359   6.110  1.5879 -0.4639  1.2447
 1575SOL    HW216362   1.959   4.362   6.055 -1.3367 -2.5785  1.1580
 1576SOL     OW16363   2.799   3.022   2.791 -0.1981 -0.6481 -0.0799
 1576SOL    HW116364   2.753   3.104   2.776  0.0974 -0.1838  1.4929
 1576SOL    HW216365   2.874   3.043   2.735 -1.0493  0.0796 -0.9457
 1577SOL     OW16366   3.898   3.403   6.840 -0.1918 -0.1120 -0.0039
 1577SOL    HW116367   3.929   3.341   6.774 -2.5580 -1.5187  0.1882
 1577SOL    HW216368   3.893   3.484   6.790 -0.4136  0.7306  1.3839
 1578SOL     OW16369   2.270   4.163   2.869  0.3961  0.3047  0.1233
 1578SOL    HW116370   2.261   4.068   2.877 -1.1864  0.4487  0.0138
 1578SOL    HW216371   2.250   4.191   2.958  1.6716  0.5476  0.3356
 1579SOL     OW16372   1.041   0.754   6.218 -0.1221  0.0516  0.4513
 1579SOL    HW116373   1.097   0.686   6.182 -3.0580 -0.9352 -2.2659
 1579SOL    HW216374   1.094   0.775   6.294  1.5377  0.4363 -0.8087
 1580SOL     OW16375   1.456   1.787   4.167  0.5806  0.1966  0.0884
 1580SOL    HW116376   1.526   1.785   4.102  2.4218 -0.4315  2.0485
 1580SOL    HW216377   1.391   1.847   4.131  1.1745  1.2293  0.7143
 1581SOL     OW16378   1.031   1.338  12.974 -0.4377  0.0590 -0.5243
 1581SOL    HW116379   0.968   1.268  12.995  0.5508  0.0646  2.4663
 1581SOL    HW216380   1.093   1.333  13.047  0.1115 -1.6654 -1.1063
 1582SOL     OW16381   2.413   2.317   6.361 -0.3250  0.0834  0.0550
 1582SOL    HW116382   2.435   2.245   6.420 -1.3086  0.4941  0.9165
 1582SOL    HW216383   2.356   2.288   6.290  0.9086 -1.5183 -0.2747
 1583SOL     OW16384   3.583   0.639   9.186 -0.3933  0.2000 -0.3497
 1583SOL    HW116385   3.624   0.682   9.261  0.8067 -2.2449  0.3785
 1583SOL    HW216386   3.656   0.591   9.147 -1.0179  0.1919 -1.5196
 1584SOL     OW16387   2.653   3.860   0.800 -0.1336 -0.4778  0.3110
 1584SOL    HW116388   2.637   3.904   0.716  1.4014  1.9185  1.2813
 1584SOL    HW216389   2.716   3.795   0.770  0.0813 -0.6075  1.0412
 1585SOL     OW16390   3.203   2.285   4.076  0.1012  0.0986  0.0671
 1585SOL    HW116391   3.276   2.332   4.118  0.2557  0.0218 -0.1175
 1585SOL    HW216392   3.171   2.335   4.001  1.6285 -0.4606 -0.9354
 1586SOL     OW16393   4.519   4.332  13.913  0.2187  0.3633  0.2428
 1586SOL    HW116394   4.446   4.375  13.870  1.1012  0.7039 -0.9291
 1586SOL    HW216395   4.533   4.366  14.001  1.9629  0.7613 -0.1889
 1587SOL     OW16396   0.554   1.752  11.072  0.6291  0.4259  0.2068
 1587SOL    HW116397   0.642   1.728  11.103  0.6727 -0.2193 -0.4041
 1587SOL    HW216398   0.499   1.694  11.124  1.8929 -0.8814  0.1045
 1588SOL     OW16399   4.404   3.437   5.885  0.1310  0.1358  0.3997
 1588SOL    HW116400   4.333   3.483   5.840  0.0673  0.5488  0.9222
 1588SOL    HW216401   4.356   3.397   5.958 -1.6174  0.6580 -0.4758
 1589SOL     OW16402   4.498   2.911  11.238 -0.0336 -0.1800 -0.5910
 1589SOL    HW116403   4.514   2.821  11.209 -2.5230 -0.2805 -1.6809
 1589SOL    HW216404   4.534   2.923  11.326  1.2643  2.0447 -1.4355
 1590SOL     OW16405   4.115   0.754  10.772 -0.2980  0.2328 -0.4919
 1590SOL    HW116406   4.202   0.774  10.806 -1.6105  2.1622  1.7480
 1590SOL    HW216407   4.105   0.662  10.796  0.0335  0.6699  1.3271
 1591SOL     OW16408   1.910   2.868   7.852 -0.4401 -0.0386 -0.6246
 1591SOL    HW116409   1.882   2.895   7.764  1.2873 -0.3488 -1.2695
 1591SOL    HW216410   1.858   2.929   7.905 -0.6170 -0.3799 -0.4053
 1592SOL     OW16411   0.251   1.918  12.029 -0.4408 -0.2159  0.3768
 1592SOL    HW116412   0.219   1.946  11.943 -0.0138  0.8743  0.5655
 1592SOL    HW216413   0.179   1.931  12.090 -1.1058  0.7063 -0.6084
 1593SOL     OW16414   1.444   1.226  13.007 -0.1038 -0.1252  0.3339
 1593SOL    HW116415   1.436   1.292  12.938  2.5176 -0.4788 -0.2746
 1593SOL    HW216416   1.392   1.269  13.075 -1.5350 -1.9385  0.3938
 1594SOL     OW16417   2.985   4.519   7.232  0.1954 -0.3954  0.2147
 1594SOL    HW116418   3.034   4.559   7.160 -0.4134  0.6294  0.3636
 1594SOL    HW216419   2.976   4.426   7.213 -1.8183 -0.2989  0.6885
 1595SOL     OW16420   2.986   1.609   2.306 -0.0134  0.4482 -0.0763
 1595SOL    HW116421   2.962   1.517   2.319 -0.3129  0.6625  0.8314
 1595SOL    HW216422   2.992   1.609   2.210  0.6669 -0.4836 -0.0291
 1596SOL     OW16423   3.687   3.793   5.645  0.4697  0.0517  0.2544
 1596SOL    HW116424   3.763   3.809   5.589  0.3404 -2.0737 -0.5213
 1596SOL    HW216425   3.647   3.880   5.644  2.2793  0.8987  0.0978
 1597SOL     OW16426   2.998   4.269   7.662  0.2396  0.4299 -0.0768
 1597SOL    HW116427   2.910   4.235   7.641  0.2939 -0.9058  1.8442
 1597SOL    HW216428   3.048   4.249   7.583  1.7596 -1.6903  1.4143
 1598SOL     OW16429   1.738   4.312  12.898  0.2490  0.2832 -0.1153
 1598SOL    HW116430   1.720   4.218  12.894 -3.3916  0.9134  1.0249
 1598SOL    HW216431   1.670   4.339  12.961  0.9093  0.5613  0.4797
 1599SOL     OW16432   2.858   1.729  13.804  0.7456  0.0656 -0.3766
 1599SOL    HW116433   2.952   1.713  13.800  1.0545  1.8086 -0.1873
 1599SOL    HW216434   2.821   1.643  13.823  0.8227  0.2901  0.8331
 1600SOL     OW16435   1.942   4.614   2.775  0.0104  0.4073  0.0653
 1600SOL    HW116436   2.025   4.586   2.815  1.2568  2.3226 -1.2152
 1600SOL    HW216437   1.963   4.622   2.682  1.6893 -0.5755  0.3571
 1601SOL     OW16438   3.486   4.677   7.870 -0.1245 -0.0735 -0.1999
 1601SOL    HW116439   3.552   0.008   7.874 -0.6710  0.5894 -2.9947
 1601SOL    HW216440   3.427   4.694   7.943  0.5901 -1.8933  0.8125
 1602SOL     OW16441   0.445   4.193   2.187 -0.1411  0.6967 -0.7671
 1602SOL    HW116442   0.515   4.226   2.130 -0.9856  1.7487 -1.1981
 1602SOL    HW216443   0.468   4.101   2.196 -0.3307  0.9556  2.3528
 1603SOL     OW16444   2.822   2.167  14.912  0.1129  0.6909 -0.0549
 1603SOL    HW116445   2.896   2.117  14.877  0.0495  0.9578 -0.5629
 1603SOL    HW216446   2.852   2.257  14.907 -0.7612  1.0676  1.3587
 1604SOL     OW16447   3.308   2.215   5.050 -0.0346  0.5490  0.0304
 1604SOL    HW116448   3.299   2.185   4.960 -1.4418 -1.6975  0.9194
 1604SOL    HW216449   3.373   2.283   5.032 -0.4138  0.6534 -0.9251
 1605SOL     OW16450   1.762   3.301   7.723  0.0829 -0.2594  0.0090
 1605SOL    HW116451   1.854   3.311   7.696 -0.4153  2.2514 -0.7699
 1605SOL    HW216452   1.731   3.237   7.659  2.2911  1.0027 -2.3104
 1606SOL     OW16453   0.274   1.211   3.049  0.3420  0.3843  0.5475
 1606SOL    HW116454   0.243   1.300   3.033  1.5923  0.9255  1.1893
 1606SOL    HW216455   0.368   1.224   3.055  0.4009 -0.2793  1.1129
 1607SOL     OW16456   1.413   3.694   7.149  0.0056 -0.0499  0.7683
 1607SOL    HW116457   1.450   3.668   7.064 -1.7140 -0.7325  0.2363
 1607SOL    HW216458   1.398   3.786   7.129 -0.5925 -0.1264  0.8897
 1608SOL     OW16459   1.599   0.600   5.328  0.8689 -0.5837  0.7724
 1608SOL    HW116460   1.544   0.611   5.251  0.7730  1.7349  1.1835
 1608SOL    HW216461   1.682   0.569   5.291  0.7587  1.8118 -1.4575
 1609SOL     OW16462   0.230   0.434   8.761  0.2636 -0.3184 -0.3382
 1609SOL    HW116463   0.278   0.414   8.681  2.1292  0.3764  0.6027
 1609SOL    HW216464   0.205   0.348   8.795  0.1038  0.9305  2.7759
 1610SOL     OW16465   1.922   0.784   5.080 -0.0055  0.1141 -0.1155
 1610SOL    HW116466   1.979   0.734   5.023 -0.2830 -2.1425  1.5784
 1610SOL    HW216467   1.837   0.755   5.048 -0.1618 -0.3435  0.7012
 1611SOL     OW16468   3.842   3.951   3.120 -0.4551 -0.2267  0.2373
 1611SOL    HW116469   3.823   4.043   3.105 -1.3103  0.0789  3.1817
 1611SOL    HW216470   3.830   3.911   3.034 -3.1120  0.8657  0.0848
 1612SOL     OW16471   4.680   3.101   1.014  0.0099 -0.0166  0.3324
 1612SOL    HW116472   4.593   3.061   1.004 -0.3787  0.9749 -0.2579
 1612SOL    HW216473   4.667   3.193   0.992 -0.3838  0.3132  1.9370
 1613SOL     OW16474   2.095   0.878  11.443  0.2817  0.3420  0.4197
 1613SOL    HW116475   2.101   0.974  11.445  1.0816  0.3320 -0.8994
 1613SOL    HW216476   2.160   0.864  11.511 -1.1371 -0.3723  1.6240
 1614SOL     OW16477   0.662   3.921  14.443 -0.3177 -0.1676  0.3976
 1614SOL    HW116478   0.642   3.912  14.350 -0.8688  0.8674  0.4241
 1614SOL    HW216479   0.737   3.862  14.452  1.2484  1.3222 -3.1276
 1615SOL     OW16480   2.994   3.989   9.096 -0.3241  0.3187  0.5219
 1615SOL    HW116481   2.914   4.014   9.049 -0.8681  0.3883  1.4851
 1615SOL    HW216482   2.974   3.895   9.089 -0.3512  0.3915 -0.4846
 1616SOL     OW16483   4.501   0.310   8.929 -1.0880 -0.6753  0.5174
 1616SOL    HW116484   4.454   0.327   9.011 -0.9459  0.7865  0.2888
 1616SOL    HW216485   4.457   0.373   8.872  0.7790 -0.1317 -0.3021
 1617SOL     OW16486   0.340   2.120   6.820  0.5470  0.2026  0.5413
 1617SOL    HW116487   0.259   2.169   6.832  0.3947 -0.0761  0.6401
 1617SOL    HW216488   0.401   2.167   6.877 -0.5990  1.6178  0.6030
 1618SOL     OW16489   3.512   0.689  14.807  0.1238  0.0870 -0.1984
 1618SOL    HW116490   3.456   0.759  14.840  1.8151  1.1331  0.4319
 1618SOL    HW216491   3.529   0.640  14.888  2.5091  0.0256 -0.7321
 1619SOL     OW16492   3.356   1.941  17.686 -0.8009 -0.1452 -0.4257
 1619SOL    HW116493   3.451   1.939  17.684 -0.6713  3.3327  2.2572
 1619SOL    HW216494   3.323   2.030  17.678 -2.3146 -0.7578 -1.1272
 1620SOL     OW16495   0.591   1.246   4.369 -0.0345 -0.2034 -0.3782
 1620SOL    HW116496   0.541   1.233   4.288 -1.0385  1.6827 -0.0636
 1620SOL    HW216497   0.661   1.294   4.325 -0.4759  1.4546  0.7198
 1621SOL     OW16498   4.515   4.078   8.845 -0.0590 -0.0062  0.1771
 1621SOL    HW116499   4.517   4.109   8.755  0.3658  1.7459  0.7707
 1621SOL    HW216500   4.568   3.999   8.835  0.0926  0.0895  0.2219
 1622SOL     OW16501   2.394   4.669   0.635 -0.3717 -0.4293  0.1664
 1622SOL    HW116502   2.399   4.659   0.540  1.1668 -1.1693  0.3215
 1622SOL    HW216503   2.301   4.682   0.653 -0.1901 -0.7495  1.3450
 1623SOL     OW16504   2.389   3.053   1.986  0.0210  0.0830 -0.0073
 1623SOL    HW116505   2.412   3.048   2.078  0.1255  3.1613  0.1290
 1623SOL    HW216506   2.372   3.147   1.992  4.6031  0.7681  1.9344
 1624SOL     OW16507   0.702   0.468   0.220 -0.1769 -0.5596  0.0828
 1624SOL    HW116508   0.611   0.464   0.191 -0.9854  0.1764  2.4970
 1624SOL    HW216509   0.733   0.386   0.182  1.4638  0.4510 -0.7380
 1625SOL     OW16510   4.465   1.250   0.454  0.4078 -0.0612 -0.2242
 1625SOL    HW116511   4.443   1.341   0.438  0.3030  0.0318  0.4171
 1625SOL    HW216512   4.406   1.207   0.392  0.9443 -0.4694 -0.4465
 1626SOL     OW16513   1.201   2.987   5.615 -0.3664  0.2453 -0.0749
 1626SOL    HW116514   1.234   2.974   5.704  0.9665 -1.5825 -0.8336
 1626SOL    HW216515   1.240   2.912   5.570  1.6304  0.6218  1.0187
 1627SOL     OW16516   2.596   2.357   1.415  0.4612 -0.0983 -0.4347
 1627SOL    HW116517   2.549   2.410   1.350  2.1345  1.3054 -0.4851
 1627SOL    HW216518   2.575   2.273   1.374  2.5773 -1.5982  1.5538
 1628SOL     OW16519   4.735   2.941   4.945 -0.0352 -0.0183 -0.2928
 1628SOL    HW116520   0.025   2.921   4.856 -2.5420  0.3859 -1.2358
 1628SOL    HW216521   4.664   2.879   4.961 -2.2139  2.1322 -1.5083
 1629SOL     OW16522   1.425   4.165   8.948 -0.4871 -0.2118  0.2693
 1629SOL    HW116523   1.401   4.189   9.037 -1.3744 -1.5705  0.4074
 1629SOL    HW216524   1.339   4.142   8.912  0.5138 -0.6064 -1.8799
 1630SOL     OW16525   2.038   0.961   8.332 -0.1450  0.8555  0.3569
 1630SOL    HW116526   2.009   1.051   8.350 -0.6606  0.9518 -0.9583
 1630SOL    HW216527   1.975   0.929   8.268 -0.4808  1.0898  0.5699
 1631SOL     OW16528   3.020   4.161   3.129 -0.8246 -0.3608 -0.6417
 1631SOL    HW116529   3.058   4.194   3.211 -1.9369 -1.1995  0.2194
 1631SOL    HW216530   2.959   4.092   3.157 -0.7878 -0.3611 -0.5618
 1632SOL     OW16531   2.249   0.631   9.427 -0.1940 -0.8053  0.2252
 1632SOL    HW116532   2.278   0.581   9.351 -0.8421  0.8699 -1.1045
 1632SOL    HW216533   2.213   0.560   9.480  1.0092  0.0520  2.2157
 1633SOL     OW16534   1.588   0.608  13.226  0.5394 -0.6977  0.5471
 1633SOL    HW116535   1.653   0.603  13.296  0.3908  1.4361  0.8552
 1633SOL    HW216536   1.583   0.515  13.205  0.1411 -0.4498 -0.4303
 1634SOL     OW16537   2.099   2.080  16.285  0.2265 -0.3020  0.3651
 1634SOL    HW116538   2.119   1.991  16.313 -0.4654 -0.2428  1.0791
 1634SOL    HW216539   2.183   2.117  16.257 -0.8105  0.6225 -1.5282
 1635SOL     OW16540   2.913   1.835  13.353  0.4129 -0.2624  0.1719
 1635SOL    HW116541   2.865   1.817  13.273 -0.4087  1.0736  0.3804
 1635SOL    HW216542   2.939   1.926  13.341  1.9195 -0.9237 -1.6459
 1636SOL     OW16543   0.129   1.200  11.506  0.3876  0.0385  0.2846
 1636SOL    HW116544   0.197   1.245  11.556  0.1192  0.5908  0.1443
 1636SOL    HW216545   0.121   1.121  11.561 -0.3365  0.9270  1.4528
 1637SOL     OW16546   0.067   3.936   9.516  0.0616 -0.3625 -1.0657
 1637SOL    HW116547   0.083   3.901   9.604  0.6774  1.4194 -0.4571
 1637SOL    HW216548   0.055   3.856   9.466  0.3372 -0.6010 -0.7492
 1638SOL     OW16549   1.896   1.487   5.537 -0.5273 -0.1404  1.2753
 1638SOL    HW116550   1.805   1.491   5.567 -0.6886 -1.5059  0.9571
 1638SOL    HW216551   1.929   1.448   5.618 -0.9531 -0.5271  1.2634
 1639SOL     OW16552   2.201   3.176   6.765  0.2582  0.0129  0.2144
 1639SOL    HW116553   2.264   3.135   6.823 -0.1233  1.3182  1.5585
 1639SOL    HW216554   2.161   3.095   6.735 -0.0471  0.4334 -0.5270
 1640SOL     OW16555   2.458   1.201   6.526 -0.5620  0.1871  0.1813
 1640SOL    HW116556   2.470   1.183   6.433 -1.2074  1.9230 -0.2347
 1640SOL    HW216557   2.543   1.166   6.553 -0.7166 -1.8767 -2.0800
 1641SOL     OW16558   4.108   3.342   9.039  0.3778 -0.9342 -0.5270
 1641SOL    HW116559   4.199   3.311   9.034  0.5520 -0.2515 -1.4910
 1641SOL    HW216560   4.057   3.263   9.024 -1.5691  0.0115  1.2155
 1642SOL     OW16561   3.350   1.304  15.884 -0.6403  0.0172 -0.2660
 1642SOL    HW116562   3.339   1.209  15.879  2.3447 -0.2431 -1.7638
 1642SOL    HW216563   3.377   1.330  15.796 -1.0661  1.0859 -0.0885
 1643SOL     OW16564   1.272   1.834  10.319  0.3012 -0.0911 -0.0105
 1643SOL    HW116565   1.234   1.907  10.369  0.6610 -0.2704  0.5213
 1643SOL    HW216566   1.232   1.765  10.372  0.1350 -0.3850 -0.5106
 1644SOL     OW16567   1.270   2.839  13.076  0.2519  0.8894 -0.0722
 1644SOL    HW116568   1.302   2.777  13.141 -1.1602  1.3168  1.0465
 1644SOL    HW216569   1.280   2.785  12.998  0.2725  0.3651  0.2970
 1645SOL     OW16570   1.621   3.226   5.254 -0.8249 -0.2256 -0.1553
 1645SOL    HW116571   1.627   3.311   5.298  2.2496 -1.7998  2.5396
 1645SOL    HW216572   1.705   3.228   5.207 -0.2542  0.2301  0.8625
 1646SOL     OW16573   3.069   1.950   6.449 -0.5245  0.2600 -0.3870
 1646SOL    HW116574   2.993   1.958   6.390 -0.9249  0.4981  0.1588
 1646SOL    HW216575   3.077   2.033   6.497 -0.0428 -0.5449  0.9053
 1647SOL     OW16576   2.507   3.323   7.307  0.5107  0.0574 -0.4102
 1647SOL    HW116577   2.561   3.392   7.269 -0.7010  0.9553 -0.5062
 1647SOL    HW216578   2.521   3.257   7.239 -0.5849  0.1556 -0.7297
 1648SOL     OW16579   3.150   3.525   6.982  0.0830 -0.1774 -0.0974
 1648SOL    HW116580   3.174   3.475   6.904 -0.8996 -1.5118  0.4659
 1648SOL    HW216581   3.240   3.539   7.011 -0.0021  2.2307 -0.9694
 1649SOL     OW16582   2.520   4.602  17.522 -0.3223 -0.4447  0.5427
 1649SOL    HW116583   2.562   4.683  17.493 -2.6203 -0.0327 -1.5985
 1649SOL    HW216584   2.583   4.577  17.590 -1.0183 -2.2830  0.5186
 1650SOL     OW16585   2.268   0.206   9.066 -0.5753 -0.3572 -0.2207
 1650SOL    HW116586   2.304   0.118   9.077 -1.6876 -0.6095  1.3853
 1650SOL    HW216587   2.324   0.264   9.015  0.2150 -0.8075  0.1381
 1651SOL     OW16588   0.208   0.841   1.806 -0.3083 -0.2579 -0.3796
 1651SOL    HW116589   0.209   0.877   1.895  2.1692 -0.6255 -0.2624
 1651SOL    HW216590   0.202   0.919   1.750  0.1912  1.7037  2.3102
 1652SOL     OW16591   3.819   3.742   5.917  0.4926  0.1153 -0.1196
 1652SOL    HW116592   3.750   3.808   5.919  0.6609  0.3256 -0.9417
 1652SOL    HW216593   3.865   3.767   5.836 -0.1026  0.2941 -0.4011
 1653SOL     OW16594   2.671   0.575  12.746 -0.1515  0.0207  0.1671
 1653SOL    HW116595   2.595   0.629  12.767  1.4370  1.8366  1.3539
 1653SOL    HW216596   2.727   0.584  12.824  3.6971  1.1306 -2.6936
 1654SOL     OW16597   1.375   2.008   2.929  0.2417 -0.0072  0.2531
 1654SOL    HW116598   1.339   2.034   2.845  2.4546 -0.5932 -0.8909
 1654SOL    HW216599   1.362   2.083   2.987  0.8512 -0.3847  0.8862
 1655SOL     OW16600   0.281   3.998   8.830 -0.0652  0.6640  0.0769
 1655SOL    HW116601   0.355   4.046   8.793  0.5619  1.2469  2.0897
 1655SOL    HW216602   0.304   4.004   8.923 -1.2445  1.1217  0.3367
 1656SOL     OW16603   1.337   0.269   4.934 -0.1097  0.3422  0.0349
 1656SOL    HW116604   1.345   0.210   5.008  2.7559  0.5256 -0.1340
 1656SOL    HW216605   1.267   0.326   4.966 -1.6960 -0.8687 -1.2201
 1657SOL     OW16606   4.061   0.035   4.084 -0.4749  0.1827 -0.9438
 1657SOL    HW116607   4.153   0.017   4.105 -0.4985  0.8566 -0.2883
 1657SOL    HW216608   4.017   0.012   4.165  1.8210  0.0196  0.2542
 1658SOL     OW16609   4.403   3.026  10.635 -0.5073  0.1164  0.2765
 1658SOL    HW116610   4.406   3.121  10.636  0.7282  0.0967 -1.6403
 1658SOL    HW216611   4.352   3.018  10.716 -1.7630 -0.0655 -0.5311
 1659SOL     OW16612   0.400   3.144   4.651  0.0935  0.4235  0.1909
 1659SOL    HW116613   0.386   3.098   4.733 -0.6958  0.6185  0.1694
 1659SOL    HW216614   0.418   3.232   4.685 -1.0997  1.5955 -2.2039
 1660SOL     OW16615   2.307   0.975   8.266  0.2576 -0.5156  0.3354
 1660SOL    HW116616   2.323   0.946   8.356 -1.0232  0.0383  0.7482
 1660SOL    HW216617   2.211   0.975   8.278  0.2510  0.9230  0.3171
 1661SOL     OW16618   1.969   4.313  10.637 -0.2885  0.1666  0.2796
 1661SOL    HW116619   1.910   4.252  10.682 -0.4644  1.4582  1.8414
 1661SOL    HW216620   1.935   4.306  10.548  1.7190 -2.8854 -0.2039
 1662SOL     OW16621   2.272   0.519   6.331 -0.4426 -0.0079  0.0086
 1662SOL    HW116622   2.259   0.570   6.251  2.8105 -1.2373 -1.2981
 1662SOL    HW216623   2.226   0.579   6.391  1.0537  1.7468 -0.5982
 1663SOL     OW16624   0.291   4.579  12.822 -0.5407 -0.1094  0.6891
 1663SOL    HW116625   0.354   4.629  12.873  0.6440  0.4514 -1.3346
 1663SOL    HW216626   0.226   4.572  12.893 -0.0620  2.8615  1.4090
 1664SOL     OW16627   1.895   0.500   0.343  0.0032 -0.0070 -0.0276
 1664SOL    HW116628   1.815   0.483   0.392 -0.5723  0.4832 -0.7902
 1664SOL    HW216629   1.908   0.418   0.295 -1.5056  0.5307 -1.3423
 1665SOL     OW16630   4.101   1.347   2.912 -0.3316  0.6749  0.3767
 1665SOL    HW116631   4.138   1.261   2.932 -0.6637  0.1840 -1.1312
 1665SOL    HW216632   4.155   1.404   2.966  0.0022 -0.1619  0.9347
 1666SOL     OW16633   0.045   4.109  17.198  0.0219  0.0339  0.5184
 1666SOL    HW116634   0.026   4.050  17.126 -1.4582  1.0684  0.0420
 1666SOL    HW216635   0.138   4.113  17.218 -0.2605  0.9467  1.7139
 1667SOL     OW16636   1.132   1.889  12.000  0.4864  0.7038 -0.0195
 1667SOL    HW116637   1.126   1.953  11.929  2.9873  1.2544  0.2643
 1667SOL    HW216638   1.042   1.857  11.996  0.3250  1.2233 -0.6079
 1668SOL     OW16639   3.996   0.201   7.884  0.3594 -0.3313 -0.2030
 1668SOL    HW116640   4.072   0.212   7.942 -0.8514  1.4133  1.0696
 1668SOL    HW216641   4.026   0.146   7.812  0.2305 -1.4913  0.6435
 1669SOL     OW16642   2.455   2.707   5.632  0.1929  0.1119 -0.3281
 1669SOL    HW116643   2.413   2.633   5.587  1.2226 -0.7844  0.1804
 1669SOL    HW216644   2.387   2.774   5.636  0.9899  0.8561  0.6418
 1670SOL     OW16645   1.052   3.814   6.126  0.2207  0.1726 -0.2717
 1670SOL    HW116646   1.062   3.887   6.065 -2.0625 -0.0626 -0.8961
 1670SOL    HW216647   0.966   3.836   6.161  0.4033 -0.2128  0.4211
 1671SOL     OW16648   2.975   3.759  16.568  0.3253  0.2602 -0.1791
 1671SOL    HW116649   2.879   3.761  16.577  0.4627  0.3232  1.2489
 1671SOL    HW216650   2.985   3.798  16.481 -0.8364  2.3192  0.6146
 1672SOL     OW16651   3.790   1.298   1.907  0.6996 -0.6059  0.0246
 1672SOL    HW116652   3.876   1.320   1.941  0.3273  1.6410 -0.4900
 1672SOL    HW216653   3.731   1.369   1.931  0.4506 -0.8496  0.1363
 1673SOL     OW16654   3.455   2.713   4.629  0.2276  0.1698 -0.6340
 1673SOL    HW116655   3.524   2.653   4.656 -0.7969 -0.5650  0.3714
 1673SOL    HW216656   3.448   2.767   4.708  1.2715 -0.5075 -0.0779
 1674SOL     OW16657   1.610   1.627   5.133 -0.3218  0.3835  0.0705
 1674SOL    HW116658   1.545   1.583   5.079  0.7153 -2.6946  1.2778
 1674SOL    HW216659   1.659   1.549   5.159  0.7320  0.9081 -0.3474
 1675SOL     OW16660   0.980   0.613   8.078  0.1290 -0.0404 -0.5937
 1675SOL    HW116661   0.902   0.558   8.080 -0.0238  0.3399  2.8338
 1675SOL    HW216662   0.976   0.663   8.159  1.5387  2.0021 -1.7957
 1676SOL     OW16663   1.172   0.857   7.184 -0.1206  0.6493 -0.5559
 1676SOL    HW116664   1.172   0.795   7.111  1.1225 -1.0572  0.8763
 1676SOL    HW216665   1.246   0.830   7.239 -0.4326  0.3144 -0.2939
 1677SOL     OW16666   1.197   0.615  11.901 -0.1771  0.1122  0.6312
 1677SOL    HW116667   1.265   0.665  11.856  0.7664 -1.6023  0.1810
 1677SOL    HW216668   1.137   0.689  11.909  2.3429  2.1369  0.8346
 1678SOL     OW16669   2.210   1.422  12.815 -0.0297 -0.7761 -0.1003
 1678SOL    HW116670   2.227   1.424  12.909 -0.4813  2.9503 -0.0936
 1678SOL    HW216671   2.134   1.365  12.801  0.2305 -1.7071  2.2737
 1679SOL     OW16672   3.416   0.730   0.243 -0.5324 -0.1127 -0.4546
 1679SOL    HW116673   3.433   0.719   0.149  2.1509 -2.0446  0.2460
 1679SOL    HW216674   3.322   0.747   0.245 -0.2478  1.3214  0.2658
 1680SOL     OW16675   2.430   3.123   3.414  0.0611 -0.2164 -0.2604
 1680SOL    HW116676   2.404   3.177   3.339  1.0088  0.8791  0.2017
 1680SOL    HW216677   2.470   3.195   3.463 -0.9998 -0.0918  0.4398
 1681SOL     OW16678   2.890   0.557   8.290  0.0574  0.6253 -0.5478
 1681SOL    HW116679   2.976   0.528   8.321 -0.5641 -1.5829 -0.9299
 1681SOL    HW216680   2.860   0.474   8.254 -0.6276  0.1452  1.1497
 1682SOL     OW16681   0.753   2.850  10.841 -0.0800  0.5584 -0.4366
 1682SOL    HW116682   0.707   2.924  10.881 -0.3344  0.0483  0.2215
 1682SOL    HW216683   0.686   2.823  10.778 -0.6925  1.5004 -0.1994
 1683SOL     OW16684   3.735   3.145   5.004  0.2546  0.2147  0.7041
 1683SOL    HW116685   3.804   3.211   5.011 -0.9682  1.6524 -0.9040
 1683SOL    HW216686   3.757   3.101   5.086  0.3496 -0.1748  0.4710
 1684SOL     OW16687   0.328   3.812   6.533 -0.3798 -0.4593  0.5042
 1684SOL    HW116688   0.376   3.818   6.615 -0.0309  0.4530  0.2285
 1684SOL    HW216689   0.376   3.870   6.475  0.3970  0.2250  1.8532
 1685SOL     OW16690   1.514   1.752   8.263 -0.3450  0.1217 -0.0834
 1685SOL    HW116691   1.435   1.768   8.212 -1.0154  2.7595  1.7628
 1685SOL    HW216692   1.567   1.706   8.198 -0.2285 -0.2539  0.2779
 1686SOL     OW16693   3.832   2.578  17.594  0.8787 -0.8569 -0.0174
 1686SOL    HW116694   3.822   2.534  17.510  0.4845  0.4909 -0.6735
 1686SOL    HW216695   3.769   2.650  17.603  0.2790 -1.4067  0.1698
 1687SOL     OW16696   3.227   4.377  14.946 -0.0444  1.0767 -0.2793
 1687SOL    HW116697   3.184   4.447  14.996 -2.1739 -1.3276  1.2429
 1687SOL    HW216698   3.317   4.384  14.979  0.2030  0.1008 -0.7436
 1688SOL     OW16699   2.240   2.285  11.725 -0.3746  0.6728  0.2715
 1688SOL    HW116700   2.270   2.336  11.649  1.9045  0.1165  0.7794
 1688SOL    HW216701   2.306   2.310  11.790  0.5996 -0.4830 -0.2773
 1689SOL     OW16702   4.496   2.258   8.996 -0.4693  0.4511  0.3254
 1689SOL    HW116703   4.473   2.344   9.030 -3.3098 -0.0959 -0.1793
 1689SOL    HW216704   4.581   2.286   8.962 -0.8373 -0.3850 -1.3238
 1690SOL     OW16705   1.144   4.628   7.271 -0.3111 -0.5206  0.2753
 1690SOL    HW116706   1.189   4.682   7.206  1.7943 -0.3419  1.8851
 1690SOL    HW216707   1.062   4.678   7.267  1.9298  3.0747 -1.1228
 1691SOL     OW16708   4.630   3.406   8.158 -0.7908 -0.2220  0.0086
 1691SOL    HW116709   4.659   3.401   8.249  0.5741  1.7987 -0.2905
 1691SOL    HW216710   4.602   3.316   8.141  1.4540 -0.6427 -1.4751
 1692SOL     OW16711   0.639   0.640   3.883 -0.2647 -0.1455 -0.1719
 1692SOL    HW116712   0.639   0.707   3.952  0.0317  0.0001 -0.3134
 1692SOL    HW216713   0.683   0.560   3.911 -0.0154 -0.2316 -0.8019
 1693SOL     OW16714   0.794   0.869   2.619  0.3985 -0.4830 -0.3666
 1693SOL    HW116715   0.843   0.834   2.693  0.6382 -0.5628 -0.5641
 1693SOL    HW216716   0.789   0.964   2.634  1.9614 -0.6565  1.1978
 1694SOL     OW16717   0.007   2.292   6.143 -0.1852  0.3989  0.1683
 1694SOL    HW116718   0.072   2.361   6.129  1.0160 -0.1690  2.7637
 1694SOL    HW216719   0.025   2.271   6.235 -1.0470 -2.0976 -0.2340
 1695SOL     OW16720   1.816   4.231   3.640 -0.6488  0.8436  0.4428
 1695SOL    HW116721   1.722   4.240   3.654 -0.7350 -2.1383  1.7007
 1695SOL    HW216722   1.841   4.315   3.601 -0.5799  1.2084  1.2674
 1696SOL     OW16723   2.788   4.675   6.495 -0.3309  0.3972  0.1592
 1696SOL    HW116724   2.722   4.647   6.432 -0.2678 -0.2451  0.3819
 1696SOL    HW216725   2.863   4.698   6.440  0.3047  0.0571  0.8795
 1697SOL     OW16726   3.159   3.056   2.674  0.3232  0.1402 -0.0198
 1697SOL    HW116727   3.203   3.098   2.748 -2.1522 -0.3838  1.7658
 1697SOL    HW216728   3.175   3.117   2.602 -1.5865  0.9145  0.2122
 1698SOL     OW16729   1.413   1.114   4.845 -0.4464  0.6519  0.0962
 1698SOL    HW116730   1.451   1.200   4.863 -0.5364  0.8932 -0.8337
 1698SOL    HW216731   1.445   1.067   4.922  1.3926 -0.1224 -1.1264
 1699SOL     OW16732   2.264   4.528   8.133 -0.5103 -0.0769  0.7729
 1699SOL    HW116733   2.283   4.616   8.167  0.0111  0.2698 -0.3783
 1699SOL    HW216734   2.341   4.488   8.174 -0.1618 -1.8538 -1.6143
 1700SOL     OW16735   0.892   0.863  12.145  0.2370 -0.9350 -0.3394
 1700SOL    HW116736   0.856   0.880  12.232 -0.3440 -1.1772 -0.5295
 1700SOL    HW216737   0.947   0.785  12.154  0.1418 -0.8175  1.1838
 1701SOL     OW16738   1.638   4.706   8.617  0.1505 -0.1004 -0.2659
 1701SOL    HW116739   1.696   0.030   8.660 -0.6819 -0.8222  1.9274
 1701SOL    HW216740   1.664   4.623   8.658  0.6880 -0.5496 -1.5126
 1702SOL     OW16741   0.266   2.260   7.147  0.9721  0.2139  0.1513
 1702SOL    HW116742   0.344   2.209   7.168  1.4550  0.4055 -1.1975
 1702SOL    HW216743   0.206   2.188   7.127 -0.2785  1.5849 -1.0162
 1703SOL     OW16744   3.826   0.167   4.700  0.2871 -0.0339  0.5798
 1703SOL    HW116745   3.753   0.119   4.661  0.3300  0.9963 -0.7747
 1703SOL    HW216746   3.792   0.256   4.700 -0.3522 -0.2765  2.9480
 1704SOL     OW16747   2.486   3.744   9.594  0.1298  0.1184  0.2125
 1704SOL    HW116748   2.432   3.712   9.522 -0.0162  0.8039  0.0224
 1704SOL    HW216749   2.565   3.694   9.572  0.1192 -0.0996  0.6690
 1705SOL     OW16750   3.589   1.356  13.656 -0.0977 -0.4969  0.4778
 1705SOL    HW116751   3.550   1.383  13.738 -0.8559  0.9512 -0.3518
 1705SOL    HW216752   3.615   1.441  13.619  0.0595 -0.6055  0.3405
 1706SOL     OW16753   2.228   2.064   0.396 -0.4920  0.2372 -0.3547
 1706SOL    HW116754   2.302   2.005   0.414  0.4214  1.3223 -0.5033
 1706SOL    HW216755   2.229   2.120   0.473 -2.8268 -0.9789  0.5673
 1707SOL     OW16756   0.480   4.472   2.651  0.1728 -0.1496  0.5696
 1707SOL    HW116757   0.490   4.413   2.576 -0.1359 -0.8372  1.0631
 1707SOL    HW216758   0.465   4.556   2.608 -0.7348 -0.2640  0.6556
 1708SOL     OW16759   0.437   3.232   7.555 -0.5051  0.2279 -0.7307
 1708SOL    HW116760   0.483   3.183   7.487  1.8217 -0.2387  1.1972
 1708SOL    HW216761   0.463   3.316   7.518  1.0572  0.3712  0.6516
 1709SOL     OW16762   2.366   0.898   4.768 -0.0782 -0.0831  0.6988
 1709SOL    HW116763   2.364   0.892   4.863 -2.3703  2.1788  0.7750
 1709SOL    HW216764   2.438   0.961   4.761  0.1540 -0.3379  0.7614
 1710SOL     OW16765   2.563   1.600   2.482 -0.7837 -0.2637 -0.3240
 1710SOL    HW116766   2.641   1.546   2.469  0.7110  1.9258 -0.3631
 1710SOL    HW216767   2.519   1.587   2.397  1.5580 -0.5445 -1.4973
 1711SOL     OW16768   3.090   0.663  11.992 -0.1961 -0.4181  0.0193
 1711SOL    HW116769   3.061   0.752  11.974 -2.0197 -0.9120  0.5776
 1711SOL    HW216770   3.178   0.694  12.014  0.6288 -0.9750 -2.4410
 1712SOL     OW16771   2.051   2.645   8.438  0.4193 -0.6324 -0.5443
 1712SOL    HW116772   2.023   2.710   8.502  0.5842  1.2828 -2.4131
 1712SOL    HW216773   2.042   2.571   8.498 -0.3264 -0.2700 -0.2025
 1713SOL     OW16774   3.325   1.442   8.675  0.2289  0.2181 -0.4737
 1713SOL    HW116775   3.304   1.394   8.595 -1.0636 -0.0083 -0.0079
 1713SOL    HW216776   3.279   1.523   8.654  1.4828  1.3149  0.9949
 1714SOL     OW16777   3.237   1.470   9.809 -0.6484  0.7657  0.4007
 1714SOL    HW116778   3.214   1.517   9.729  1.4825 -0.4722 -0.9205
 1714SOL    HW216779   3.320   1.445   9.769 -1.5654  0.1562 -1.1388
 1715SOL     OW16780   2.464   3.185   8.631  0.2848 -0.1517  0.1194
 1715SOL    HW116781   2.470   3.262   8.574  2.1845  0.3405  0.9903
 1715SOL    HW216782   2.500   3.224   8.710  1.0935 -0.6798  0.0002
 1716SOL     OW16783   3.024   0.437   2.896  0.0838  0.0164 -0.1769
 1716SOL    HW116784   3.024   0.527   2.863 -1.7179  0.3609  0.7855
 1716SOL    HW216785   3.093   0.438   2.962 -0.7630  0.6658  0.6980
 1717SOL     OW16786   4.109   3.617   3.054 -0.2179 -0.3686 -0.0827
 1717SOL    HW116787   4.160   3.657   2.983 -0.2173  0.0649  0.1588
 1717SOL    HW216788   4.114   3.522   3.046  2.0138 -0.2100 -0.6077
 1718SOL     OW16789   2.446   2.952  16.488 -0.4584  0.1504 -0.6035
 1718SOL    HW116790   2.425   2.937  16.580 -0.7773 -2.5701 -1.1281
 1718SOL    HW216791   2.362   2.927  16.450 -0.5264  1.8310 -1.5665
 1719SOL     OW16792   3.475   1.446   5.632  0.2141 -0.6493 -0.3871
 1719SOL    HW116793   3.474   1.408   5.720  2.3477  0.7701  0.2391
 1719SOL    HW216794   3.388   1.486   5.632  1.1805  1.4536 -0.5905
 1720SOL     OW16795   1.435   0.727   5.108  0.0211 -0.3612  0.3017
 1720SOL    HW116796   1.385   0.695   5.033 -0.5872  0.8920  0.1741
 1720SOL    HW216797   1.366   0.755   5.168 -0.1838  0.0884 -0.1449
 1721SOL     OW16798   0.188   1.526   7.936  0.1368  0.3981  0.4366
 1721SOL    HW116799   0.096   1.553   7.936  0.7996  2.7188 -0.7109
 1721SOL    HW216800   0.185   1.434   7.961  1.2101  0.4364  0.7080
 1722SOL     OW16801   0.136   3.521   3.056 -0.1278  0.4359  0.1372
 1722SOL    HW116802   0.113   3.553   2.968 -1.3221 -1.5831 -0.2883
 1722SOL    HW216803   0.086   3.585   3.106 -1.2273  0.7649 -1.3586
 1723SOL     OW16804   1.498   1.792   3.510  0.4591 -0.3540  0.1475
 1723SOL    HW116805   1.495   1.808   3.415  1.8879 -0.0131  0.1682
 1723SOL    HW216806   1.415   1.745   3.525  0.5778  0.0863  2.1532
 1724SOL     OW16807   3.156   1.316   5.212 -0.3295  0.0455 -0.0145
 1724SOL    HW116808   3.150   1.266   5.130  0.5555 -0.2810  0.1176
 1724SOL    HW216809   3.069   1.355   5.215  0.3254  1.4120  1.1181
 1725SOL     OW16810   2.216   4.202   7.842 -0.5866 -1.0690 -0.0440
 1725SOL    HW116811   2.291   4.257   7.864 -1.4987 -0.5538  1.7584
 1725SOL    HW216812   2.155   4.268   7.810  0.2700 -0.0596  0.3959
 1726SOL     OW16813   1.120   3.850   9.356 -0.1048 -0.4139 -0.1235
 1726SOL    HW116814   1.190   3.916   9.355 -0.4768 -0.0045  1.1234
 1726SOL    HW216815   1.097   3.849   9.263 -3.3745 -2.3018  0.6968
 1727SOL     OW16816   4.640   2.329   2.209 -0.3300  0.2365  0.1802
 1727SOL    HW116817   4.572   2.262   2.203  0.4019 -0.6331  1.6847
 1727SOL    HW216818   4.592   2.393   2.157 -0.2316  0.1149 -0.0628
 1728SOL     OW16819   1.452   1.121   6.087 -0.1000 -0.3667  0.2868
 1728SOL    HW116820   1.469   1.084   6.000  0.7488  3.1668 -1.0547
 1728SOL    HW216821   1.388   1.193   6.085  1.0323  0.6256 -0.3311
 1729SOL     OW16822   4.658   4.159  12.060  0.0044 -0.1367 -0.0054
 1729SOL    HW116823   4.618   4.203  11.985 -0.6299 -0.9959 -0.1792
 1729SOL    HW216824   4.597   4.158  12.133  0.9820 -1.9103  0.7826
 1730SOL     OW16825   3.459   4.477  14.604 -0.1918  0.3507  0.5706
 1730SOL    HW116826   3.465   4.497  14.511  0.3069 -5.7731 -0.7311
 1730SOL    HW216827   3.547   4.472  14.640  0.6646  1.1115 -1.4020
 1731SOL     OW16828   2.771   1.755   5.533 -0.0103 -0.5262 -0.3065
 1731SOL    HW116829   2.822   1.691   5.583 -0.4555 -0.9556 -0.3979
 1731SOL    HW216830   2.827   1.832   5.540 -0.9026 -0.0411  1.5444
 1732SOL     OW16831   2.728   1.045   8.662  0.1046  0.2396 -0.3616
 1732SOL    HW116832   2.747   0.966   8.611  1.4194 -0.2049  0.8289
 1732SOL    HW216833   2.730   1.011   8.752  1.2754 -2.0656 -1.2490
 1733SOL     OW16834   4.589   1.732   4.136 -0.5301  0.0928  0.7023
 1733SOL    HW116835   4.676   1.764   4.112  0.1046 -1.5640  0.7727
 1733SOL    HW216836   4.551   1.716   4.049  0.7824 -0.4271  0.2269
 1734SOL     OW16837   2.136   3.335   1.732 -0.2908 -0.0934  0.1655
 1734SOL    HW116838   2.066   3.359   1.792 -0.2702 -0.2777  0.2592
 1734SOL    HW216839   2.160   3.253   1.774  0.8512  0.1195 -0.0763
 1735SOL     OW16840   4.444   1.930   5.618 -1.2427  0.1565 -0.4668
 1735SOL    HW116841   4.463   2.000   5.680  0.2722 -0.2334 -0.4768
 1735SOL    HW216842   4.362   1.891   5.650 -0.7843 -1.5091 -1.3449
 1736SOL     OW16843   0.189   3.477  14.477  0.5759  0.4870 -0.0448
 1736SOL    HW116844   0.130   3.470  14.403  1.8662 -1.3170 -0.9058
 1736SOL    HW216845   0.135   3.503  14.552 -0.5928  2.3060 -1.5330
 1737SOL     OW16846   1.968   2.086   6.653 -0.6498 -0.3962  0.1120
 1737SOL    HW116847   1.878   2.093   6.685 -0.4090 -0.2308  0.7556
 1737SOL    HW216848   1.950   2.030   6.577 -0.8886 -2.2169  1.4917
 1738SOL     OW16849   2.475   1.423   2.877 -0.9994 -0.4605 -0.2714
 1738SOL    HW116850   2.526   1.452   2.802  1.2036  0.1326  1.4443
 1738SOL    HW216851   2.467   1.330   2.854 -1.8691 -0.2601 -0.7742
 1739SOL     OW16852   1.211   0.125  15.074  0.5318  0.0038  0.5794
 1739SOL    HW116853   1.194   0.049  15.018  0.9822 -2.3935  3.6579
 1739SOL    HW216854   1.268   0.176  15.016  0.7603  1.6466  2.2577
 1740SOL     OW16855   3.219   4.212   7.480 -0.5312  0.6983  0.4721
 1740SOL    HW116856   3.284   4.238   7.545 -0.0726  0.4279  0.1243
 1740SOL    HW216857   3.223   4.280   7.413 -0.0320  1.3645  1.1674
 1741SOL     OW16858   1.229   1.846   7.775  0.1310  0.0676  0.3331
 1741SOL    HW116859   1.155   1.866   7.719  0.8194  0.7279 -0.3413
 1741SOL    HW216860   1.297   1.859   7.709 -0.7533  0.4866 -0.4999
 1742SOL     OW16861   3.677   1.859   4.359  0.5835  0.2619 -0.2422
 1742SOL    HW116862   3.764   1.837   4.325 -0.1413  0.4035 -2.1714
 1742SOL    HW216863   3.622   1.810   4.298 -1.0044 -1.2831  2.3981
 1743SOL     OW16864   3.285   1.655   6.869 -0.2544  0.1846 -0.4198
 1743SOL    HW116865   3.272   1.735   6.920  1.2347  0.5507 -0.6177
 1743SOL    HW216866   3.228   1.592   6.913 -0.5272  0.0505 -0.9621
 1744SOL     OW16867   0.688   4.222  17.467  0.7902  0.1430 -0.7533
 1744SOL    HW116868   0.725   4.295  17.417 -1.2357  0.9126 -1.0965
 1744SOL    HW216869   0.733   4.236  17.551  1.2682 -0.6044 -0.8874
 1745SOL     OW16870   0.162   2.175   7.805 -0.1778 -0.5420 -0.0662
 1745SOL    HW116871   0.129   2.087   7.822  0.3634 -0.7670 -0.1753
 1745SOL    HW216872   0.097   2.220   7.858  0.3804  0.5587 -0.3267
 1746SOL     OW16873   3.414   0.288   8.162 -0.4093 -0.2408  0.1710
 1746SOL    HW116874   3.392   0.342   8.238 -2.1939  1.0751 -1.2899
 1746SOL    HW216875   3.445   0.208   8.205  1.1954  0.9179  1.1920
 1747SOL     OW16876   1.375   2.506   2.966 -0.3243 -0.2249  0.1066
 1747SOL    HW116877   1.344   2.570   2.901  0.9062  1.2785  1.0251
 1747SOL    HW216878   1.426   2.551   3.033  0.5838 -3.3819  1.5447
 1748SOL     OW16879   1.445   1.502  13.580  0.1710  0.1968  0.9349
 1748SOL    HW116880   1.523   1.451  13.601 -1.0974 -2.0071  0.2182
 1748SOL    HW216881   1.444   1.487  13.486 -1.9163 -2.1444  1.3243
 1749SOL     OW16882   0.238   2.289  17.549  0.5149 -0.6624  0.3487
 1749SOL    HW116883   0.253   2.306  17.456 -0.0705 -0.0343  0.3642
 1749SOL    HW216884   0.144   2.272  17.552  0.2479  0.5790 -0.5854
 1750SOL     OW16885   4.104   1.270   5.388 -0.1297  0.3749 -0.0535
 1750SOL    HW116886   4.153   1.261   5.306  0.4797 -0.4776  0.4033
 1750SOL    HW216887   4.093   1.186   5.432 -1.4698 -0.0926 -1.3005
 1751SOL     OW16888   0.296   4.162   1.520  0.1339  0.2839  0.3005
 1751SOL    HW116889   0.385   4.186   1.493  0.6341 -1.0599  0.7070
 1751SOL    HW216890   0.281   4.240   1.573  0.1063 -0.5103  1.4746
 1752SOL     OW16891   0.305   4.492  10.417  0.2778 -0.4378 -0.2616
 1752SOL    HW116892   0.280   4.583  10.431 -0.0965 -0.9343  2.2673
 1752SOL    HW216893   0.245   4.458  10.483 -0.4332  1.3225 -0.0048
 1753SOL     OW16894   2.360   3.582   1.978 -0.3908 -0.1597 -0.0477
 1753SOL    HW116895   2.418   3.624   2.041 -1.1505 -0.7897  1.0941
 1753SOL    HW216896   2.293   3.650   1.968  0.3784  0.6955  0.6667
 1754SOL     OW16897   1.952   4.190   8.346  0.6383 -0.0928 -0.7691
 1754SOL    HW116898   1.878   4.189   8.286  0.3282 -0.5379 -0.3780
 1754SOL    HW216899   1.976   4.282   8.340 -0.5321  0.4228  2.3691
 1755SOL     OW16900   0.282   3.500   5.124 -0.1732  0.1105  0.0874
 1755SOL    HW116901   0.214   3.517   5.189 -0.8761  0.5395 -0.7508
 1755SOL    HW216902   0.342   3.457   5.184 -0.4662  0.1734  0.4262
 1756SOL     OW16903   2.255   1.221   7.897 -0.4063  0.2099  0.1101
 1756SOL    HW116904   2.190   1.181   7.954  0.2929 -0.0139  0.7535
 1756SOL    HW216905   2.325   1.217   7.962 -0.0608  1.6925 -0.1689
 1757SOL     OW16906   2.820   3.454  10.235  0.0703 -0.0354  0.0473
 1757SOL    HW116907   2.875   3.392  10.282  1.1885 -0.1597 -1.4249
 1757SOL    HW216908   2.823   3.412  10.149  1.9298  1.5168 -0.6511
 1758SOL     OW16909   0.537   0.368  12.734 -0.3781 -0.5257  0.4088
 1758SOL    HW116910   0.532   0.351  12.828 -0.3942 -0.3852  0.4340
 1758SOL    HW216911   0.539   0.464  12.743  2.0369 -0.6212  1.0399
 1759SOL     OW16912   1.295   0.943   2.197  0.4706 -0.6302 -0.2445
 1759SOL    HW116913   1.219   0.941   2.139  0.1758  1.2301  0.0872
 1759SOL    HW216914   1.307   1.038   2.201 -1.1294 -0.4514  0.3214
 1760SOL     OW16915   2.905   3.956  16.818  0.0331  0.5744  0.2543
 1760SOL    HW116916   2.912   4.049  16.836  0.0710  0.9166 -1.4909
 1760SOL    HW216917   2.853   3.962  16.738 -1.2124  1.0331  1.0890
 1761SOL     OW16918   3.550   1.737  13.822 -0.5270  0.6558  0.2177
 1761SOL    HW116919   3.637   1.698  13.816 -1.3498 -1.0645 -0.4822
 1761SOL    HW216920   3.503   1.688  13.890 -2.7735 -0.3379 -2.0369
 1762SOL     OW16921   2.123   4.300   5.966 -0.0113  0.0722  0.3840
 1762SOL    HW116922   2.100   4.208   5.956 -2.0877  0.4194  1.9343
 1762SOL    HW216923   2.208   4.291   5.923 -0.3968  0.4980 -0.4837
 1763SOL     OW16924   0.943   0.046   2.236 -0.1959 -0.2331 -0.1217
 1763SOL    HW116925   0.972   0.018   2.323 -2.8566  2.3414  1.6055
 1763SOL    HW216926   0.873   4.729   2.204 -0.7414  0.1624  0.3863
 1764SOL     OW16927   0.275   3.569  16.795  0.3043 -0.0529 -0.1997
 1764SOL    HW116928   0.296   3.645  16.741  2.0949 -1.2151 -1.1001
 1764SOL    HW216929   0.212   3.533  16.732 -0.3873 -1.9120  1.5491
 1765SOL     OW16930   0.587   1.291   5.451  0.2409 -0.0818 -0.0580
 1765SOL    HW116931   0.539   1.211   5.472 -0.7891  0.5473 -0.0084
 1765SOL    HW216932   0.604   1.314   5.542 -0.3858 -0.1687  0.0843
 1766SOL     OW16933   2.633   3.210   9.461  0.2334  0.2535  0.2563
 1766SOL    HW116934   2.581   3.177   9.534  0.6428  1.5236  1.1196
 1766SOL    HW216935   2.716   3.237   9.499  0.4793  1.4124 -1.0921
 1767SOL     OW16936   2.349   4.060   8.741  0.2936 -0.1623  0.3436
 1767SOL    HW116937   2.304   3.976   8.752 -0.2077 -0.2642 -2.4963
 1767SOL    HW216938   2.274   4.120   8.736  0.4430  0.1442  1.8306
 1768SOL     OW16939   1.449   2.524   7.788 -0.3262 -0.2416  0.7171
 1768SOL    HW116940   1.383   2.465   7.824 -1.0863  0.4522  0.4648
 1768SOL    HW216941   1.525   2.479   7.825 -0.8984 -1.5230  0.3230
 1769SOL     OW16942   4.601   0.791   8.628  0.4340 -0.1478  0.2927
 1769SOL    HW116943   4.690   0.765   8.655  0.0113 -0.4689  1.3576
 1769SOL    HW216944   4.605   0.822   8.538 -1.0520  0.3866  0.4172
 1770SOL     OW16945   1.917   0.017  15.303  0.5291  0.5171 -0.1612
 1770SOL    HW116946   1.973   0.077  15.353  0.8166 -1.3855  1.8237
 1770SOL    HW216947   1.840   0.072  15.290 -0.4177 -1.5411 -3.2327
 1771SOL     OW16948   4.199   2.311   2.791  0.4144 -0.7488  0.3531
 1771SOL    HW116949   4.191   2.248   2.719 -3.2637  0.0127  0.1167
 1771SOL    HW216950   4.261   2.265   2.849  0.3783 -2.2701 -0.8081
 1772SOL     OW16951   0.792   0.647   8.541 -0.3854  0.0317 -0.2091
 1772SOL    HW116952   0.785   0.689   8.627  1.2973  0.8679 -0.4919
 1772SOL    HW216953   0.702   0.626   8.516 -0.2573 -1.9150  0.9638
 1773SOL     OW16954   4.492   1.915  13.285 -0.2986  0.0350 -0.2507
 1773SOL    HW116955   4.448   1.830  13.288 -0.2355 -0.0009 -0.3662
 1773SOL    HW216956   4.435   1.981  13.325  1.6549  2.2098 -0.9960
 1774SOL     OW16957   2.650   1.042  14.640 -0.2311 -0.0563  0.2173
 1774SOL    HW116958   2.671   0.951  14.622 -0.9170 -0.7875  3.1905
 1774SOL    HW216959   2.587   1.034  14.711  0.3007  1.1873  0.8348
 1775SOL     OW16960   1.857   2.215  14.594  0.0984  0.3969 -0.2194
 1775SOL    HW116961   1.777   2.268  14.601  0.3101  0.6547  0.2084
 1775SOL    HW216962   1.864   2.178  14.682  0.0457 -0.1097 -0.4278
 1776SOL     OW16963   4.534   2.342   5.080 -0.4262  0.3043 -0.3242
 1776SOL    HW116964   4.573   2.267   5.125 -0.9858  0.0789 -0.2191
 1776SOL    HW216965   4.593   2.412   5.109  0.6077 -0.4587 -0.5711
 1777SOL     OW16966   4.436   0.648   9.637  0.3861 -0.6723  0.3357
 1777SOL    HW116967   4.440   0.742   9.654 -0.3104 -1.0459  2.5184
 1777SOL    HW216968   4.365   0.631   9.699  2.2544 -2.7811  1.8969
 1778SOL     OW16969   3.583   1.594   7.634 -0.0621  0.1878  0.1719
 1778SOL    HW116970   3.529   1.514   7.631 -3.0544  2.1904  0.1922
 1778SOL    HW216971   3.517   1.651   7.674  0.0961 -0.4700  1.3725
 1779SOL     OW16972   2.921   3.409   7.093  0.3950  0.6433  0.3473
 1779SOL    HW116973   2.986   3.460   7.045 -1.9948  1.3303 -2.1362
 1779SOL    HW216974   2.867   3.384   7.018  2.9011  1.9843 -1.8639
 1780SOL     OW16975   1.629   0.538  13.568  0.3006  0.5290 -0.2569
 1780SOL    HW116976   1.616   0.461  13.623  1.7091  0.5444  0.0987
 1780SOL    HW216977   1.536   0.553  13.549  0.6099  0.9191 -1.4479
 1781SOL     OW16978   3.715   3.983   4.611  0.7714  0.1822  0.3884
 1781SOL    HW116979   3.679   3.928   4.681 -1.6667  0.0465 -0.9836
 1781SOL    HW216980   3.689   4.060   4.662 -0.1163 -0.6368  1.1558
 1782SOL     OW16981   3.759   1.736   7.248  0.0990 -0.4428 -0.1140
 1782SOL    HW116982   3.754   1.719   7.342 -3.1064  0.5220 -0.1140
 1782SOL    HW216983   3.787   1.827   7.239 -0.0739 -0.4693 -0.8780
 1783SOL     OW16984   4.295   0.105   2.296 -1.3780 -1.2136  0.2409
 1783SOL    HW116985   4.301   0.153   2.379  0.0170 -0.0495 -0.5354
 1783SOL    HW216986   4.331   0.019   2.320  0.3624 -0.8030 -0.9088
 1784SOL     OW16987   0.785   0.780   0.898 -0.3469  0.5574  0.1359
 1784SOL    HW116988   0.837   0.720   0.952 -0.9862 -2.0732 -2.1665
 1784SOL    HW216989   0.800   0.754   0.807 -2.6523 -1.4059  0.3210
 1785SOL     OW16990   3.372   0.774  15.851 -0.0195  0.3401  0.0787
 1785SOL    HW116991   3.439   0.707  15.841  1.9536  1.9490  2.3972
 1785SOL    HW216992   3.308   0.729  15.906 -1.6796  0.4401 -1.7641
 1786SOL     OW16993   1.991   4.266   4.446 -0.0839 -0.0050 -0.7421
 1786SOL    HW116994   2.086   4.279   4.438  0.2166 -1.6686  0.0831
 1786SOL    HW216995   1.974   4.213   4.369  1.1706 -2.6667  0.7909
 1787SOL     OW16996   1.231   4.653  15.263 -0.4094 -0.0501 -0.0748
 1787SOL    HW116997   1.155   4.709  15.248  0.3539  1.2795  1.0519
 1787SOL    HW216998   1.296   4.694  15.206 -0.6952  1.4383  0.6932
 1788SOL     OW16999   1.408   4.443   9.298 -0.0413  0.3542  0.3626
 1788SOL    HW117000   1.389   4.437   9.392 -1.2960  1.3541  0.1678
 1788SOL    HW217001   1.422   4.538   9.302  2.5394 -0.0615  1.7997
 1789SOL     OW17002   1.182   4.707   9.577  0.0832  0.1226 -0.0087
 1789SOL    HW117003   1.186   4.624   9.529 -1.0510 -0.3447  0.7145
 1789SOL    HW217004   1.090   4.731   9.580  0.0058 -0.3836  1.3543
 1790SOL     OW17005   2.223   3.338   2.180  0.1192  0.5389  0.0466
 1790SOL    HW117006   2.303   3.324   2.129  0.0379 -0.1807  0.1126
 1790SOL    HW217007   2.173   3.260   2.154  1.3907 -0.1151 -0.4505
 1791SOL     OW17008   0.225   1.819  12.481  0.1127  0.1562  0.1007
 1791SOL    HW117009   0.173   1.875  12.423  0.0394  1.3589  1.2935
 1791SOL    HW217010   0.289   1.786  12.419 -1.0445 -1.0245 -0.4607
 1792SOL     OW17011   2.834   2.960   8.707  0.2369 -0.3867 -0.4383
 1792SOL    HW117012   2.908   2.899   8.705  1.8929  1.5250  2.4742
 1792SOL    HW217013   2.800   2.929   8.791 -0.0155 -0.8459 -0.7052
 1793SOL     OW17014   2.709   2.615   9.297 -0.0562 -0.6018  0.9179
 1793SOL    HW117015   2.672   2.589   9.381 -0.8533  0.5932  0.9240
 1793SOL    HW217016   2.707   2.710   9.308 -2.4879 -0.5214 -0.2125
 1794SOL     OW17017   2.111   1.070   3.607 -0.7598 -0.7877  0.1369
 1794SOL    HW117018   2.119   1.064   3.703 -0.9899  0.9825  0.2722
 1794SOL    HW217019   2.198   1.053   3.572  0.6956  0.9024  2.8705
 1795SOL     OW17020   4.237   4.081  11.047  0.0210  0.1087  0.3869
 1795SOL    HW117021   4.159   4.106  10.998  0.6062  1.4606  0.1417
 1795SOL    HW217022   4.270   4.170  11.056 -0.1583  0.3494 -1.4863
 1796SOL     OW17023   2.219   4.055  14.303 -0.1302 -0.5163  0.2417
 1796SOL    HW117024   2.191   3.976  14.349  1.4940 -0.2742  1.6643
 1796SOL    HW217025   2.215   4.118  14.375 -1.3780  1.0818 -1.2348
 1797SOL     OW17026   0.260   0.733   2.702  0.4442 -0.4177  0.2771
 1797SOL    HW117027   0.325   0.740   2.632  0.4802 -0.3922  0.3130
 1797SOL    HW217028   0.283   0.803   2.762 -0.0587 -0.9607  1.1010
 1798SOL     OW17029   2.189   3.902  15.390 -0.2697  0.2426 -0.5381
 1798SOL    HW117030   2.168   3.850  15.312  0.5000 -1.7537  0.5842
 1798SOL    HW217031   2.222   3.985  15.356 -0.8136  1.2565  1.4034
 1799SOL     OW17032   3.803   0.249  15.230  0.4334  0.2686  0.5414
 1799SOL    HW117033   3.743   0.255  15.304  0.4055 -0.5709  0.5879
 1799SOL    HW217034   3.819   0.155  15.232  2.1047  0.5284 -1.2123
 1800SOL     OW17035   3.687   0.199   1.706  0.4950 -0.4969 -0.1222
 1800SOL    HW117036   3.632   0.128   1.740  1.2188 -0.8422  0.3344
 1800SOL    HW217037   3.650   0.216   1.620 -1.9219  0.3703  1.0813
 1801SOL     OW17038   1.167   3.920   6.349 -0.6102  0.6959  0.1933
 1801SOL    HW117039   1.253   3.878   6.348 -0.7370  0.4215  0.8339
 1801SOL    HW217040   1.110   3.875   6.288 -0.5465  1.3675 -0.3535
 1802SOL     OW17041   1.460   1.229   7.796 -0.3224 -0.0959 -0.2323
 1802SOL    HW117042   1.474   1.170   7.870  0.8814  1.3047  0.6608
 1802SOL    HW217043   1.537   1.221   7.739 -0.3429  0.1356 -0.2952
 1803SOL     OW17044   4.587   1.803   3.640  0.3177  0.3336 -0.2982
 1803SOL    HW117045   4.604   1.850   3.559  3.2635 -0.8495 -0.3457
 1803SOL    HW217046   4.518   1.860   3.674 -0.5278 -1.1710  0.5301
 1804SOL     OW17047   1.245   4.557  15.781 -0.4905  0.0858 -0.0979
 1804SOL    HW117048   1.211   4.488  15.723  3.1917 -1.0188 -0.9271
 1804SOL    HW217049   1.223   4.638  15.735 -1.0395  0.6362  1.1563
 1805SOL     OW17050   2.657   2.908   5.584  0.2200 -0.6879  0.3594
 1805SOL    HW117051   2.692   2.918   5.672 -4.4543 -2.2937  2.3526
 1805SOL    HW217052   2.625   2.818   5.588 -0.8101 -0.3955 -1.2480
 1806SOL     OW17053   2.604   2.848   4.640 -0.1548 -0.0018 -0.0650
 1806SOL    HW117054   2.669   2.805   4.584 -1.1479 -0.2199 -1.0438
 1806SOL    HW217055   2.642   2.829   4.726 -0.6443  3.1120  0.8176
 1807SOL     OW17056   4.109   0.915  13.775 -0.0553  0.2678  0.5732
 1807SOL    HW117057   4.032   0.967  13.754 -0.2988  0.1748  1.2387
 1807SOL    HW217058   4.124   0.858  13.700  0.8556 -0.9809  1.6983
 1808SOL     OW17059   2.743   3.644  11.381  0.5294  0.0729  0.0740
 1808SOL    HW117060   2.817   3.679  11.431  0.2085  1.0809 -0.1516
 1808SOL    HW217061   2.673   3.710  11.379  0.1049 -0.3836 -0.0256
 1809SOL     OW17062   2.545   2.601   3.990  0.4740  0.6921 -0.1846
 1809SOL    HW117063   2.515   2.519   3.949  2.4130  0.6704 -1.5283
 1809SOL    HW217064   2.584   2.561   4.068 -0.1283  0.4814  0.0112
 1810SOL     OW17065   2.068   3.401   4.043  0.1084  0.1860 -0.4081
 1810SOL    HW117066   2.092   3.492   4.061 -1.6080  0.2926  1.3183
 1810SOL    HW217067   1.974   3.393   4.058  0.3683  0.2572  1.3305
 1811SOL     OW17068   3.474   3.598   8.388  0.3210 -0.0548  0.3564
 1811SOL    HW117069   3.534   3.541   8.339  0.3128  0.9452 -0.8035
 1811SOL    HW217070   3.488   3.590   8.483 -0.5007  0.7354  0.5444
 1812SOL     OW17071   1.886   3.868   7.111 -0.5016 -0.6857  0.1143
 1812SOL    HW117072   1.953   3.934   7.127 -0.2228 -0.9642  0.1063
 1812SOL    HW217073   1.819   3.930   7.085 -0.5400 -0.5944  0.4368
 1813SOL     OW17074   1.882   3.190   9.005  0.1488 -0.2325 -0.3783
 1813SOL    HW117075   1.810   3.246   9.033  1.1568  0.6446  0.4904
 1813SOL    HW217076   1.843   3.138   8.935 -1.8519 -0.2670  0.7787
 1814SOL     OW17077   3.776   3.578   2.572  0.6473 -0.4962  0.8003
 1814SOL    HW117078   3.871   3.568   2.579  0.5658  0.9781  3.7669
 1814SOL    HW217079   3.757   3.605   2.661  0.2851 -2.7290  1.4054
 1815SOL     OW17080   3.611   1.529  10.322 -0.7430 -0.0521  0.1010
 1815SOL    HW117081   3.660   1.578  10.388  0.2334 -1.6626  0.5578
 1815SOL    HW217082   3.537   1.590  10.313  0.1084  1.0038  0.1559
 1816SOL     OW17083   1.304   2.784   5.457 -0.1035 -0.1926  0.2193
 1816SOL    HW117084   1.361   2.724   5.506 -2.3375  0.4073  3.5630
 1816SOL    HW217085   1.362   2.835   5.400 -1.7221  1.1410 -0.2469
 1817SOL     OW17086   3.091   3.177   5.619 -0.5955 -0.2923  0.0011
 1817SOL    HW117087   3.031   3.251   5.629  0.4031  0.4198  0.6999
 1817SOL    HW217088   3.148   3.216   5.553  1.1287  0.7316  2.0977
 1818SOL     OW17089   2.511   4.288   6.756 -0.2154  0.5540 -0.2989
 1818SOL    HW117090   2.603   4.297   6.730 -0.8644  1.4054 -2.2428
 1818SOL    HW217091   2.468   4.241   6.684  1.1530  0.7508 -1.2414
 1819SOL     OW17092   2.991   2.249   8.814  0.6325 -0.1101  0.1816
 1819SOL    HW117093   2.974   2.300   8.734 -0.2720  2.3194  1.9347
 1819SOL    HW217094   3.074   2.285   8.845  2.4940 -2.7580 -1.6382
 1820SOL     OW17095   2.528   2.695  10.914  0.3200  0.0127 -0.1033
 1820SOL    HW117096   2.531   2.715  10.821 -0.4520  1.3068  0.1599
 1820SOL    HW217097   2.584   2.617  10.914  0.1281 -0.1230  1.0509
 1821SOL     OW17098   1.963   2.287   2.639  0.6669 -0.0588  0.1282
 1821SOL    HW117099   1.939   2.377   2.662  0.0763 -0.6835  1.9375
 1821SOL    HW217100   2.056   2.296   2.616  0.2269  1.5544 -1.0204
 1822SOL     OW17101   0.177   0.720   4.488 -0.0216  0.1139 -0.6768
 1822SOL    HW117102   0.128   0.638   4.479 -0.7177  0.7122 -2.4303
 1822SOL    HW217103   0.111   0.778   4.449  0.1371 -1.2988 -3.0325
 1823SOL     OW17104   2.154   2.406   6.987  0.0827 -0.1449 -0.1784
 1823SOL    HW117105   2.138   2.499   6.999  0.7032 -0.1635  0.7596
 1823SOL    HW217106   2.232   2.390   6.933  1.2735 -0.7198  1.7294
 1824SOL     OW17107   1.895   1.502   3.809 -0.3605 -0.3605  0.0705
 1824SOL    HW117108   1.836   1.541   3.873  1.7022 -1.8647  2.8859
 1824SOL    HW217109   1.845   1.504   3.727 -0.9006  1.1086  0.4438
 1825SOL     OW17110   0.174   0.970  12.001  0.0702  0.1355 -0.5501
 1825SOL    HW117111   0.087   0.943  11.971 -0.4006  1.8342 -0.6951
 1825SOL    HW217112   0.226   0.898  11.964  0.8359  0.0127  0.7606
 1826SOL     OW17113   1.582   3.397   9.471  0.6914  0.1885 -0.2975
 1826SOL    HW117114   1.628   3.314   9.466 -1.0020 -0.7747  0.0707
 1826SOL    HW217115   1.541   3.399   9.558 -1.2440 -0.2684 -1.1998
 1827SOL     OW17116   2.659   1.565  10.138  0.0340  0.0206  0.4027
 1827SOL    HW117117   2.708   1.559  10.056  3.4455  1.3739  2.3555
 1827SOL    HW217118   2.650   1.660  10.138 -2.5738 -0.2347  0.8387
 1828SOL     OW17119   2.217   3.355  12.407 -0.1761 -0.0250  0.0663
 1828SOL    HW117120   2.230   3.393  12.320  0.6168 -0.6991 -0.1111
 1828SOL    HW217121   2.247   3.264  12.399 -0.6162 -0.2396  0.8046
 1829SOL     OW17122   3.769   1.590  13.863  0.7937  0.1088  0.0994
 1829SOL    HW117123   3.840   1.631  13.912 -0.4269  1.3383  0.8179
 1829SOL    HW217124   3.751   1.504  13.902  3.1536 -0.0032  0.9366
 1830SOL     OW17125   0.911   1.542  17.021  0.1677  0.3896 -0.1986
 1830SOL    HW117126   0.997   1.568  16.988 -0.2025 -1.4470 -2.5805
 1830SOL    HW217127   0.877   1.501  16.942 -0.4575 -0.3947  0.4766
 1831SOL     OW17128   1.622   4.689   8.202 -0.2610 -0.3031 -0.2094
 1831SOL    HW117129   1.563   0.024   8.218  0.7170 -0.0030  2.0990
 1831SOL    HW217130   1.584   4.649   8.124  0.5954 -0.0906 -0.7404
 1832SOL     OW17131   2.343   3.192  16.668 -0.0905  0.3036  0.3087
 1832SOL    HW117132   2.304   3.134  16.603  0.7078  0.9907 -0.7789
 1832SOL    HW217133   2.268   3.243  16.698 -0.1005  0.3744  0.1635
 1833SOL     OW17134   2.394   1.533   2.277 -0.6200 -0.3353  0.8809
 1833SOL    HW117135   2.373   1.441   2.295 -4.3731  0.3120 -0.1276
 1833SOL    HW217136   2.311   1.568   2.245  0.2618  1.0281  0.1106
 1834SOL     OW17137   1.175   1.732   5.802 -0.3120  0.0281 -0.2034
 1834SOL    HW117138   1.099   1.699   5.755 -1.3673  0.3376  1.3177
 1834SOL    HW217139   1.237   1.763   5.735 -1.0227 -0.8256 -1.2640
 1835SOL     OW17140   4.642   3.091  17.210 -0.4490  0.1630 -0.7319
 1835SOL    HW117141   4.585   3.023  17.173 -1.2799  0.9361 -0.8824
 1835SOL    HW217142   4.586   3.164  17.180  0.4993  1.8698  1.7286
 1836SOL     OW17143   1.702   0.412   6.651  0.0295  0.3730 -0.2671
 1836SOL    HW117144   1.672   0.342   6.708  4.0952  1.5112  3.2896
 1836SOL    HW217145   1.624   0.435   6.601 -1.3354  1.7561  2.4848
 1837SOL     OW17146   3.790   3.988   2.638 -0.0901  0.3987  0.1633
 1837SOL    HW117147   3.750   3.919   2.585  1.3196 -0.7918  0.6291
 1837SOL    HW217148   3.882   3.974   2.617  0.1507  0.1701  1.3423
 1838SOL     OW17149   1.047   0.642  10.175  0.2598  0.2112  0.0557
 1838SOL    HW117150   1.126   0.594  10.200 -0.5680 -1.1770  0.0148
 1838SOL    HW217151   1.085   0.707  10.116  1.6966  1.1185  1.9535
 1839SOL     OW17152   4.004   0.927   8.575 -0.1752 -0.3705  0.1970
 1839SOL    HW117153   3.934   0.974   8.529  1.0864 -0.3219 -1.6781
 1839SOL    HW217154   3.965   0.927   8.663 -2.3275  2.0877 -0.7438
 1840SOL     OW17155   4.539   2.963  15.969 -0.5872  0.3695  0.3585
 1840SOL    HW117156   4.619   2.913  15.953  0.0699  1.6264 -0.3271
 1840SOL    HW217157   4.523   2.946  16.061  1.0746 -1.8094  0.2528
 1841SOL     OW17158   3.751   2.916   4.647 -0.4482  0.2520  0.4535
 1841SOL    HW117159   3.665   2.944   4.676 -0.7739  2.4223 -2.6467
 1841SOL    HW217160   3.800   2.996   4.628  0.9415 -0.8610 -0.6763
 1842SOL     OW17161   4.112   0.537  13.564  0.3061 -0.3257 -0.3092
 1842SOL    HW117162   4.061   0.513  13.642  1.9378  2.6282  1.6824
 1842SOL    HW217163   4.111   0.451  13.521  0.2059 -0.1542 -0.6487
 1843SOL     OW17164   1.740   0.709   2.112 -0.2580 -0.0804  0.3724
 1843SOL    HW117165   1.722   0.691   2.020 -2.7023  1.1390  0.5908
 1843SOL    HW217166   1.768   0.800   2.123  1.1041 -0.1887 -2.3895
 1844SOL     OW17167   2.422   0.516   2.174  0.2080 -0.3867 -0.1875
 1844SOL    HW117168   2.403   0.424   2.196  1.5663 -0.7071 -0.3969
 1844SOL    HW217169   2.420   0.559   2.260 -0.0885 -3.9382  1.6166
 1845SOL     OW17170   0.242   2.911   9.875  0.6392 -0.0032  0.0322
 1845SOL    HW117171   0.181   2.984   9.872 -1.5978 -1.7518  2.9186
 1845SOL    HW217172   0.185   2.838   9.853 -0.1304  1.4081 -2.6444
 1846SOL     OW17173   2.419   3.794  16.032  0.0692 -0.1548  0.0037
 1846SOL    HW117174   2.432   3.847  15.954  1.3702 -0.7780 -0.1946
 1846SOL    HW217175   2.491   3.821  16.090 -0.8679 -1.2245  1.6611
 1847SOL     OW17176   0.315   2.113   8.327  0.3104 -0.6197  0.1429
 1847SOL    HW117177   0.365   2.048   8.377 -0.1920 -0.4608  0.8577
 1847SOL    HW217178   0.368   2.102   8.248 -0.0266 -0.5843 -0.0861
 1848SOL     OW17179   3.822   0.306   5.695 -0.4626 -0.2071  0.1958
 1848SOL    HW117180   3.916   0.309   5.716 -0.0700  0.0170 -1.5791
 1848SOL    HW217181   3.811   0.396   5.664 -0.9566 -0.2700  0.1886
 1849SOL     OW17182   0.854   1.092  11.254 -0.1066 -0.1448 -0.2052
 1849SOL    HW117183   0.864   1.111  11.161 -1.6611 -0.3416 -0.4078
 1849SOL    HW217184   0.774   1.040  11.252 -0.3830  0.3646 -2.0101
 1850SOL     OW17185   1.036   4.238   5.503  0.2220 -0.1955 -0.0579
 1850SOL    HW117186   1.106   4.293   5.467  0.7686 -0.0459  1.2506
 1850SOL    HW217187   1.018   4.170   5.438 -1.5225  0.7489 -0.5751
 1851SOL     OW17188   0.999   1.074   2.394 -0.2289 -0.9217  0.2230
 1851SOL    HW117189   0.993   1.098   2.302  0.8733 -0.5407  0.2588
 1851SOL    HW217190   0.909   1.088   2.425 -0.2229 -1.6186  0.5429
 1852SOL     OW17191   0.251   0.324   2.714  0.3938  0.4595  0.0605
 1852SOL    HW117192   0.227   0.234   2.735  0.0625  0.2366 -1.2686
 1852SOL    HW217193   0.283   0.306   2.626 -2.1786  1.6950 -1.1324
 1853SOL     OW17194   3.226   4.738   6.134  0.0947 -0.5833  0.5287
 1853SOL    HW117195   3.168   0.075   6.126  1.1780  0.4277  2.3575
 1853SOL    HW217196   3.222   4.702   6.045 -0.0121  0.4721  0.1016
 1854SOL     OW17197   2.042   1.964   5.391  0.2337  0.2194 -0.2191
 1854SOL    HW117198   2.020   1.918   5.310  0.4354 -1.8813  0.9050
 1854SOL    HW217199   2.124   2.007   5.366 -0.5995  1.6817 -0.4273
 1855SOL     OW17200   3.560   3.502   2.893 -0.3315 -0.3110  0.5110
 1855SOL    HW117201   3.571   3.460   2.807 -1.9206  1.5082 -0.5947
 1855SOL    HW217202   3.609   3.583   2.879  0.5617 -0.3865  3.3360
 1856SOL     OW17203   0.105   1.449   4.256 -0.1762 -0.0503  0.1849
 1856SOL    HW117204   0.108   1.523   4.196 -0.1616 -0.0076  0.2391
 1856SOL    HW217205   0.013   1.423   4.252  0.1096 -0.8039 -1.8257
 1857SOL     OW17206   4.624   2.228   3.942  0.2114 -0.4289 -0.1016
 1857SOL    HW117207   4.609   2.136   3.966  0.4186 -0.2647  0.6475
 1857SOL    HW217208   4.646   2.223   3.848  0.1481 -1.2586 -0.0761
 1858SOL     OW17209   4.323   2.193   4.585  0.3799  0.4691  0.1973
 1858SOL    HW117210   4.365   2.223   4.504  0.4796  2.0474  0.8279
 1858SOL    HW217211   4.276   2.115   4.555 -1.7038  1.2466  1.4259
 1859SOL     OW17212   3.120   0.267   6.200 -0.2041 -0.2686 -0.1561
 1859SOL    HW117213   3.208   0.296   6.174 -0.3171 -1.0953 -1.4411
 1859SOL    HW217214   3.121   0.258   6.295 -2.1711 -0.3444 -0.1563
 1860SOL     OW17215   4.032   1.008   9.089  0.1518 -0.0923 -0.0328
 1860SOL    HW117216   4.083   0.946   9.140 -1.4620  0.1502  1.8850
 1860SOL    HW217217   3.957   1.023   9.147  1.3376  1.0079  1.2157
 1861SOL     OW17218   1.231   3.607   5.085 -0.3003 -0.2481 -0.1837
 1861SOL    HW117219   1.224   3.647   4.998  3.2881  1.1695  0.1817
 1861SOL    HW217220   1.141   3.577   5.098 -0.7100  1.2597  0.4597
 1862SOL     OW17221   1.679   4.515   2.949  0.1782  0.5222 -0.0366
 1862SOL    HW117222   1.661   4.531   3.041  1.7251 -0.0775  0.3729
 1862SOL    HW217223   1.774   4.529   2.952  0.3426 -0.8155  1.2603
 1863SOL     OW17224   1.930   3.485   4.666  0.0201 -0.2520 -0.5426
 1863SOL    HW117225   1.933   3.424   4.593 -0.5333 -1.0279  0.0910
 1863SOL    HW217226   2.016   3.526   4.653 -0.9964  1.4264 -1.9242
 1864SOL     OW17227   4.531   3.057   2.475 -0.2594  0.0503  0.4005
 1864SOL    HW117228   4.470   2.990   2.444 -0.6035  0.7373 -0.4113
 1864SOL    HW217229   4.605   3.001   2.494 -0.2226  0.1255  0.4791
 1865SOL     OW17230   1.579   2.743  13.135 -0.0600 -0.6743  0.2172
 1865SOL    HW117231   1.522   2.691  13.079 -2.1980  1.7945  0.1461
 1865SOL    HW217232   1.638   2.677  13.171  0.3431 -0.2024  0.4236
 1866SOL     OW17233   0.774   3.129  14.563  0.0401  0.1148 -0.2329
 1866SOL    HW117234   0.690   3.129  14.516 -0.6500 -1.1770  1.0225
 1866SOL    HW217235   0.764   3.052  14.618 -1.2873 -0.1570 -0.8628
 1867SOL     OW17236   3.880   3.209  16.183  0.3410  0.7628 -0.6154
 1867SOL    HW117237   3.852   3.247  16.099  0.8293 -1.2071 -1.6876
 1867SOL    HW217238   3.975   3.199  16.174  0.3278  0.9319 -0.9647
 1868SOL     OW17239   0.900   0.087   3.971  0.0802  0.5035 -0.1570
 1868SOL    HW117240   0.834   0.117   3.908 -2.0274  0.0740  1.8810
 1868SOL    HW217241   0.970   0.151   3.959 -1.9669  3.1607  2.0953
 1869SOL     OW17242   0.108   2.890   4.712  0.1610  0.1822 -0.4247
 1869SOL    HW117243   0.092   2.796   4.717  1.9411 -0.1402 -0.5928
 1869SOL    HW217244   0.181   2.893   4.774 -1.5001  1.7349  1.4207
 1870SOL     OW17245   2.187   3.062   6.013  0.0274  0.6008  0.0891
 1870SOL    HW117246   2.227   3.141   6.051  0.5237  0.5807 -0.3962
 1870SOL    HW217247   2.101   3.099   5.994 -0.5393 -2.1749 -2.7732
 1871SOL     OW17248   4.468   4.120  16.999 -0.9116 -0.5017 -0.0003
 1871SOL    HW117249   4.530   4.050  16.980 -0.2622 -0.0564  0.4600
 1871SOL    HW217250   4.473   4.127  17.095  0.5271  2.0256 -0.2488
 1872SOL     OW17251   0.340   4.154   4.733 -0.5703 -0.3644  0.5352
 1872SOL    HW117252   0.345   4.152   4.829  0.5182 -0.0698  0.4839
 1872SOL    HW217253   0.430   4.155   4.701 -0.1096  3.1935  1.9651
 1873SOL     OW17254   1.625   3.544   4.364  0.1988  0.7574  0.2324
 1873SOL    HW117255   1.608   3.513   4.275 -0.8060 -0.2596  0.7675
 1873SOL    HW217256   1.702   3.490   4.377 -0.6198 -0.6829 -0.8816
 1874SOL     OW17257   3.150   1.607   6.148 -0.7521  0.0119 -0.3730
 1874SOL    HW117258   3.162   1.528   6.201  0.3613  0.1754 -0.3864
 1874SOL    HW217259   3.062   1.637   6.170 -0.5601  0.6213 -0.4333
 1875SOL     OW17260   2.479   2.690   5.898 -0.7063  0.1426 -0.2971
 1875SOL    HW117261   2.501   2.698   5.805 -1.0633 -1.2525 -0.4925
 1875SOL    HW217262   2.451   2.600   5.908 -1.0081  0.3412  0.6935
 1876SOL     OW17263   3.141   1.957   9.288  0.5716 -0.3703 -0.3753
 1876SOL    HW117264   3.095   1.873   9.291 -0.4329  0.0959 -2.3305
 1876SOL    HW217265   3.068   2.014   9.310  1.3203  1.2150 -1.9862
 1877SOL     OW17266   4.621   3.781   5.756 -0.0333 -0.2486  0.3022
 1877SOL    HW117267   4.690   3.845   5.771 -0.4393  0.1340  0.5591
 1877SOL    HW217268   4.671   3.702   5.737 -0.4046  0.1138 -2.2201
 1878SOL     OW17269   3.201   1.077   0.412 -0.0469  0.2641  0.3500
 1878SOL    HW117270   3.234   1.071   0.501  0.1834 -0.8553  0.1904
 1878SOL    HW217271   3.114   1.105   0.439  0.1516  0.6149  0.6164
 1879SOL     OW17272   3.434   1.573  17.510  0.1395  0.2846  0.2884
 1879SOL    HW117273   3.511   1.551  17.457 -1.2922  0.0028 -1.6601
 1879SOL    HW217274   3.444   1.506  17.578  2.5298 -0.3427 -0.6889
 1880SOL     OW17275   3.871   2.613   1.846 -0.7481  0.0416 -0.4034
 1880SOL    HW117276   3.810   2.686   1.837  0.2293  0.7224 -1.4269
 1880SOL    HW217277   3.947   2.657   1.884 -1.9518  2.2390 -0.5755
 1881SOL     OW17278   0.651   1.898  14.803  0.0152  0.6492  0.3523
 1881SOL    HW117279   0.726   1.840  14.810  0.3057  1.0749  0.8320
 1881SOL    HW217280   0.617   1.890  14.893  0.0154 -0.0372  0.2915
 1882SOL     OW17281   1.653   4.631   3.226  0.0466  0.5363  0.1385
 1882SOL    HW117282   1.620   4.720   3.230  3.2334  1.7525 -0.7537
 1882SOL    HW217283   1.579   4.588   3.268 -0.3280 -0.3883 -1.4472
 1883SOL     OW17284   3.697   0.440   5.986 -0.2536 -0.0531 -0.3813
 1883SOL    HW117285   3.682   0.391   6.067 -0.9537 -1.2341 -1.2359
 1883SOL    HW217286   3.788   0.468   5.999 -1.0830  1.4137  2.2685
 1884SOL     OW17287   4.128   0.991   3.989 -0.4627 -0.0273 -0.2493
 1884SOL    HW117288   4.186   0.921   3.961 -1.0893 -1.2788  1.5606
 1884SOL    HW217289   4.177   1.018   4.067 -0.0471 -0.0973 -0.4844
 1885SOL     OW17290   2.836   2.733   2.749  0.3932  0.1694  0.4621
 1885SOL    HW117291   2.856   2.705   2.838 -0.1379  0.8231  0.7846
 1885SOL    HW217292   2.798   2.819   2.766  0.4504  0.6647 -1.9377
 1886SOL     OW17293   2.123   2.056  10.175 -0.0281 -0.4224 -0.2639
 1886SOL    HW117294   2.177   2.000  10.231  1.4284 -1.2791 -2.5242
 1886SOL    HW217295   2.130   2.140  10.220  0.5126  0.0519 -1.2597
 1887SOL     OW17296   2.302   0.215  12.682  0.1693  0.1270  0.8817
 1887SOL    HW117297   2.394   0.225  12.659 -0.5729  0.5201 -1.8821
 1887SOL    HW217298   2.291   0.246  12.772  0.4594 -0.6376  1.1823
 1888SOL     OW17299   3.807   3.944   4.156  0.5824 -0.5082 -1.1375
 1888SOL    HW117300   3.795   3.853   4.131 -1.1532 -0.5104 -0.2840
 1888SOL    HW217301   3.766   3.995   4.087  0.1581  1.3685  0.4872
 1889SOL     OW17302   2.580   0.785   0.999  0.1577 -0.3111 -0.0423
 1889SOL    HW117303   2.496   0.831   1.004  0.6625  0.5488  0.5987
 1889SOL    HW217304   2.641   0.859   0.993 -1.1987  0.9631  1.6841
 1890SOL     OW17305   2.945   1.154   0.427  0.0963 -0.0061 -0.2686
 1890SOL    HW117306   2.949   1.222   0.359 -0.9211  1.3453  1.0266
 1890SOL    HW217307   2.930   1.072   0.378 -1.6241  0.2317 -0.1667
 1891SOL     OW17308   1.869   0.955  14.202 -0.0624  0.0446  0.4107
 1891SOL    HW117309   1.777   0.980  14.200 -1.0411 -3.3991  2.6470
 1891SOL    HW217310   1.902   1.015  14.134 -0.2462 -0.5846 -0.2243
 1892SOL     OW17311   3.226   2.059   5.418 -0.1710  0.5820 -0.0899
 1892SOL    HW117312   3.163   2.107   5.365  0.3433  0.7398 -0.5597
 1892SOL    HW217313   3.258   1.997   5.351 -1.5503  0.1047 -0.2975
 1893SOL     OW17314   1.279   3.671   8.542 -0.1130 -0.1976 -0.3907
 1893SOL    HW117315   1.338   3.597   8.553 -1.8516 -1.3997  0.8021
 1893SOL    HW217316   1.211   3.651   8.606  3.5491 -0.2456  3.4742
 1894SOL     OW17317   2.533   0.206  17.142  0.3226  0.5292 -0.1897
 1894SOL    HW117318   2.524   0.295  17.176 -0.7078  0.3352  0.0316
 1894SOL    HW217319   2.442   0.182  17.123 -0.1627  1.8761  0.3664
 1895SOL     OW17320   1.983   4.652   5.502  0.2795  0.2311  0.0532
 1895SOL    HW117321   2.065   4.700   5.493  0.2998  0.5794  2.0110
 1895SOL    HW217322   1.997   4.612   5.588  1.0084  0.0670 -0.1429
 1896SOL     OW17323   2.661   0.550   9.509  0.6490  0.6265  0.6259
 1896SOL    HW117324   2.716   0.532   9.433  1.0873 -0.7942  1.2897
 1896SOL    HW217325   2.629   0.462   9.530  1.2509  0.6761  1.7985
 1897SOL     OW17326   1.028   3.679   1.001 -0.2224 -0.2821  0.0362
 1897SOL    HW117327   1.058   3.769   1.011  0.3654 -0.5332  0.5105
 1897SOL    HW217328   0.972   3.686   0.924 -0.0682 -0.3593 -0.0822
 1898SOL     OW17329   1.525   1.302   3.626 -0.2295 -0.2093  0.1440
 1898SOL    HW117330   1.473   1.339   3.555  0.6030  2.2330  0.8184
 1898SOL    HW217331   1.614   1.321   3.596  0.6288 -2.3694  1.2910
 1899SOL     OW17332   3.054   0.978   2.575 -0.1112  0.2511  0.0995
 1899SOL    HW117333   3.053   0.897   2.523  2.5213  1.3386 -1.6846
 1899SOL    HW217334   3.100   1.032   2.510 -0.6614  0.9581  0.3034
 1900SOL     OW17335   2.794   3.534   9.146 -0.5946 -0.0514 -0.4951
 1900SOL    HW117336   2.751   3.617   9.167 -0.3349 -0.2993  1.0127
 1900SOL    HW217337   2.728   3.469   9.168 -0.6160 -0.3534 -1.4291
 1901SOL     OW17338   4.536   4.420   5.915 -0.0024 -0.0240  1.2571
 1901SOL    HW117339   4.576   4.500   5.949 -0.6125  0.0902  1.7060
 1901SOL    HW217340   4.545   4.369   5.996 -0.5485 -1.5805  0.3416
 1902SOL     OW17341   4.464   3.959   0.581  0.4520  0.3625 -0.3082
 1902SOL    HW117342   4.473   4.050   0.554  0.7556  1.2333  2.7614
 1902SOL    HW217343   4.555   3.947   0.610  0.5837 -3.1215 -2.0775
 1903SOL     OW17344   2.912   0.398   9.448 -0.4174 -0.1939  0.1877
 1903SOL    HW117345   2.952   0.397   9.535 -1.9833 -0.0156  0.9159
 1903SOL    HW217346   2.881   0.308   9.440 -2.9302  1.0174 -3.6231
 1904SOL     OW17347   3.088   3.774   4.455 -0.4877  0.6419  0.2439
 1904SOL    HW117348   3.139   3.837   4.505 -0.3356  2.0677 -1.7261
 1904SOL    HW217349   3.151   3.721   4.407 -1.6616  0.2287 -0.8431
 1905SOL     OW17350   0.978   0.181   0.944 -0.1421  0.4594 -0.1798
 1905SOL    HW117351   0.920   0.133   0.885 -1.2280  0.8379  0.5828
 1905SOL    HW217352   0.912   0.222   0.999 -0.1029  0.6794 -0.2988
 1906SOL     OW17353   3.590   2.848  14.280  0.0860  0.3853 -0.4636
 1906SOL    HW117354   3.603   2.759  14.246 -3.1817  0.3445 -1.6545
 1906SOL    HW217355   3.666   2.894  14.245  0.1580 -0.8115 -1.8820
 1907SOL     OW17356   4.331   0.430   1.623 -0.1115 -0.3394 -0.5886
 1907SOL    HW117357   4.268   0.490   1.663  0.9058  1.1805 -1.2625
 1907SOL    HW217358   4.399   0.495   1.606  1.4833 -1.5035  1.4434
 1908SOL     OW17359   2.308   2.034   9.274  0.1347  0.1773  0.7020
 1908SOL    HW117360   2.331   2.042   9.182  0.1153 -0.9187  0.6019
 1908SOL    HW217361   2.330   2.124   9.297 -0.6571  0.7327 -0.7707
 1909SOL     OW17362   0.495   2.022   4.627 -0.0276  0.5361 -0.4712
 1909SOL    HW117363   0.449   2.034   4.711  1.0284  2.5870 -0.1998
 1909SOL    HW217364   0.441   1.952   4.589 -0.0737 -0.0955  0.7425
 1910SOL     OW17365   0.763   1.624   8.431  0.1211 -0.0878  0.6454
 1910SOL    HW117366   0.747   1.716   8.410 -0.3690 -0.3878 -0.3483
 1910SOL    HW217367   0.670   1.600   8.427 -0.1784  0.9865  1.3139
 1911SOL     OW17368   1.847   4.443   8.547  0.5228 -0.4946  0.5404
 1911SOL    HW117369   1.793   4.477   8.619 -0.7293  0.2860 -0.7790
 1911SOL    HW217370   1.858   4.516   8.486 -2.1750  0.2634  0.9500
 1912SOL     OW17371   0.840   1.515  17.287 -0.2081  0.7367 -0.5331
 1912SOL    HW117372   0.874   1.537  17.200 -0.8973  0.6561 -0.8189
 1912SOL    HW217373   0.879   1.436  17.323  2.1538  1.1387 -2.1685
 1913SOL     OW17374   0.110   4.367  16.338  0.2039  0.2072 -0.1231
 1913SOL    HW117375   0.071   4.454  16.340  1.9561  0.9923 -0.3756
 1913SOL    HW217376   0.118   4.365  16.243 -0.2830  2.2902 -0.1910
 1914SOL     OW17377   0.026   0.364   3.699 -0.3668 -0.1701  0.2546
 1914SOL    HW117378   4.728   0.276   3.709 -2.2129  0.8599  2.3358
 1914SOL    HW217379   0.115   0.341   3.670 -0.2652 -0.2104  0.6000
 1915SOL     OW17380   4.294   1.155   0.258 -0.2874  0.4838  0.1485
 1915SOL    HW117381   4.224   1.209   0.221 -0.8816  0.3247  1.0381
 1915SOL    HW217382   4.296   1.088   0.190  1.3368 -0.6840  1.3338
 1916SOL     OW17383   2.399   2.306   4.076  0.4455  0.3712 -0.2929
 1916SOL    HW117384   2.412   2.211   4.075  0.9381  0.4480 -1.6155
 1916SOL    HW217385   2.318   2.308   4.025 -1.9647  0.7451  3.5504
 1917SOL     OW17386   0.176   2.820   3.721 -0.6061  0.1163 -0.4239
 1917SOL    HW117387   0.108   2.769   3.763 -0.4933  0.0575 -0.3120
 1917SOL    HW217388   0.213   2.879   3.787  0.8351 -0.8908 -0.3412
 1918SOL     OW17389   0.283   1.953   4.255  0.4619  0.0260 -0.2122
 1918SOL    HW117390   0.214   1.969   4.191 -0.7179 -1.5498  0.6723
 1918SOL    HW217391   0.304   2.045   4.272  0.9818  0.0016 -0.7471
 1919SOL     OW17392   2.797   1.863  14.277 -0.0051 -0.6238 -0.1122
 1919SOL    HW117393   2.701   1.856  14.283 -0.1965  1.9413 -0.1498
 1919SOL    HW217394   2.810   1.927  14.207 -1.5697 -0.4483 -0.2465
 1920SOL     OW17395   0.082   4.427  14.686 -0.1983  0.7896 -0.0392
 1920SOL    HW117396   0.109   4.518  14.694  0.1724  0.5956  0.8749
 1920SOL    HW217397   4.731   4.432  14.716 -0.4354 -1.1560 -0.4362
 1921SOL     OW17398   0.802   0.879  14.528 -0.2928  0.0672 -0.6396
 1921SOL    HW117399   0.847   0.799  14.553 -0.0041  0.0952 -1.0710
 1921SOL    HW217400   0.797   0.865  14.434  0.1557 -0.2863 -0.6101
 1922SOL     OW17401   0.488   1.775  17.253  0.3354  0.0354  0.2131
 1922SOL    HW117402   0.568   1.744  17.210  0.5704  1.9876 -0.7302
 1922SOL    HW217403   0.495   1.719  17.331 -1.6899 -0.2439  0.1977
 1923SOL     OW17404   4.561   1.788  13.903 -0.0674  0.1034  0.2798
 1923SOL    HW117405   4.494   1.777  13.835  2.3102 -0.4913 -1.9454
 1923SOL    HW217406   4.519   1.733  13.970 -0.2134 -0.0985  0.0256
 1924SOL     OW17407   3.037   0.683   7.653  0.0148 -0.2470 -0.4719
 1924SOL    HW117408   2.978   0.715   7.586  0.8629  0.0490 -1.0795
 1924SOL    HW217409   3.090   0.763   7.653 -2.0218  1.0812  0.0705
 1925SOL     OW17410   2.653   3.661   2.948 -0.0984  0.2868  0.3183
 1925SOL    HW117411   2.733   3.713   2.956  0.4238 -0.4460 -0.2446
 1925SOL    HW217412   2.621   3.703   2.868 -2.6112  0.0639  1.1920
 1926SOL     OW17413   0.814   3.086   7.626 -0.1779  0.2341  0.0542
 1926SOL    HW117414   0.804   3.178   7.652  0.0781  0.6960 -1.4690
 1926SOL    HW217415   0.893   3.086   7.572  0.4824 -2.3127  1.0393
 1927SOL     OW17416   0.375   4.517   4.220  0.4318  0.0405 -0.0672
 1927SOL    HW117417   0.288   4.537   4.186 -0.9606 -2.6292  1.8622
 1927SOL    HW217418   0.366   4.541   4.313 -1.3431  1.1261 -0.5186
 1928SOL     OW17419   0.471   1.060   5.277 -0.3499  0.5981 -0.3088
 1928SOL    HW117420   0.532   0.993   5.247 -0.7856  0.6617 -1.3461
 1928SOL    HW217421   0.508   1.143   5.247 -2.0265  0.9511 -1.4453
 1929SOL     OW17422   0.064   3.376   7.796  0.2816  0.4208 -0.3174
 1929SOL    HW117423   0.122   3.300   7.797 -0.9901 -0.5513  0.1100
 1929SOL    HW217424   0.078   3.430   7.874 -4.8469  0.8176  0.3185
 1930SOL     OW17425   0.984   1.286   3.472 -0.6778 -0.3966  0.3638
 1930SOL    HW117426   1.065   1.248   3.440 -0.7805 -0.7512  0.5230
 1930SOL    HW217427   0.963   1.350   3.403 -0.7468 -2.2641 -1.3655
 1931SOL     OW17428   2.221   0.548   1.200  0.1462 -0.1461  0.0141
 1931SOL    HW117429   2.219   0.615   1.131  1.3375 -1.3356 -1.1792
 1931SOL    HW217430   2.312   0.516   1.196  0.2640  0.1382  0.4955
 1932SOL     OW17431   4.297   0.464  11.775  0.1090 -0.6821  0.3174
 1932SOL    HW117432   4.323   0.491  11.686 -1.0153  0.3390  0.3097
 1932SOL    HW217433   4.202   0.463  11.769  0.0541 -1.2948  1.3110
 1933SOL     OW17434   1.216   2.327   4.367  0.1450  0.4030 -0.6201
 1933SOL    HW117435   1.302   2.329   4.326 -0.3370 -0.6274 -1.6951
 1933SOL    HW217436   1.188   2.235   4.368 -1.6161  0.9307 -1.2032
 1934SOL     OW17437   1.770   4.228  14.968 -0.5839 -0.3560 -0.5525
 1934SOL    HW117438   1.831   4.301  14.959 -0.9517  0.1346  0.8775
 1934SOL    HW217439   1.764   4.229  15.064 -1.5727 -0.4610 -0.6061
 1935SOL     OW17440   2.820   2.560   6.002 -0.1166 -0.2720  0.8094
 1935SOL    HW117441   2.831   2.571   6.096  1.1931  2.2136  0.3903
 1935SOL    HW217442   2.761   2.485   6.000  0.0734 -0.4135  0.4811
 1936SOL     OW17443   0.994   1.150   4.341 -0.5169 -0.3193  0.4909
 1936SOL    HW117444   0.958   1.093   4.273 -2.5927  1.6206 -0.0290
 1936SOL    HW217445   0.914   1.182   4.380 -0.5588  1.0807 -0.7462
 1937SOL     OW17446   0.637   2.874   2.787 -0.0962  0.6219  0.1332
 1937SOL    HW117447   0.648   2.807   2.719 -0.2936 -0.2145  0.9130
 1937SOL    HW217448   0.542   2.867   2.797 -0.5289  2.3356 -2.8116
 1938SOL     OW17449   3.954   2.084   6.788  0.2309  0.6285  0.2551
 1938SOL    HW117450   3.922   2.135   6.714 -1.4835  2.7556  2.4784
 1938SOL    HW217451   3.916   2.000   6.762  2.3071  0.5589 -2.5685
 1939SOL     OW17452   3.676   0.095   3.225 -0.0721  0.4037 -0.8562
 1939SOL    HW117453   3.715   0.142   3.151  0.6717 -0.5979 -1.1054
 1939SOL    HW217454   3.645   0.163   3.284  1.6014  0.2228  0.2286
 1940SOL     OW17455   0.592   0.826   6.023  0.2398 -0.2956 -0.1653
 1940SOL    HW117456   0.561   0.742   6.058  1.5627 -0.2245  1.2232
 1940SOL    HW217457   0.659   0.837   6.091  1.3532  1.4027 -1.5670
 1941SOL     OW17458   2.771   1.929   7.575  0.6930 -0.2238 -0.0471
 1941SOL    HW117459   2.758   1.981   7.655 -1.5759 -1.2852  0.2638
 1941SOL    HW217460   2.821   1.999   7.532  1.2655 -1.0092 -0.6494
 1942SOL     OW17461   0.396   3.427  14.892  0.0019 -0.1321 -0.2968
 1942SOL    HW117462   0.443   3.510  14.897 -0.2665 -0.0729  1.3522
 1942SOL    HW217463   0.437   3.392  14.813 -1.2341 -3.8942  0.7125
 1943SOL     OW17464   1.195   4.274   3.308  0.0579 -0.0718 -0.0214
 1943SOL    HW117465   1.136   4.347   3.290  1.9681  1.4124 -0.2713
 1943SOL    HW217466   1.209   4.234   3.222 -2.2700 -0.2246 -0.3175
 1944SOL     OW17467   1.393   1.941  12.000 -0.6766  0.1610 -0.1129
 1944SOL    HW117468   1.439   1.926  12.082  0.0835  1.4181 -0.3099
 1944SOL    HW217469   1.307   1.900  12.009 -0.3631 -0.7071 -1.0513
 1945SOL     OW17470   3.186   4.355   8.885  0.2796  0.0751  0.2289
 1945SOL    HW117471   3.191   4.310   8.801  1.7264  0.5070  0.0897
 1945SOL    HW217472   3.102   4.398   8.871 -0.4837 -2.0943 -1.7589
 1946SOL     OW17473   3.284   1.905   6.027 -0.4657 -0.4639 -0.6093
 1946SOL    HW117474   3.269   1.812   6.043  0.1868 -0.6476 -1.0712
 1946SOL    HW217475   3.299   1.903   5.933  4.1188  0.1399  0.0972
 1947SOL     OW17476   1.264   2.864   4.674  0.0408  0.3784 -0.3173
 1947SOL    HW117477   1.172   2.842   4.655 -0.0171  0.7399 -0.4419
 1947SOL    HW217478   1.253   2.944   4.726  2.9140  0.0579  0.7776
 1948SOL     OW17479   4.156   0.056  11.780  0.3522 -0.2571  0.0108
 1948SOL    HW117480   4.178   0.126  11.841 -0.8298 -1.4582  1.8103
 1948SOL    HW217481   4.215   0.074  11.707 -1.6281  0.7774 -1.3413
 1949SOL     OW17482   2.157   2.591   8.114 -0.1470 -0.1797  0.5406
 1949SOL    HW117483   2.108   2.666   8.148  1.1368  0.4892  0.8799
 1949SOL    HW217484   2.101   2.543   8.052 -0.0406  0.2835  0.0874
 1950SOL     OW17485   0.327   4.175   9.624  0.1257 -0.2621  0.2701
 1950SOL    HW117486   0.232   4.165   9.616 -0.0103 -0.8587  2.7354
 1950SOL    HW217487   0.337   4.270   9.623 -2.0861 -0.0407 -0.5635
 1951SOL     OW17488   2.800   3.045   7.537  0.0515 -0.7587  0.1932
 1951SOL    HW117489   2.890   3.076   7.545 -1.1645  2.7532  0.4283
 1951SOL    HW217490   2.746   3.124   7.530 -0.4770 -1.1683 -0.2808
 1952SOL     OW17491   4.200   1.623   3.749  0.5420 -0.7567 -0.1546
 1952SOL    HW117492   4.120   1.657   3.789  1.7620  1.6422  0.2715
 1952SOL    HW217493   4.203   1.542   3.801 -0.1780 -0.2074  0.7527
 1953SOL     OW17494   3.372   1.768   7.694 -0.5497 -0.3587  0.2166
 1953SOL    HW117495   3.404   1.791   7.607  0.4221  2.0151  1.1905
 1953SOL    HW217496   3.394   1.845   7.747  0.5158  0.2428 -1.0962
 1954SOL     OW17497   4.721   3.141  14.288 -0.3000 -0.1118 -0.1006
 1954SOL    HW117498   4.707   3.196  14.211  0.4240  0.6245  0.2945
 1954SOL    HW217499   0.039   3.078  14.245  0.3053  0.3377  0.0488
 1955SOL     OW17500   2.846   2.292   6.412 -0.3130  0.4575  0.3785
 1955SOL    HW117501   2.841   2.385   6.392 -4.2198 -0.1437 -1.2808
 1955SOL    HW217502   2.766   2.275   6.461  0.8724 -0.3894  2.0196
 1956SOL     OW17503   3.733   3.087  10.780 -0.3559 -0.4074 -0.0378
 1956SOL    HW117504   3.639   3.076  10.789 -0.7426  2.2450 -0.9751
 1956SOL    HW217505   3.739   3.058  10.689  1.1589 -0.5805  0.1046
 1957SOL     OW17506   4.735   3.182  13.262 -0.5296 -0.2365  0.1542
 1957SOL    HW117507   4.719   3.147  13.349  0.0828  1.2284  0.8678
 1957SOL    HW217508   4.718   3.104  13.209 -1.9656 -0.8790  1.5485
 1958SOL     OW17509   0.253   2.411  15.747  0.3928  0.0211 -0.3042
 1958SOL    HW117510   0.338   2.414  15.705  0.7090 -2.9252  0.1336
 1958SOL    HW217511   0.268   2.358  15.825 -2.2076  1.1707  1.0059
 1959SOL     OW17512   2.404   3.464   9.486 -0.0888  0.9131  0.1727
 1959SOL    HW117513   2.477   3.469   9.424 -0.0197  1.7310  0.3168
 1959SOL    HW217514   2.396   3.370   9.505  1.9886  1.5020  4.1218
 1960SOL     OW17515   4.611   3.193  10.901 -0.7123  0.0168 -0.1470
 1960SOL    HW117516   4.615   3.098  10.897  0.4859  0.0857 -0.5926
 1960SOL    HW217517   4.570   3.204  10.987 -0.2089 -0.9838  0.2222
 1961SOL     OW17518   3.480   0.149   1.006  0.7316 -0.1134  0.0416
 1961SOL    HW117519   3.487   0.111   1.093 -0.4085 -0.3886  0.0113
 1961SOL    HW217520   3.517   0.079   0.952 -0.3326 -0.3474 -0.3904
 1962SOL     OW17521   3.494   4.092  11.569  0.3986 -0.4058  0.3453
 1962SOL    HW117522   3.463   4.017  11.618  1.4514 -0.6584  0.6259
 1962SOL    HW217523   3.461   4.153  11.635 -1.0936 -0.1683 -0.6267
 1963SOL     OW17524   1.427   4.098   1.971 -0.3782 -0.6450  0.3698
 1963SOL    HW117525   1.370   4.059   1.904 -1.6006  2.0119 -0.1233
 1963SOL    HW217526   1.502   4.107   1.912 -0.3037 -0.2839  0.5192
 1964SOL     OW17527   1.914   4.181  11.262  0.0765  0.2519 -0.1389
 1964SOL    HW117528   1.861   4.117  11.310 -1.9925  2.7546  0.9203
 1964SOL    HW217529   1.953   4.132  11.190 -0.6929 -1.7859  0.8118
 1965SOL     OW17530   1.838   3.354  12.824 -0.0389 -0.1549 -0.0571
 1965SOL    HW117531   1.914   3.308  12.857  1.8611  2.1039 -1.2446
 1965SOL    HW217532   1.773   3.285  12.836  0.1933 -0.4685 -0.5992
 1966SOL     OW17533   4.542   2.412   0.499 -0.2818  0.4730 -0.4834
 1966SOL    HW117534   4.458   2.415   0.453 -0.7660 -0.1786  0.3346
 1966SOL    HW217535   4.610   2.392   0.435 -1.5871 -0.2235 -1.6536
 1967SOL     OW17536   3.166   3.884   3.756  0.0950  0.1687  0.5432
 1967SOL    HW117537   3.163   3.795   3.723  1.2115  0.0840  0.6577
 1967SOL    HW217538   3.090   3.884   3.814 -0.1860 -0.2634  0.1653
 1968SOL     OW17539   4.664   0.603  14.732 -0.1525 -0.2147 -0.4167
 1968SOL    HW117540   4.734   0.571  14.789 -0.3913 -2.6709 -1.4678
 1968SOL    HW217541   4.643   0.689  14.767 -0.4827 -0.1146 -0.8604
 1969SOL     OW17542   3.636   1.344   2.606  0.2131 -0.2715 -0.2765
 1969SOL    HW117543   3.652   1.370   2.697 -1.1973 -2.0519  0.4723
 1969SOL    HW217544   3.557   1.394   2.585 -1.0734 -1.8468  0.8499
 1970SOL     OW17545   1.450   3.092   6.297 -0.3996 -0.0630  0.1901
 1970SOL    HW117546   1.359   3.114   6.275 -0.3149 -0.8627 -0.8955
 1970SOL    HW217547   1.475   3.176   6.337  0.8251 -0.0337 -0.6525
 1971SOL     OW17548   2.208   0.193   9.971  0.1264  0.2098 -0.2383
 1971SOL    HW117549   2.153   0.125  10.010  2.4363 -0.6767  1.4751
 1971SOL    HW217550   2.175   0.179   9.883 -0.8710  0.4295  0.1059
 1972SOL     OW17551   3.575   3.567   6.137 -1.0536 -0.1760 -0.8603
 1972SOL    HW117552   3.663   3.531   6.123 -0.9874 -0.1865 -0.4337
 1972SOL    HW217553   3.538   3.568   6.049  0.7586 -0.5372 -1.6269
 1973SOL     OW17554   1.283   1.207  11.720 -0.3309  0.5598 -0.6638
 1973SOL    HW117555   1.314   1.155  11.646  0.3342 -1.2537  0.8845
 1973SOL    HW217556   1.266   1.291  11.677 -1.0917  1.5321  1.5450
 1974SOL     OW17557   2.058   4.365  15.992  0.0709 -0.5025 -0.0071
 1974SOL    HW117558   2.005   4.436  15.958 -0.0381  0.3116  1.8770
 1974SOL    HW217559   1.992   4.305  16.028 -2.4629  1.7282 -1.0018
 1975SOL     OW17560   3.950   0.722  14.188  0.2738  0.0337  0.6924
 1975SOL    HW117561   3.914   0.763  14.266  1.4501 -1.5331  2.0749
 1975SOL    HW217562   3.895   0.644  14.197 -0.8542  1.0172  2.2887
 1976SOL     OW17563   4.180   0.079   6.525 -0.4501 -0.1025  0.2783
 1976SOL    HW117564   4.096   0.032   6.520 -0.6966  0.3116  0.5177
 1976SOL    HW217565   4.225   0.050   6.604  1.9509  0.6206 -0.8073
 1977SOL     OW17566   4.267   3.147   7.646  0.4012 -0.1932  0.4101
 1977SOL    HW117567   4.335   3.193   7.694  1.5192 -0.4075 -0.9641
 1977SOL    HW217568   4.186   3.187   7.677 -0.5683 -1.8498  0.0200
 1978SOL     OW17569   3.140   1.153   6.050 -0.0420  0.0721  0.3248
 1978SOL    HW117570   3.137   1.135   5.956  2.0806 -1.6311  0.5860
 1978SOL    HW217571   3.069   1.098   6.084 -0.5435  1.0238  0.8215
 1979SOL     OW17572   1.154   0.963  14.994  0.0426  0.6637  0.3365
 1979SOL    HW117573   1.224   0.963  14.929 -2.6882  2.3359 -2.6222
 1979SOL    HW217574   1.083   0.906  14.965  1.1749  1.1199 -3.3804
 1980SOL     OW17575   3.754   1.905  17.387  0.4291 -0.6264  0.9211
 1980SOL    HW117576   3.664   1.883  17.363  0.9063 -3.2549  1.5261
 1980SOL    HW217577   3.787   1.865  17.468 -0.2733 -1.3864  0.8367
 1981SOL     OW17578   1.318   0.192   6.291  0.2394  0.3261 -0.4170
 1981SOL    HW117579   1.316   0.106   6.249 -1.1993  0.2850 -0.2631
 1981SOL    HW217580   1.387   0.231   6.236 -0.9702  0.6512 -1.6900
 1982SOL     OW17581   0.018   1.985   8.236 -0.3726  0.1554 -0.2498
 1982SOL    HW117582   4.685   1.971   8.176 -0.1939 -4.1868  0.5579
 1982SOL    HW217583   0.098   1.948   8.199 -1.0507 -1.6342  0.0765
 1983SOL     OW17584   3.824   3.332   6.322  0.2004 -0.6156  0.2840
 1983SOL    HW117585   3.757   3.294   6.265  1.2424 -3.7085  1.1553
 1983SOL    HW217586   3.871   3.390   6.262 -1.6098  0.3380 -0.2304
 1984SOL     OW17587   3.094   2.283  13.068  0.5524 -0.3534  0.8426
 1984SOL    HW117588   3.164   2.294  13.004 -0.0595 -1.0292  0.0532
 1984SOL    HW217589   3.083   2.375  13.092  0.9210  0.0919 -0.6955
 1985SOL     OW17590   0.434   2.658   6.729  0.0138 -0.2602 -0.0482
 1985SOL    HW117591   0.398   2.682   6.815  1.2938  0.4369  0.2908
 1985SOL    HW217592   0.528   2.667   6.744  0.1536  1.1394 -1.8862
 1986SOL     OW17593   2.132   3.067   0.199  0.0117 -0.0813 -0.3628
 1986SOL    HW117594   2.161   3.106   0.116  1.1308  1.7484  0.8834
 1986SOL    HW217595   2.204   3.088   0.259  0.4655  1.3710 -1.4089
 1987SOL     OW17596   2.111   4.515  14.567 -0.2562 -0.4430  0.5209
 1987SOL    HW117597   2.076   4.578  14.630 -2.1140 -0.6400 -0.3186
 1987SOL    HW217598   2.037   4.507  14.507 -0.6753  2.4815  0.6188
 1988SOL     OW17599   2.255   2.830   3.710 -0.4083  0.1358  0.3780
 1988SOL    HW117600   2.237   2.844   3.618 -1.1263 -1.1120  0.3260
 1988SOL    HW217601   2.261   2.922   3.736 -1.3419  0.5300 -0.8427
 1989SOL     OW17602   4.554   1.640  16.812 -0.0645 -0.7699 -0.5673
 1989SOL    HW117603   4.545   1.724  16.857 -0.8617 -0.3149 -1.5702
 1989SOL    HW217604   4.538   1.581  16.885 -1.2194 -1.0540 -1.0426
 1990SOL     OW17605   2.119   1.836  16.396 -0.7932  0.7262  0.0472
 1990SOL    HW117606   2.145   1.807  16.484  0.8384 -1.6015 -1.2069
 1990SOL    HW217607   2.158   1.764  16.348 -0.9579 -0.6016  1.8774
 1991SOL     OW17608   1.874   4.154  16.188  0.4385  0.1069  0.1888
 1991SOL    HW117609   1.817   4.166  16.264  1.5943  1.5045  0.8496
 1991SOL    HW217610   1.810   4.168  16.119 -0.4551 -0.1337  0.9772
 1992SOL     OW17611   1.890   4.657   5.957 -0.2994  0.3457  0.4621
 1992SOL    HW117612   1.951   4.659   6.031  0.9471  1.5047 -0.6214
 1992SOL    HW217613   1.868   4.564   5.961 -0.2715  0.2553 -1.4941
 1993SOL     OW17614   4.581   0.382   3.141 -0.1222 -0.4960 -0.6129
 1993SOL    HW117615   4.583   0.288   3.157 -1.2188 -0.5778 -1.0120
 1993SOL    HW217616   4.565   0.412   3.230 -2.3797  0.2783 -1.2965
 1994SOL     OW17617   4.575   4.208  10.564 -0.3477  0.0612 -0.2289
 1994SOL    HW117618   4.570   4.117  10.594 -3.1636  0.1391 -0.4350
 1994SOL    HW217619   4.506   4.209  10.497 -1.8677  3.5761  1.4172
 1995SOL     OW17620   2.565   1.112   5.961 -0.1396 -0.2420  0.1643
 1995SOL    HW117621   2.483   1.064   5.950 -0.7526  0.6431  0.8786
 1995SOL    HW217622   2.548   1.193   5.913 -3.3759 -1.1529 -0.2428
 1996SOL     OW17623   4.667   1.730   5.172 -0.0882 -0.3767  0.0767
 1996SOL    HW117624   4.632   1.797   5.231  1.2303  0.3930  0.0029
 1996SOL    HW217625   0.021   1.754   5.171 -0.5413  1.3394 -1.1159
 1997SOL     OW17626   0.405   4.118   6.814 -0.3118 -0.0851 -0.5470
 1997SOL    HW117627   0.378   4.136   6.904  2.2276  2.9862 -0.3855
 1997SOL    HW217628   0.339   4.168   6.766 -0.2823  1.1019  0.6433
 1998SOL     OW17629   0.484   1.229  10.346  0.1171 -0.0650  0.2656
 1998SOL    HW117630   0.419   1.284  10.303  0.1444 -0.0826  0.2026
 1998SOL    HW217631   0.540   1.201  10.274  0.8418  1.2650  0.3146
 1999SOL     OW17632   0.848   2.640   0.752  0.0577 -0.1734  0.8136
 1999SOL    HW117633   0.886   2.555   0.732  0.3643 -0.2202  1.6245
 1999SOL    HW217634   0.831   2.623   0.845 -0.3922  0.0034  0.7684
 2000SOL     OW17635   4.019   0.063   1.343  0.2533 -0.1230  0.4038
 2000SOL    HW117636   4.097   0.111   1.371  1.3024 -0.9513 -1.0473
 2000SOL    HW217637   3.956   0.133   1.328  0.8810  0.1813 -0.8572
 2001SOL     OW17638   1.765   3.975   6.131  0.2777  0.1523  0.0780
 2001SOL    HW117639   1.804   3.939   6.051  1.9750  0.4889  0.7576
 2001SOL    HW217640   1.737   3.898   6.180 -2.1340  1.7984  1.3055
 2002SOL     OW17641   0.412   3.612  15.166 -0.0713  0.0209 -0.2914
 2002SOL    HW117642   0.485   3.612  15.104 -0.8368  1.9507 -1.1922
 2002SOL    HW217643   0.355   3.685  15.143  0.4300  0.6729  0.5709
 2003SOL     OW17644   4.436   2.562  13.623  1.0864  0.1989  0.3315
 2003SOL    HW117645   4.458   2.612  13.544 -1.3561 -0.3977 -0.7235
 2003SOL    HW217646   4.510   2.577  13.681 -0.9497  2.9081  2.2567
 2004SOL     OW17647   2.494   0.698   7.474 -0.4900  0.2887 -0.0309
 2004SOL    HW117648   2.535   0.662   7.553  0.4796 -0.0405 -0.6793
 2004SOL    HW217649   2.520   0.790   7.469 -0.5423  0.1815 -2.5194
 2005SOL     OW17650   0.879   2.513  16.607  0.1562 -0.2243  0.0188
 2005SOL    HW117651   0.855   2.601  16.579  1.5699 -0.5419 -2.1496
 2005SOL    HW217652   0.852   2.462  16.531  0.0746  1.0510 -0.8210
 2006SOL     OW17653   4.406   3.510   6.268 -0.5134 -0.0242  0.2526
 2006SOL    HW117654   4.472   3.548   6.326 -1.6340  2.5470 -0.1287
 2006SOL    HW217655   4.457   3.514   6.188 -0.6963 -0.2245  0.1282
 2007SOL     OW17656   1.339   4.327   2.000 -0.7432 -0.2062 -0.2157
 2007SOL    HW117657   1.396   4.252   2.017 -0.2290  0.4063  0.7092
 2007SOL    HW217658   1.405   4.394   1.989  1.8392 -2.5772  0.8655
 2008SOL     OW17659   2.703   3.452   3.208 -0.1405 -0.4414  0.6294
 2008SOL    HW117660   2.750   3.478   3.128  0.0930  0.7664  1.1469
 2008SOL    HW217661   2.766   3.473   3.278  1.0479 -0.2776 -0.4844
 2009SOL     OW17662   1.166   1.881   3.580  0.4375  0.5571  0.7247
 2009SOL    HW117663   1.132   1.883   3.491 -0.4817 -0.7411  1.0463
 2009SOL    HW217664   1.133   1.960   3.623 -0.2392  1.4227 -1.3747
 2010SOL     OW17665   3.307   0.044  15.085 -0.5454  0.6270  0.9654
 2010SOL    HW117666   3.222   0.026  15.045  0.5247 -0.4030 -0.8475
 2010SOL    HW217667   3.332   0.117  15.028 -1.0774  1.0298  1.2516
 2011SOL     OW17668   3.838   3.676  15.758 -0.0798  0.2121  0.0840
 2011SOL    HW117669   3.837   3.661  15.853  0.6856  1.5951  0.3089
 2011SOL    HW217670   3.810   3.588  15.732  1.6019 -0.3426  0.1807
 2012SOL     OW17671   0.262   4.316   8.717  0.4347  0.0860  0.3104
 2012SOL    HW117672   0.214   4.281   8.792  1.0908  1.8367  1.5430
 2012SOL    HW217673   0.313   4.391   8.747 -1.3715  1.1869  0.5968
 2013SOL     OW17674   4.345   1.495   4.110  0.6104 -0.8934 -0.2522
 2013SOL    HW117675   4.295   1.454   4.040 -2.5512  0.1326  1.3773
 2013SOL    HW217676   4.361   1.581   4.072 -0.7448 -1.1227 -1.3501
 2014SOL     OW17677   0.407   1.181   3.502  0.3758  0.1822  0.8773
 2014SOL    HW117678   0.382   1.089   3.510 -1.0586  0.3603 -1.6677
 2014SOL    HW217679   0.327   1.218   3.540  0.1256  0.2083  0.3169
 2015SOL     OW17680   4.321   3.742  13.291  0.0531  0.0380 -0.3208
 2015SOL    HW117681   4.292   3.806  13.355 -3.4058 -0.2010 -1.6578
 2015SOL    HW217682   4.372   3.801  13.234 -0.8337  2.4146  1.3524
 2016SOL     OW17683   2.347   3.010  10.890 -0.3878  0.2648  0.1160
 2016SOL    HW117684   2.364   2.974  10.802  1.0989  3.0589 -0.7437
 2016SOL    HW217685   2.436   3.013  10.925 -0.6899  0.0913  0.8776
 2017SOL     OW17686   3.651   4.197   4.756  0.1201 -0.0634 -0.2018
 2017SOL    HW117687   3.639   4.289   4.733 -2.5393  0.1419  2.0429
 2017SOL    HW217688   3.668   4.218   4.848 -2.0189  2.2366 -0.3396
 2018SOL     OW17689   2.481   4.608   7.577 -0.1110 -0.2531  0.9507
 2018SOL    HW117690   2.397   4.654   7.578 -0.9291 -1.6935 -1.0928
 2018SOL    HW217691   2.474   4.563   7.493 -0.4484  1.0640  0.2693
 2019SOL     OW17692   0.394   1.826   5.415 -0.0329  0.3373 -0.0651
 2019SOL    HW117693   0.333   1.788   5.478  1.2368  1.0237  1.5901
 2019SOL    HW217694   0.385   1.920   5.434 -1.3419  0.6800 -2.3500
 2020SOL     OW17695   1.844   4.511   4.503  0.1882 -0.1758 -0.2280
 2020SOL    HW117696   1.884   4.429   4.474  0.9026  0.4972 -1.1271
 2020SOL    HW217697   1.761   4.516   4.455  0.0005  0.2724  0.1431
 2021SOL     OW17698   0.568   0.168  11.218  0.0613  0.3913  0.2722
 2021SOL    HW117699   0.632   0.220  11.168 -0.1460 -0.5755 -1.0141
 2021SOL    HW217700   0.620   0.123  11.284 -0.7598 -1.8477 -0.6165
 2022SOL     OW17701   0.030   2.291   5.552  0.2050 -0.3023 -0.4727
 2022SOL    HW117702   4.677   2.289   5.573 -0.1221 -1.2484 -2.0103
 2022SOL    HW217703   0.043   2.385   5.541  0.5313  0.0420  2.8366
 2023SOL     OW17704   2.236   4.059   3.988  0.0117  0.1461 -0.5182
 2023SOL    HW117705   2.304   4.013   4.036 -1.2993 -1.7400 -0.4708
 2023SOL    HW217706   2.253   4.147   4.022 -0.2441  0.4698 -1.2243
 2024SOL     OW17707   3.225   4.502   2.235  0.0012  0.6328  0.0634
 2024SOL    HW117708   3.313   4.473   2.211  0.4263  0.8885  1.2920
 2024SOL    HW217709   3.220   4.588   2.193 -2.4336  0.6011  0.3077
 2025SOL     OW17710   1.791   0.245   1.661  0.3403  0.2406  0.3631
 2025SOL    HW117711   1.884   0.264   1.647  0.3886  0.0121  0.3749
 2025SOL    HW217712   1.760   0.285   1.580  0.6499  0.7095  0.4754
 2026SOL     OW17713   0.155   0.752  13.594 -0.3439  0.2350  0.5133
 2026SOL    HW117714   0.187   0.716  13.677  0.5794 -1.4278 -0.5507
 2026SOL    HW217715   0.069   0.786  13.619  1.7206  4.1684  2.2220
 2027SOL     OW17716   4.553   4.471   7.736 -0.5846 -0.6711 -0.3671
 2027SOL    HW117717   4.611   4.395   7.736  0.6697  0.2998  1.3701
 2027SOL    HW217718   4.591   4.525   7.804 -0.3927 -0.0739 -0.9502
 2028SOL     OW17719   2.179   2.578  13.204 -0.5402 -0.3323 -0.9864
 2028SOL    HW117720   2.161   2.485  13.219 -0.3167 -0.0725  0.9649
 2028SOL    HW217721   2.198   2.586  13.111 -1.6576 -0.0076 -1.1813
 2029SOL     OW17722   2.636   2.620  11.640  0.3916 -0.0739 -0.1445
 2029SOL    HW117723   2.700   2.680  11.602 -2.9682  2.5491 -1.6908
 2029SOL    HW217724   2.661   2.632  11.731 -0.6255  2.0502 -0.1386
 2030SOL     OW17725   1.249   0.743   4.874 -0.4802  0.1852 -0.1369
 2030SOL    HW117726   1.265   0.664   4.824 -1.8245  0.0022 -0.2824
 2030SOL    HW217727   1.173   0.787   4.834 -1.3188 -1.2924 -0.1683
 2031SOL     OW17728   4.130   3.699   2.175 -0.4755  0.2947 -0.6495
 2031SOL    HW117729   4.156   3.735   2.090  0.8378  0.3694 -0.2164
 2031SOL    HW217730   4.109   3.612   2.141  0.8399 -1.1107  2.1486
 2032SOL     OW17731   1.213   4.458  13.504  0.1239 -0.6001 -0.1489
 2032SOL    HW117732   1.237   4.366  13.498  2.6988 -0.0882  2.0691
 2032SOL    HW217733   1.299   4.495  13.527 -0.6194  0.1155  1.4606
 2033SOL     OW17734   3.817   0.121   9.412 -0.1621 -0.7227  0.6225
 2033SOL    HW117735   3.765   0.176   9.471  0.6953 -2.1921  2.7508
 2033SOL    HW217736   3.816   0.034   9.452  0.7349 -1.5984 -1.2862
 2034SOL     OW17737   2.209   3.130   8.724 -0.1908  0.1476  0.2260
 2034SOL    HW117738   2.161   3.210   8.705 -0.2386  0.3011  1.0125
 2034SOL    HW217739   2.299   3.160   8.712 -0.2518  0.0399 -0.5451
 2035SOL     OW17740   4.077   1.136   0.739 -0.0718  0.9553  0.0509
 2035SOL    HW117741   4.076   1.162   0.647 -1.6449  2.6977  0.5551
 2035SOL    HW217742   3.994   1.090   0.747 -1.5202  2.9926 -3.3707
 2036SOL     OW17743   1.975   3.418   2.369  0.2119 -0.1075  0.1959
 2036SOL    HW117744   1.917   3.353   2.330 -0.9632  0.9085  0.2300
 2036SOL    HW217745   2.001   3.462   2.288 -0.2808  1.0672  0.6741
 2037SOL     OW17746   1.259   4.150  12.538 -0.1100  0.2909 -0.0982
 2037SOL    HW117747   1.170   4.162  12.573 -0.1773  1.2442 -0.5951
 2037SOL    HW217748   1.233   4.173  12.448  0.8639  0.2115 -0.3968
 2038SOL     OW17749   1.137   0.630  15.108  0.6260 -0.1795  0.1579
 2038SOL    HW117750   1.048   0.612  15.078  0.1630  0.4388  1.1336
 2038SOL    HW217751   1.165   0.540  15.124  0.0814 -0.1175  1.5395
 2039SOL     OW17752   1.618   4.099   0.431 -0.4868  0.1838 -0.8041
 2039SOL    HW117753   1.579   4.098   0.518  1.5245  0.5685  0.0999
 2039SOL    HW217754   1.698   4.147   0.453  0.5013 -2.7826  1.9863
 2040SOL     OW17755   1.006   2.087   3.806  0.0939 -0.0741 -0.1649
 2040SOL    HW117756   0.976   2.155   3.866  2.6224  0.7753  0.1248
 2040SOL    HW217757   1.101   2.096   3.804 -0.0298  1.2265  0.0471
 2041SOL     OW17758   1.887   0.405   3.605 -0.1310 -0.4563 -0.2115
 2041SOL    HW117759   1.797   0.434   3.589 -0.1595  1.5060  3.6146
 2041SOL    HW217760   1.923   0.493   3.610 -0.4105 -0.4040  0.8241
 2042SOL     OW17761   3.709   1.474   9.149 -0.0824 -0.4709  0.2328
 2042SOL    HW117762   3.751   1.539   9.093  1.3373 -1.8755 -0.3354
 2042SOL    HW217763   3.654   1.419   9.093  0.8522  0.1330 -1.2569
 2043SOL     OW17764   4.641   0.532   7.164 -0.3177 -0.4055 -0.0307
 2043SOL    HW117765   4.550   0.545   7.193 -1.1331 -1.7076 -2.0237
 2043SOL    HW217766   4.661   0.442   7.190  0.4089 -0.9891 -2.6017
 2044SOL     OW17767   2.929   2.401  14.965  0.4265 -0.3329  0.2255
 2044SOL    HW117768   3.010   2.403  14.914 -0.7331  3.8188 -1.4183
 2044SOL    HW217769   2.902   2.489  14.940 -0.2900 -1.2186 -2.1171
 2045SOL     OW17770   1.616   3.488   5.329  0.3480  0.3990  0.2819
 2045SOL    HW117771   1.640   3.565   5.277 -1.0205 -1.9517 -3.7953
 2045SOL    HW217772   1.645   3.532   5.409  0.4616  0.5824  0.1408
 2046SOL     OW17773   4.599   0.456   1.796 -0.1332 -0.3753  0.3137
 2046SOL    HW117774   4.623   0.547   1.784 -0.3908 -0.2831  0.4827
 2046SOL    HW217775   4.644   0.414   1.723 -0.3245 -2.5352  1.4191
 2047SOL     OW17776   0.730   0.597  14.705  0.0806  0.4327  0.0606
 2047SOL    HW117777   0.807   0.581  14.651  0.2458 -0.3359  0.5140
 2047SOL    HW217778   0.653   0.578  14.651 -0.4629  1.6085  0.4120
 2048SOL     OW17779   1.452   2.213   4.851 -0.3208 -0.5074  0.3130
 2048SOL    HW117780   1.416   2.266   4.780 -1.4209 -1.4044  0.2059
 2048SOL    HW217781   1.543   2.244   4.852 -0.6660  0.4651  0.8896
 2049SOL     OW17782   4.491   3.473   2.685  0.1267  0.0332  0.3363
 2049SOL    HW117783   4.477   3.567   2.676 -1.5285 -0.2721 -0.3151
 2049SOL    HW217784   4.477   3.449   2.777  0.2931 -1.4765 -0.0246
 2050SOL     OW17785   0.301   4.241   5.443  0.2899 -0.2222 -0.1833
 2050SOL    HW117786   0.322   4.313   5.502  0.4273  0.2465 -0.8172
 2050SOL    HW217787   0.369   4.177   5.466 -0.9481 -1.3863  0.2944
 2051SOL     OW17788   3.036   0.118  17.378  0.6432 -0.1028 -0.1527
 2051SOL    HW117789   3.087   0.199  17.380 -0.1558  0.4405 -2.6092
 2051SOL    HW217790   3.045   0.088  17.469  0.7872 -0.4599 -0.2824
 2052SOL     OW17791   2.912   0.591  13.211  0.3779 -0.1186  0.1383
 2052SOL    HW117792   2.862   0.624  13.136  0.2625  0.9722  0.6924
 2052SOL    HW217793   2.869   0.654  13.269  0.9183  0.1753  0.2155
 2053SOL     OW17794   4.345   2.612   7.109  0.2652  0.0852  0.0513
 2053SOL    HW117795   4.256   2.589   7.080  0.5754 -1.5559  0.4112
 2053SOL    HW217796   4.391   2.617   7.025  0.6059  0.9621  0.2905
 2054SOL     OW17797   2.516   2.087   4.427 -0.0973  0.1949 -0.0002
 2054SOL    HW117798   2.599   2.050   4.397 -0.2250  1.0712 -1.4698
 2054SOL    HW217799   2.449   2.040   4.377 -1.2012  2.3109 -0.5148
 2055SOL     OW17800   4.322   1.014  16.905 -0.4745 -0.3291  0.0628
 2055SOL    HW117801   4.307   1.028  16.811  0.3467  1.2590  0.1644
 2055SOL    HW217802   4.357   1.101  16.922 -1.3676  0.4170 -1.8538
 2056SOL     OW17803   4.031   4.554   3.713 -0.4764  0.4862  0.4935
 2056SOL    HW117804   3.996   4.614   3.648 -1.1655 -0.8731 -0.3904
 2056SOL    HW217805   4.125   4.566   3.714 -0.4575  0.3935 -1.0740
 2057SOL     OW17806   0.006   4.678   3.468 -0.3441  0.2496  0.1366
 2057SOL    HW117807   0.074   4.690   3.534 -1.2146  0.9352  0.9142
 2057SOL    HW217808   0.006   4.583   3.475 -0.9108  0.4749  3.0005
 2058SOL     OW17809   2.391   2.430   1.587 -0.3585  0.1024 -0.0070
 2058SOL    HW117810   2.436   2.378   1.519 -0.5044  0.6554 -0.5189
 2058SOL    HW217811   2.307   2.385   1.594  0.1064 -0.8163 -0.2172
 2059SOL     OW17812   4.681   3.764   1.479  0.3591  0.2062  0.2208
 2059SOL    HW117813   0.025   3.791   1.516  0.4967 -0.0548  0.1005
 2059SOL    HW217814   4.698   3.789   1.388  0.2121  2.3366  0.7876
 2060SOL     OW17815   3.093   1.771  12.762  0.0104  0.0546 -0.3544
 2060SOL    HW117816   3.069   1.802  12.674 -1.1456  0.0995 -0.0275
 2060SOL    HW217817   3.009   1.727  12.773  1.0043 -1.7302  0.0600
 2061SOL     OW17818   1.357   0.835   9.806  0.5698 -0.2145 -0.0357
 2061SOL    HW117819   1.425   0.902   9.801  0.5175 -0.0434  1.4393
 2061SOL    HW217820   1.298   0.860   9.735  0.1362 -1.1355 -0.0077
 2062SOL     OW17821   3.964   3.542   8.016 -0.4189 -0.6845  0.6303
 2062SOL    HW117822   3.945   3.625   7.973  4.0749  0.0377  0.0830
 2062SOL    HW217823   4.053   3.532   7.982 -0.5307  2.4000 -0.5481
 2063SOL     OW17824   4.074   2.599   7.019 -0.2723 -0.1287 -0.3307
 2063SOL    HW117825   4.001   2.579   6.960 -1.0099  0.0894  0.5016
 2063SOL    HW217826   4.035   2.563   7.099  0.5135  0.6448  0.3915
 2064SOL     OW17827   1.876   4.662   9.616 -0.6900 -0.0935 -0.4822
 2064SOL    HW117828   1.784   4.655   9.640 -0.4719 -1.1274  0.0378
 2064SOL    HW217829   1.922   4.603   9.675 -0.5641  0.4292 -0.0537
 2065SOL     OW17830   0.104   0.623  16.152 -0.7271 -0.0753  0.2994
 2065SOL    HW117831   0.168   0.692  16.167  0.7166 -1.0534 -1.2683
 2065SOL    HW217832   0.116   0.564  16.227 -2.3583  0.7764  1.2272
 2066SOL     OW17833   4.385   2.458   7.351  0.1226 -0.5030  0.1850
 2066SOL    HW117834   4.361   2.542   7.390  1.9677 -0.7129  1.8252
 2066SOL    HW217835   4.389   2.490   7.261 -0.8183 -0.4046  0.1828
 2067SOL     OW17836   2.331   2.202   7.339  0.4106  0.2516 -0.7318
 2067SOL    HW117837   2.312   2.152   7.418 -0.1503 -0.5451 -1.3753
 2067SOL    HW217838   2.249   2.244   7.313  0.2640  0.0397 -0.5991
 2068SOL     OW17839   4.456   2.738   6.064 -0.0734 -0.2831 -0.2434
 2068SOL    HW117840   4.473   2.668   6.127 -1.1834  1.9781  2.5786
 2068SOL    HW217841   4.534   2.792   6.072 -0.3258  0.1811 -0.9370
 2069SOL     OW17842   0.972   0.909   5.372 -0.1416 -0.1191  0.1803
 2069SOL    HW117843   0.890   0.872   5.338  0.7637  0.3275 -2.4565
 2069SOL    HW217844   0.947   0.915   5.464 -0.2203 -1.4788  0.2616
 2070SOL     OW17845   1.817   2.075   8.647  0.2666 -0.0918  0.2165
 2070SOL    HW117846   1.766   2.009   8.693 -0.8704  0.1104 -0.7203
 2070SOL    HW217847   1.864   2.014   8.591  2.5181  1.0478  0.8887
 2071SOL     OW17848   4.312   4.291   9.435  0.1884 -0.1387 -0.6003
 2071SOL    HW117849   4.293   4.270   9.344 -0.1767 -3.0305  0.1584
 2071SOL    HW217850   4.260   4.224   9.479  1.7305  0.2139  1.7733
 2072SOL     OW17851   3.455   4.588   7.600 -0.3635  0.4542 -0.3643
 2072SOL    HW117852   3.432   4.660   7.542  0.0570  0.1832 -0.8636
 2072SOL    HW217853   3.446   4.621   7.690  3.1700 -0.5431  0.3508
 2073SOL     OW17854   3.582   1.074   7.907 -0.0901 -0.3797  0.0520
 2073SOL    HW117855   3.526   1.006   7.872 -0.1329 -0.2956 -0.0411
 2073SOL    HW217856   3.653   1.025   7.950  1.5965  0.2993 -1.9741
 2074SOL     OW17857   3.363   1.995   9.466  0.4972 -0.5738  0.2479
 2074SOL    HW117858   3.406   1.924   9.419 -0.7267 -1.1321 -0.0300
 2074SOL    HW217859   3.297   2.017   9.400  2.0571 -2.6647 -2.0128
 2075SOL     OW17860   2.129   3.924   8.626  0.0077 -0.3696  0.0256
 2075SOL    HW117861   2.123   3.836   8.588 -1.4509 -1.7473  3.4516
 2075SOL    HW217862   2.131   3.975   8.545 -0.9643 -0.6965 -0.2027
 2076SOL     OW17863   2.989   4.730  12.430 -0.1757 -0.5602 -0.4504
 2076SOL    HW117864   2.896   4.711  12.442  0.0644 -0.7731  1.0242
 2076SOL    HW217865   2.987   0.065  12.370 -0.0927  0.7173  1.1136
 2077SOL     OW17866   0.663   2.525   5.066 -0.1730 -0.4876 -0.1655
 2077SOL    HW117867   0.607   2.491   5.135  0.4970 -0.8637  0.2008
 2077SOL    HW217868   0.633   2.478   4.989 -0.0118 -2.4928  1.0059
 2078SOL     OW17869   4.396   2.400  17.381 -0.2893  0.2497  0.2622
 2078SOL    HW117870   4.373   2.491  17.401  1.5790  0.6277  0.7280
 2078SOL    HW217871   4.433   2.415  17.294  0.5141  1.5833  0.8266
 2079SOL     OW17872   1.594   3.182  10.456 -0.1558  0.1412 -0.2984
 2079SOL    HW117873   1.667   3.138  10.411 -1.7813  1.6956 -4.4252
 2079SOL    HW217874   1.532   3.112  10.473  1.2865 -0.9042  0.7120
 2080SOL     OW17875   2.835   0.696   1.766  0.2625 -0.0151  0.0657
 2080SOL    HW117876   2.834   0.611   1.811 -1.8310 -0.3120 -0.5450
 2080SOL    HW217877   2.816   0.676   1.675  0.0322  1.6268 -0.2315
 2081SOL     OW17878   0.664   2.965   0.876 -0.3544 -0.2008 -0.0300
 2081SOL    HW117879   0.640   2.947   0.967 -0.5521 -0.8517 -0.2161
 2081SOL    HW217880   0.756   2.950   0.898  0.2387  0.2674 -2.2358
 2082SOL     OW17881   3.478   3.551   2.093  0.0053  0.0854  0.2480
 2082SOL    HW117882   3.476   3.567   2.188 -0.1131 -0.2551  0.3017
 2082SOL    HW217883   3.545   3.483   2.097  0.0002  0.0534 -0.1853
 2083SOL     OW17884   2.762   0.543  10.352  0.2204  0.5176  0.2536
 2083SOL    HW117885   2.746   0.507  10.265 -1.7123 -0.5795  1.0788
 2083SOL    HW217886   2.722   0.630  10.346 -1.0581 -0.1344 -0.5967
 2084SOL     OW17887   0.453   4.196   0.800  0.7048  0.1471 -0.7707
 2084SOL    HW117888   0.548   4.188   0.790  0.9583 -1.4364  3.0578
 2084SOL    HW217889   0.445   4.103   0.821  0.5135  0.6946  1.5868
 2085SOL     OW17890   0.917   2.776   0.502  0.6218 -0.1885 -0.1431
 2085SOL    HW117891   0.875   2.855   0.537 -1.9256 -1.4599 -0.3105
 2085SOL    HW217892   0.938   2.730   0.584 -3.1693 -2.1490 -0.2662
 2086SOL     OW17893   2.586   0.924   3.252  0.0195 -0.1488  0.0724
 2086SOL    HW117894   2.499   0.962   3.239  0.1253  0.4154  0.9828
 2086SOL    HW217895   2.601   0.905   3.159 -1.7196 -1.7854  0.1223
 2087SOL     OW17896   1.772   3.794   7.501 -0.8881 -0.4100  0.6346
 2087SOL    HW117897   1.767   3.849   7.422  2.2801 -0.8232  0.1353
 2087SOL    HW217898   1.724   3.849   7.564 -1.1403  0.4377 -0.2907
 2088SOL     OW17899   2.580   0.193  13.463  0.2940  0.2725 -0.2083
 2088SOL    HW117900   2.614   0.121  13.409  2.4919  0.9416  0.3007
 2088SOL    HW217901   2.486   0.175  13.455  0.1697  1.1419 -0.6818
 2089SOL     OW17902   3.784   2.647  17.046 -0.0513 -0.3052 -0.6188
 2089SOL    HW117903   3.825   2.566  17.018 -3.0444 -1.6950 -0.9209
 2089SOL    HW217904   3.691   2.652  17.023  0.1088 -1.4860 -1.5255
 2090SOL     OW17905   3.245   1.012   9.801  0.2757  0.4122 -0.0520
 2090SOL    HW117906   3.238   1.105   9.823 -0.7203  0.4776 -0.6729
 2090SOL    HW217907   3.287   0.982   9.882 -2.0991  3.0201  2.1639
 2091SOL     OW17908   0.287   2.055   5.126  0.1863  0.8847  0.5061
 2091SOL    HW117909   0.324   2.069   5.214 -2.0938 -0.1832  1.6371
 2091SOL    HW217910   0.211   2.002   5.149 -0.1577  0.8606 -0.6993
 2092SOL     OW17911   1.948   4.719   8.473  0.0764  0.8851  0.3685
 2092SOL    HW117912   1.998   0.007   8.396 -0.3994 -2.7614 -1.2297
 2092SOL    HW217913   2.005   4.715   8.550 -0.7255 -2.6215  0.8102
 2093SOL     OW17914   3.362   2.028   6.736 -0.2735  0.3085 -0.2508
 2093SOL    HW117915   3.429   1.972   6.696 -0.3012 -1.1904  1.7852
 2093SOL    HW217916   3.284   1.980   6.706  0.8926 -1.6991 -0.1108
 2094SOL     OW17917   0.396   0.817   8.756 -0.2599  0.7297  0.3908
 2094SOL    HW117918   0.445   0.737   8.778 -0.7365 -0.3809 -2.5710
 2094SOL    HW217919   0.430   0.834   8.668  0.3704 -0.2770  0.4270
 2095SOL     OW17920   0.840   3.952   7.053 -0.6693  0.2122 -0.3810
 2095SOL    HW117921   0.809   3.862   7.068  0.7574 -0.6383 -2.6264
 2095SOL    HW217922   0.856   3.959   6.959 -0.1638  1.8667 -0.1739
 2096SOL     OW17923   0.029   3.179   6.352 -0.1549  0.0493 -0.3192
 2096SOL    HW117924   0.096   3.132   6.402  1.4793  0.1721 -2.4075
 2096SOL    HW217925   4.696   3.118   6.365 -0.7372  0.7232 -0.3745
 2097SOL     OW17926   0.251   2.290   5.009  0.5303 -0.0001 -0.4278
 2097SOL    HW117927   0.319   2.308   5.074 -0.0857  0.9924 -0.0602
 2097SOL    HW217928   0.240   2.197   5.032  0.4386 -0.6303 -3.1011
 2098SOL     OW17929   0.097   0.929   7.758 -0.5439 -0.1252 -0.1748
 2098SOL    HW117930   0.074   0.903   7.669 -1.1956  0.5439 -0.2021
 2098SOL    HW217931   0.013   0.902   7.794 -1.2607  0.6913 -1.2240
 2099SOL     OW17932   4.316   4.187   7.766  0.1319 -0.2713  0.1408
 2099SOL    HW117933   4.352   4.213   7.681 -0.5405 -1.6153 -0.5538
 2099SOL    HW217934   4.393   4.167   7.820  0.4988 -5.0964 -2.1498
 2100SOL     OW17935   0.049   4.687   6.620 -0.2926  0.2382 -0.2245
 2100SOL    HW117936   4.738   0.027   6.600  3.0800  2.1431 -1.1689
 2100SOL    HW217937   0.130   4.729   6.592 -0.3630 -0.3086 -1.2183
 2101SOL     OW17938   1.620   1.815  12.695 -0.0460  0.3586 -0.3695
 2101SOL    HW117939   1.578   1.853  12.771 -0.2005 -0.7877  0.1190
 2101SOL    HW217940   1.714   1.828  12.711 -0.1234 -1.3268  1.4433
 2102SOL     OW17941   0.104   4.167   5.649 -0.6433  0.3623 -0.0346
 2102SOL    HW117942   0.165   4.215   5.593 -1.2578  2.0808  0.7892
 2102SOL    HW217943   0.157   4.169   5.729 -0.7151  0.0759  0.0201
 2103SOL     OW17944   3.990   0.364   1.258 -0.6284 -0.3972 -0.0467
 2103SOL    HW117945   4.010   0.366   1.352 -0.1957  1.2566 -0.1813
 2103SOL    HW217946   4.014   0.451   1.226  0.2599 -0.4337  0.5100
 2104SOL     OW17947   3.569   3.929   6.232 -0.0047  0.1265  0.2492
 2104SOL    HW117948   3.492   3.878   6.257 -0.8632  1.4256  0.2369
 2104SOL    HW217949   3.564   3.988   6.307  1.0291  1.8766 -1.0339
 2105SOL     OW17950   1.701   4.052   7.115 -0.1726 -0.0815  0.1608
 2105SOL    HW117951   1.607   4.038   7.107 -0.2365  0.1939  0.4069
 2105SOL    HW217952   1.701   4.141   7.151  0.2422 -0.4235  1.0229
 2106SOL     OW17953   0.466   4.081   2.658  0.3778 -0.2676 -0.1416
 2106SOL    HW117954   0.557   4.109   2.661  0.2452 -0.0784  2.3019
 2106SOL    HW217955   0.457   4.045   2.570 -3.9125  3.4924 -1.2480
 2107SOL     OW17956   3.713   2.452   2.000  0.6167 -0.6860 -0.3227
 2107SOL    HW117957   3.774   2.503   1.947  0.4991 -1.8333 -1.5608
 2107SOL    HW217958   3.671   2.405   1.928  1.0784 -0.2893 -0.8460
 2108SOL     OW17959   0.165   1.722   1.872  0.1618  0.7047  0.2709
 2108SOL    HW117960   0.203   1.656   1.815  1.2275  1.3762  0.1950
 2108SOL    HW217961   0.123   1.781   1.809 -1.4429 -2.4106 -1.6026
 2109SOL     OW17962   0.540   3.538   5.506  0.0720  0.3754  0.1795
 2109SOL    HW117963   0.618   3.586   5.535 -1.5198  2.1746  1.5239
 2109SOL    HW217964   0.495   3.521   5.589 -1.6449  1.1336 -0.5739
 2110SOL     OW17965   1.631   3.018   6.617  0.0000 -0.1285 -0.4851
 2110SOL    HW117966   1.676   3.038   6.699 -1.7595 -0.6804  0.6002
 2110SOL    HW217967   1.711   2.990   6.573  0.3920  1.7984 -0.9871
 2111SOL     OW17968   2.393   4.545   1.304  0.0678  0.4391  0.5196
 2111SOL    HW117969   2.422   4.484   1.237 -0.7419 -1.7668  2.1970
 2111SOL    HW217970   2.431   4.630   1.278 -0.0726 -0.5120 -2.7327
 2112SOL     OW17971   4.070   2.853   4.800 -0.7419  0.0408 -0.6964
 2112SOL    HW117972   4.111   2.833   4.716 -0.6120 -0.6428 -0.4740
 2112SOL    HW217973   4.012   2.777   4.810 -0.8728 -0.2245 -3.5641
 2113SOL     OW17974   0.523   4.600   5.409  0.1539 -0.1009  0.2895
 2113SOL    HW117975   0.581   4.532   5.376  0.3970 -0.1491  0.8248
 2113SOL    HW217976   0.467   4.547   5.465 -1.1625 -0.4594 -1.3600
 2114SOL     OW17977   3.267   2.138   4.810  0.2076  0.8550  0.3202
 2114SOL    HW117978   3.273   2.056   4.762 -1.0366  1.9907 -1.7568
 2114SOL    HW217979   3.203   2.173   4.748  1.4262 -2.6029 -2.8639
 2115SOL     OW17980   4.222   3.175   8.727 -0.4896  0.5801 -0.0248
 2115SOL    HW117981   4.129   3.194   8.729 -0.7373 -0.5387 -0.7019
 2115SOL    HW217982   4.222   3.101   8.666  2.2795  1.2353 -0.8540
 2116SOL     OW17983   0.611   2.031  16.147 -0.0528 -0.2674  0.3835
 2116SOL    HW117984   0.538   1.997  16.199 -0.6300 -1.8399 -1.4984
 2116SOL    HW217985   0.627   2.102  16.210  0.5389 -0.9969  1.0494
 2117SOL     OW17986   4.126   3.597  13.161 -0.4300  0.4164 -0.0071
 2117SOL    HW117987   4.206   3.634  13.198  0.9832 -1.6624 -0.9904
 2117SOL    HW217988   4.161   3.538  13.095  2.0791  2.2866 -0.3777
 2118SOL     OW17989   4.503   4.701  12.658  0.0578 -0.2560  0.3863
 2118SOL    HW117990   4.490   4.606  12.665 -1.2848 -0.0765  0.2112
 2118SOL    HW217991   4.590   4.702  12.616 -0.0592 -0.3631  0.1386
 2119SOL     OW17992   4.038   0.824   9.974  0.5790 -0.6856 -0.1315
 2119SOL    HW117993   3.963   0.795  10.025  0.7344 -0.3119  0.3220
 2119SOL    HW217994   4.085   0.878  10.039  2.1377 -1.8001 -0.3415
 2120SOL     OW17995   0.103   0.321  11.480 -0.6169 -0.2851 -0.3783
 2120SOL    HW117996   0.179   0.277  11.519 -0.9446 -2.2873 -1.9846
 2120SOL    HW217997   0.076   0.375  11.554  0.5946  0.4532 -0.4668
 2121SOL     OW17998   1.588   1.719   2.382 -0.2727 -0.0353  0.3021
 2121SOL    HW117999   1.496   1.745   2.389 -0.6603 -1.7657  1.8316
 2121SOL    HW218000   1.586   1.671   2.299  0.3280  0.0065  0.2695
 2122SOL     OW18001   3.235   4.113   7.775  0.0039 -0.4642  0.1566
 2122SOL    HW118002   3.286   4.187   7.743  0.3614 -1.6957 -2.1149
 2122SOL    HW218003   3.143   4.140   7.770 -0.2076 -0.9909  1.1605
 2123SOL     OW18004   0.498   0.742   3.471  0.2613 -0.0643  0.0261
 2123SOL    HW118005   0.491   0.832   3.439  1.3970 -0.4867 -1.4347
 2123SOL    HW218006   0.408   0.711   3.472 -0.2037  1.2686 -1.5639
 2124SOL     OW18007   3.763   1.003   8.442  0.8590  0.5188  0.1098
 2124SOL    HW118008   3.710   1.054   8.504  0.1720 -0.1328  0.0570
 2124SOL    HW218009   3.752   0.922   8.492  1.2318 -0.1707 -0.9243
 2125SOL     OW18010   1.523   0.247   8.983 -0.4123  0.3139 -0.2235
 2125SOL    HW118011   1.531   0.326   9.036  0.8054 -0.9622  1.5112
 2125SOL    HW218012   1.429   0.231   8.973 -0.3459  0.2108 -0.6586
 2126SOL     OW18013   1.863   2.962   1.231  0.1251 -0.0603 -0.2374
 2126SOL    HW118014   1.959   2.952   1.231  0.3479  1.9427 -0.6801
 2126SOL    HW218015   1.820   2.878   1.214  3.3722 -1.8330  0.2440
 2127SOL     OW18016   1.362   1.901   8.458  0.0782  0.2887 -0.4209
 2127SOL    HW118017   1.398   1.813   8.465 -2.9551 -0.8211  1.1251
 2127SOL    HW218018   1.369   1.920   8.364  1.0294 -0.5668 -0.5233
 2128SOL     OW18019   2.826   3.785   4.702  0.2961 -0.3258  0.1176
 2128SOL    HW118020   2.888   3.833   4.758 -0.8607  3.0074 -1.4438
 2128SOL    HW218021   2.849   3.828   4.620 -0.9917  1.9153  0.9113
 2129SOL     OW18022   0.887   4.144  14.586  0.3470  0.5148  0.6880
 2129SOL    HW118023   0.895   4.156  14.492  0.3917  1.2744  0.7887
 2129SOL    HW218024   0.792   4.157  14.591  0.3245  0.2838  0.8250
 2130SOL     OW18025   1.886   1.990   3.087 -0.2557  0.0483  0.1864
 2130SOL    HW118026   1.894   2.037   3.171 -1.5940 -1.9573  1.4172
 2130SOL    HW218027   1.899   1.897   3.105 -0.1510 -0.2402 -1.3809
 2131SOL     OW18028   1.273   0.591  12.351  0.1180  0.1616  0.1193
 2131SOL    HW118029   1.244   0.509  12.392 -1.6975  1.0527  0.6542
 2131SOL    HW218030   1.354   0.561  12.310 -0.2338  0.0251 -0.4782
 2132SOL     OW18031   3.861   4.192   2.835 -0.0084 -0.0594 -0.6150
 2132SOL    HW118032   3.828   4.121   2.780 -1.7151 -2.5166  3.5662
 2132SOL    HW218033   3.817   4.264   2.789  0.1846 -0.8520 -2.0487
 2133SOL     OW18034   2.244   3.484   2.561 -0.4669 -0.6070  0.0475
 2133SOL    HW118035   2.267   3.495   2.469 -0.0406  1.5830  0.4146
 2133SOL    HW218036   2.159   3.527   2.565 -1.3249 -2.3152  0.1787
 2134SOL     OW18037   3.896   0.993  14.126  0.1971  0.0492  0.3314
 2134SOL    HW118038   3.902   0.942  14.207  0.5903 -0.5551 -0.0762
 2134SOL    HW218039   3.861   0.924  14.069  0.5611 -0.3142  0.5437
 2135SOL     OW18040   1.938   3.848   0.179  0.3025  0.3968 -0.0308
 2135SOL    HW118041   1.961   3.868   0.088  1.6619  0.8527  0.4146
 2135SOL    HW218042   1.843   3.840   0.169  0.5542  0.0372 -2.0346
 2136SOL     OW18043   3.579   4.471   8.804  0.4886 -0.6767  0.1343
 2136SOL    HW118044   3.581   4.547   8.862  1.6564  0.2331 -1.0865
 2136SOL    HW218045   3.494   4.490   8.764 -0.9662 -4.0874  1.5338
 2137SOL     OW18046   0.155   1.123   3.295 -0.0979  0.3214  0.7234
 2137SOL    HW118047   0.129   1.210   3.328 -0.0955  0.3846  0.5576
 2137SOL    HW218048   0.198   1.147   3.214 -0.9791 -0.1817  0.1072
 2138SOL     OW18049   0.227   2.991   7.050 -0.1356 -0.1036  0.2743
 2138SOL    HW118050   0.321   2.992   7.070 -0.3583 -1.0028  1.3693
 2138SOL    HW218051   0.232   2.978   6.955 -0.4904 -3.9090  0.7909
 2139SOL     OW18052   3.461   1.000  15.571  0.2718  0.5213  0.0344
 2139SOL    HW118053   3.512   1.054  15.511 -1.0360  0.6869 -0.9350
 2139SOL    HW218054   3.432   1.059  15.640 -0.4885  1.5617 -1.1774
 2140SOL     OW18055   1.967   0.178   7.676  0.1838  0.3387  0.6270
 2140SOL    HW118056   1.956   0.260   7.724  0.4403  2.4851 -2.9043
 2140SOL    HW218057   1.984   0.118   7.748 -1.2094 -0.5177  0.2360
 2141SOL     OW18058   0.182   0.233   2.166 -0.0344  0.2311  0.0910
 2141SOL    HW118059   0.125   0.157   2.163  2.0913 -1.3628  0.5525
 2141SOL    HW218060   0.257   0.204   2.115 -0.2583 -0.3146  0.0795
 2142SOL     OW18061   1.539   2.481   1.798  0.2427 -0.0700  0.3027
 2142SOL    HW118062   1.551   2.387   1.807 -0.9091 -0.1746  0.7595
 2142SOL    HW218063   1.480   2.476   1.723 -0.9523 -0.4653  1.2676
 2143SOL     OW18064   2.886   0.765   4.802  0.2738 -0.2934  0.7585
 2143SOL    HW118065   2.835   0.799   4.875 -1.1749  1.8391 -1.2647
 2143SOL    HW218066   2.817   0.714   4.759  0.1193  1.9914 -1.6559
 2144SOL     OW18067   1.520   4.289   8.705  0.2986  0.1774  0.2870
 2144SOL    HW118068   1.590   4.336   8.751  0.7886 -1.0669  0.8180
 2144SOL    HW218069   1.495   4.224   8.771 -2.3403  0.0123 -0.8814
 2145SOL     OW18070   2.107   4.038  16.666  0.6800  0.3124  0.6751
 2145SOL    HW118071   2.017   4.013  16.687  0.6062  0.3469  0.4030
 2145SOL    HW218072   2.130   4.062  16.756 -0.5334  2.2327  0.4747
 2146SOL     OW18073   3.932   2.404   4.503  0.2873  0.4982  0.3987
 2146SOL    HW118074   3.988   2.444   4.569  0.7683 -0.7109  0.7313
 2146SOL    HW218075   3.973   2.318   4.492 -1.8285 -0.5434  0.5709
 2147SOL     OW18076   0.999   2.253   4.922 -0.3989  0.1462  0.1174
 2147SOL    HW118077   0.933   2.200   4.878  0.5782 -1.0052  0.0370
 2147SOL    HW218078   1.000   2.224   5.013  0.2280  0.3012  0.1604
 2148SOL     OW18079   4.355   0.657   1.325 -0.1612 -0.2192  0.4063
 2148SOL    HW118080   4.279   0.679   1.380 -1.1044  1.0466 -1.4190
 2148SOL    HW218081   4.425   0.686   1.384 -1.0008 -0.2054  1.4069
 2149SOL     OW18082   3.296   1.259   9.160 -0.3826  0.1584 -0.1252
 2149SOL    HW118083   3.343   1.340   9.179 -1.7570  1.4205 -2.2187
 2149SOL    HW218084   3.247   1.273   9.080  2.8405  4.1457 -1.3857
 2150SOL     OW18085   1.083   0.196   5.474  0.3273 -0.9401 -0.4495
 2150SOL    HW118086   1.175   0.223   5.465  0.4097  0.1049  3.7321
 2150SOL    HW218087   1.068   0.151   5.391  0.7314 -0.3077 -0.8625
 2151SOL     OW18088   4.661   0.767   4.863  0.0879  0.5504 -0.3385
 2151SOL    HW118089   0.001   0.724   4.897 -0.8542 -0.4875  0.5512
 2151SOL    HW218090   4.609   0.690   4.841 -0.1094  0.3039  0.9871
 2152SOL     OW18091   3.106   0.003   5.080 -0.6133 -0.2203  0.3195
 2152SOL    HW118092   3.159   0.080   5.059  0.1889 -0.5770  0.9998
 2152SOL    HW218093   3.131   4.687   5.007 -0.0564  0.5999 -0.1170
 2153SOL     OW18094   1.579   1.633   7.186 -0.3903  0.3930 -0.5262
 2153SOL    HW118095   1.521   1.611   7.113 -1.6391  1.3356  0.2009
 2153SOL    HW218096   1.539   1.718   7.201 -1.6838 -0.4737  0.9657
 2154SOL     OW18097   1.474   0.248   9.355 -0.6455  0.1211  0.4700
 2154SOL    HW118098   1.483   0.314   9.287 -2.4973 -0.2901 -0.1759
 2154SOL    HW218099   1.552   0.260   9.409  0.0023  0.3513 -0.5301
 2155SOL     OW18100   0.622   2.358   7.375  0.1074 -0.1471  0.4088
 2155SOL    HW118101   0.683   2.426   7.347  0.8840 -1.0261 -0.0501
 2155SOL    HW218102   0.574   2.406   7.442 -0.2499  1.0522 -0.7088
 2156SOL     OW18103   0.582   2.107   0.959  0.1438 -0.2106 -0.4004
 2156SOL    HW118104   0.512   2.043   0.947  1.4931 -1.7503  0.0503
 2156SOL    HW218105   0.657   2.048   0.964  0.9556  0.8079 -0.5270
 2157SOL     OW18106   4.619   4.384   1.836 -0.3341  0.4774  0.0476
 2157SOL    HW118107   4.676   4.435   1.893  1.1778 -0.1614 -0.8770
 2157SOL    HW218108   4.592   4.313   1.895 -0.5270  2.6358  2.5389
 2158SOL     OW18109   2.027   2.243   9.382  0.1650  0.4634 -0.2731
 2158SOL    HW118110   2.099   2.297   9.352 -1.0496  0.7747 -2.6240
 2158SOL    HW218111   1.968   2.317   9.373  0.6145  0.6281 -1.9062
 2159SOL     OW18112   0.527   0.498  11.575 -0.0116 -0.3445 -0.3292
 2159SOL    HW118113   0.508   0.451  11.657  1.5898 -0.1877  0.1401
 2159SOL    HW218114   0.616   0.480  11.546 -0.7588  0.6248 -3.1794
 2160SOL     OW18115   0.155   0.567   9.374  0.2166  0.1692 -0.4626
 2160SOL    HW118116   0.174   0.493   9.316 -0.9359  0.0943 -0.7385
 2160SOL    HW218117   0.215   0.552   9.448  0.3969  1.7021 -0.3094
 2161SOL     OW18118   3.418   3.025   7.839 -0.3705 -0.2855  0.7599
 2161SOL    HW118119   3.507   2.990   7.832 -0.5544 -0.1282 -2.5906
 2161SOL    HW218120   3.420   3.103   7.782  0.0878 -1.5791 -0.9995
 2162SOL     OW18121   3.485   3.955   6.772 -0.5528  0.2635 -0.4169
 2162SOL    HW118122   3.474   3.995   6.685  0.6194  5.3703  1.7613
 2162SOL    HW218123   3.557   4.007   6.807  1.5607 -3.3233  0.4687
 2163SOL     OW18124   3.914   3.807   2.849 -0.1155  0.2325 -0.4601
 2163SOL    HW118125   3.990   3.820   2.792  0.6831  0.4073  0.6466
 2163SOL    HW218126   3.920   3.713   2.864 -1.3326  0.4861  1.5925
 2164SOL     OW18127   3.205   2.582   7.094 -0.3553  0.0941  0.1223
 2164SOL    HW118128   3.216   2.489   7.075  3.7374  0.8304 -1.2127
 2164SOL    HW218129   3.176   2.578   7.185 -0.6275 -1.6017 -0.0377
 2165SOL     OW18130   1.249   0.992   2.837 -0.2164  0.3854  0.4666
 2165SOL    HW118131   1.238   1.057   2.768  1.6839  1.2707  1.0092
 2165SOL    HW218132   1.159   0.983   2.868 -0.5224  1.4855 -0.0955
 2166SOL     OW18133   2.097   3.794   9.273  0.7682  0.0896 -0.3796
 2166SOL    HW118134   2.091   3.747   9.356 -2.0695 -1.2049 -1.3188
 2166SOL    HW218135   2.066   3.722   9.218  0.0519  0.5953 -0.6323
 2167SOL     OW18136   2.384   2.164  16.334  0.0187 -0.3600  0.6114
 2167SOL    HW118137   2.344   2.111  16.403 -1.3355  0.0660  0.1472
 2167SOL    HW218138   2.350   2.248  16.365  0.6066 -0.6829  2.1181
 2168SOL     OW18139   1.039   2.595   2.675  0.5221  0.0615 -0.1156
 2168SOL    HW118140   1.122   2.637   2.656  0.1713  0.2978 -1.1628
 2168SOL    HW218141   0.978   2.661   2.642 -0.4092 -1.4079 -1.3676
 2169SOL     OW18142   1.879   2.521  12.284 -0.1659 -0.3365  0.5054
 2169SOL    HW118143   1.854   2.532  12.193 -0.6952 -0.2055  0.6670
 2169SOL    HW218144   1.941   2.592  12.301  0.7149 -1.0030  0.0768
 2170SOL     OW18145   4.333   1.030  17.754 -0.1573 -0.3817 -0.5721
 2170SOL    HW118146   4.378   0.958   0.042  1.4634  1.0800  0.1944
 2170SOL    HW218147   4.258   0.993  17.709 -1.1350 -1.3791  1.8451
 2171SOL     OW18148   0.907   1.156  10.999  0.1285 -0.2834  0.3087
 2171SOL    HW118149   0.861   1.233  10.964  0.8245  1.8220  4.0222
 2171SOL    HW218150   0.996   1.186  11.018  0.2221  0.1922 -0.8595
 2172SOL     OW18151   1.819   0.083   8.790 -0.1602 -0.1377 -0.1132
 2172SOL    HW118152   1.861   0.108   8.707  1.0371 -2.1886 -0.1392
 2172SOL    HW218153   1.882   0.117   8.853  0.7735 -0.3708 -0.9217
 2173SOL     OW18154   1.946   4.172  17.102 -0.3360  0.1086 -0.5280
 2173SOL    HW118155   1.976   4.243  17.159  0.0346 -2.6176  2.6632
 2173SOL    HW218156   1.986   4.210  17.024 -1.5888 -0.3593 -1.3917
 2174SOL     OW18157   2.615   1.794   2.101  0.0605  0.0300 -0.0468
 2174SOL    HW118158   2.581   1.722   2.049 -1.6964  1.0845 -0.3514
 2174SOL    HW218159   2.532   1.828   2.135 -0.4963 -0.5489 -0.8362
 2175SOL     OW18160   2.133   3.415   5.885  0.3348 -0.7417 -0.1828
 2175SOL    HW118161   2.098   3.369   5.961 -2.1028  0.5519 -0.4864
 2175SOL    HW218162   2.073   3.490   5.880 -1.7121 -2.2920  0.9408
 2176SOL     OW18163   0.229   4.362   6.771 -0.2778 -0.0297  0.7655
 2176SOL    HW118164   0.262   4.426   6.708 -0.7494  1.3364  1.8878
 2176SOL    HW218165   0.156   4.327   6.720 -1.6163  1.1205  1.8722
 2177SOL     OW18166   4.103   1.837   6.973  0.5244  0.5029 -0.9787
 2177SOL    HW118167   4.178   1.875   7.018 -0.7362  0.0589  1.5154
 2177SOL    HW218168   4.064   1.916   6.936 -1.0312  0.8036  1.2773
 2178SOL     OW18169   3.352   1.378   1.587  0.0308 -0.6049  0.0924
 2178SOL    HW118170   3.270   1.408   1.548  1.0127 -0.0749 -1.5578
 2178SOL    HW218171   3.421   1.435   1.554  0.7340  0.1085  2.8517
 2179SOL     OW18172   1.853   4.282   2.336 -0.1143  0.2165  0.3606
 2179SOL    HW118173   1.942   4.294   2.302  1.2871  1.3644  4.4184
 2179SOL    HW218174   1.811   4.349   2.282  1.3866 -0.4973 -1.6776
 2180SOL     OW18175   4.331   0.989   9.167  0.2344 -0.3169 -0.1453
 2180SOL    HW118176   4.351   1.035   9.085 -1.1265 -0.7443 -0.7095
 2180SOL    HW218177   4.349   0.901   9.136  3.3110  0.4942 -0.6226
 2181SOL     OW18178   0.682   2.300  14.526  0.0267 -0.2596 -0.0383
 2181SOL    HW118179   0.697   2.272  14.617  0.4583 -0.9175 -0.3143
 2181SOL    HW218180   0.769   2.332  14.502  0.0570  0.5728  1.1421
 2182SOL     OW18181   3.853   1.434   3.717  0.1972 -0.0156 -0.2975
 2182SOL    HW118182   3.807   1.450   3.634 -1.7170  0.0910  0.7793
 2182SOL    HW218183   3.945   1.426   3.692  0.3170  1.0277 -0.1650
 2183SOL     OW18184   3.501   2.913  15.365  0.0627  0.3684 -0.1347
 2183SOL    HW118185   3.550   2.982  15.410  2.4741 -3.2325  2.7262
 2183SOL    HW218186   3.462   2.960  15.292 -0.9290  1.0015  0.7967
 2184SOL     OW18187   3.691   2.614   8.240  0.1444 -0.3506  0.2853
 2184SOL    HW118188   3.784   2.590   8.238  0.7135  1.8705  0.3390
 2184SOL    HW218189   3.694   2.674   8.314 -0.0142  1.5888 -1.2996
 2185SOL     OW18190   4.437   0.383   6.808  0.3537  0.0386  0.4345
 2185SOL    HW118191   4.378   0.330   6.755  0.3264  0.2092  0.2957
 2185SOL    HW218192   4.376   0.455   6.823 -1.7772 -1.6614 -0.1263
 2186SOL     OW18193   1.167   3.692   3.552 -0.1545 -0.2551  0.0408
 2186SOL    HW118194   1.088   3.732   3.517  0.0729 -0.4904 -0.7506
 2186SOL    HW218195   1.209   3.768   3.593 -0.6688 -0.4605  0.9507
 2187SOL     OW18196   0.622   0.308  14.813  0.2654 -0.3836  0.3239
 2187SOL    HW118197   0.657   0.340  14.730  0.5256 -1.7726 -0.1087
 2187SOL    HW218198   0.611   0.390  14.860 -0.7168  0.1552 -0.8291
 2188SOL     OW18199   2.044   2.155  16.609 -0.0525 -0.1710  0.1511
 2188SOL    HW118200   2.138   2.156  16.591 -0.3298 -0.3597 -1.2505
 2188SOL    HW218201   2.002   2.173  16.525 -2.5896 -1.6709  1.1103
 2189SOL     OW18202   2.243   1.636   3.478  0.1875 -0.0762  0.3228
 2189SOL    HW118203   2.150   1.643   3.460  0.3093  1.0095  0.1480
 2189SOL    HW218204   2.237   1.613   3.571  1.6597  0.0161  0.4437
 2190SOL     OW18205   0.455   1.316   8.329  0.2546 -0.2712 -0.2923
 2190SOL    HW118206   0.396   1.244   8.351 -1.6303  0.6570 -2.3224
 2190SOL    HW218207   0.486   1.276   8.248  1.0643  0.1230 -0.1785
 2191SOL     OW18208   1.732   3.464   1.740  0.0138  0.5395 -0.4281
 2191SOL    HW118209   1.823   3.494   1.743  1.2846 -3.3106 -0.6109
 2191SOL    HW218210   1.735   3.393   1.677  0.2211  1.1150 -1.0620
 2192SOL     OW18211   2.713   0.727  11.847  0.0087  0.3041 -0.4979
 2192SOL    HW118212   2.721   0.752  11.755 -1.5480  0.4130 -0.5977
 2192SOL    HW218213   2.628   0.762  11.874  0.1491  0.2645 -0.0207
 2193SOL     OW18214   3.702   2.804   3.640 -0.0845  0.0612 -0.8245
 2193SOL    HW118215   3.661   2.728   3.600  0.3022 -0.5924  0.0340
 2193SOL    HW218216   3.779   2.761   3.675  0.1913  2.2560  1.2759
 2194SOL     OW18217   0.369   3.554   8.143 -0.3975  0.4931  0.2978
 2194SOL    HW118218   0.397   3.522   8.229  0.8580 -0.9054 -0.6179
 2194SOL    HW218219   0.428   3.501   8.089  0.3826  1.6336  0.0331
 2195SOL     OW18220   0.009   3.745   6.304  0.2241 -0.6746  0.6003
 2195SOL    HW118221   4.654   3.754   6.299  0.4835  1.6595  0.1256
 2195SOL    HW218222   0.019   3.758   6.399 -0.4507  1.9716  0.2984
 2196SOL     OW18223   2.328   4.275   8.466 -0.0908  0.2679 -0.0643
 2196SOL    HW118224   2.277   4.201   8.434  1.0146  0.2165 -1.6784
 2196SOL    HW218225   2.260   4.333   8.501 -0.6306  0.8056 -2.0217
 2197SOL     OW18226   1.714   2.454   3.452 -0.0579  0.0583 -0.1820
 2197SOL    HW118227   1.633   2.461   3.502 -0.5652  2.7834 -1.3402
 2197SOL    HW218228   1.684   2.391   3.387  1.5365 -0.2142 -0.6688
 2198SOL     OW18229   4.728   0.727   1.380 -0.2263 -0.1257  0.0303
 2198SOL    HW118230   4.689   0.731   1.293 -0.1650  1.0276  0.0638
 2198SOL    HW218231   0.033   0.643   1.365  3.3556  2.2980 -2.7709
 2199SOL     OW18232   1.353   0.595   9.326  0.2415  0.0448 -0.4241
 2199SOL    HW118233   1.323   0.655   9.259 -1.3732 -2.2167 -1.6973
 2199SOL    HW218234   1.426   0.553   9.281 -0.6725 -3.3433  1.2763
 2200SOL     OW18235   3.341   3.652  10.960  0.3396 -0.2653 -0.1718
 2200SOL    HW118236   3.375   3.635  10.872  0.7687  0.9288 -0.2493
 2200SOL    HW218237   3.418   3.673  11.013 -0.4522  1.4577  0.3140
 2201SOL     OW18238   3.058   2.016  16.562  0.6956 -0.1251 -0.1903
 2201SOL    HW118239   3.107   2.016  16.480  0.8018  1.3569 -0.1340
 2201SOL    HW218240   2.970   1.989  16.537 -0.5409  3.1172  0.5549
 2202SOL     OW18241   3.980   4.648  10.044 -0.0576  0.1842  0.5101
 2202SOL    HW118242   4.067   4.609  10.032  0.2598  0.5748  1.5085
 2202SOL    HW218243   3.998   0.002  10.050 -2.7583  0.7467 -0.4604
 2203SOL     OW18244   3.179   1.695   4.521 -0.2999  0.3005 -0.2978
 2203SOL    HW118245   3.146   1.665   4.605  0.1138 -0.9490 -0.5893
 2203SOL    HW218246   3.139   1.643   4.452 -1.8604  1.7824 -0.4931
 2204SOL     OW18247   1.767   2.663   7.455 -0.3736 -0.2082  0.5987
 2204SOL    HW118248   1.682   2.692   7.420 -0.8281 -2.3768 -0.1394
 2204SOL    HW218249   1.760   2.653   7.549  0.4542 -0.1090  0.6709
 2205SOL     OW18250   2.608   0.424   3.227 -0.4636  0.5450  0.0896
 2205SOL    HW118251   2.694   0.384   3.242 -0.1568  0.6001 -1.4922
 2205SOL    HW218252   2.569   0.338   3.211  0.9338  0.0163 -0.4818
 2206SOL     OW18253   3.351   3.484   3.460 -0.3728 -0.3463 -0.5529
 2206SOL    HW118254   3.375   3.522   3.375 -1.3440 -0.5922 -0.9304
 2206SOL    HW218255   3.282   3.424   3.435 -0.5359  0.2397 -1.4897
 2207SOL     OW18256   0.696   0.336  14.520 -0.2197 -0.9282  0.3409
 2207SOL    HW118257   0.615   0.307  14.478 -0.7351  1.3310 -0.2331
 2207SOL    HW218258   0.714   0.399  14.451 -0.3953 -1.7197 -0.4338
 2208SOL     OW18259   0.906   4.654  17.569 -0.4407 -0.1987  0.0376
 2208SOL    HW118260   0.888   4.674  17.477  1.4649  1.0121 -0.0778
 2208SOL    HW218261   0.817   4.657  17.602 -0.9644 -0.5274 -1.3640
 2209SOL     OW18262   2.425   3.192   8.903 -0.0330 -0.1499  0.2393
 2209SOL    HW118263   2.375   3.232   8.974  0.0372 -0.4408  0.4541
 2209SOL    HW218264   2.410   3.098   8.914  0.8636 -0.3340 -0.1311
 2210SOL     OW18265   0.253   2.434  11.597  0.0940  0.8993 -0.2544
 2210SOL    HW118266   0.238   2.425  11.503  0.1349  2.2609 -0.3861
 2210SOL    HW218267   0.184   2.495  11.624  1.5590  0.8553  3.6736
 2211SOL     OW18268   1.063   0.649  12.171  0.2478  0.1360  0.8202
 2211SOL    HW118269   1.137   0.617  12.222  1.4383  2.1256  0.3637
 2211SOL    HW218270   0.999   0.578  12.163 -1.9696  2.3481 -1.2938
 2212SOL     OW18271   0.686   3.107   5.324  0.2725 -0.3974 -0.2210
 2212SOL    HW118272   0.756   3.046   5.345  0.8886  0.2158 -0.4922
 2212SOL    HW218273   0.626   3.051   5.275 -1.5376  1.5776 -0.2952
 2213SOL     OW18274   2.073   2.096   8.866 -0.2669 -0.0052 -0.0842
 2213SOL    HW118275   2.134   2.060   8.930 -1.1483  0.9042  1.2480
 2213SOL    HW218276   2.113   2.051   8.791  1.2073  0.5230  0.3844
 2214SOL     OW18277   2.498   2.128   1.988  0.4230  0.0917  0.4937
 2214SOL    HW118278   2.433   2.069   2.026 -0.1747  0.3646 -0.1197
 2214SOL    HW218279   2.448   2.209   1.989 -0.2458 -0.2914 -1.1435
 2215SOL     OW18280   2.952   4.413   1.436 -0.1869  0.4488 -0.2277
 2215SOL    HW118281   2.857   4.400   1.432 -0.5464  3.2399 -1.1670
 2215SOL    HW218282   2.956   4.395   1.530  0.0115  1.1827 -0.0911
 2216SOL     OW18283   2.600   3.382   6.674  0.3331  0.5262  1.2391
 2216SOL    HW118284   2.686   3.356   6.643  0.1279  0.0599  1.0521
 2216SOL    HW218285   2.548   3.323   6.619  2.2041 -0.4965  0.5548
 2217SOL     OW18286   0.924   3.456   2.452  0.0707  0.4123 -0.1615
 2217SOL    HW118287   0.871   3.454   2.372  0.8961 -1.3996 -0.6750
 2217SOL    HW218288   0.962   3.368   2.456  1.4184  0.9953 -0.0715
 2218SOL     OW18289   1.899   1.413   2.966 -0.1373 -0.1801 -0.1421
 2218SOL    HW118290   1.912   1.449   2.878  1.3506  1.9706  0.9630
 2218SOL    HW218291   1.965   1.344   2.971 -1.3158 -1.3636 -0.9757
 2219SOL     OW18292   3.905   3.514   7.680  0.0297  0.6376 -0.0616
 2219SOL    HW118293   4.000   3.524   7.691 -0.1389  0.5265  1.4118
 2219SOL    HW218294   3.898   3.510   7.584 -3.8865 -0.9079  0.2818
 2220SOL     OW18295   2.544   3.097  10.424 -0.4058  0.1932  0.1678
 2220SOL    HW118296   2.633   3.111  10.391 -0.6813  3.7953  0.8919
 2220SOL    HW218297   2.492   3.158  10.371  0.7650  0.0348 -1.1556
 2221SOL     OW18298   4.412   4.629   9.025 -0.0167  0.0111  0.4653
 2221SOL    HW118299   4.429   4.689   9.097 -0.1951  1.7001 -0.8954
 2221SOL    HW218300   4.464   4.557   9.059  0.1267 -0.0962  0.0211
 2222SOL     OW18301   2.597   1.915   2.918 -0.0277 -0.0255 -0.3823
 2222SOL    HW118302   2.559   1.885   3.001  0.0756 -0.3413 -0.4486
 2222SOL    HW218303   2.570   1.845   2.858  1.5121 -1.2790  0.3916
 2223SOL     OW18304   2.519   3.418   5.005  0.4955  0.6612  0.6469
 2223SOL    HW118305   2.607   3.414   5.043  1.4961 -2.8535 -2.0498
 2223SOL    HW218306   2.535   3.443   4.913 -1.1782 -1.4487 -0.2166
 2224SOL     OW18307   3.005   2.011   0.786 -0.0055  0.1554 -0.0076
 2224SOL    HW118308   3.042   1.924   0.782 -2.3991 -0.8050 -1.3317
 2224SOL    HW218309   2.912   1.995   0.804  0.1327 -1.3081 -0.6469
 2225SOL     OW18310   2.600   2.683   9.034  0.2893  0.2229 -0.3336
 2225SOL    HW118311   2.614   2.619   9.104 -0.3808 -1.2833 -1.5782
 2225SOL    HW218312   2.556   2.628   8.970 -0.0802  0.5481 -0.3617
 2226SOL     OW18313   0.186   0.382   6.179 -0.3155 -0.3340  0.0932
 2226SOL    HW118314   0.133   0.449   6.222  0.3009 -0.1484  0.5830
 2226SOL    HW218315   0.223   0.443   6.116  1.1718 -1.2461  0.0643
 2227SOL     OW18316   2.487   0.504   4.241 -0.1422  0.7089 -0.0526
 2227SOL    HW118317   2.440   0.565   4.184 -2.1018  0.3061  1.1248
 2227SOL    HW218318   2.488   0.424   4.187  0.5608 -1.0312  2.5399
 2228SOL     OW18319   3.891   2.535   5.584  0.4672 -0.0637  0.2852
 2228SOL    HW118320   3.829   2.533   5.511 -0.5885  0.9350  1.1654
 2228SOL    HW218321   3.963   2.485   5.545  0.3984 -0.3747  0.5518
 2229SOL     OW18322   3.118   2.733   9.325 -0.2883  0.2645 -0.4834
 2229SOL    HW118323   3.163   2.648   9.325  0.1115  0.4846 -1.4630
 2229SOL    HW218324   3.068   2.723   9.245  0.0005 -0.6670 -0.5534
 2230SOL     OW18325   4.200   0.642   1.703 -0.2277 -0.1561  0.3772
 2230SOL    HW118326   4.143   0.632   1.779 -0.7707  0.6378  0.0712
 2230SOL    HW218327   4.267   0.700   1.739  0.1643  0.9612 -2.1704
 2231SOL     OW18328   3.928   0.651   0.050 -0.0684 -0.3716 -0.2276
 2231SOL    HW118329   4.001   0.654   0.112 -0.1494  1.2777 -0.2196
 2231SOL    HW218330   3.967   0.705  17.737 -1.3133 -0.8860 -1.3339
 2232SOL     OW18331   3.609   2.588  14.214  0.3626 -0.2001  0.6593
 2232SOL    HW118332   3.585   2.586  14.121  0.8046 -3.2070  0.6305
 2232SOL    HW218333   3.674   2.519  14.219  0.6152  0.0504  0.8343
 2233SOL     OW18334   3.401   1.989   6.268 -0.0733 -0.4289  0.2134
 2233SOL    HW118335   3.356   1.949   6.194  0.6413 -0.0683 -0.4217
 2233SOL    HW218336   3.364   1.938   6.340 -1.2315 -0.5725 -0.4871
 2234SOL     OW18337   2.906   0.571  15.291  0.3195 -0.1050 -0.0141
 2234SOL    HW118338   2.922   0.496  15.348 -0.4347 -1.1970 -1.2441
 2234SOL    HW218339   2.981   0.629  15.302 -0.3146  0.6472  0.3859
 2235SOL     OW18340   2.794   0.381   7.427  0.3469 -0.3620 -0.9014
 2235SOL    HW118341   2.774   0.418   7.513  1.8537 -0.1638 -0.6211
 2235SOL    HW218342   2.717   0.412   7.381  1.2328  1.0197 -1.4463
 2236SOL     OW18343   4.682   1.612   9.493 -0.5131 -0.6620  0.5791
 2236SOL    HW118344   4.634   1.620   9.410 -0.6768  0.6137  0.7864
 2236SOL    HW218345   4.622   1.557   9.543 -1.9016 -0.5046 -0.9200
 2237SOL     OW18346   3.986   0.037   5.420  0.6213  0.6540  0.6897
 2237SOL    HW118347   3.988   0.132   5.426 -2.6594  0.5584  3.4519
 2237SOL    HW218348   4.013   0.012   5.509  1.0141 -0.8059  0.1508
 2238SOL     OW18349   4.615   3.533   4.344  0.2893 -0.1310 -0.1492
 2238SOL    HW118350   4.556   3.505   4.413 -1.1429  1.4251 -0.7526
 2238SOL    HW218351   4.553   3.560   4.277  0.9766  1.5772 -0.0995
 2239SOL     OW18352   2.883   1.129   7.810 -0.5591 -0.1375  0.0117
 2239SOL    HW118353   2.911   1.054   7.862 -0.0550  1.1881  1.6539
 2239SOL    HW218354   2.950   1.192   7.836 -2.0113  1.5613 -0.3519
 2240SOL     OW18355   0.061   0.723  11.784  0.0692  0.3618  0.3175
 2240SOL    HW118356   4.738   0.780  11.829 -2.4002 -2.0416 -0.0979
 2240SOL    HW218357   0.092   0.771  11.707 -0.0721  0.3325  0.2428
 2241SOL     OW18358   2.994   3.750   1.418 -0.2767  0.5964 -0.2473
 2241SOL    HW118359   3.049   3.672   1.419  0.0287  0.8231  0.9736
 2241SOL    HW218360   2.911   3.709   1.440 -0.1525  1.5847  2.0429
 2242SOL     OW18361   3.175   0.926   9.238 -0.0419 -0.2969 -0.0740
 2242SOL    HW118362   3.207   0.836   9.228  1.0545  0.1846 -0.8725
 2242SOL    HW218363   3.210   0.945   9.325  1.5289 -0.2669 -0.7028
 2243SOL     OW18364   0.449   2.976   7.680 -0.0812 -0.0895  0.2330
 2243SOL    HW118365   0.493   3.061   7.672  2.8643 -1.6112  0.3470
 2243SOL    HW218366   0.506   2.929   7.742 -0.5435 -0.9328  0.0140
 2244SOL     OW18367   0.755   3.699  16.711  0.5206  0.9293  0.6357
 2244SOL    HW118368   0.812   3.641  16.661 -0.6598 -0.8081  1.3033
 2244SOL    HW218369   0.703   3.627  16.747 -1.2549  1.3352 -1.1228
 2245SOL     OW18370   3.511   0.696   8.821 -0.1336  0.2130 -0.0939
 2245SOL    HW118371   3.536   0.686   8.913  0.0421  0.5264 -0.1078
 2245SOL    HW218372   3.489   0.604   8.809  0.0620 -0.1094  2.0075
 2246SOL     OW18373   2.014   4.029   3.707  0.1128  0.1969 -0.2586
 2246SOL    HW118374   1.926   4.065   3.705  0.2346  0.6112  2.1548
 2246SOL    HW218375   2.068   4.108   3.706  2.3794 -1.3291  0.6792
 2247SOL     OW18376   4.144   0.222   1.898 -0.1162  0.0731  0.0212
 2247SOL    HW118377   4.204   0.295   1.888 -1.2457  0.7232 -2.0817
 2247SOL    HW218378   4.208   0.161   1.933 -1.9220 -0.3950  2.5610
 2248SOL     OW18379   0.101   1.986   2.057 -0.2701 -0.2547 -0.3909
 2248SOL    HW118380   0.066   2.027   1.978  0.3272 -0.1840 -0.6205
 2248SOL    HW218381   0.187   2.028   2.066 -1.1521  1.1165  1.6509
 2249SOL     OW18382   0.824   2.557  12.180  0.0207 -0.2419 -0.2046
 2249SOL    HW118383   0.783   2.642  12.165  3.1750  0.8345 -2.5414
 2249SOL    HW218384   0.861   2.524  12.098 -2.3616 -0.1235 -1.3387
 2250SOL     OW18385   4.690   1.335   2.337  0.0121  0.1509  0.0383
 2250SOL    HW118386   0.042   1.346   2.363 -0.5193 -0.8340  2.3413
 2250SOL    HW218387   4.696   1.264   2.272  0.9852  0.0405  0.2495
 2251SOL     OW18388   0.738   0.611  15.535  0.1942  0.0855 -0.3147
 2251SOL    HW118389   0.651   0.645  15.557 -0.6550 -1.2419 -1.6635
 2251SOL    HW218390   0.801   0.674  15.571 -1.2483  0.7314  1.0935
 2252SOL     OW18391   2.372   3.575   3.501 -0.7507  0.7244 -0.7736
 2252SOL    HW118392   2.439   3.643   3.509  0.3847 -0.5792  0.7961
 2252SOL    HW218393   2.291   3.618   3.527 -1.9553 -1.3771 -1.0335
 2253SOL     OW18394   1.328   1.652   2.505 -0.1366 -0.2289  0.5896
 2253SOL    HW118395   1.356   1.564   2.532  0.9835 -0.1568 -0.2950
 2253SOL    HW218396   1.340   1.700   2.587  0.0119  0.4031  0.1967
 2254SOL     OW18397   2.224   0.409   6.690 -0.1559 -0.4685 -0.2111
 2254SOL    HW118398   2.314   0.384   6.709 -0.4636 -1.2786  0.2291
 2254SOL    HW218399   2.194   0.330   6.645  0.0276 -0.1682 -0.8537
 2255SOL     OW18400   3.315   1.297   3.854  0.6742 -0.1350 -0.1969
 2255SOL    HW118401   3.226   1.314   3.823  1.1982 -0.4546 -1.8484
 2255SOL    HW218402   3.338   1.229   3.790 -2.9955 -1.1107 -0.5302
 2256SOL     OW18403   0.745   0.130   4.492  0.0092 -0.6546 -0.6213
 2256SOL    HW118404   0.682   0.159   4.426 -0.2409 -2.8354 -1.3287
 2256SOL    HW218405   0.766   0.042   4.461  1.3525 -0.4211 -0.3923
 2257SOL     OW18406   4.590   3.684   8.156 -0.0330  0.0609 -0.0934
 2257SOL    HW118407   4.636   3.601   8.153  1.5161  0.9240 -0.1561
 2257SOL    HW218408   4.664   3.744   8.147 -0.6564  0.5004 -2.3613
 2258SOL     OW18409   0.433   2.526   8.182 -0.0895  0.1856 -0.1682
 2258SOL    HW118410   0.358   2.467   8.194 -0.4218  0.4770 -0.8193
 2258SOL    HW218411   0.449   2.523   8.087  1.2262 -0.9643  0.0877
 2259SOL     OW18412   4.252   4.359   4.863  0.2154 -0.2035  0.1433
 2259SOL    HW118413   4.160   4.334   4.859  0.4830 -0.5897 -3.2672
 2259SOL    HW218414   4.238   4.450   4.891 -0.0478 -0.8710  2.1941
 2260SOL     OW18415   2.834   2.163   4.588 -0.0626  0.9088 -0.0780
 2260SOL    HW118416   2.764   2.215   4.626 -0.4349  0.6451 -0.4021
 2260SOL    HW218417   2.789   2.111   4.522  0.4866  0.1571  0.1356
 2261SOL     OW18418   4.265   0.738   5.338 -0.5773  0.2149  0.3746
 2261SOL    HW118419   4.290   0.698   5.254  2.0120  0.5662  1.0013
 2261SOL    HW218420   4.330   0.808   5.334  0.8155 -0.8569  4.2096
 2262SOL     OW18421   0.759   3.700   6.802  0.0352  0.2297  0.1016
 2262SOL    HW118422   0.761   3.737   6.713  1.0260 -0.2717 -0.0895
 2262SOL    HW218423   0.680   3.646   6.792 -0.2882  0.3490  2.0225
 2263SOL     OW18424   0.511   4.512  15.044  0.2161 -0.1022  0.1850
 2263SOL    HW118425   0.600   4.479  15.027  0.6958  0.7470  1.0788
 2263SOL    HW218426   0.526   4.606  15.055  0.2891  0.1415 -1.8712
 2264SOL     OW18427   4.313   1.638  17.225  0.3359 -0.2891  0.0789
 2264SOL    HW118428   4.388   1.677  17.269  1.4377  0.4968 -2.4604
 2264SOL    HW218429   4.323   1.552  17.265  1.5114 -0.3955 -0.4362
 2265SOL     OW18430   4.525   2.194   3.317  0.4305 -0.2505 -0.4156
 2265SOL    HW118431   4.549   2.107   3.348 -0.6989  0.5066  2.6076
 2265SOL    HW218432   4.595   2.203   3.253  0.4660  2.5726 -0.0167
 2266SOL     OW18433   4.534   0.420  17.562 -0.6713 -0.0762  0.2752
 2266SOL    HW118434   4.511   0.399  17.653 -0.1955 -0.9416  0.1898
 2266SOL    HW218435   4.528   0.337  17.517 -0.4001 -1.1639  2.2349
 2267SOL     OW18436   3.275   1.101   8.615  0.1064  0.2709 -0.0708
 2267SOL    HW118437   3.332   1.092   8.538 -0.1683  2.3621 -0.5202
 2267SOL    HW218438   3.334   1.058   8.677  2.4292  0.9912 -1.7813
 2268SOL     OW18439   2.646   1.680   4.763 -0.4421 -0.1798 -0.0040
 2268SOL    HW118440   2.588   1.646   4.832  0.1962 -1.2297  0.0206
 2268SOL    HW218441   2.637   1.774   4.773  1.7579 -0.2173  2.1470
 2269SOL     OW18442   4.362   4.736   7.944  0.0803 -0.0117 -0.2032
 2269SOL    HW118443   4.390   0.037   7.862 -0.8097  0.7094 -0.1589
 2269SOL    HW218444   4.343   4.644   7.926 -2.0224  0.4692 -0.4896
 2270SOL     OW18445   3.019   2.083  13.227 -0.4440 -0.2544  0.1247
 2270SOL    HW118446   3.035   2.154  13.164  0.3392 -0.4594  0.0997
 2270SOL    HW218447   3.027   2.123  13.313  1.6396 -0.6785  0.1110
 2271SOL     OW18448   4.016   0.635   1.912  0.5639  0.7326  0.1747
 2271SOL    HW118449   4.050   0.715   1.950 -2.2139  2.1539 -0.3676
 2271SOL    HW218450   3.923   0.655   1.909  0.2972 -0.1865  2.7062
 2272SOL     OW18451   0.404   4.501   2.159  0.1390 -0.0245  0.4810
 2272SOL    HW118452   0.493   4.534   2.145  0.2276 -0.6755 -0.4843
 2272SOL    HW218453   0.383   4.436   2.091 -0.7683  2.0840 -1.2368
 2273SOL     OW18454   0.851   2.714  17.287  0.4890  0.1151  0.0712
 2273SOL    HW118455   0.812   2.712  17.374  2.0534  1.6303  0.8093
 2273SOL    HW218456   0.798   2.643  17.252  0.8774  0.1758 -0.6511
 2274SOL     OW18457   2.902   2.428  13.292  0.1062 -0.0963  0.3938
 2274SOL    HW118458   2.998   2.430  13.290  0.1354 -0.0299  1.9805
 2274SOL    HW218459   2.877   2.520  13.286 -1.8354 -0.5263  1.7903
 2275SOL     OW18460   1.786   3.866   5.372 -0.1990 -0.2427  0.2855
 2275SOL    HW118461   1.869   3.888   5.331 -1.3751  2.3077 -0.7433
 2275SOL    HW218462   1.718   3.929   5.346  0.9215  2.0277  2.8180
 2276SOL     OW18463   3.725   1.901   3.810  0.1491  0.2380  0.0584
 2276SOL    HW118464   3.817   1.897   3.783  0.1557 -2.0921  0.4076
 2276SOL    HW218465   3.675   1.920   3.730 -2.0817 -1.7037  1.0013
 2277SOL     OW18466   3.816   4.541   5.312  0.0220  1.2215  0.4068
 2277SOL    HW118467   3.826   4.634   5.291  1.3060  0.5937 -1.8102
 2277SOL    HW218468   3.747   4.561   5.375  0.0114 -0.1974  0.8406
 2278SOL     OW18469   4.331   1.457   7.549 -0.3416 -0.1623 -0.2289
 2278SOL    HW118470   4.424   1.449   7.529 -0.1148  0.6244  0.5080
 2278SOL    HW218471   4.319   1.472   7.643  0.8330  0.3989 -0.1649
 2279SOL     OW18472   2.559   0.341   5.733 -0.2156  0.2413 -0.3094
 2279SOL    HW118473   2.486   0.337   5.794  1.3423 -0.1516  1.5158
 2279SOL    HW218474   2.639   0.329   5.785 -0.1692  1.9365  0.0251
 2280SOL     OW18475   3.314   4.698   8.120  0.6244  0.3509  0.3900
 2280SOL    HW118476   3.245   4.644   8.157 -0.4548  2.6624  1.7775
 2280SOL    HW218477   3.386   4.698   8.183  1.9189 -1.2383 -1.0860
 2281SOL     OW18478   4.599   1.143   6.188 -0.5876  0.1666  0.2731
 2281SOL    HW118479   4.580   1.227   6.147  1.8405 -0.1603 -1.5336
 2281SOL    HW218480   4.591   1.092   6.108 -1.5875 -0.6393  0.8823
 2282SOL     OW18481   2.790   4.462  13.068 -0.6702 -0.1341  0.2587
 2282SOL    HW118482   2.754   4.464  13.157  0.7905 -0.1456  0.8443
 2282SOL    HW218483   2.738   4.390  13.031 -0.0064 -0.1489 -0.6438
 2283SOL     OW18484   4.375   0.831   0.285  0.1894 -0.0866 -0.1249
 2283SOL    HW118485   4.422   0.908   0.252  1.0979 -0.8189 -0.5214
 2283SOL    HW218486   4.441   0.779   0.331  0.0128 -0.4348 -0.2648
 2284SOL     OW18487   0.540   2.932  10.267 -0.0277 -0.1597 -0.0024
 2284SOL    HW118488   0.581   2.985  10.336 -0.9200 -1.6320  1.6732
 2284SOL    HW218489   0.492   2.864  10.314 -3.9886  1.8359 -1.1823
 2285SOL     OW18490   0.120   4.561   5.664 -0.2292 -0.7537 -0.0163
 2285SOL    HW118491   0.025   4.558   5.673 -0.0082 -1.2253  2.1193
 2285SOL    HW218492   0.123   4.652   5.634  1.8774  0.1508  2.9324
 2286SOL     OW18493   1.288   1.271   7.593 -0.2299  0.4286  0.0989
 2286SOL    HW118494   1.330   1.272   7.678  1.7623 -2.5429 -0.8802
 2286SOL    HW218495   1.345   1.334   7.549 -0.1155  0.0964 -0.2314
 2287SOL     OW18496   4.276   1.841   5.853  0.3689 -0.2626  0.3514
 2287SOL    HW118497   4.190   1.871   5.826  0.9868 -0.2276 -1.5732
 2287SOL    HW218498   4.267   1.748   5.871  1.7423 -0.0613  2.1126
 2288SOL     OW18499   3.521   3.656  14.315  0.2713  0.8060  0.7558
 2288SOL    HW118500   3.443   3.602  14.322 -0.6613  2.1108  0.4560
 2288SOL    HW218501   3.489   3.740  14.280 -2.6948 -0.3929  0.6382
 2289SOL     OW18502   2.498   0.540  16.084  0.2074  0.0295 -0.3602
 2289SOL    HW118503   2.518   0.615  16.028  2.5556 -1.0919 -1.0316
 2289SOL    HW218504   2.578   0.535  16.137 -1.3607 -1.2506  1.8506
 2290SOL     OW18505   0.155   0.809   3.986  0.0920 -0.2129  0.6400
 2290SOL    HW118506   0.227   0.769   3.935 -1.5561 -1.8437 -0.4194
 2290SOL    HW218507   0.117   0.741   4.042  0.2655  0.1635  1.2131
 2291SOL     OW18508   3.345   4.682   0.102 -0.3272 -0.2458 -0.4367
 2291SOL    HW118509   3.438   4.660   0.109 -0.6764 -2.2798 -2.1988
 2291SOL    HW218510   3.331   4.739   0.177  1.0388 -0.4024 -0.0755
 2292SOL     OW18511   1.732   3.035   7.980  0.1631  0.0213 -0.5341
 2292SOL    HW118512   1.747   3.081   8.062 -0.8354  0.9594 -0.8747
 2292SOL    HW218513   1.645   2.998   7.991  0.7195 -0.5712  1.8514
 2293SOL     OW18514   2.311   1.275   6.949 -0.2082  0.4444  0.1366
 2293SOL    HW118515   2.269   1.298   7.032  0.0582 -0.5244  0.5335
 2293SOL    HW218516   2.301   1.180   6.947  0.9357  0.3442 -1.0714
 2294SOL     OW18517   2.983   0.135   0.798 -0.4130  0.2069 -0.1769
 2294SOL    HW118518   3.002   0.094   0.882 -1.0927 -0.5078 -0.3770
 2294SOL    HW218519   2.916   0.202   0.811  0.6478  1.3550 -0.6498
 2295SOL     OW18520   3.862   3.139   5.754  0.1021 -0.4813 -0.0660
 2295SOL    HW118521   3.877   3.071   5.688  0.7076  0.4906 -0.9395
 2295SOL    HW218522   3.815   3.096   5.825  1.2937 -2.2440 -0.3309
 2296SOL     OW18523   0.394   1.002   3.802  0.2541  0.4167  0.0015
 2296SOL    HW118524   0.485   1.023   3.819  0.1953 -0.6718  1.6648
 2296SOL    HW218525   0.413   0.911   3.777 -0.3810  0.2234  0.2328
 2297SOL     OW18526   1.410   1.376   2.638  0.7354 -0.1115 -0.2529
 2297SOL    HW118527   1.464   1.350   2.712 -1.7364  0.9234  1.9171
 2297SOL    HW218528   1.329   1.401   2.682  0.6316  2.6938 -2.0284
 2298SOL     OW18529   2.873   3.916   3.809 -0.4028  0.1247  0.0043
 2298SOL    HW118530   2.828   3.878   3.734  3.8171 -1.9773 -1.4480
 2298SOL    HW218531   2.856   4.010   3.797  0.0088 -0.1249 -2.5566
 2299SOL     OW18532   3.869   1.653  17.093 -0.2736  0.0137 -0.8566
 2299SOL    HW118533   3.808   1.712  17.138  1.3776  2.0906 -1.3264
 2299SOL    HW218534   3.944   1.710  17.078 -1.1634  1.2916 -0.4583
 2300SOL     OW18535   3.042   2.032  14.086 -0.1367 -0.0079  0.2613
 2300SOL    HW118536   3.015   2.121  14.111 -0.3364 -0.1870  0.6897
 2300SOL    HW218537   2.959   1.991  14.061  0.5159 -0.9381 -0.3529
 2301SOL     OW18538   1.034   3.277   4.562 -0.0580  0.6389  0.7386
 2301SOL    HW118539   0.946   3.308   4.540  0.7363  0.3440 -2.8717
 2301SOL    HW218540   1.033   3.287   4.657 -0.1576 -0.0234  0.8006
 2302SOL     OW18541   2.917   4.338   4.612  0.4478 -0.2718  0.5945
 2302SOL    HW118542   2.935   4.417   4.561 -1.6777 -0.4790 -0.4821
 2302SOL    HW218543   2.943   4.260   4.562  1.2512 -0.1989  0.9148
 2303SOL     OW18544   3.322   4.274  13.189 -0.9984 -0.0901  0.2616
 2303SOL    HW118545   3.257   4.240  13.128 -2.4582  0.0103  1.7632
 2303SOL    HW218546   3.392   4.303  13.130 -0.7592 -0.9949  0.1096
 2304SOL     OW18547   0.030   2.170   7.391  0.0365 -0.4645  0.1136
 2304SOL    HW118548   4.717   2.190   7.469  0.6696 -1.8696  0.9081
 2304SOL    HW218549   0.114   2.196   7.431 -0.8515  2.2890  0.2107
 2305SOL     OW18550   0.961   2.259   2.108  0.5682 -0.0809 -0.3087
 2305SOL    HW118551   0.991   2.308   2.031  2.8134  2.0634  1.9029
 2305SOL    HW218552   0.871   2.288   2.125  0.0628 -2.1413  0.4713
 2306SOL     OW18553   4.212   2.393  13.784  0.0949 -0.0235 -0.2615
 2306SOL    HW118554   4.118   2.404  13.771  0.3045  0.0296 -1.7928
 2306SOL    HW218555   4.235   2.352  13.700 -0.1590 -0.1168 -0.2853
 2307SOL     OW18556   0.312   2.921  16.005  0.1120 -0.1937  0.5049
 2307SOL    HW118557   0.270   2.992  15.956 -0.8406 -0.1030  1.4525
 2307SOL    HW218558   0.252   2.848  15.990 -1.4831  0.8722  1.7253
 2308SOL     OW18559   1.682   1.055   3.014  0.4360  0.4461 -0.1244
 2308SOL    HW118560   1.593   1.089   3.025  0.4539 -0.0301  1.5262
 2308SOL    HW218561   1.731   1.105   3.079  1.2791 -0.3693 -0.1311
 2309SOL     OW18562   1.330   3.396  15.099  0.1818  0.3386  0.3394
 2309SOL    HW118563   1.352   3.488  15.115  0.3523  0.6806 -1.9416
 2309SOL    HW218564   1.399   3.362  15.043 -2.1556 -0.0216 -2.3471
 2310SOL     OW18565   3.773   3.295   3.545  0.0880 -0.1111 -0.1027
 2310SOL    HW118566   3.714   3.220   3.541 -0.1331 -0.0239  1.6188
 2310SOL    HW218567   3.731   3.361   3.489 -0.7271 -1.6340 -1.2770
 2311SOL     OW18568   1.878   3.083   3.221  0.3560  0.5025 -0.1596
 2311SOL    HW118569   1.917   3.044   3.299  0.6633  0.9892 -0.0683
 2311SOL    HW218570   1.945   3.139   3.183  0.9444 -0.2034 -0.1536
 2312SOL     OW18571   2.380   0.855   0.730  0.4746 -0.0422  0.2612
 2312SOL    HW118572   2.343   0.781   0.681 -3.0961  0.5826  1.9966
 2312SOL    HW218573   2.471   0.848   0.704  1.4388 -1.6381  4.0633
 2313SOL     OW18574   0.560   4.386   4.021 -0.3464 -0.4048  0.5313
 2313SOL    HW118575   0.519   4.435   4.092 -0.2178 -1.4974  1.3615
 2313SOL    HW218576   0.559   4.454   3.953 -1.7524 -0.9717  0.0015
 2314SOL     OW18577   2.733   1.598   5.988  0.3195 -0.0565 -0.2353
 2314SOL    HW118578   2.741   1.639   6.074  0.4616  2.4960 -1.4761
 2314SOL    HW218579   2.681   1.520   6.008  0.7921  0.0561  1.3785
 2315SOL     OW18580   0.965   3.175   5.673  0.2402 -0.1473 -0.0414
 2315SOL    HW118581   1.020   3.098   5.655 -0.5640  0.2035 -4.0154
 2315SOL    HW218582   0.993   3.241   5.610  1.7385  1.6314  2.4769
 2316SOL     OW18583   3.836   2.783   3.013 -0.2101 -0.3652 -0.5655
 2316SOL    HW118584   3.912   2.728   2.991  0.8664  0.8842  0.0140
 2316SOL    HW218585   3.872   2.831   3.088 -1.6848  0.8014 -0.6069
 2317SOL     OW18586   3.051   1.809  11.734  0.2167 -0.1046  0.3274
 2317SOL    HW118587   3.033   1.733  11.679 -0.7901 -0.1069  0.6708
 2317SOL    HW218588   3.019   1.881  11.680  1.2991 -1.5991 -2.2976
 2318SOL     OW18589   1.770   0.109   0.791 -0.7742  0.4390  0.3042
 2318SOL    HW118590   1.713   0.156   0.852 -1.1176 -1.6142  1.5491
 2318SOL    HW218591   1.727   0.034   0.750 -0.9706  0.0854  1.1456
 2319SOL     OW18592   0.388   0.578  15.247  0.0572 -0.7067 -0.1363
 2319SOL    HW118593   0.418   0.558  15.158 -0.3245  0.8109 -0.6182
 2319SOL    HW218594   0.303   0.623  15.245  0.5114  0.0066 -3.3161
 2320SOL     OW18595   3.548   1.787   5.410  0.0872  0.0408  0.3039
 2320SOL    HW118596   3.453   1.780   5.422 -0.1664  2.0024 -0.5136
 2320SOL    HW218597   3.551   1.868   5.358 -0.4021 -1.7597 -2.5290
 2321SOL     OW18598   0.488   4.570  11.350 -0.3650 -0.5663  0.3022
 2321SOL    HW118599   0.471   4.552  11.442  0.2446 -0.5421  0.4212
 2321SOL    HW218600   0.573   4.613  11.357 -0.6342  0.1437 -0.7913
 2322SOL     OW18601   3.033   3.493   1.908 -0.4615 -0.2716  0.5926
 2322SOL    HW118602   3.106   3.529   1.857 -2.1837 -0.0499 -1.7254
 2322SOL    HW218603   2.967   3.521   1.845 -0.0120 -0.9737 -0.1985
 2323SOL     OW18604   2.665   0.079   1.666 -0.2934 -0.3288 -0.4797
 2323SOL    HW118605   2.686   0.086   1.573  0.0655 -0.9403 -0.4482
 2323SOL    HW218606   2.633   0.169   1.673  4.2015  1.3386 -1.7860
 2324SOL     OW18607   0.053   3.017   5.774  0.7930 -0.4756 -0.4691
 2324SOL    HW118608   0.032   3.098   5.727 -1.5967 -0.3893  0.7597
 2324SOL    HW218609   0.113   3.048   5.841 -1.4397  0.7753  0.9371
 2325SOL     OW18610   3.052   3.699   5.214 -0.4660 -0.0600  0.5862
 2325SOL    HW118611   2.977   3.685   5.272 -0.4898  1.5613  0.9399
 2325SOL    HW218612   3.104   3.758   5.269  1.9081  1.0335 -2.8354
 2326SOL     OW18613   1.998   3.271  13.244  0.8504 -0.2006  0.1394
 2326SOL    HW118614   2.038   3.191  13.209 -1.2746 -1.0436 -0.3776
 2326SOL    HW218615   1.911   3.241  13.268  0.3556  1.4332  0.3908
 2327SOL     OW18616   1.063   0.563  11.165  0.1536 -0.1316 -0.1870
 2327SOL    HW118617   1.141   0.576  11.112 -1.1314 -2.0175 -2.5424
 2327SOL    HW218618   0.993   0.566  11.099  0.3733 -2.4675 -0.5372
 2328SOL     OW18619   2.506   0.454   6.051 -0.1376  0.1505  0.3254
 2328SOL    HW118620   2.577   0.502   6.009  1.3976 -1.4392  1.1129
 2328SOL    HW218621   2.435   0.517   6.036 -0.8132 -0.5476  0.6019
 2329SOL     OW18622   1.596   2.783   0.559  0.2216  0.4168 -0.3899
 2329SOL    HW118623   1.678   2.815   0.521  1.4132 -0.7292  1.2645
 2329SOL    HW218624   1.575   2.709   0.502  1.6288  0.0435 -0.4238
 2330SOL     OW18625   2.689   1.064   1.551  0.0486 -1.0032 -0.0734
 2330SOL    HW118626   2.719   1.067   1.461  0.4765 -0.4733  0.0880
 2330SOL    HW218627   2.662   0.972   1.555  0.0305 -0.9210  1.7324
 2331SOL     OW18628   4.696   0.983   3.960 -0.0496  0.3330  0.3036
 2331SOL    HW118629   4.633   0.927   4.003 -0.2079  0.8612  0.7592
 2331SOL    HW218630   0.027   0.921   3.940  0.0261  0.5655 -0.1516
 2332SOL     OW18631   0.667   0.603  10.957  0.6789 -0.3378  0.4367
 2332SOL    HW118632   0.753   0.561  10.947 -0.0442 -1.6493 -0.3060
 2332SOL    HW218633   0.611   0.541  10.910  2.4896 -0.8934 -1.0080
 2333SOL     OW18634   2.700   3.277   4.260 -0.1301 -0.0787 -0.2802
 2333SOL    HW118635   2.779   3.227   4.243 -1.9493 -3.6677  1.8487
 2333SOL    HW218636   2.652   3.202   4.294  3.0019 -0.8988  2.3045
 2334SOL     OW18637   0.947   0.921   3.622 -0.3338  0.0145 -0.0322
 2334SOL    HW118638   0.867   0.926   3.569  0.3805 -2.1863 -1.2991
 2334SOL    HW218639   0.944   0.832   3.657  0.0430  0.3855  0.9326
 2335SOL     OW18640   0.318   3.620   4.513  0.4129 -0.0454  0.3114
 2335SOL    HW118641   0.298   3.713   4.528  0.9339  0.4506 -2.0707
 2335SOL    HW218642   0.250   3.603   4.448 -0.0347  1.4509  0.3788
 2336SOL     OW18643   1.781   1.782  10.462 -0.5868 -0.2386  0.3236
 2336SOL    HW118644   1.737   1.748  10.539 -0.2289  0.4459  0.8315
 2336SOL    HW218645   1.768   1.708  10.403  1.1322 -0.3725  0.0936
 2337SOL     OW18646   0.204   3.339   1.492  0.0107  0.1687  0.0770
 2337SOL    HW118647   0.150   3.260   1.495  1.7817 -1.2206 -4.2120
 2337SOL    HW218648   0.183   3.366   1.402 -2.4565 -1.5967  0.1221
 2338SOL     OW18649   2.625   3.122   3.772  0.1543  0.4777 -0.1344
 2338SOL    HW118650   2.719   3.114   3.755  0.1466  1.9423 -0.8917
 2338SOL    HW218651   2.600   3.201   3.724  0.3248 -1.0949 -2.7647
 2339SOL     OW18652   1.909   0.629   4.190 -0.3288 -0.5941 -0.2071
 2339SOL    HW118653   1.965   0.551   4.187 -2.3917 -2.0845 -0.1447
 2339SOL    HW218654   1.854   0.612   4.266  0.5734  0.6035  0.7077
 2340SOL     OW18655   1.998   3.442   6.146  0.0408 -0.1689 -0.2136
 2340SOL    HW118656   1.949   3.409   6.221 -1.6161  1.1444 -0.7251
 2340SOL    HW218657   1.932   3.470   6.083  2.2070 -1.3685 -3.0555
 2341SOL     OW18658   4.460   0.849   3.686  0.9686  0.0134  0.3052
 2341SOL    HW118659   4.505   0.933   3.695 -1.1275  1.1466  0.1611
 2341SOL    HW218660   4.503   0.828   3.603 -0.1973 -2.4070  0.3008
 2342SOL     OW18661   1.773   1.752   3.574  0.0388 -0.1067 -0.3576
 2342SOL    HW118662   1.687   1.724   3.545 -0.9170  0.1734  2.2591
 2342SOL    HW218663   1.778   1.847   3.588 -1.9956 -0.1396  0.5751
 2343SOL     OW18664   3.649   2.579   3.466  0.3937 -0.3662  0.1096
 2343SOL    HW118665   3.633   2.573   3.372 -2.3275 -1.6804  0.6717
 2343SOL    HW218666   3.662   2.491   3.500 -0.5411 -0.0516  1.2715
 2344SOL     OW18667   4.173   1.150  16.213 -0.4841  0.2322 -1.0212
 2344SOL    HW118668   4.140   1.213  16.148  1.6805  1.9970 -0.4071
 2344SOL    HW218669   4.093   1.098  16.211  0.1878 -0.7244 -2.8361
 2345SOL     OW18670   4.404   0.438   7.992  0.0510 -0.2076  0.0945
 2345SOL    HW118671   4.345   0.420   8.066 -1.3226 -2.3458 -1.5282
 2345SOL    HW218672   4.352   0.406   7.919  0.6610  1.5659 -1.1168
 2346SOL     OW18673   1.294   3.837  16.195 -0.2208  0.4334  0.1842
 2346SOL    HW118674   1.316   3.780  16.269 -1.5455  1.5542  1.4603
 2346SOL    HW218675   1.269   3.771  16.130 -1.6522  0.5360  0.6309
 2347SOL     OW18676   2.212   1.175   6.653  0.0391  0.3360 -0.0865
 2347SOL    HW118677   2.302   1.174   6.619  0.2595  2.4371  0.3918
 2347SOL    HW218678   2.222   1.159   6.746 -0.3325  0.2324 -0.0665
 2348SOL     OW18679   1.331   0.443  14.099  0.1588  0.2682  0.1307
 2348SOL    HW118680   1.243   0.469  14.070 -0.2657 -1.3716 -0.0215
 2348SOL    HW218681   1.322   0.480  14.187  1.8863 -0.1244  0.4768
 2349SOL     OW18682   4.263   1.002   1.277 -0.7392 -0.0397 -0.4014
 2349SOL    HW118683   4.186   1.058   1.266 -1.8274 -1.2346  0.9967
 2349SOL    HW218684   4.319   1.072   1.309 -0.1420 -0.2976 -0.8861
 2350SOL     OW18685   1.284   2.623   9.276 -0.4953 -0.2167  0.6321
 2350SOL    HW118686   1.366   2.578   9.295  0.1060 -0.3422 -2.1927
 2350SOL    HW218687   1.230   2.548   9.253 -2.4056  1.1448  0.6613
 2351SOL     OW18688   2.784   0.450   1.528 -0.1549 -0.1331  0.3082
 2351SOL    HW118689   2.700   0.405   1.514 -0.7246  0.7638  0.8158
 2351SOL    HW218690   2.833   0.372   1.554 -1.3562 -0.3719  1.8667
 2352SOL     OW18691   3.817   1.629   7.502  0.0815 -1.2602  0.1263
 2352SOL    HW118692   3.857   1.559   7.553  1.1772 -1.0428 -0.4288
 2352SOL    HW218693   3.729   1.629   7.539 -0.8222  1.7792 -1.9934
 2353SOL     OW18694   4.227   2.577   5.639 -0.5811 -0.3136 -0.2919
 2353SOL    HW118695   4.283   2.538   5.707 -0.1115 -3.3035 -2.3792
 2353SOL    HW218696   4.199   2.653   5.691  0.4134  0.0981 -0.3511
 2354SOL     OW18697   3.630   2.807   6.936 -0.2975 -0.6721  0.4169
 2354SOL    HW118698   3.557   2.798   6.998  0.1389  2.3100  1.3476
 2354SOL    HW218699   3.686   2.870   6.981  0.7385 -3.2918  2.8159
 2355SOL     OW18700   1.874   0.358   9.795  0.3226 -0.0065  0.1539
 2355SOL    HW118701   1.802   0.296   9.786 -0.7231  1.5096 -1.9068
 2355SOL    HW218702   1.832   0.441   9.815 -1.0363 -0.3009 -1.5657
 2356SOL     OW18703   3.489   0.516  15.012  0.0989  0.3019 -0.1007
 2356SOL    HW118704   3.427   0.443  15.006 -1.9616  2.1772 -1.6652
 2356SOL    HW218705   3.490   0.525  15.108  0.8440 -2.7792  0.1584
 2357SOL     OW18706   1.204   0.439   2.317 -0.1375 -0.5259 -0.3039
 2357SOL    HW118707   1.204   0.487   2.400  0.0675 -1.3153  0.1549
 2357SOL    HW218708   1.111   0.419   2.323 -0.4706  1.9822  2.8696
 2358SOL     OW18709   1.162   4.663   3.901  0.0163 -0.3302  0.2201
 2358SOL    HW118710   1.225   4.733   3.881 -1.7239  1.9316  2.6848
 2358SOL    HW218711   1.082   4.712   3.920  0.8417  1.1505 -0.1254
 2359SOL     OW18712   1.614   1.357   7.292  0.0583 -0.3847 -0.6328
 2359SOL    HW118713   1.537   1.408   7.268 -0.9471 -1.3830  0.4999
 2359SOL    HW218714   1.670   1.426   7.327  0.1718 -0.6452 -0.3077
 2360SOL     OW18715   3.405   4.717   4.115  0.2130 -0.3129  0.2464
 2360SOL    HW118716   3.484   4.699   4.064 -0.6512 -0.6482 -0.9680
 2360SOL    HW218717   3.337   4.713   4.047  0.3392  1.1641  0.0391
 2361SOL     OW18718   1.201   4.553   7.702 -0.6507 -0.0700  0.0984
 2361SOL    HW118719   1.125   4.543   7.645  0.4351  0.8068 -1.5075
 2361SOL    HW218720   1.265   4.588   7.640 -2.8451  0.1955 -2.0289
 2362SOL     OW18721   3.067   4.624   8.966  0.4773  0.6757 -0.1058
 2362SOL    HW118722   3.155   4.660   8.980  0.6487  0.2161  0.0089
 2362SOL    HW218723   3.037   4.685   8.900  2.3258  1.5520 -0.1296
 2363SOL     OW18724   2.295   2.797   9.633 -0.3298 -0.2905 -0.0275
 2363SOL    HW118725   2.369   2.748   9.669  0.9669  1.1389 -0.7210
 2363SOL    HW218726   2.223   2.735   9.629  0.8037 -1.6214  0.0239
 2364SOL     OW18727   4.556   1.399   4.950  0.1127  0.0912 -0.4772
 2364SOL    HW118728   4.542   1.440   4.865 -0.5266  1.0183  0.0691
 2364SOL    HW218729   4.650   1.382   4.953  0.1773  0.2876 -1.3872
 2365SOL     OW18730   3.684   1.344   6.042 -0.0592 -0.4825  0.3634
 2365SOL    HW118731   3.661   1.372   6.131 -1.2069 -2.5834  0.7265
 2365SOL    HW218732   3.758   1.284   6.056 -0.4918 -1.1984 -0.4168
 2366SOL     OW18733   1.794   2.619   8.931 -0.1251  0.7171  0.3736
 2366SOL    HW118734   1.825   2.531   8.954 -0.0820  0.1209 -1.9383
 2366SOL    HW218735   1.757   2.634   9.018  0.2697 -2.8607  1.1417
 2367SOL     OW18736   1.335   1.367  12.800  0.0099  0.1633  0.8778
 2367SOL    HW118737   1.287   1.430  12.853 -1.1869 -0.1548  0.1783
 2367SOL    HW218738   1.390   1.427  12.750  0.6407 -0.0177  1.3516
 2368SOL     OW18739   4.486   1.532  15.463  0.1153 -0.0969  0.0818
 2368SOL    HW118740   4.437   1.598  15.511  1.4726  2.7105 -2.4073
 2368SOL    HW218741   4.445   1.534  15.377 -0.9726 -0.5973  0.5936
 2369SOL     OW18742   1.769   1.541   7.426  0.1380 -0.0703  0.1520
 2369SOL    HW118743   1.846   1.588   7.393 -0.1975 -0.3884 -1.0979
 2369SOL    HW218744   1.723   1.613   7.468  1.4046  1.7911 -1.5808
 2370SOL     OW18745   3.550   0.692  10.127  0.5442 -0.0985  0.3544
 2370SOL    HW118746   3.489   0.679  10.199  0.6565  1.6853  0.7835
 2370SOL    HW218747   3.576   0.780  10.156 -1.2720  0.7208 -0.5053
 2371SOL     OW18748   2.202   1.274   7.214 -0.2274 -0.2081 -0.1840
 2371SOL    HW118749   2.233   1.364   7.215  0.0275 -0.3120  1.3909
 2371SOL    HW218750   2.283   1.231   7.242 -0.2089 -0.5436 -0.7661
 2372SOL     OW18751   3.519   0.877  14.244  0.7448  0.3341  0.1587
 2372SOL    HW118752   3.431   0.864  14.209  0.7241 -1.6434  0.9673
 2372SOL    HW218753   3.502   0.941  14.313 -0.5667  0.4378 -0.2731
 2373SOL     OW18754   2.676   1.343   4.617  0.7121 -0.1577 -0.0925
 2373SOL    HW118755   2.702   1.312   4.530 -0.8183 -2.4611  0.2866
 2373SOL    HW218756   2.721   1.427   4.627  1.1475 -0.4112  0.0665
 2374SOL     OW18757   0.103   0.145   7.007  0.1749  0.3455 -0.1831
 2374SOL    HW118758   0.096   0.095   6.925  0.5350 -0.3553  0.2151
 2374SOL    HW218759   0.185   0.192   6.989 -0.5938  1.8698  0.2820
 2375SOL     OW18760   3.397   3.210   8.993  0.9407 -0.4648  0.1536
 2375SOL    HW118761   3.340   3.135   9.012  0.0702  0.3877  0.8418
 2375SOL    HW218762   3.343   3.283   9.022 -0.6555 -1.4411 -0.3699
 2376SOL     OW18763   4.222   0.788   8.681  0.0469  0.4628 -0.3137
 2376SOL    HW118764   4.138   0.827   8.658  0.0265 -0.8223 -2.4900
 2376SOL    HW218765   4.263   0.782   8.595  1.5078 -1.4310  0.4967
 2377SOL     OW18766   0.531   2.522   3.857 -0.2865  0.2542 -0.2352
 2377SOL    HW118767   0.621   2.496   3.878 -0.2374  1.1824  0.6808
 2377SOL    HW218768   0.536   2.615   3.880 -0.4512  0.2580 -0.2173
 2378SOL     OW18769   1.037   3.330   9.646  0.4713 -0.0237  0.2258
 2378SOL    HW118770   1.011   3.420   9.665  1.4054  0.4950 -1.0243
 2378SOL    HW218771   1.127   3.337   9.615 -0.1317  1.1341 -1.2608
 2379SOL     OW18772   2.877   1.584   4.067  0.2472 -0.4775 -0.3251
 2379SOL    HW118773   2.863   1.623   4.153 -0.9560  0.2440 -0.8336
 2379SOL    HW218774   2.832   1.653   4.018  0.2146 -0.4884 -0.3107
 2380SOL     OW18775   1.479   3.513   1.865  0.4566 -0.0314 -0.4324
 2380SOL    HW118776   1.486   3.445   1.932  1.7519  0.2174 -0.3175
 2380SOL    HW218777   1.553   3.493   1.808  1.8433  0.6452  1.1195
 2381SOL     OW18778   4.095   4.639   7.433 -0.5052 -0.1665  0.1739
 2381SOL    HW118779   4.156   4.711   7.418 -1.4894  0.3152 -1.5603
 2381SOL    HW218780   4.153   4.573   7.469 -0.4966  1.1014  2.4961
 2382SOL     OW18781   4.573   1.239  12.348 -0.4701 -0.5130  0.7572
 2382SOL    HW118782   4.599   1.147  12.359 -1.2112 -0.8297 -0.1731
 2382SOL    HW218783   4.634   1.277  12.285 -1.1270  1.2338  1.1640
 2383SOL     OW18784   4.006   4.268   1.745 -0.3030  0.2268 -0.2255
 2383SOL    HW118785   3.915   4.242   1.756 -0.4627  1.0564  0.4056
 2383SOL    HW218786   4.042   4.202   1.804  1.7076 -0.3443 -2.0506
 2384SOL     OW18787   3.718   3.781   9.672 -0.2221  0.4077  0.7026
 2384SOL    HW118788   3.624   3.769   9.664 -0.4481  0.4870  3.2027
 2384SOL    HW218789   3.728   3.844   9.743  2.3278 -1.2056  1.7777
 2385SOL     OW18790   4.646   0.859  14.854 -0.5644 -0.1770 -0.1198
 2385SOL    HW118791   4.563   0.897  14.826 -1.8425 -1.9044  1.3383
 2385SOL    HW218792   4.647   0.895  14.942  2.4132 -1.1269  0.2161
 2386SOL     OW18793   2.608   4.039   8.708 -0.0046 -0.0981  0.0281
 2386SOL    HW118794   2.613   3.945   8.692 -0.1424 -0.3527  1.5571
 2386SOL    HW218795   2.519   4.038   8.742  0.2596  2.7170  0.8003
 2387SOL     OW18796   4.157   1.646   2.267 -0.0672  0.2726 -0.1680
 2387SOL    HW118797   4.157   1.736   2.235 -2.3915 -0.4070 -2.1106
 2387SOL    HW218798   4.066   1.620   2.251 -0.6967  2.4232 -0.0473
 2388SOL     OW18799   0.299   0.455  12.572 -0.4185 -0.3325  0.0352
 2388SOL    HW118800   0.305   0.477  12.479 -1.8894  0.8589  0.2216
 2388SOL    HW218801   0.380   0.405  12.578 -0.5683 -0.6470 -0.6428
 2389SOL     OW18802   1.745   2.878  12.794  0.7006  0.3847  0.5290
 2389SOL    HW118803   1.657   2.904  12.820  0.3027  1.8981 -2.3365
 2389SOL    HW218804   1.798   2.931  12.854 -1.2914  1.1594  1.6346
 2390SOL     OW18805   1.080   0.090   7.569  0.2148 -0.6541  0.3005
 2390SOL    HW118806   1.028   0.125   7.642  0.1412 -0.8662  0.3518
 2390SOL    HW218807   1.024   0.013   7.559  0.2235 -0.6297  0.0799
 2391SOL     OW18808   3.331   2.891   3.181 -0.5090 -0.1361  0.4074
 2391SOL    HW118809   3.265   2.863   3.245  0.2875 -1.2557  0.7258
 2391SOL    HW218810   3.358   2.978   3.210  0.1774  0.1221 -1.0067
 2392SOL     OW18811   0.643   3.069  10.478 -0.3942  0.3475 -0.4624
 2392SOL    HW118812   0.720   3.033  10.520 -0.1311 -0.1287 -1.3440
 2392SOL    HW218813   0.582   3.090  10.548  2.1069 -0.0318  1.8140
 2393SOL     OW18814   1.123   0.590   5.142  0.3115  0.3320 -0.8024
 2393SOL    HW118815   1.150   0.672   5.185 -3.8497  0.9627  0.6748
 2393SOL    HW218816   1.178   0.523   5.183 -1.0616  0.3201  1.0181
 2394SOL     OW18817   0.974   0.773   9.150 -0.7050  0.0292  0.0577
 2394SOL    HW118818   0.887   0.775   9.191 -0.8573 -0.7489 -0.2203
 2394SOL    HW218819   1.027   0.850   9.170 -0.4246 -0.2214  0.2736
 2395SOL     OW18820   1.327   4.361   9.550  0.0579 -0.0234 -0.1055
 2395SOL    HW118821   1.294   4.293   9.609 -0.7303  0.5092  0.0542
 2395SOL    HW218822   1.375   4.407   9.619 -2.5268  0.8359  1.0848
 2396SOL     OW18823   0.399   0.483   5.506 -0.2311 -0.2738  1.0018
 2396SOL    HW118824   0.349   0.459   5.428 -0.0471  0.8088  0.5610
 2396SOL    HW218825   0.490   0.468   5.479 -1.1846  0.1725 -2.4554
 2397SOL     OW18826   0.728   1.907   8.354 -0.2831 -0.0268  0.2180
 2397SOL    HW118827   0.721   1.999   8.380  0.0380 -0.4840  1.9453
 2397SOL    HW218828   0.746   1.918   8.261  1.2623  0.5036  0.5798
 2398SOL     OW18829   0.430   3.026  17.754 -0.4686 -0.1353  0.2604
 2398SOL    HW118830   0.371   3.080  17.702 -1.0883 -1.8131 -0.7796
 2398SOL    HW218831   0.413   3.061   0.086  0.6378  0.3817  0.2603
 2399SOL     OW18832   0.814   2.189   7.544  0.3360 -0.0597  0.0626
 2399SOL    HW118833   0.855   2.124   7.488  1.9523 -0.7884  2.1118
 2399SOL    HW218834   0.757   2.239   7.485 -1.4072  0.1367  1.8825
 2400SOL     OW18835   0.114   2.232   4.623  0.2252  0.3891 -0.1162
 2400SOL    HW118836   0.115   2.137   4.613 -0.2080  0.0632  3.0297
 2400SOL    HW218837   0.127   2.251   4.716  0.4731 -0.3399 -0.0054
 2401SOL     OW18838   2.637   3.655   6.703  0.8597 -0.0928 -0.1095
 2401SOL    HW118839   2.729   3.645   6.725  1.0885  3.1995  0.3386
 2401SOL    HW218840   2.622   3.560   6.696  0.3431  0.0357 -0.8595
 2402SOL     OW18841   4.419   0.626   4.466  0.6038  0.1120 -0.4648
 2402SOL    HW118842   4.337   0.672   4.445  0.5082  0.4652  0.6629
 2402SOL    HW218843   4.457   0.693   4.522  0.1613 -0.0107 -0.0073
 2403SOL     OW18844   3.731   3.982   7.626  0.0750  0.4744  0.2840
 2403SOL    HW118845   3.663   3.915   7.614 -1.0365  1.3034  1.9626
 2403SOL    HW218846   3.770   3.949   7.707 -0.5156 -0.3703  0.2325
 2404SOL     OW18847   0.894   1.680  15.417 -0.7368  0.5238  0.1754
 2404SOL    HW118848   0.804   1.712  15.419 -0.6268  0.8496 -0.0210
 2404SOL    HW218849   0.932   1.735  15.348  0.4850  1.0599  1.2748
 2405SOL     OW18850   0.377   0.484   5.048 -0.1949 -0.5010 -0.5650
 2405SOL    HW118851   0.441   0.414   5.059 -0.0729 -0.4392 -0.8803
 2405SOL    HW218852   0.429   0.551   5.004 -1.3397  1.1910  0.6861
 2406SOL     OW18853   4.158   3.088   0.911 -0.3379  0.0326 -0.1987
 2406SOL    HW118854   4.252   3.085   0.932 -0.2763  2.8849 -0.0131
 2406SOL    HW218855   4.152   3.181   0.888  2.9507  0.2013 -0.4236
 2407SOL     OW18856   4.319   0.451  16.317  0.1824 -0.3889  0.2400
 2407SOL    HW118857   4.267   0.431  16.239 -0.5843 -0.9281  0.8912
 2407SOL    HW218858   4.391   0.494  16.272  0.4984 -1.0143  0.1499
 2408SOL     OW18859   2.595   2.227  11.186  0.4717  0.1197 -0.0471
 2408SOL    HW118860   2.678   2.199  11.147  1.0324  2.5687 -0.6386
 2408SOL    HW218861   2.532   2.170  11.144 -0.5644  1.8965 -0.9038
 2409SOL     OW18862   4.174   4.693   4.391  0.6243  0.1256  0.0753
 2409SOL    HW118863   4.205   4.641   4.465 -0.9526  0.0700  0.6805
 2409SOL    HW218864   4.106   4.640   4.350 -0.4080 -0.0150  1.9643
 2410SOL     OW18865   0.476   0.802   6.987 -0.5152  0.8372  0.4356
 2410SOL    HW118866   0.500   0.806   6.895  4.2630  2.0189  1.7332
 2410SOL    HW218867   0.544   0.853   7.031 -1.4482  1.5270  1.0782
 2411SOL     OW18868   1.431   3.586   4.754 -0.1468  0.1619 -0.7616
 2411SOL    HW118869   1.500   3.554   4.813 -1.0163 -2.1627 -1.0104
 2411SOL    HW218870   1.429   3.523   4.682  0.6331  0.8088 -1.3558
 2412SOL     OW18871   2.013   0.991   8.660  0.4844 -0.5438  0.6541
 2412SOL    HW118872   1.990   1.022   8.748  0.2933  0.9040  0.0923
 2412SOL    HW218873   1.924   0.965   8.634  0.3350 -1.9753  2.6493
 2413SOL     OW18874   3.600   2.662   6.288 -0.5831 -0.4630 -0.7682
 2413SOL    HW118875   3.620   2.677   6.195 -0.6764 -2.5588 -1.1410
 2413SOL    HW218876   3.512   2.625   6.289 -0.4043 -0.8599  0.1885
 2414SOL     OW18877   0.354   0.918   8.098 -0.0194 -0.4194  0.0338
 2414SOL    HW118878   0.323   1.008   8.110  0.5198 -0.0523 -1.3420
 2414SOL    HW218879   0.270   0.881   8.072  0.4055 -1.1173 -0.3297
 2415SOL     OW18880   1.147   1.240  15.722  0.1347 -0.3873  0.3096
 2415SOL    HW118881   1.116   1.232  15.631 -1.2168  0.6451  0.6700
 2415SOL    HW218882   1.241   1.236  15.707  0.6531  1.9489  3.0258
 2416SOL     OW18883   3.624   1.893   2.322 -0.1701  0.2491 -0.3922
 2416SOL    HW118884   3.589   1.889   2.411  2.1272  0.8205  0.5256
 2416SOL    HW218885   3.653   1.802   2.320  1.4826  0.8088 -2.0683
 2417SOL     OW18886   4.180   4.500   5.830 -0.6069 -0.1453  0.1478
 2417SOL    HW118887   4.245   4.571   5.835  1.3304 -2.0606  2.2014
 2417SOL    HW218888   4.231   4.422   5.808  0.1452  0.8622 -1.6981
 2418SOL     OW18889   0.413   3.423   0.095  0.2288  0.0973 -0.0926
 2418SOL    HW118890   0.331   3.403   0.050  0.7296 -0.5457 -0.7137
 2418SOL    HW218891   0.466   3.418   0.015  0.9767  0.1661  0.4005
 2419SOL     OW18892   4.493   2.613   1.277  0.3957  0.2809  0.5339
 2419SOL    HW118893   4.524   2.528   1.248  0.3146  0.8743 -1.2805
 2419SOL    HW218894   4.400   2.596   1.263  0.2476  2.2128 -0.8734
 2420SOL     OW18895   3.538   3.195   8.754  0.1384 -0.1745  0.2698
 2420SOL    HW118896   3.516   3.139   8.827 -1.3914 -0.0364 -0.0772
 2420SOL    HW218897   3.457   3.246   8.754 -0.5971 -1.3439  0.1400
 2421SOL     OW18898   4.656   0.769  16.630 -0.8069  0.1375  0.2304
 2421SOL    HW118899   4.638   0.807  16.544 -3.5402  0.2144  0.8331
 2421SOL    HW218900   4.583   0.707  16.640 -0.5844 -0.2408 -0.4549
 2422SOL     OW18901   1.417   3.116   2.551 -0.0715  0.0505  0.0497
 2422SOL    HW118902   1.478   3.161   2.492  0.7746  1.5029  2.0243
 2422SOL    HW218903   1.456   3.029   2.542 -0.5741 -0.2195  0.5077
 2423SOL     OW18904   1.938   2.576   5.682 -0.5060 -0.2096 -0.7649
 2423SOL    HW118905   1.889   2.502   5.717 -0.6261  0.2721  0.1045
 2423SOL    HW218906   1.892   2.593   5.600  0.9640 -1.1580 -1.7905
 2424SOL     OW18907   0.408   4.492   9.915 -0.3086 -0.0650 -0.6280
 2424SOL    HW118908   0.353   4.466   9.989  1.2570  0.8531  0.8659
 2424SOL    HW218909   0.493   4.479   9.958 -0.7566 -0.4215  0.1570
 2425SOL     OW18910   1.553   2.815   9.660 -0.2710  0.0401  0.1148
 2425SOL    HW118911   1.518   2.732   9.694  0.1855  0.5719  1.9042
 2425SOL    HW218912   1.556   2.808   9.565  2.1483  1.3329  0.0899
 2426SOL     OW18913   1.573   0.660   3.844  0.3770 -0.3534 -0.3709
 2426SOL    HW118914   1.542   0.745   3.813 -1.3429 -0.4293  1.1427
 2426SOL    HW218915   1.640   0.689   3.905 -0.2883  0.8920 -0.2309
 2427SOL     OW18916   3.382   4.383   0.096 -0.2523 -0.1549 -0.2114
 2427SOL    HW118917   3.363   4.456   0.154 -0.9494  0.3385 -1.0674
 2427SOL    HW218918   3.465   4.357   0.137  0.2513 -0.9074 -1.7097
 2428SOL     OW18919   4.493   4.009  11.751  0.2590  0.1315  0.2555
 2428SOL    HW118920   4.525   4.085  11.703  2.9046 -1.4204 -0.4323
 2428SOL    HW218921   4.468   4.051  11.834 -0.3748 -0.3740  0.3198
 2429SOL     OW18922   4.710   4.175   4.022 -0.4428  0.1484  0.0093
 2429SOL    HW118923   4.705   4.121   3.943 -0.3602 -1.0595  0.8241
 2429SOL    HW218924   0.063   4.198   4.012 -0.6277  0.3059 -1.2573
 2430SOL     OW18925   1.858   2.957   6.181  0.2057  0.1490  0.3414
 2430SOL    HW118926   1.923   3.000   6.238 -0.8633  0.4521  1.3311
 2430SOL    HW218927   1.775   2.990   6.214  0.9977  2.1801  0.3279
 2431SOL     OW18928   3.064   2.691  16.606 -0.3220 -0.2373 -0.5404
 2431SOL    HW118929   3.009   2.696  16.528 -1.6647 -0.5130  0.3935
 2431SOL    HW218930   3.112   2.612  16.582  0.4739  0.2605 -0.5739
 2432SOL     OW18931   2.571   0.270  11.436  0.1133 -0.1240 -0.3277
 2432SOL    HW118932   2.609   0.198  11.386  0.5352  0.7027 -1.1958
 2432SOL    HW218933   2.635   0.278  11.507 -0.5994 -0.0507  0.3189
 2433SOL     OW18934   3.410   4.628   6.293  0.5992 -0.0654 -0.2133
 2433SOL    HW118935   3.334   4.676   6.261 -0.6598 -2.4364 -0.8172
 2433SOL    HW218936   3.378   4.600   6.379 -0.1868  0.7634 -0.2379
 2434SOL     OW18937   4.402   3.669   4.518  0.3757  0.0445 -0.6717
 2434SOL    HW118938   4.468   3.682   4.587 -2.2764  0.3595  1.8259
 2434SOL    HW218939   4.381   3.755   4.483 -1.0025  0.4208  1.0783
 2435SOL     OW18940   1.880   4.167   6.264  0.1729  0.1564  0.0600
 2435SOL    HW118941   1.838   4.094   6.218 -1.9853  1.3568  0.1328
 2435SOL    HW218942   1.969   4.163   6.228 -0.0155 -0.8043 -0.2996
 2436SOL     OW18943   0.523   0.429  14.097  0.4646  0.0452  0.1727
 2436SOL    HW118944   0.443   0.376  14.096  0.4711  0.0264  0.4522
 2436SOL    HW218945   0.522   0.469  14.010 -1.7925  0.3495  0.3337
 2437SOL     OW18946   4.079   4.230  13.614 -0.3175 -0.0202 -0.2997
 2437SOL    HW118947   3.993   4.251  13.649  0.0226  2.4029 -0.9215
 2437SOL    HW218948   4.076   4.137  13.594  0.0548 -0.4630  1.6102
 2438SOL     OW18949   0.946   3.922  14.746 -0.0550 -0.0412  0.5006
 2438SOL    HW118950   0.916   4.003  14.703  0.9536  1.4930  2.6815
 2438SOL    HW218951   0.918   3.854  14.685  1.5592 -1.9948  1.9660
 2439SOL     OW18952   2.299   0.906  16.858 -0.7158  0.0427  0.1027
 2439SOL    HW118953   2.283   0.882  16.949  1.5696 -1.4246  0.1126
 2439SOL    HW218954   2.317   1.000  16.861 -1.5270  0.1629  1.1888
 2440SOL     OW18955   1.798   4.723   9.291 -0.5547  0.2070  0.0740
 2440SOL    HW118956   1.757   4.667   9.225 -0.2710 -1.1908  1.0849
 2440SOL    HW218957   1.891   4.701   9.282 -0.7041  0.1855 -1.3841
 2441SOL     OW18958   0.236   3.420   6.687  0.6642  0.2984 -0.2943
 2441SOL    HW118959   0.179   3.345   6.704 -0.2989  1.1246  0.0937
 2441SOL    HW218960   0.195   3.488   6.739  2.3149 -0.6203  2.2668
 2442SOL     OW18961   0.385   3.706  16.571  0.1614  0.2468  0.6046
 2442SOL    HW118962   0.454   3.771  16.580  1.9869 -1.5325 -0.7377
 2442SOL    HW218963   0.395   3.687  16.478  1.7835  0.0600  0.8279
 2443SOL     OW18964   1.456   3.764  10.973 -0.3721  0.5012  0.1906
 2443SOL    HW118965   1.486   3.812  11.050  0.1993 -1.7633  1.3839
 2443SOL    HW218966   1.522   3.768  10.904 -0.3381  2.1213  0.3050
 2444SOL     OW18967   3.437   3.110   2.005  0.0732 -0.0670 -0.6940
 2444SOL    HW118968   3.447   3.056   1.927 -0.1282 -0.9062 -0.1364
 2444SOL    HW218969   3.486   3.048   2.059  1.8373 -0.6213 -2.9804
 2445SOL     OW18970   1.583   4.339   5.608 -0.1024 -0.2577  0.1915
 2445SOL    HW118971   1.627   4.350   5.524 -0.6945  2.0504  0.1927
 2445SOL    HW218972   1.654   4.350   5.671  3.5224 -0.8823 -3.8689
 2446SOL     OW18973   2.813   0.829   7.504 -0.1188 -0.7030  0.2457
 2446SOL    HW118974   2.731   0.874   7.480 -0.1083 -0.5238  0.5349
 2446SOL    HW218975   2.785   0.792   7.588 -0.5010 -0.1199  0.3810
 2447SOL     OW18976   3.165   2.388   2.762  0.3424 -0.1941 -0.2884
 2447SOL    HW118977   3.221   2.355   2.691  2.2725 -1.1976  1.7217
 2447SOL    HW218978   3.155   2.316   2.824  0.4699  0.1189  0.0887
 2448SOL     OW18979   4.598   1.705   8.999 -0.1529  0.1040 -0.0256
 2448SOL    HW118980   4.580   1.775   8.936 -1.4331 -0.1190  0.0941
 2448SOL    HW218981   4.683   1.679   8.963 -1.2586  1.0506 -3.3622
 2449SOL     OW18982   1.419   3.188   7.923 -0.4316  0.2183  0.4199
 2449SOL    HW118983   1.398   3.119   7.987 -0.2279 -0.2302  0.0009
 2449SOL    HW218984   1.455   3.140   7.848 -0.1766  1.4796 -0.2615
 2450SOL     OW18985   3.255   3.342   0.338 -0.2659  0.5685 -0.0598
 2450SOL    HW118986   3.162   3.353   0.316 -1.0498 -0.3224  2.7034
 2450SOL    HW218987   3.298   3.395   0.271 -0.9605  1.9142  0.5530
 2451SOL     OW18988   3.327   4.577   1.721  0.1562 -0.0859  0.3032
 2451SOL    HW118989   3.336   4.482   1.731  1.6058  0.1224  0.8396
 2451SOL    HW218990   3.342   4.580   1.626  0.6504 -0.0507  0.3836
 2452SOL     OW18991   0.287   4.359   0.886  0.1060  0.3000  0.4374
 2452SOL    HW118992   0.303   4.393   0.974  0.3051 -0.7872  0.8135
 2452SOL    HW218993   0.368   4.311   0.869  0.3766  1.1366 -0.6981
 2453SOL     OW18994   1.157   4.542   5.221 -0.2045  0.0301  0.0150
 2453SOL    HW118995   1.113   4.625   5.239  0.2347  0.2104  0.2323
 2453SOL    HW218996   1.183   4.556   5.130 -2.5043 -1.8899 -0.9562
 2454SOL     OW18997   2.787   0.375  15.080  0.6423 -0.4611 -0.2950
 2454SOL    HW118998   2.836   0.441  15.031  0.9089 -0.3420  0.1313
 2454SOL    HW218999   2.860   0.325  15.117 -1.0477 -0.9897  2.3467
 2455SOL     OW19000   2.170   3.466   9.345 -0.0748 -0.1888 -0.0050
 2455SOL    HW119001   2.256   3.470   9.388 -1.3100 -2.5645  2.6340
 2455SOL    HW219002   2.142   3.376   9.358 -2.8571  0.4121 -1.8519
 2456SOL     OW19003   2.949   3.501   0.448  0.1746  0.2086  0.3904
 2456SOL    HW119004   2.968   3.409   0.466  1.8141  0.9425  2.4113
 2456SOL    HW219005   2.853   3.496   0.452  0.0164  1.6489 -1.6830
 2457SOL     OW19006   4.388   4.109   3.402  0.1706  0.3534  0.3710
 2457SOL    HW119007   4.295   4.135   3.401 -0.2070 -1.0270 -1.3900
 2457SOL    HW219008   4.380   4.020   3.437 -1.6953 -0.0100 -0.9555
 2458SOL     OW19009   2.346   3.535   6.034 -0.8322  0.1053  0.0495
 2458SOL    HW119010   2.266   3.500   5.994 -0.9005 -1.7584  1.7942
 2458SOL    HW219011   2.389   3.553   5.951 -2.7859  0.1240 -0.9720
 2459SOL     OW19012   2.692   4.388   1.380  0.8002  0.4200 -0.0543
 2459SOL    HW119013   2.696   4.355   1.290  0.7033 -0.0519  0.1130
 2459SOL    HW219014   2.690   4.483   1.371 -0.4140  0.4309  0.4295
 2460SOL     OW19015   4.603   3.688   3.010 -0.0412 -0.5094 -0.5814
 2460SOL    HW119016   4.583   3.683   3.104 -0.5292  0.0652 -0.6628
 2460SOL    HW219017   4.584   3.600   2.978  0.0169  0.3821 -3.0228
 2461SOL     OW19018   1.969   3.442  13.422 -0.4969 -0.0150  0.6519
 2461SOL    HW119019   1.888   3.479  13.387 -0.1725 -1.2956 -1.4728
 2461SOL    HW219020   1.992   3.380  13.353 -0.7807  0.0994  0.4560
 2462SOL     OW19021   3.067   4.265  10.178  0.1292 -0.1171  0.1087
 2462SOL    HW119022   2.979   4.229  10.171 -0.1471  0.3641  1.1334
 2462SOL    HW219023   3.104   4.245  10.092 -0.0107  0.0514  0.0083
 2463SOL     OW19024   0.654   1.682   6.025  0.3164 -0.4695 -0.4122
 2463SOL    HW119025   0.584   1.662   5.963 -0.5700 -1.7572  0.9883
 2463SOL    HW219026   0.595   1.726   6.087 -0.5648  2.7750 -3.5716
 2464SOL     OW19027   1.656   4.177  17.165  0.5726 -0.2262 -0.3351
 2464SOL    HW119028   1.730   4.117  17.174 -0.3428 -1.4425 -0.7469
 2464SOL    HW219029   1.684   4.249  17.109  0.0568  0.3706  0.1807
 2465SOL     OW19030   2.220   3.598   2.282 -0.3052  0.2664  0.3250
 2465SOL    HW119031   2.161   3.628   2.213  0.7559 -1.0157 -1.1532
 2465SOL    HW219032   2.272   3.527   2.244  0.8329  1.1571  0.2202
 2466SOL     OW19033   2.139   1.143  11.398  0.4452 -0.3952  0.4290
 2466SOL    HW119034   2.186   1.169  11.478 -1.7319  1.4193  1.1294
 2466SOL    HW219035   2.142   1.228  11.356 -0.6501 -0.0576  1.0167
 2467SOL     OW19036   0.803   3.931   9.002  0.7778 -0.8891 -0.1847
 2467SOL    HW119037   0.804   4.005   9.063  0.2890  0.4549 -1.8172
 2467SOL    HW219038   0.824   3.973   8.918 -4.1026 -0.1021 -1.0103
 2468SOL     OW19039   1.764   3.763   4.604  0.0032  0.1602 -0.0054
 2468SOL    HW119040   1.784   3.672   4.627  1.3870  0.0859 -1.5554
 2468SOL    HW219041   1.681   3.791   4.643 -0.1254  0.0500 -0.2035
 2469SOL     OW19042   4.557   1.482   1.973  0.4196 -0.1183  0.1592
 2469SOL    HW119043   4.486   1.460   2.034  0.0183 -0.1456 -0.3165
 2469SOL    HW219044   4.578   1.564   2.017  1.4038  1.0978 -2.5759
 2470SOL     OW19045   1.880   0.304   4.656  0.9044  0.3194 -0.4333
 2470SOL    HW119046   1.893   0.209   4.656 -0.2816  0.1669 -1.7359
 2470SOL    HW219047   1.910   0.325   4.567 -1.8325  1.2443 -1.1137
 2471SOL     OW19048   2.716   3.026   7.288  0.0301  0.1720 -0.1447
 2471SOL    HW119049   2.773   3.101   7.306  0.5954 -0.8259  2.2305
 2471SOL    HW219050   2.749   2.959   7.348  0.8532 -0.3590 -1.1712
 2472SOL     OW19051   3.750   0.377  14.976  0.1852  0.0486 -0.2847
 2472SOL    HW119052   3.672   0.431  14.984  1.0700  0.8986  2.5460
 2472SOL    HW219053   3.779   0.375  15.067 -0.4040 -0.9160 -0.1086
 2473SOL     OW19054   1.078   4.411  17.403  0.2897  0.3994  0.0118
 2473SOL    HW119055   1.124   4.444  17.480 -0.9317  0.6202  0.6440
 2473SOL    HW219056   1.121   4.468  17.340  0.0116  0.3491 -0.2228
 2474SOL     OW19057   1.767   1.590  11.194 -0.4019 -0.3637  0.2352
 2474SOL    HW119058   1.772   1.498  11.219 -1.9300  0.0048  1.8596
 2474SOL    HW219059   1.857   1.614  11.216 -1.1917 -0.5523  3.6830
 2475SOL     OW19060   0.709   4.600  13.382 -0.1067  0.3073 -0.2176
 2475SOL    HW119061   0.804   4.590  13.386 -0.3357 -1.2114  1.2363
 2475SOL    HW219062   0.690   4.602  13.476  1.4288 -1.0140  0.1180
 2476SOL     OW19063   1.789   0.900   8.592  0.0842  0.0329 -0.1423
 2476SOL    HW119064   1.753   0.958   8.525 -1.6031 -0.3874  0.3970
 2476SOL    HW219065   1.783   0.813   8.553 -1.2017 -0.0354  0.2013
 2477SOL     OW19066   4.042   0.089   4.864  0.4698 -0.1225 -0.0702
 2477SOL    HW119067   3.984   0.126   4.798  0.8402 -0.0180 -0.3367
 2477SOL    HW219068   4.040   0.154   4.935  1.4158  1.1174 -1.1774
 2478SOL     OW19069   3.147   2.934   7.727  0.0204 -0.1573  0.1030
 2478SOL    HW119070   3.228   2.960   7.771 -2.4739  2.0920  3.3668
 2478SOL    HW219071   3.080   2.986   7.771  1.3839  0.8880  0.9768
 2479SOL     OW19072   2.912   0.869   3.590 -0.0887 -0.6276  0.0768
 2479SOL    HW119073   2.839   0.817   3.623 -1.0985 -0.7875 -2.3722
 2479SOL    HW219074   2.872   0.913   3.514  0.2044 -1.1376 -0.3723
 2480SOL     OW19075   1.396   1.392   6.081 -0.2662  0.1419 -0.2550
 2480SOL    HW119076   1.473   1.376   6.027 -0.5097  2.0552 -1.1501
 2480SOL    HW219077   1.365   1.477   6.049 -1.5692 -0.5522 -0.8368
 2481SOL     OW19078   1.162   4.490   8.387  0.0185 -0.0734 -0.1874
 2481SOL    HW119079   1.195   4.558   8.327 -0.3129 -0.5590 -0.9173
 2481SOL    HW219080   1.232   4.476   8.451  0.0831  1.5402  0.0979
 2482SOL     OW19081   1.239   0.720   4.265  0.2256  0.5084  0.0660
 2482SOL    HW119082   1.226   0.650   4.202  1.1580 -1.4142  2.0098
 2482SOL    HW219083   1.314   0.761   4.221  0.2050 -0.1227 -0.5480
 2483SOL     OW19084   2.681   0.639   4.674 -0.2431  0.3770  0.1976
 2483SOL    HW119085   2.601   0.658   4.626  1.1329 -0.3157 -2.3973
 2483SOL    HW219086   2.679   0.543   4.665 -1.5796  0.2414  1.9729
 2484SOL     OW19087   2.772   3.108   1.967  0.0009 -0.1689  0.0503
 2484SOL    HW119088   2.681   3.101   1.939 -0.1575  0.1227  0.4907
 2484SOL    HW219089   2.817   3.148   1.893  2.0977  1.6753  2.3458
 2485SOL     OW19090   4.360   2.503   1.593 -0.2105  0.3263 -0.2045
 2485SOL    HW119091   4.277   2.474   1.631 -0.8432  1.7968 -0.4421
 2485SOL    HW219092   4.349   2.596   1.574  0.3926  0.3581 -0.4028
 2486SOL     OW19093   2.105   4.446   9.224  0.2072  0.1602 -0.0001
 2486SOL    HW119094   2.150   4.412   9.302 -2.8189  4.6881  3.7555
 2486SOL    HW219095   2.050   4.371   9.201  0.2696 -0.0454  0.5207
 2487SOL     OW19096   4.377   1.244  10.645 -0.0165 -0.0731  0.2413
 2487SOL    HW119097   4.390   1.239  10.550 -3.9852  1.6845 -0.3810
 2487SOL    HW219098   4.415   1.329  10.665  0.3525  0.3277 -2.1643
 2488SOL     OW19099   0.903   0.443  10.939  0.0460  0.8063 -0.6397
 2488SOL    HW119100   0.987   0.403  10.961  0.5299  0.0942 -3.7820
 2488SOL    HW219101   0.913   0.433  10.845  0.5260 -2.7728 -0.2085
 2489SOL     OW19102   2.935   3.262   8.504  0.1814 -0.0216  0.7617
 2489SOL    HW119103   2.909   3.176   8.471  0.9183  0.6391 -1.5990
 2489SOL    HW219104   3.031   3.259   8.505  0.2332  1.5760  0.9645
 2490SOL     OW19105   0.220   0.134   3.046 -0.1148  0.9438 -0.1204
 2490SOL    HW119106   0.146   0.086   3.082 -0.7071  0.6963 -1.6908
 2490SOL    HW219107   0.174   0.215   3.026  0.5515  0.7992 -2.2652
 2491SOL     OW19108   3.476   1.562   3.795 -0.1401 -0.1015 -0.0533
 2491SOL    HW119109   3.411   1.496   3.819 -1.6595  1.2928 -0.2616
 2491SOL    HW219110   3.457   1.569   3.701  1.1385  2.0580 -0.1515
 2492SOL     OW19111   0.511   4.151  16.380  0.3979 -0.1689 -0.0522
 2492SOL    HW119112   0.468   4.234  16.360  0.8543 -0.5243 -2.4439
 2492SOL    HW219113   0.556   4.126  16.299 -0.8872 -1.3492 -0.3958
 2493SOL     OW19114   1.792   4.411   5.770  0.2345 -0.1138  0.0505
 2493SOL    HW119115   1.823   4.427   5.859  0.6529 -2.1870  0.2653
 2493SOL    HW219116   1.828   4.324   5.753 -0.5454 -0.6478  1.1737
 2494SOL     OW19117   0.268   0.570   3.495 -0.4623 -0.4912  0.5893
 2494SOL    HW119118   0.243   0.549   3.405 -2.3039  0.0607  0.9688
 2494SOL    HW219119   0.287   0.486   3.536  0.1409  0.0671  1.4580
 2495SOL     OW19120   0.173   4.671  16.089  0.1738  0.0372  0.0390
 2495SOL    HW119121   0.180   4.577  16.070 -0.8548  0.2325 -1.2659
 2495SOL    HW219122   0.079   4.682  16.082  0.3761  1.1714 -0.7766
 2496SOL     OW19123   4.583   3.287   5.758 -0.5506  0.0891 -0.6106
 2496SOL    HW119124   4.538   3.207   5.729  0.4068 -1.0250  0.9432
 2496SOL    HW219125   4.508   3.326   5.803  0.1225 -1.9214  2.2529
 2497SOL     OW19126   4.734   4.018   4.994 -0.2046 -0.4694  0.0789
 2497SOL    HW119127   4.736   4.070   4.913  2.0447 -0.8219 -0.0725
 2497SOL    HW219128   0.008   4.084   5.061  0.2363  0.0485 -0.5234
 2498SOL     OW19129   2.782   1.689   4.314 -0.6913 -0.5587  0.7664
 2498SOL    HW119130   2.705   1.638   4.340 -0.5750 -1.0226  0.1964
 2498SOL    HW219131   2.842   1.670   4.387 -0.9333  0.9816  1.3575
 2499SOL     OW19132   1.107   2.550   8.051  0.1728  0.1409 -0.3097
 2499SOL    HW119133   1.075   2.636   8.078  0.1002  0.3026 -0.8964
 2499SOL    HW219134   1.167   2.531   8.122  1.4356 -1.0834 -1.7231
 2500SOL     OW19135   4.107   4.297   6.397  0.4595 -0.1958 -0.0992
 2500SOL    HW119136   4.072   4.259   6.316 -0.0663  0.3444 -0.1284
 2500SOL    HW219137   4.181   4.348   6.362  0.5741  0.1734  0.6956
 2501SOL     OW19138   0.148   1.230   7.529 -0.3667  0.2624 -0.3550
 2501SOL    HW119139   0.158   1.187   7.444  2.8627 -0.5214  0.3838
 2501SOL    HW219140   0.220   1.186   7.575 -3.2190 -3.5970  0.3805
 2502SOL     OW19141   3.741   2.044   1.859 -0.2103  0.5404  0.1838
 2502SOL    HW119142   3.672   2.017   1.920  0.6463 -1.5218  0.2558
 2502SOL    HW219143   3.723   1.992   1.780  2.4798 -0.5769  0.2927
 2503SOL     OW19144   2.556   2.737  13.692  0.4375  0.2940  0.6622
 2503SOL    HW119145   2.533   2.826  13.664 -1.5921 -0.1102  0.9963
 2503SOL    HW219146   2.519   2.689  13.618  0.0628  3.1859 -1.0583
 2504SOL     OW19147   4.093   4.628   5.214 -0.0178  0.8619 -0.6885
 2504SOL    HW119148   4.047   4.686   5.274 -0.6755  1.1811 -1.5090
 2504SOL    HW219149   4.042   4.550   5.238  1.5693 -1.0682 -3.5695
 2505SOL     OW19150   3.112   2.249   4.624 -0.1632 -0.6416  0.4232
 2505SOL    HW119151   3.036   2.192   4.615  0.2146 -1.0909  0.0552
 2505SOL    HW219152   3.167   2.212   4.555 -0.0446 -0.1144  0.2358
 2506SOL     OW19153   0.619   1.330   3.598 -0.3280  0.0774  0.3307
 2506SOL    HW119154   0.684   1.260   3.587  0.1702  0.5063  0.5399
 2506SOL    HW219155   0.539   1.285   3.570 -0.0065 -0.5460  0.3970
 2507SOL     OW19156   0.560   2.928   3.778 -0.3117  0.6416 -0.4196
 2507SOL    HW119157   0.585   3.009   3.732  0.0312  0.5445 -0.4085
 2507SOL    HW219158   0.544   2.877   3.699  0.5701  0.0733 -0.2359
 2508SOL     OW19159   2.870   4.404   3.544  0.0493  0.6477 -0.3669
 2508SOL    HW119160   2.895   4.431   3.456  0.0688  2.5267  0.2232
 2508SOL    HW219161   2.777   4.383   3.529  0.2171  0.0887 -0.6241
 2509SOL     OW19162   0.560   1.300  17.510  0.1733  0.1358  0.4968
 2509SOL    HW119163   0.637   1.332  17.464 -1.7275  1.5494 -1.6963
 2509SOL    HW219164   0.502   1.290  17.434 -0.7595  0.7307  1.1246
 2510SOL     OW19165   3.271   3.354   7.744  0.1294 -0.3147  0.2079
 2510SOL    HW119166   3.306   3.394   7.665 -1.6108 -0.0482 -0.4092
 2510SOL    HW219167   3.333   3.380   7.813 -0.4213  3.7015 -0.8067
 2511SOL     OW19168   1.587   4.074   1.745  0.6717  0.4199 -0.6141
 2511SOL    HW119169   1.629   4.111   1.667  1.7180 -1.6671 -1.0403
 2511SOL    HW219170   1.545   4.001   1.699  0.7703  0.3809 -0.6428
 2512SOL     OW19171   1.956   3.335   1.924 -0.0266  0.0685 -1.2507
 2512SOL    HW119172   1.930   3.423   1.950 -0.6334 -0.7913  1.0467
 2512SOL    HW219173   1.994   3.297   2.004  4.0922  3.6849 -1.5145
 2513SOL     OW19174   0.506   1.570   8.687  0.1237 -0.2663  0.0281
 2513SOL    HW119175   0.423   1.521   8.690  0.9079 -1.5970 -0.0962
 2513SOL    HW219176   0.508   1.586   8.593  2.2155 -0.4220  0.0621
 2514SOL     OW19177   2.619   4.459   4.417  0.3869 -0.0459  0.5688
 2514SOL    HW119178   2.576   4.446   4.332 -2.5516 -1.6598  2.3206
 2514SOL    HW219179   2.679   4.532   4.401  0.8525 -0.5929 -0.1865
 2515SOL     OW19180   2.778   3.852   4.334 -0.7260  0.3148  0.1831
 2515SOL    HW119181   2.834   3.889   4.266 -0.8094  2.2963  1.1832
 2515SOL    HW219182   2.784   3.758   4.320  0.2089  0.2799  0.8380
 2516SOL     OW19183   4.344   2.835   9.172 -0.1527  0.8058 -0.0955
 2516SOL    HW119184   4.299   2.864   9.094 -0.3759  2.5652  0.6844
 2516SOL    HW219185   4.390   2.766   9.123  0.3020 -0.9657  2.7711
 2517SOL     OW19186   1.319   1.642   6.021 -0.5915 -0.1791 -0.7125
 2517SOL    HW119187   1.392   1.704   6.022 -0.1769 -0.6942  0.4636
 2517SOL    HW219188   1.274   1.677   5.944 -1.9625  1.0254  0.6483
 2518SOL     OW19189   2.431   1.399   0.717  0.5684  0.6588  0.0367
 2518SOL    HW119190   2.381   1.345   0.656  1.7046  2.2787 -2.3259
 2518SOL    HW219191   2.372   1.393   0.792 -0.1596 -0.7508 -0.6582
 2519SOL     OW19192   2.432   2.548   4.861 -0.3662  0.3637 -0.2779
 2519SOL    HW119193   2.345   2.538   4.824 -0.7096 -1.0319  0.9176
 2519SOL    HW219194   2.429   2.478   4.926  1.4483  1.2561  0.7931
 2520SOL     OW19195   0.614   2.929  11.481 -0.3168 -0.0945 -0.1050
 2520SOL    HW119196   0.703   2.932  11.447 -0.2488 -2.2790 -0.1566
 2520SOL    HW219197   0.624   2.865  11.551  2.7186 -0.5288 -0.9153
 2521SOL     OW19198   2.063   4.082   9.364  0.1920 -0.2442 -0.2398
 2521SOL    HW119199   2.043   3.988   9.365 -1.9169  0.1955 -0.4563
 2521SOL    HW219200   2.080   4.109   9.454  1.7071  0.1939 -0.6530
 2522SOL     OW19201   1.406   3.719   4.461 -0.0071  0.3397 -0.2459
 2522SOL    HW119202   1.336   3.672   4.507 -1.1072 -0.8976 -3.1217
 2522SOL    HW219203   1.476   3.655   4.452 -0.0183  0.3809 -0.6516
 2523SOL     OW19204   0.743   0.681   2.026 -0.4519 -0.1320  0.0153
 2523SOL    HW119205   0.693   0.666   2.106  0.2316 -4.3293 -0.3207
 2523SOL    HW219206   0.772   0.769   2.049 -0.9578  0.3459 -1.1512
 2524SOL     OW19207   0.557   0.529   7.093  0.2951 -0.5936 -0.6319
 2524SOL    HW119208   0.630   0.504   7.036  1.9130  0.5322  0.9190
 2524SOL    HW219209   0.532   0.604   7.040 -0.5320 -0.5022 -0.1088
 2525SOL     OW19210   0.681   3.126   2.696 -0.4477  0.2028 -0.3097
 2525SOL    HW119211   0.756   3.104   2.641 -0.1569 -1.3831  0.7179
 2525SOL    HW219212   0.663   3.045   2.744  0.5723  1.1725  1.7057
 2526SOL     OW19213   0.857   0.904  10.929 -0.2126  0.2689  0.6253
 2526SOL    HW119214   0.796   0.928  10.860 -1.0758 -0.1228  1.2498
 2526SOL    HW219215   0.891   0.987  10.963 -0.0637  0.6385 -0.4359
 2527SOL     OW19216   0.170   1.443  16.401 -0.5269  0.0244  0.5187
 2527SOL    HW119217   0.159   1.394  16.482  1.0815 -0.1123  0.6516
 2527SOL    HW219218   0.203   1.525  16.438 -1.8392  0.9247 -0.2815
 2528SOL     OW19219   2.393   0.998   6.224  0.5004 -0.8490 -0.5997
 2528SOL    HW119220   2.343   0.959   6.295  0.1461  3.5875  1.5637
 2528SOL    HW219221   2.425   0.918   6.181 -2.9837 -3.1258  1.0759
 2529SOL     OW19222   0.442   2.997   2.213 -0.1959 -0.7356  0.2952
 2529SOL    HW119223   0.441   2.956   2.127  2.0048  1.5956 -0.8166
 2529SOL    HW219224   0.407   3.084   2.196  1.2691  0.1978  2.0786
 2530SOL     OW19225   2.499   0.854   2.315  0.4225  0.7927  0.2594
 2530SOL    HW119226   2.520   0.826   2.225  0.8617  0.1656  0.5531
 2530SOL    HW219227   2.537   0.779   2.362 -1.0201  0.9444  1.6681
 2531SOL     OW19228   1.172   3.525   2.688  0.0063  0.5315  0.0443
 2531SOL    HW119229   1.170   3.429   2.691  0.9350  0.5304  0.6407
 2531SOL    HW219230   1.205   3.549   2.774  0.9258 -0.1140 -0.1232
 2532SOL     OW19231   0.572   3.554   0.271 -0.6169  0.0395 -0.3399
 2532SOL    HW119232   0.618   3.470   0.263  0.3321  0.6909 -1.7807
 2532SOL    HW219233   0.502   3.541   0.207  0.5664 -0.3222 -1.5567
 2533SOL     OW19234   1.184   4.049   8.866 -0.1649 -0.4868 -0.7863
 2533SOL    HW119235   1.204   3.958   8.844  2.8334 -0.1761  0.5539
 2533SOL    HW219236   1.183   4.088   8.778 -0.9902  1.3303  0.0407
 2534SOL     OW19237   4.676   1.922  13.511 -0.0652 -0.2582 -0.4531
 2534SOL    HW119238   4.678   2.017  13.519  0.8903 -0.2727 -0.4838
 2534SOL    HW219239   4.616   1.922  13.437 -0.4956  0.4818 -0.0919
 2535SOL     OW19240   1.615   1.053   8.413  0.2931  0.1165  0.0062
 2535SOL    HW119241   1.611   1.136   8.460  1.9039  0.9025 -1.2630
 2535SOL    HW219242   1.652   1.083   8.330 -1.0249  0.9397 -0.2758
 2536SOL     OW19243   4.327   3.323  14.385 -0.7139 -0.3799  0.0932
 2536SOL    HW119244   4.238   3.332  14.419 -0.4587  0.6511  0.5072
 2536SOL    HW219245   4.375   3.258  14.436  1.0249  1.2305  0.4939
 2537SOL     OW19246   0.698   1.237   9.908 -0.1057  0.2647  0.3732
 2537SOL    HW119247   0.718   1.263   9.998  2.2222 -1.7067  0.4110
 2537SOL    HW219248   0.768   1.178   9.881  1.0368  1.8829 -0.2585
 2538SOL     OW19249   2.160   4.026   8.355  0.0699  0.0179 -0.3244
 2538SOL    HW119250   2.097   3.955   8.360 -0.7593  0.8032  0.3204
 2538SOL    HW219251   2.103   4.099   8.331  2.4509  1.0302 -2.9125
 2539SOL     OW19252   3.833   1.369   5.670  0.0813 -0.1924 -0.3105
 2539SOL    HW119253   3.777   1.443   5.693 -1.0733 -0.6366 -1.6933
 2539SOL    HW219254   3.812   1.339   5.581 -2.5204  0.5509  0.0548
 2540SOL     OW19255   4.405   2.443   2.592  0.4705  0.0003 -0.6595
 2540SOL    HW119256   4.341   2.391   2.544 -1.8586  0.3240  2.0858
 2540SOL    HW219257   4.480   2.427   2.535  0.9527 -0.5890  0.1437
 2541SOL     OW19258   1.713   1.900   5.031  0.3528 -0.0460  0.2238
 2541SOL    HW119259   1.678   1.943   5.109  1.9137  0.9797  0.3452
 2541SOL    HW219260   1.626   1.876   4.998 -0.1887  0.7354  1.0988
 2542SOL     OW19261   2.327   2.042   6.990  0.4089  1.0319  0.4753
 2542SOL    HW119262   2.235   2.064   7.002  0.4940  1.2024  0.8207
 2542SOL    HW219263   2.324   1.952   6.957  0.8738  1.1936 -0.0078
 2543SOL     OW19264   1.788   0.411   8.538 -0.1493  0.3624 -0.1311
 2543SOL    HW119265   1.720   0.419   8.605  1.2756 -0.7080  1.4474
 2543SOL    HW219266   1.763   0.331   8.492 -0.8825  1.0497 -0.9233
 2544SOL     OW19267   1.272   0.558  11.458  0.2343  0.0488 -1.0168
 2544SOL    HW119268   1.332   0.519  11.394 -1.7780 -2.1955 -1.5320
 2544SOL    HW219269   1.281   0.501  11.534 -0.2124  0.0836 -0.9358
 2545SOL     OW19270   3.251   0.163   1.584 -0.2288 -0.6184  0.0421
 2545SOL    HW119271   3.344   0.175   1.567 -0.3731  0.5520  0.1310
 2545SOL    HW219272   3.251   0.145   1.679 -0.9429  2.4109  0.6175
 2546SOL     OW19273   4.401   3.942   5.334  0.1043  0.6400 -0.0383
 2546SOL    HW119274   4.374   3.947   5.426  3.4489 -3.3880  1.1657
 2546SOL    HW219275   4.419   3.849   5.322  0.0429  0.6443 -0.1630
 2547SOL     OW19276   0.536   0.740   8.261  0.5357 -0.4884 -0.1384
 2547SOL    HW119277   0.512   0.669   8.320 -0.0977  1.7345  2.2332
 2547SOL    HW219278   0.476   0.720   8.189 -1.8161  2.9731  0.8394
 2548SOL     OW19279   0.565   0.480   1.081  0.0112  0.2503 -0.4233
 2548SOL    HW119280   0.570   0.561   1.031  0.1100  1.1453  1.0296
 2548SOL    HW219281   0.485   0.485   1.135 -0.0352  0.2514 -0.4928
 2549SOL     OW19282   3.991   2.923   6.633  0.3364  0.2145 -0.3211
 2549SOL    HW119283   4.067   2.959   6.680 -0.9845  2.0331  0.4446
 2549SOL    HW219284   4.013   2.830   6.630 -0.5866  0.0327 -1.4272
 2550SOL     OW19285   3.400   2.884  11.370 -0.1929  0.3118  0.4414
 2550SOL    HW119286   3.369   2.866  11.459  0.9943 -2.4912  0.2985
 2550SOL    HW219287   3.359   2.970  11.358 -0.5006 -0.1036 -1.4592
 2551SOL     OW19288   1.239   1.913   4.020 -0.0969  0.2007  0.3145
 2551SOL    HW119289   1.282   1.963   3.950 -0.1394 -1.8476 -1.1807
 2551SOL    HW219290   1.192   1.989   4.054  2.1776  1.4708  0.6468
 2552SOL     OW19291   1.097   3.025   7.530  0.0933  0.0810 -0.2396
 2552SOL    HW119292   1.117   3.089   7.599  0.9439  1.1123 -1.4182
 2552SOL    HW219293   1.138   2.942   7.552 -0.1469  0.1892  0.5900
 2553SOL     OW19294   0.983   3.704   5.369 -0.2757 -0.4162 -0.0838
 2553SOL    HW119295   0.940   3.770   5.317 -0.9875 -0.9930 -0.2263
 2553SOL    HW219296   0.915   3.648   5.406 -0.7851  0.1416 -0.1943
 2554SOL     OW19297   4.108   3.451   4.849  0.4719 -0.0531 -0.3916
 2554SOL    HW119298   4.133   3.412   4.765 -1.3367  0.7073 -1.2850
 2554SOL    HW219299   4.189   3.477   4.893 -0.1107  0.4046  0.4130
 2555SOL     OW19300   3.960   2.758   0.930 -0.0219  0.0611 -0.3977
 2555SOL    HW119301   3.951   2.816   0.854 -0.8591  0.7270  0.2269
 2555SOL    HW219302   3.872   2.760   0.967  0.5727 -1.3359  1.1050
 2556SOL     OW19303   4.237   2.689  11.363 -0.0375  0.0735  0.3109
 2556SOL    HW119304   4.168   2.669  11.300 -0.2899  0.5783  0.4219
 2556SOL    HW219305   4.244   2.780  11.334  1.1631  0.2212  1.0552
 2557SOL     OW19306   4.236   1.072  12.538 -0.4167 -0.0538  0.0712
 2557SOL    HW119307   4.272   1.120  12.613  2.6622  0.5558 -1.7929
 2557SOL    HW219308   4.143   1.076  12.559 -0.3486  0.1350  0.3354
 2558SOL     OW19309   0.121   4.526   4.900  0.5383 -0.0861 -0.2485
 2558SOL    HW119310   0.059   4.590   4.865 -1.1682 -0.6071  1.8541
 2558SOL    HW219311   0.205   4.557   4.866  0.4789  1.8390  1.4076
 2559SOL     OW19312   3.149   0.547   1.467 -0.6398  0.1412 -0.1637
 2559SOL    HW119313   3.072   0.535   1.413 -0.4392 -0.5281 -0.2993
 2559SOL    HW219314   3.132   0.625   1.521  0.5022  0.0632  0.3201
 2560SOL     OW19315   2.843   2.922   0.528  0.1103  0.4332  0.1626
 2560SOL    HW119316   2.814   2.869   0.602 -0.7344  1.4953  0.5957
 2560SOL    HW219317   2.771   2.983   0.513 -0.4397 -0.2344  0.0900
 2561SOL     OW19318   3.583   0.245   1.444 -0.3787 -0.3075 -0.1162
 2561SOL    HW119319   3.611   0.278   1.359  1.6397  1.7911  1.3595
 2561SOL    HW219320   3.516   0.311   1.459 -0.6808  0.2356 -3.8873
 2562SOL     OW19321   3.419   0.855   7.746 -0.2255  0.1255 -0.2118
 2562SOL    HW119322   3.342   0.912   7.735 -0.5943 -0.2156  0.6540
 2562SOL    HW219323   3.378   0.774   7.776 -2.1306  0.8674 -0.7803
 2563SOL     OW19324   2.116   1.682  12.658  0.2649  0.1444 -0.3173
 2563SOL    HW119325   2.198   1.659  12.613 -1.0261 -2.1544 -1.4911
 2563SOL    HW219326   2.129   1.644  12.745  0.3173 -0.6784 -0.6813
 2564SOL     OW19327   3.381   2.665   8.096 -0.2351 -0.4154  0.6598
 2564SOL    HW119328   3.368   2.722   8.171 -0.0411  1.4210 -0.7059
 2564SOL    HW219329   3.451   2.606   8.124  0.3834  0.0199  0.0402
 2565SOL     OW19330   0.811   1.989  15.499  0.4021 -0.3489 -0.5012
 2565SOL    HW119331   0.733   1.963  15.547  0.8543 -0.6032  0.1031
 2565SOL    HW219332   0.805   2.083  15.519  3.2125 -0.2966  0.1349
 2566SOL     OW19333   1.964   1.315  12.784  0.0185 -0.1074  0.0403
 2566SOL    HW119334   1.955   1.245  12.849  0.8166  1.9458  2.4065
 2566SOL    HW219335   1.897   1.373  12.819  0.6108  0.5250  0.1287
 2567SOL     OW19336   2.661   3.222   7.811 -0.6049 -0.6556  0.1220
 2567SOL    HW119337   2.669   3.128   7.824  0.0117 -0.3874  1.6063
 2567SOL    HW219338   2.635   3.231   7.719  0.7186  2.0022 -0.0190
 2568SOL     OW19339   2.178   0.182   2.692  0.3783 -0.9170 -0.1173
 2568SOL    HW119340   2.220   0.266   2.715 -1.3000 -0.4402  1.1972
 2568SOL    HW219341   2.113   0.182   2.762  0.4061 -1.5906 -0.0911
 2569SOL     OW19342   3.545   3.637   7.795  0.1738 -0.1516 -0.0156
 2569SOL    HW119343   3.540   3.550   7.835 -3.5462 -0.6421 -1.5290
 2569SOL    HW219344   3.469   3.691   7.816  1.8838  1.8498  1.0156
 2570SOL     OW19345   4.079   1.574   7.034  0.6631  0.5644 -0.6408
 2570SOL    HW119346   4.097   1.665   7.008  0.2262  1.1046  0.9396
 2570SOL    HW219347   4.119   1.564   7.120 -0.0294 -1.1410 -0.5206
 2571SOL     OW19348   1.445   3.885   4.230 -0.3968 -0.6703 -1.0606
 2571SOL    HW119349   1.445   3.841   4.315  0.2023 -1.3305 -1.4090
 2571SOL    HW219350   1.354   3.917   4.230  0.0815  0.6982  0.3772
 2572SOL     OW19351   2.864   0.123   3.543 -0.3237  0.3374  0.4705
 2572SOL    HW119352   2.958   0.118   3.560 -0.0359 -1.9281 -2.0013
 2572SOL    HW219353   2.858   0.216   3.522 -1.2441  0.1214 -0.2399
 2573SOL     OW19354   3.633   3.931   5.961  0.2161  0.6458 -0.1281
 2573SOL    HW119355   3.553   3.936   5.910 -1.2964  1.4838  2.3091
 2573SOL    HW219356   3.598   3.937   6.050 -1.5847  0.1433 -0.8022
 2574SOL     OW19357   3.086   0.980   5.819 -0.1246 -0.3133 -0.1558
 2574SOL    HW119358   3.152   0.940   5.763 -1.4006 -0.0489 -1.8598
 2574SOL    HW219359   3.077   1.064   5.775 -0.0498  0.5136  1.4259
 2575SOL     OW19360   1.452   0.945   7.038 -0.2962 -0.3373 -0.2359
 2575SOL    HW119361   1.441   1.004   6.963 -1.9609  0.0678  0.3265
 2575SOL    HW219362   1.522   0.982   7.093 -0.6579 -1.5492  1.0229
 2576SOL     OW19363   3.704   1.511   7.125 -0.1866  0.1062 -0.2085
 2576SOL    HW119364   3.710   1.602   7.155 -0.8420 -0.0018  0.2554
 2576SOL    HW219365   3.781   1.504   7.068 -1.5660 -0.6763 -1.9816
 2577SOL     OW19366   3.540   4.598   5.102  0.4002 -0.3001  0.1779
 2577SOL    HW119367   3.467   4.549   5.140  1.4716 -0.2506  2.2521
 2577SOL    HW219368   3.513   4.609   5.010 -2.7362  0.8033  1.2302
 2578SOL     OW19369   0.404   1.412  17.691  0.7692 -0.3053 -0.6134
 2578SOL    HW119370   0.450   1.362  17.624 -0.1318 -3.0152  0.8113
 2578SOL    HW219371   0.372   1.486  17.640  1.5576  0.3927 -0.0834
 2579SOL     OW19372   3.405   0.563   6.902 -0.0664  0.2162 -0.0251
 2579SOL    HW119373   3.373   0.653   6.892  1.3217  0.6434 -0.6087
 2579SOL    HW219374   3.337   0.514   6.948 -0.6271  0.3148 -0.7471
 2580SOL     OW19375   0.057   1.511   2.869 -0.3100 -0.3324  0.6184
 2580SOL    HW119376   4.728   1.455   2.905 -2.4886  0.6369 -2.0454
 2580SOL    HW219377   0.023   1.599   2.888  0.9250  0.3089 -0.1125
 2581SOL     OW19378   2.317   2.969   9.408 -0.5450  0.2654  0.6257
 2581SOL    HW119379   2.332   2.901   9.474  0.0452  0.5370  0.7683
 2581SOL    HW219380   2.265   2.924   9.342 -0.4042  0.5292  0.3323
 2582SOL     OW19381   3.825   4.607   9.579 -0.0641 -0.3739  0.0928
 2582SOL    HW119382   3.737   4.574   9.560 -0.3613 -0.2743  1.2529
 2582SOL    HW219383   3.819   4.624   9.673 -2.0402 -0.2319 -0.0517
 2583SOL     OW19384   1.783   2.674   2.521  0.1690 -0.3728 -0.1720
 2583SOL    HW119385   1.840   2.625   2.580  1.2264  0.8632 -0.1746
 2583SOL    HW219386   1.801   2.765   2.544 -1.3284 -0.2555  0.5455
 2584SOL     OW19387   1.720   3.754   4.174 -0.8461 -0.5985 -0.1089
 2584SOL    HW119388   1.799   3.740   4.226 -1.3810 -0.0348  0.8346
 2584SOL    HW219389   1.677   3.818   4.229 -0.9419 -0.7801  0.0264
 2585SOL     OW19390   3.763   2.705   8.506  0.0911 -0.9538 -0.5025
 2585SOL    HW119391   3.684   2.757   8.525  1.4299  0.3931  1.4335
 2585SOL    HW219392   3.782   2.666   8.592  0.4800  0.7445  0.1905
 2586SOL     OW19393   3.243   2.302   9.696 -0.2786 -0.3776 -0.5387
 2586SOL    HW119394   3.285   2.343   9.772  0.4308  1.7271 -2.0541
 2586SOL    HW219395   3.296   2.223   9.682 -1.7208 -1.5387  0.6455
 2587SOL     OW19396   3.763   2.278  17.065  0.9458  0.0506 -0.5000
 2587SOL    HW119397   3.794   2.251  17.152  1.8405  2.4937 -0.0621
 2587SOL    HW219398   3.845   2.316  17.033  1.0416  0.4179  0.1907
 2588SOL     OW19399   1.459   1.939   2.039 -0.0014 -0.8069  0.5396
 2588SOL    HW119400   1.464   2.015   2.096  0.9002  0.1126 -0.7667
 2588SOL    HW219401   1.385   1.892   2.078 -1.4401 -0.5754 -1.8791
 2589SOL     OW19402   4.266   3.274   4.348  0.8077  0.1607 -0.3028
 2589SOL    HW119403   4.361   3.268   4.358  0.5918 -1.4415  0.6662
 2589SOL    HW219404   4.249   3.330   4.424 -0.7469  0.7378 -1.0866
 2590SOL     OW19405   1.223   0.201   9.405 -0.0987  0.3246  0.2467
 2590SOL    HW119406   1.237   0.127   9.464  1.5796  1.4126  1.2228
 2590SOL    HW219407   1.314   0.228   9.391 -0.2311  0.4376 -0.4406
 2591SOL     OW19408   4.559   3.672  13.913 -0.2786 -0.2834  0.8024
 2591SOL    HW119409   4.495   3.703  13.976  0.9442 -0.4267  2.1074
 2591SOL    HW219410   4.581   3.584  13.944 -0.4692 -0.4911  0.3544
 2592SOL     OW19411   4.202   1.677   3.191 -0.7943 -0.1537  0.5393
 2592SOL    HW119412   4.296   1.674   3.172 -0.8623  0.0548  0.1674
 2592SOL    HW219413   4.201   1.640   3.279  1.3575  0.2402  0.7433
 2593SOL     OW19414   2.554   3.971   4.420  0.4251 -0.0724 -0.0480
 2593SOL    HW119415   2.624   3.936   4.365  2.9690  2.3637  1.5787
 2593SOL    HW219416   2.591   4.059   4.433 -3.6952  2.0116 -2.3421
 2594SOL     OW19417   2.439   0.654   6.809 -0.2237 -0.3281  0.1651
 2594SOL    HW119418   2.473   0.719   6.748  2.1434 -0.2704  1.5404
 2594SOL    HW219419   2.347   0.671   6.785 -0.0300  1.6749  0.8376
 2595SOL     OW19420   4.521   2.774   4.451 -0.0275  0.3375 -0.3317
 2595SOL    HW119421   4.578   2.739   4.520  1.7638  0.7202 -1.6227
 2595SOL    HW219422   4.548   2.727   4.372 -1.8453 -0.8773 -0.2268
 2596SOL     OW19423   3.866   2.954   7.806 -0.0539 -0.0437 -0.1084
 2596SOL    HW119424   3.844   2.930   7.896 -3.4866 -0.8725 -1.1810
 2596SOL    HW219425   3.955   2.920   7.816 -0.5747 -1.4247 -0.1564
 2597SOL     OW19426   3.996   0.675   4.417  0.2096 -0.0694  0.3068
 2597SOL    HW119427   4.022   0.583   4.422 -0.5704 -0.2892  0.2862
 2597SOL    HW219428   4.003   0.688   4.322 -1.2769 -2.3189 -0.1013
 2598SOL     OW19429   1.391   3.273   3.050 -0.0444  0.0142  0.3451
 2598SOL    HW119430   1.417   3.353   3.096 -2.6353  1.0084  0.0620
 2598SOL    HW219431   1.401   3.206   3.118  0.6851  0.9516  1.1712
 2599SOL     OW19432   1.378   1.843   7.095 -0.0721 -0.1804  0.1386
 2599SOL    HW119433   1.360   1.753   7.067 -1.3489  0.0710  0.1787
 2599SOL    HW219434   1.332   1.842   7.179  0.1032 -1.5974  0.2303
 2600SOL     OW19435   1.971   3.093   5.735  0.0307  0.1427 -0.0349
 2600SOL    HW119436   1.984   2.998   5.738 -2.3353 -0.1513  0.7245
 2600SOL    HW219437   1.971   3.118   5.828  0.9379 -0.6996  0.2025
 2601SOL     OW19438   0.109   2.427   2.973 -0.6934  0.5942  0.1524
 2601SOL    HW119439   0.100   2.333   2.987 -2.2571  0.5693 -1.1033
 2601SOL    HW219440   0.112   2.433   2.878  2.5100 -2.2995  0.0491
 2602SOL     OW19441   3.990   0.603   9.625  0.4317  0.1120  0.7253
 2602SOL    HW119442   4.010   0.518   9.586 -2.5435 -1.2144  2.0424
 2602SOL    HW219443   3.898   0.596   9.653  0.7727  0.2690  1.8685
 2603SOL     OW19444   4.393   2.771   3.452 -0.3385  0.1344 -0.4093
 2603SOL    HW119445   4.484   2.745   3.440 -0.3659 -0.1470 -0.0143
 2603SOL    HW219446   4.369   2.707   3.519 -0.3132  1.3704  0.7669
 2604SOL     OW19447   3.582   2.323   6.597  0.1132 -0.2516 -0.0883
 2604SOL    HW119448   3.533   2.345   6.676  0.4829  1.4533 -0.3341
 2604SOL    HW219449   3.508   2.313   6.536  0.2121  2.4209 -0.6439
 2605SOL     OW19450   1.517   1.288   4.387 -0.3456  0.0456 -0.1467
 2605SOL    HW119451   1.601   1.332   4.379 -0.1090 -0.0095  1.9927
 2605SOL    HW219452   1.532   1.244   4.471  0.7850  0.8113  0.0337
 2606SOL     OW19453   1.536   2.258   2.256 -0.3672  0.0839  0.6411
 2606SOL    HW119454   1.528   2.340   2.306 -3.4401  1.1997 -1.6507
 2606SOL    HW219455   1.539   2.192   2.325  0.6316 -1.2735 -0.7305
 2607SOL     OW19456   3.254   1.360   6.230  0.1069  0.2359  0.7717
 2607SOL    HW119457   3.333   1.320   6.266 -0.2012  1.4735  2.7846
 2607SOL    HW219458   3.255   1.321   6.142 -2.3527 -1.4205  1.4674
 2608SOL     OW19459   2.698   0.088   7.512  0.3761  0.6723  0.3441
 2608SOL    HW119460   2.784   0.057   7.483  0.6795  0.8940  1.0066
 2608SOL    HW219461   2.643   0.010   7.510  0.2822  0.8297 -2.6729
 2609SOL     OW19462   1.026   0.956   6.780 -0.4379  0.2100 -0.3092
 2609SOL    HW119463   0.992   0.972   6.692  0.4047  1.7620 -0.3564
 2609SOL    HW219464   1.115   0.991   6.769 -0.3606  0.4469  1.0807
 2610SOL     OW19465   1.310   0.811  11.350 -0.0147  0.2977  0.4666
 2610SOL    HW119466   1.366   0.795  11.426 -0.8844 -2.6057  0.4878
 2610SOL    HW219467   1.230   0.767  11.379 -1.3961 -0.3429 -4.2445
 2611SOL     OW19468   3.943   3.911   3.853 -0.1525 -0.5770 -0.1364
 2611SOL    HW119469   3.967   3.982   3.913 -1.0656 -0.5031  0.1345
 2611SOL    HW219470   3.978   3.834   3.899 -0.0083 -0.3107  0.1991
 2612SOL     OW19471   3.046   0.094   4.228  0.6203 -0.1157 -0.1377
 2612SOL    HW119472   3.054   0.047   4.145  0.6052  2.3496 -1.5166
 2612SOL    HW219473   2.961   0.134   4.213  1.1605  1.2376  0.4680
 2613SOL     OW19474   0.703   4.083  12.213  0.4376 -0.2573  0.5897
 2613SOL    HW119475   0.610   4.100  12.197  1.2690  3.2286 -0.5305
 2613SOL    HW219476   0.723   4.019  12.145  0.8705 -1.1238  1.5314
 2614SOL     OW19477   1.012   3.588   9.451  0.0046 -1.1169  0.2450
 2614SOL    HW119478   1.028   3.673   9.411 -0.2661 -1.0266  0.3260
 2614SOL    HW219479   1.076   3.533   9.407  0.7953 -1.7448  2.1782
 2615SOL     OW19480   2.750   1.971   0.825  0.0093  0.5563  0.5055
 2615SOL    HW119481   2.697   1.891   0.819  1.4321 -0.3193 -0.4452
 2615SOL    HW219482   2.713   2.015   0.749  1.7125 -0.4355 -0.9071
 2616SOL     OW19483   0.620   2.488   1.972 -0.2934  0.0166 -0.1764
 2616SOL    HW119484   0.659   2.532   1.896 -0.8210 -0.1229 -0.5279
 2616SOL    HW219485   0.529   2.513   1.958 -1.0045 -1.1471  2.4498
 2617SOL     OW19486   2.112   0.644   4.939  0.2162 -0.2665 -0.4743
 2617SOL    HW119487   2.153   0.592   5.009  2.2227  1.0357 -0.7128
 2617SOL    HW219488   2.186   0.673   4.887  0.2128  1.2264  0.3709
 2618SOL     OW19489   4.193   0.441  16.085 -0.4226  0.2468  0.4474
 2618SOL    HW119490   4.097   0.439  16.081 -0.3104  0.4997 -2.4743
 2618SOL    HW219491   4.216   0.504  16.017 -1.6519  1.1244  0.8342
 2619SOL     OW19492   0.480   2.895   1.414 -0.1417 -0.0633 -0.2637
 2619SOL    HW119493   0.449   2.915   1.326 -0.6832 -0.2048 -0.1069
 2619SOL    HW219494   0.454   2.804   1.404  1.1723 -0.4236 -0.2533
 2620SOL     OW19495   0.004   3.424   8.922  0.1232  0.0498  0.4266
 2620SOL    HW119496   0.049   3.350   8.962  0.9236  1.0360  1.3640
 2620SOL    HW219497   0.082   3.477   8.905  0.4082  0.3627  2.8196
 2621SOL     OW19498   4.072   2.416  12.671 -0.0952  0.0139  0.1159
 2621SOL    HW119499   4.032   2.383  12.590 -0.0718 -0.2022  0.1943
 2621SOL    HW219500   4.124   2.485  12.630  0.5560  1.1198  2.7968
 2622SOL     OW19501   0.707   2.119   5.251  1.0346  0.4376 -0.3895
 2622SOL    HW119502   0.703   2.052   5.183  1.8505 -1.0962  1.0661
 2622SOL    HW219503   0.654   2.081   5.321  0.6844 -1.1271 -1.5006
 2623SOL     OW19504   0.135   1.162   6.224  0.2468  0.1722 -0.0298
 2623SOL    HW119505   0.044   1.169   6.254  0.3459  0.4295  0.2077
 2623SOL    HW219506   0.178   1.099   6.282 -1.8339 -1.2004  0.0132
 2624SOL     OW19507   3.000   0.935   7.928 -0.4312 -0.0773 -0.1115
 2624SOL    HW119508   3.061   0.934   8.002  0.8986  1.9618 -1.2141
 2624SOL    HW219509   2.975   0.843   7.935 -0.9177  0.0284 -0.4435
 2625SOL     OW19510   3.738   3.654   1.429 -0.3360  0.5248 -0.4771
 2625SOL    HW119511   3.826   3.682   1.454 -0.1887 -0.4803  0.1247
 2625SOL    HW219512   3.753   3.652   1.334  0.5724  2.1362 -0.3611
 2626SOL     OW19513   2.496   1.534   7.076  0.0183 -0.0843 -0.5805
 2626SOL    HW119514   2.571   1.528   7.134 -1.5188 -1.9525  1.2138
 2626SOL    HW219515   2.452   1.609   7.116 -1.8909 -1.8483  0.5841
 2627SOL     OW19516   3.576   0.021   4.601 -0.3558  0.1720  0.3858
 2627SOL    HW119517   3.541   0.008   4.513 -0.2636  1.2645  0.1826
 2627SOL    HW219518   3.514   0.087   4.632  0.9784  1.4355  0.3892
 2628SOL     OW19519   0.284   1.880   8.518 -0.3866  0.1708 -0.6064
 2628SOL    HW119520   0.318   1.870   8.429 -0.6900  2.3684 -0.9657
 2628SOL    HW219521   0.191   1.862   8.499 -0.7741  0.1737  1.3028
 2629SOL     OW19522   1.187   2.568   8.336  0.1898  0.3163  0.3790
 2629SOL    HW119523   1.247   2.636   8.365 -0.3330  0.8011  0.3328
 2629SOL    HW219524   1.205   2.512   8.412  1.4832  0.3325  0.0736
 2630SOL     OW19525   3.955   3.174   1.061  0.0113 -0.7465 -0.7972
 2630SOL    HW119526   4.032   3.135   1.020  0.0435  0.0022 -1.4571
 2630SOL    HW219527   3.880   3.121   1.032  0.8606 -0.4319 -3.5473
 2631SOL     OW19528   4.712   1.526   7.308  0.2304  0.7663  0.3026
 2631SOL    HW119529   4.661   1.577   7.245 -0.6206  0.6781  0.9337
 2631SOL    HW219530   0.025   1.466   7.254 -1.0064  2.0629 -2.3656
 2632SOL     OW19531   3.889   1.724   4.977 -0.4507  0.0260  0.3997
 2632SOL    HW119532   3.974   1.741   5.019 -1.3813  3.0262  1.0792
 2632SOL    HW219533   3.922   1.715   4.888 -1.4516 -1.4268  0.1868
 2633SOL     OW19534   2.513   0.671  13.822  0.2667  0.1538 -0.2279
 2633SOL    HW119535   2.424   0.703  13.836 -0.3484 -1.4721 -0.5204
 2633SOL    HW219536   2.561   0.754  13.826 -1.5044  1.2416 -1.4388
 2634SOL     OW19537   1.652   3.402  13.718 -0.3528 -0.1010  0.0125
 2634SOL    HW119538   1.606   3.333  13.669  0.1202 -0.3717 -0.0459
 2634SOL    HW219539   1.622   3.376  13.805  0.0029  0.3746  0.2787
 2635SOL     OW19540   4.336   0.828   0.578  0.0612  0.4913  0.0956
 2635SOL    HW119541   4.272   0.758   0.561 -1.3579  2.2947 -1.9790
 2635SOL    HW219542   4.372   0.856   0.494  1.9369  1.3433  1.1762
 2636SOL     OW19543   4.043   4.308   8.552  0.4774  0.0015  0.1492
 2636SOL    HW119544   4.042   4.294   8.457  0.8146  1.3306 -0.0545
 2636SOL    HW219545   4.081   4.225   8.583  0.9966 -0.2605 -1.1866
 2637SOL     OW19546   1.302   0.178   4.371  0.3065  0.1276  0.2089
 2637SOL    HW119547   1.218   0.155   4.412  0.0533 -0.3020 -0.5523
 2637SOL    HW219548   1.362   0.177   4.445 -1.0644 -0.2015  1.3181
 2638SOL     OW19549   2.103   0.983  14.920  0.9788 -0.0328 -0.4248
 2638SOL    HW119550   2.167   1.050  14.896  2.3627 -0.9192  0.8248
 2638SOL    HW219551   2.071   0.957  14.833 -2.4119  2.2651  0.1202
 2639SOL     OW19552   3.976   4.218  16.202 -0.6891  0.2110  0.0960
 2639SOL    HW119553   3.915   4.184  16.267  0.9258  0.2731  1.6594
 2639SOL    HW219554   4.031   4.264  16.266  0.0001 -0.2721 -0.1449
 2640SOL     OW19555   2.631   4.245   1.684  0.1071  0.1172 -0.2326
 2640SOL    HW119556   2.625   4.150   1.671  0.4774  0.1945 -0.9114
 2640SOL    HW219557   2.613   4.282   1.598  1.1173 -1.6254 -1.1961
 2641SOL     OW19558   2.628   0.092  17.420 -0.2037 -0.1656 -0.4828
 2641SOL    HW119559   2.575   0.157  17.374  0.0496 -0.3278 -0.9998
 2641SOL    HW219560   2.703   0.085  17.361 -0.2131  0.0138 -0.5137
 2642SOL     OW19561   2.562   3.351  16.763 -0.2992  0.3837  0.3531
 2642SOL    HW119562   2.497   3.287  16.733 -1.3913  0.7939  1.8490
 2642SOL    HW219563   2.622   3.296  16.813 -0.9483 -1.8468 -1.3239
 2643SOL     OW19564   4.333   0.016   8.768  0.1203  0.2131  0.1677
 2643SOL    HW119565   4.318   4.671   8.727 -0.7181  0.1445  0.6014
 2643SOL    HW219566   4.284   0.005   8.850 -1.6951 -0.4629 -1.0046
 2644SOL     OW19567   1.622   2.205   5.595  0.0867 -0.2706  0.0777
 2644SOL    HW119568   1.677   2.127   5.593  0.1608 -0.2149 -0.1095
 2644SOL    HW219569   1.681   2.281   5.597 -1.8217  1.2222  0.3879
 2645SOL     OW19570   1.968   1.955   1.398 -0.2933  0.2395 -0.2030
 2645SOL    HW119571   2.022   1.924   1.325  0.4840 -0.0668  0.5068
 2645SOL    HW219572   2.026   2.022   1.433 -1.0263  1.1359 -0.6930
 2646SOL     OW19573   2.584   0.296   1.418  0.2452 -0.7243  0.1681
 2646SOL    HW119574   2.509   0.237   1.428 -0.9800  0.2920 -2.8611
 2646SOL    HW219575   2.610   0.290   1.326 -0.2897 -0.3538 -0.0147
 2647SOL     OW19576   0.377   4.443   3.692  0.1861  0.7950 -0.7533
 2647SOL    HW119577   0.360   4.457   3.599 -0.2957 -1.3455 -0.9826
 2647SOL    HW219578   0.314   4.373   3.708  0.1249  0.8783 -0.6367
 2648SOL     OW19579   1.693   1.369   4.945 -0.4313 -0.0517 -0.9060
 2648SOL    HW119580   1.632   1.427   4.900  0.5580  1.1499 -0.6786
 2648SOL    HW219581   1.649   1.345   5.026  0.5358 -3.1107 -1.2753
 2649SOL     OW19582   3.389   0.854   5.418  0.6000  0.0954  0.2822
 2649SOL    HW119583   3.472   0.864   5.372 -1.1036  1.0790 -2.5679
 2649SOL    HW219584   3.364   0.769   5.382  1.6953 -0.3590  0.5905
 2650SOL     OW19585   0.504   1.587   1.971 -0.0004  0.4305  0.4845
 2650SOL    HW119586   0.476   1.564   1.883 -2.1059  0.0456  1.2401
 2650SOL    HW219587   0.454   1.664   1.996 -1.1251 -0.3255  0.5450
 2651SOL     OW19588   4.299   4.355   3.866 -0.2070 -1.2245  0.2710
 2651SOL    HW119589   4.306   4.441   3.824  1.8665 -0.5655  1.9633
 2651SOL    HW219590   4.259   4.305   3.795 -0.1712 -2.0080  0.8005
 2652SOL     OW19591   1.204   0.092   3.557  0.2218  0.2328  0.3829
 2652SOL    HW119592   1.234   0.175   3.518 -2.7342  0.8346 -0.5656
 2652SOL    HW219593   1.261   0.084   3.634 -0.1180  1.0819  0.7209
 2653SOL     OW19594   0.653   0.936   4.547  0.3392 -0.1596 -1.2620
 2653SOL    HW119595   0.559   0.956   4.545  0.5136  0.8921  0.6964
 2653SOL    HW219596   0.688   1.025   4.547  0.4988 -0.2013  2.7801
 2654SOL     OW19597   3.738   1.426   1.093  0.6795 -0.0769  0.3978
 2654SOL    HW119598   3.783   1.507   1.071  0.2161  0.2713  0.7390
 2654SOL    HW219599   3.756   1.382   1.010 -2.2032 -2.2289  0.9088
 2655SOL     OW19600   4.169   3.946   3.397 -0.1841 -0.4327 -0.3325
 2655SOL    HW119601   4.197   3.919   3.485  2.4670  0.0239 -1.0365
 2655SOL    HW219602   4.114   3.873   3.368 -1.5539  0.2054  0.6490
 2656SOL     OW19603   0.980   2.710   9.096  0.2771 -0.2949  0.0025
 2656SOL    HW119604   0.979   2.755   9.180 -0.4309  1.2066 -0.8086
 2656SOL    HW219605   0.999   2.622   9.128  0.3350  0.8236  2.9782
 2657SOL     OW19606   1.287   2.970  17.610  0.2370 -0.1459  0.4075
 2657SOL    HW119607   1.248   2.927  17.534 -0.5991  1.4287 -0.0606
 2657SOL    HW219608   1.377   2.971  17.575  0.3568 -3.4817  0.6735
 2658SOL     OW19609   2.920   2.230   5.917  0.1267 -0.4968  0.0007
 2658SOL    HW119610   2.985   2.193   5.856 -0.6734 -1.3998 -0.2922
 2658SOL    HW219611   2.917   2.166   5.988 -0.5790 -1.2858 -0.7373
 2659SOL     OW19612   3.713   1.870   6.894  0.3304 -0.0670  0.6146
 2659SOL    HW119613   3.647   1.805   6.869 -0.6904  1.0904  0.2842
 2659SOL    HW219614   3.782   1.822   6.940  2.0276  2.9600  1.1896
 2660SOL     OW19615   2.586   4.349  11.040 -0.1312 -0.7251  0.0002
 2660SOL    HW119616   2.620   4.407  11.108 -1.2940  2.2738 -1.9549
 2660SOL    HW219617   2.514   4.400  11.001  1.9175  1.9280 -0.2975
 2661SOL     OW19618   3.929   3.487   5.555 -0.6537 -0.1452  0.6252
 2661SOL    HW119619   3.957   3.442   5.634  1.1915 -0.2285 -0.0782
 2661SOL    HW219620   3.840   3.452   5.544 -0.2770 -1.1598  0.7711
 2662SOL     OW19621   1.343   0.366   5.500 -0.5463 -0.5049  0.0309
 2662SOL    HW119622   1.420   0.421   5.491 -1.4190  0.5516 -0.9602
 2662SOL    HW219623   1.343   0.341   5.593 -2.0900  1.5856  0.5972
 2663SOL     OW19624   0.472   3.550   3.623  0.7123  0.2154  0.0908
 2663SOL    HW119625   0.454   3.623   3.683 -1.3015 -0.1561 -0.0564
 2663SOL    HW219626   0.381   3.531   3.600  1.0455  0.0604 -1.0551
 2664SOL     OW19627   4.469   1.603   3.138 -0.1025 -0.3018  0.0576
 2664SOL    HW119628   4.498   1.518   3.105 -0.3820 -0.9265  1.4402
 2664SOL    HW219629   4.515   1.609   3.221 -0.6811 -0.0824  0.3652
 2665SOL     OW19630   3.121   1.110   2.339  0.0858 -0.9053  0.0661
 2665SOL    HW119631   3.090   1.040   2.282  2.1507 -1.8063  0.0508
 2665SOL    HW219632   3.196   1.133   2.284 -1.0584 -1.8837 -1.8746
 2666SOL     OW19633   3.656   4.210   3.685  0.5374  0.1120  0.4829
 2666SOL    HW119634   3.702   4.271   3.627 -0.2290  0.5537  0.3374
 2666SOL    HW219635   3.679   4.125   3.646 -1.7632 -0.8135  1.1500
 2667SOL     OW19636   1.260   3.950   7.999 -0.0168  0.2391 -0.2351
 2667SOL    HW119637   1.340   3.904   7.974 -0.8813  0.0544 -2.6762
 2667SOL    HW219638   1.206   3.877   8.031 -0.4333  1.3559  1.6273
 2668SOL     OW19639   0.915   0.281   8.779  0.2811 -0.1643 -0.1151
 2668SOL    HW119640   0.983   0.233   8.825 -0.1470 -0.1523  0.5361
 2668SOL    HW219641   0.973   0.329   8.720 -3.2082  1.9704 -1.8153
 2669SOL     OW19642   3.455   1.034   2.758 -0.1360 -0.0951 -0.1606
 2669SOL    HW119643   3.495   1.074   2.835  2.6207 -0.2782 -1.5175
 2669SOL    HW219644   3.398   0.967   2.798 -2.1506  0.8789 -1.3745
 2670SOL     OW19645   3.245   4.589  15.315  0.6502  0.2458  0.6226
 2670SOL    HW119646   3.216   4.592  15.224  0.0131 -1.5578  0.7722
 2670SOL    HW219647   3.287   4.675  15.319  0.4434  0.4814 -2.2909
 2671SOL     OW19648   3.533   1.373   6.317 -0.4364 -0.2815  0.1656
 2671SOL    HW119649   3.530   1.467   6.301 -0.5586 -0.4762 -0.9736
 2671SOL    HW219650   3.577   1.360   6.401  2.0131  0.7259 -0.9663
 2672SOL     OW19651   0.239   1.011  17.268 -0.4574  0.2240  0.0308
 2672SOL    HW119652   0.314   1.069  17.282 -0.8056  0.6420  0.1518
 2672SOL    HW219653   0.160   1.054  17.300 -0.7421 -2.3811  2.8457
 2673SOL     OW19654   3.705   0.670   7.114  0.3123  0.3107 -0.5578
 2673SOL    HW119655   3.613   0.659   7.093 -0.0132  3.0177 -0.6204
 2673SOL    HW219656   3.702   0.664   7.209  0.8648  1.5578 -0.4521
 2674SOL     OW19657   0.945   2.305   6.214 -0.2956  0.0207  0.1926
 2674SOL    HW119658   1.039   2.320   6.223 -0.4689  0.5174  1.1269
 2674SOL    HW219659   0.947   2.209   6.214 -1.4748 -0.0127  0.2696
 2675SOL     OW19660   0.319   1.437   6.951  0.1646 -0.1260  0.2443
 2675SOL    HW119661   0.286   1.469   6.867 -0.3459  2.2886  1.3753
 2675SOL    HW219662   0.407   1.473   6.961  0.3827 -1.3797  2.7435
 2676SOL     OW19663   0.720   4.070  15.641  0.0677  0.3596 -0.2399
 2676SOL    HW119664   0.693   4.025  15.560 -1.5651 -1.1013  1.1249
 2676SOL    HW219665   0.657   4.026  15.697 -1.0807  3.1780  0.6802
 2677SOL     OW19666   1.759   4.251   8.165  0.1207 -0.2466  0.2617
 2677SOL    HW119667   1.805   4.282   8.087  0.0401 -0.4967  0.1163
 2677SOL    HW219668   1.706   4.327   8.190  1.7880  0.5231  1.4819
 2678SOL     OW19669   1.962   4.587   2.163  0.5951 -0.7169  0.4579
 2678SOL    HW119670   1.881   4.540   2.142  0.0660  1.1454 -1.6529
 2678SOL    HW219671   2.010   4.578   2.081  1.2579  0.9129  0.6580
 2679SOL     OW19672   2.235   2.295  10.270  0.1633 -0.3305 -0.2101
 2679SOL    HW119673   2.279   2.251  10.343  1.2323  1.4051  0.1855
 2679SOL    HW219674   2.246   2.388  10.289  0.9578 -0.4340 -0.1444
 2680SOL     OW19675   1.480   4.732   6.856 -0.6510  0.5534 -0.3587
 2680SOL    HW119676   1.529   4.651   6.871 -1.3843  0.2912  0.6523
 2680SOL    HW219677   1.547   0.061   6.849  1.9923 -1.9740  0.1745
 2681SOL     OW19678   3.236   2.037  13.056  0.3094  0.6364  0.1928
 2681SOL    HW119679   3.271   2.125  13.041 -0.2145  0.6852 -0.7499
 2681SOL    HW219680   3.185   2.045  13.136  1.4272  2.7914  0.6847
 2682SOL     OW19681   2.299   1.092   2.819 -0.1951  0.6415 -0.0946
 2682SOL    HW119682   2.257   1.062   2.738 -0.7236  0.0756  0.3817
 2682SOL    HW219683   2.386   1.110   2.784  1.0478 -2.1787  1.5431
 2683SOL     OW19684   1.687   3.855  13.401  0.2429  0.4470  0.4494
 2683SOL    HW119685   1.656   3.925  13.344 -0.0633 -0.0065  0.0585
 2683SOL    HW219686   1.637   3.861  13.483  1.5193 -1.3933  1.3521
 2684SOL     OW19687   3.947   3.166   8.278  0.1609 -0.0672  0.7222
 2684SOL    HW119688   3.988   3.236   8.328 -0.2143  0.0987  0.7972
 2684SOL    HW219689   3.883   3.212   8.223  0.5310 -0.2839  0.1152
 2685SOL     OW19690   4.171   4.262  15.415 -0.2706  0.4381 -0.4117
 2685SOL    HW119691   4.202   4.346  15.449  0.5738  0.1152 -0.3879
 2685SOL    HW219692   4.156   4.224  15.502  0.8738 -2.2095 -1.3892
 2686SOL     OW19693   2.267   0.865  11.645  0.0165 -0.2408  0.4207
 2686SOL    HW119694   2.232   0.877  11.733  1.1096  1.4670  0.6324
 2686SOL    HW219695   2.360   0.880  11.663 -0.1872  1.4948  0.0364
 2687SOL     OW19696   2.980   1.367   7.258  0.2069 -0.2431  0.5309
 2687SOL    HW119697   2.990   1.462   7.267 -0.3252 -0.1777  0.4620
 2687SOL    HW219698   2.927   1.360   7.179  0.1928  2.3074  0.2983
 2688SOL     OW19699   3.189   1.057  11.831  0.3707 -0.0181 -0.4781
 2688SOL    HW119700   3.136   0.979  11.815 -2.0539  1.8059 -1.3171
 2688SOL    HW219701   3.166   1.081  11.920 -1.3296 -0.7345 -0.7300
 2689SOL     OW19702   0.925   1.635   1.998 -0.7806 -0.4672  0.3173
 2689SOL    HW119703   0.931   1.724   2.034 -0.9986 -0.0047 -0.7879
 2689SOL    HW219704   0.887   1.585   2.070  0.3110 -0.4547  0.8990
 2690SOL     OW19705   4.184   1.368   4.719 -0.5979 -0.5289  0.1170
 2690SOL    HW119706   4.275   1.352   4.694  0.4803  2.0973  2.4546
 2690SOL    HW219707   4.199   1.439   4.782 -0.1583 -0.3293 -0.2075
 2691SOL     OW19708   0.791   2.050   2.825 -0.6366 -0.4432 -0.6316
 2691SOL    HW119709   0.882   2.046   2.855  0.1068  1.3755 -2.6659
 2691SOL    HW219710   0.805   2.107   2.750  2.0967 -1.6272 -1.0202
 2692SOL     OW19711   3.727   3.602   9.258 -0.2767  0.1619 -0.0236
 2692SOL    HW119712   3.772   3.576   9.177  0.2534 -2.2626  1.0553
 2692SOL    HW219713   3.693   3.687   9.231  1.7970  0.6205 -1.1910
 2693SOL     OW19714   0.110   4.306  12.737  0.0122 -0.2202  0.3269
 2693SOL    HW119715   0.093   4.271  12.650 -1.0647 -0.8185  0.7740
 2693SOL    HW219716   0.190   4.271  12.776 -1.3297 -2.5370  1.0418
 2694SOL     OW19717   4.284   4.263   9.154  0.3441 -0.0329  0.6729
 2694SOL    HW119718   4.279   4.200   9.083 -2.8555  2.4465 -1.2966
 2694SOL    HW219719   4.364   4.303   9.122 -1.0542  1.6927 -0.6404
 2695SOL     OW19720   3.058   3.189   9.694 -0.2423 -0.1478  0.2136
 2695SOL    HW119721   3.120   3.233   9.752 -1.6606 -1.7330  2.9734
 2695SOL    HW219722   3.104   3.109   9.668 -0.0847 -0.1143  0.3883
 2696SOL     OW19723   1.491   2.751   2.368  0.3838 -0.2345 -0.2182
 2696SOL    HW119724   1.555   2.822   2.361  0.8836 -0.5728  0.8787
 2696SOL    HW219725   1.541   2.672   2.347  0.1178  0.3164 -2.9365
 2697SOL     OW19726   2.787   2.835  10.294  0.2214 -0.2374 -0.1643
 2697SOL    HW119727   2.817   2.799  10.378 -0.5027  0.6131  0.4753
 2697SOL    HW219728   2.806   2.762  10.237 -1.3159 -0.5998 -0.2231
 2698SOL     OW19729   2.527   1.323  13.319 -0.1992  0.0285  0.0111
 2698SOL    HW119730   2.496   1.244  13.275  1.3051 -1.4263  1.5910
 2698SOL    HW219731   2.547   1.281  13.402  1.6854  2.6865  0.9022
 2699SOL     OW19732   0.743   4.369   2.199  0.2229  0.2501  0.0003
 2699SOL    HW119733   0.758   4.288   2.247  0.2921  1.0098  1.2605
 2699SOL    HW219734   0.711   4.328   2.119 -0.2824  3.3421 -1.3650
 2700SOL     OW19735   4.115   1.615   6.676 -0.1564 -0.2439  0.1523
 2700SOL    HW119736   4.160   1.600   6.593 -1.9841  0.9431 -1.0397
 2700SOL    HW219737   4.083   1.527   6.695 -2.8956  0.5933 -0.5471
 2701SOL     OW19738   2.173   2.879   8.831 -0.1579 -0.1512  0.1225
 2701SOL    HW119739   2.256   2.869   8.878  0.2743  0.1227 -0.5757
 2701SOL    HW219740   2.193   2.956   8.778  0.3962 -1.8696 -2.1913
 2702SOL     OW19741   0.149   3.309  13.039  0.0290  0.2327 -0.6104
 2702SOL    HW119742   0.240   3.320  13.065 -0.8830 -0.1778  2.7878
 2702SOL    HW219743   0.106   3.276  13.118  3.1029  0.5426  1.1699
 2703SOL     OW19744   1.460   4.438   6.677 -0.0425 -0.0081  0.1703
 2703SOL    HW119745   1.514   4.461   6.752  0.9113  1.2980 -0.9267
 2703SOL    HW219746   1.370   4.450   6.709 -0.3089 -1.4473 -0.0370
 2704SOL     OW19747   0.773   4.591   6.466  0.2454  0.3604 -0.1314
 2704SOL    HW119748   0.682   4.568   6.483  0.1318  1.3687  0.6110
 2704SOL    HW219749   0.830   4.528   6.511  1.7030  1.6959 -0.1032
 2705SOL     OW19750   1.531   1.256  10.862  0.2216  0.2343  0.1728
 2705SOL    HW119751   1.476   1.205  10.922 -0.8119  1.1779  0.0199
 2705SOL    HW219752   1.534   1.333  10.918  0.4383 -1.1768  2.1181
 2706SOL     OW19753   2.014   4.706   3.441  0.3281 -0.0732 -0.5403
 2706SOL    HW119754   1.997   4.730   3.349 -1.5809 -2.0605 -0.7073
 2706SOL    HW219755   1.943   0.016   3.482 -0.1851 -1.9836  0.9044
 2707SOL     OW19756   3.162   1.009   5.233 -0.1050 -0.0897  0.1318
 2707SOL    HW119757   3.235   0.948   5.223  0.6050  0.2740  3.2808
 2707SOL    HW219758   3.210   1.092   5.242 -0.5272  0.3322 -1.4814
 2708SOL     OW19759   0.210   4.672   3.713  0.0121 -0.0411  0.5047
 2708SOL    HW119760   0.237   4.733   3.644 -2.7024 -0.7307 -1.1763
 2708SOL    HW219761   0.292   4.623   3.704  1.7948  3.1300 -0.8180
 2709SOL     OW19762   2.638   0.427  13.628  0.3791  0.0956 -0.3804
 2709SOL    HW119763   2.576   0.364  13.592  1.8117 -1.5193 -0.0710
 2709SOL    HW219764   2.713   0.374  13.656 -0.8709 -2.1036 -1.2192
 2710SOL     OW19765   4.183   1.308   6.716 -0.4178 -0.0238  0.0910
 2710SOL    HW119766   4.117   1.247   6.684  0.2702 -0.2292 -0.9322
 2710SOL    HW219767   4.142   1.322   6.802 -1.0411 -2.9039  0.2481
 2711SOL     OW19768   4.080   0.109   5.989  0.1694  0.4266  0.0858
 2711SOL    HW119769   4.002   0.099   5.935 -0.6867 -1.4166  1.6438
 2711SOL    HW219770   4.041   0.102   6.076 -0.6853 -2.3558 -0.5111
 2712SOL     OW19771   0.296   0.770   7.516  0.2908 -0.2094 -0.7624
 2712SOL    HW119772   0.261   0.699   7.462 -1.5520  0.8782 -0.9863
 2712SOL    HW219773   0.356   0.808   7.452  2.4499  1.0532  1.9921
 2713SOL     OW19774   1.327   3.469   2.340  0.6679 -0.2696 -0.5421
 2713SOL    HW119775   1.296   3.381   2.320  1.8774 -1.0362  0.9581
 2713SOL    HW219776   1.256   3.527   2.312  0.3084 -0.5571 -0.2236
 2714SOL     OW19777   1.536   2.150   8.486  0.2941 -0.0298  0.8307
 2714SOL    HW119778   1.588   2.076   8.454  0.0994 -0.0163  0.4811
 2714SOL    HW219779   1.489   2.112   8.561  2.0262 -0.5124  1.6665
 2715SOL     OW19780   2.733   0.925   8.932  0.4684 -0.1367  0.0652
 2715SOL    HW119781   2.685   0.934   9.014 -0.2449  2.4450 -0.6364
 2715SOL    HW219782   2.778   0.843   8.952 -2.8808 -1.8737  0.3584
 2716SOL     OW19783   4.232   3.212   5.203 -0.4581  0.3079  0.1473
 2716SOL    HW119784   4.306   3.153   5.191  0.4762  1.5804 -0.2444
 2716SOL    HW219785   4.265   3.298   5.226 -0.2978  0.0764  0.7824
 2717SOL     OW19786   1.455   0.410   6.493  0.0079 -0.0116  0.0578
 2717SOL    HW119787   1.399   0.401   6.416  0.6902 -1.6079 -0.2704
 2717SOL    HW219788   1.438   0.329   6.542 -2.7957  0.4793 -0.0987
 2718SOL     OW19789   2.939   2.476   4.852  0.1526  0.1071 -0.4446
 2718SOL    HW119790   3.029   2.459   4.823  0.3296  1.4746 -0.7002
 2718SOL    HW219791   2.944   2.424   4.932 -0.5586 -0.3467 -0.6947
 2719SOL     OW19792   1.309   1.881   5.502  0.0880  1.0557 -0.1310
 2719SOL    HW119793   1.404   1.890   5.514  0.3502  0.5418 -1.7492
 2719SOL    HW219794   1.312   1.793   5.462 -0.5873  1.4079 -0.9737
 2720SOL     OW19795   3.741   1.020   5.403  1.1467 -0.0321  0.2657
 2720SOL    HW119796   3.693   0.966   5.340  0.2986  1.4491 -0.3786
 2720SOL    HW219797   3.710   1.106   5.374  0.7548 -0.2823 -0.0683
 2721SOL     OW19798   2.001   1.339   4.399 -0.1666  0.2146 -0.5964
 2721SOL    HW119799   2.008   1.433   4.418  0.3389 -0.1628  1.1200
 2721SOL    HW219800   1.908   1.356   4.385 -0.4752 -0.1210  0.9832
 2722SOL     OW19801   4.147   2.205  10.764 -0.1958  0.2304  0.1725
 2722SOL    HW119802   4.153   2.249  10.849 -0.7123  2.8008 -1.1446
 2722SOL    HW219803   4.224   2.148  10.757 -1.6173 -1.2929 -3.1072
 2723SOL     OW19804   1.851   1.438  15.331 -0.0066 -0.3018 -0.0322
 2723SOL    HW119805   1.931   1.411  15.285 -0.9802 -1.5159 -1.0149
 2723SOL    HW219806   1.793   1.475  15.264 -0.6205  0.5437  0.9711
 2724SOL     OW19807   1.014   4.368   4.904  0.3033 -0.8529 -0.0424
 2724SOL    HW119808   1.101   4.342   4.934  1.1804  0.5735 -1.3170
 2724SOL    HW219809   1.023   4.333   4.815  1.3840 -2.0004  0.5185
 2725SOL     OW19810   4.613   3.200   9.170  0.1536 -0.1666 -1.0621
 2725SOL    HW119811   4.704   3.226   9.179 -0.0668  0.4675 -0.6776
 2725SOL    HW219812   4.564   3.275   9.136 -1.0816 -0.5367 -0.0937
 2726SOL     OW19813   2.863   2.628   9.580  0.2681  0.3106 -0.1227
 2726SOL    HW119814   2.870   2.722   9.565  0.4273  0.5595  1.5097
 2726SOL    HW219815   2.946   2.618   9.627  0.1970 -1.2715 -0.3356
 2727SOL     OW19816   1.825   4.705   6.513 -0.9208 -0.2847 -0.5956
 2727SOL    HW119817   1.866   4.687   6.598  1.5167 -0.7535 -1.8657
 2727SOL    HW219818   1.784   4.621   6.494  1.6807 -1.8984  0.8443
 2728SOL     OW19819   1.931   3.596   8.806  0.2698  0.1533  0.0398
 2728SOL    HW119820   1.966   3.682   8.826  1.5763 -0.9181  2.3926
 2728SOL    HW219821   1.867   3.597   8.877  1.9285  0.2399  1.5294
 2729SOL     OW19822   3.381   0.214   5.418  0.0579  0.0393 -0.2302
 2729SOL    HW119823   3.440   0.202   5.343 -1.8105  2.3405 -2.0549
 2729SOL    HW219824   3.443   0.193   5.488  0.2306  1.6732  0.0985
 2730SOL     OW19825   1.859   1.340   8.932 -0.2529 -0.5633  0.4362
 2730SOL    HW119826   1.934   1.366   8.986 -0.7965 -1.2871  1.5298
 2730SOL    HW219827   1.806   1.417   8.912 -0.3274 -0.9659 -0.9453
 2731SOL     OW19828   3.976   2.110   5.867  0.0009  0.9602 -0.6411
 2731SOL    HW119829   3.978   2.190   5.816 -2.9702 -0.1507 -2.4749
 2731SOL    HW219830   3.984   2.043   5.799 -0.5119 -0.2592  0.4856
 2732SOL     OW19831   0.457   1.226   4.820  0.0866 -0.1217  0.4191
 2732SOL    HW119832   0.511   1.238   4.743 -1.9850  0.6384 -0.9186
 2732SOL    HW219833   0.379   1.185   4.783 -0.4677  0.3744  1.0343
 2733SOL     OW19834   3.320   3.712   1.908  0.4259  0.1972 -0.1520
 2733SOL    HW119835   3.377   3.788   1.900 -0.7670  0.9752 -1.1781
 2733SOL    HW219836   3.349   3.681   1.994  0.9317 -0.0010 -0.3919
 2734SOL     OW19837   1.436   2.153  12.750 -0.2693 -0.1401  0.7178
 2734SOL    HW119838   1.347   2.187  12.737 -0.3267  0.1102  1.7130
 2734SOL    HW219839   1.484   2.232  12.773 -0.0054  0.8776 -3.4820
 2735SOL     OW19840   1.143   0.133   6.506 -0.0841  0.2465  0.3401
 2735SOL    HW119841   1.178   0.167   6.424  1.5453  2.1271  1.8325
 2735SOL    HW219842   1.085   0.060   6.484 -0.0063  0.2094  0.2554
 2736SOL     OW19843   4.477   1.564   3.518 -0.1260 -0.0892  0.7521
 2736SOL    HW119844   4.384   1.585   3.513 -0.1418  0.2837  2.5332
 2736SOL    HW219845   4.512   1.648   3.549  0.1842  0.6855 -1.7155
 2737SOL     OW19846   2.447   2.934   8.101  0.5460 -0.1814 -0.6098
 2737SOL    HW119847   2.416   2.894   8.019 -1.5199  0.1599  0.0147
 2737SOL    HW219848   2.368   2.984   8.123  1.0021 -0.8853  2.5716
 2738SOL     OW19849   0.800   2.446   7.640  0.0501  0.8194 -0.0643
 2738SOL    HW119850   0.793   2.351   7.626  0.1953  0.4199  2.6119
 2738SOL    HW219851   0.857   2.454   7.716  1.2631 -0.3147 -0.8446
 2739SOL     OW19852   2.711   1.525  16.497  0.3858  0.4284 -0.0840
 2739SOL    HW119853   2.790   1.481  16.526 -0.2319 -1.4222 -1.1900
 2739SOL    HW219854   2.704   1.593  16.563 -1.7278  0.8204 -0.6879
 2740SOL     OW19855   0.935   3.345   5.272  0.1490  0.5466  0.6184
 2740SOL    HW119856   0.840   3.341   5.288  0.7016 -0.3950  3.6847
 2740SOL    HW219857   0.930   3.428   5.225 -1.7987  1.0829  1.7635
 2741SOL     OW19858   3.316   3.140   9.427 -0.6053  0.4662  0.2641
 2741SOL    HW119859   3.352   3.086   9.498 -0.9556 -2.0118 -1.4184
 2741SOL    HW219860   3.367   3.221   9.425 -0.6968  0.5394  0.9935
 2742SOL     OW19861   1.273   2.416  16.571 -0.1508  0.4660  0.2572
 2742SOL    HW119862   1.301   2.343  16.515  0.7466  0.2308  1.0086
 2742SOL    HW219863   1.347   2.476  16.564  0.7599 -1.0735 -3.3634
 2743SOL     OW19864   4.338   2.480  10.297  0.0453 -0.2716 -0.0598
 2743SOL    HW119865   4.404   2.537  10.337  0.6054  1.0790 -2.8826
 2743SOL    HW219866   4.321   2.401  10.350 -1.1711  0.3568  0.4840
 2744SOL     OW19867   3.142   0.081   0.589 -0.1087  0.4431 -0.0595
 2744SOL    HW119868   3.101   0.116   0.668  1.5120  1.6644  0.2332
 2744SOL    HW219869   3.211   0.028   0.629 -1.8943 -0.2467  2.0918
 2745SOL     OW19870   4.578   0.575   1.175  0.1700  0.2070  0.1578
 2745SOL    HW119871   4.571   0.605   1.085  0.1469  4.6601  1.6356
 2745SOL    HW219872   4.486   0.564   1.199  0.1654 -1.8463 -0.7671
 2746SOL     OW19873   2.790   4.291   0.308  0.1488  0.4973  0.3289
 2746SOL    HW119874   2.729   4.290   0.235  1.4176  1.2196 -0.7436
 2746SOL    HW219875   2.832   4.374   0.284  1.5395 -0.8724 -1.8790
 2747SOL     OW19876   1.062   2.494   4.178  0.1690 -0.7691  0.1824
 2747SOL    HW119877   1.092   2.454   4.260 -0.9259 -1.0511  0.4479
 2747SOL    HW219878   1.108   2.577   4.168  0.4619 -0.8333  0.9864
 2748SOL     OW19879   3.755   2.722   2.108 -0.2878 -0.3279 -0.5847
 2748SOL    HW119880   3.733   2.645   2.161  3.3442 -1.4046 -0.6661
 2748SOL    HW219881   3.790   2.670   2.036 -1.5089  0.5093 -1.7783
 2749SOL     OW19882   1.304   0.786   9.141 -0.2914  0.1181  0.3206
 2749SOL    HW119883   1.279   0.761   9.052 -1.2561  1.0366  0.3333
 2749SOL    HW219884   1.395   0.814   9.128 -0.7703  0.8328 -1.5081
 2750SOL     OW19885   2.198   1.350   6.295  0.0833  0.6278  0.2908
 2750SOL    HW119886   2.208   1.442   6.319  0.5409  0.5078  0.5565
 2750SOL    HW219887   2.104   1.341   6.311  0.0526 -0.3866 -0.3817
 2751SOL     OW19888   0.651   2.025   7.938  0.1774  0.4418  0.2826
 2751SOL    HW119889   0.620   2.084   8.006 -0.7366  2.3848 -1.7964
 2751SOL    HW219890   0.598   2.069   7.871  0.5561  1.7376  0.8303
 2752SOL     OW19891   3.198   3.077   0.655  0.2538 -0.2583 -0.1735
 2752SOL    HW119892   3.282   3.033   0.670 -0.1250 -1.5176 -1.6849
 2752SOL    HW219893   3.223   3.169   0.658 -2.8832  0.6182 -1.4743
 2753SOL     OW19894   1.787   1.921   2.326 -0.0001 -0.5413  0.0970
 2753SOL    HW119895   1.726   1.994   2.330  1.0060  0.2484  1.0288
 2753SOL    HW219896   1.730   1.844   2.330 -1.1407  0.1601 -2.3266
 2754SOL     OW19897   4.425   2.123  17.411 -0.0946  0.4260  0.2633
 2754SOL    HW119898   4.396   2.214  17.413 -0.0098  0.4263  1.1963
 2754SOL    HW219899   4.395   2.098  17.324  2.1260 -1.3605 -0.0133
 2755SOL     OW19900   2.938   3.168   4.158 -0.3380  0.4387 -0.5913
 2755SOL    HW119901   2.912   3.122   4.078 -1.5372 -2.5827  1.5316
 2755SOL    HW219902   2.939   3.099   4.224 -0.7085  1.4480  0.4652
 2756SOL     OW19903   3.451   2.753  16.266  0.4834 -0.2024  0.3571
 2756SOL    HW119904   3.440   2.761  16.361 -0.8905 -0.3930  0.2241
 2756SOL    HW219905   3.360   2.751  16.235  0.3035  1.2860  0.7970
 2757SOL     OW19906   3.727   3.184   6.121 -0.6324 -0.2115  1.0707
 2757SOL    HW119907   3.673   3.235   6.060 -0.5752 -1.7294 -0.2775
 2757SOL    HW219908   3.720   3.100   6.074 -3.3243  0.1241  0.8665
 2758SOL     OW19909   1.194   1.627   2.154 -0.1082  0.2627  0.0078
 2758SOL    HW119910   1.166   1.558   2.213 -0.5821 -0.8975 -1.5889
 2758SOL    HW219911   1.266   1.584   2.108 -0.8556 -0.9742  0.0083
 2759SOL     OW19912   2.009   1.314   4.021 -0.3920  0.5100 -0.4760
 2759SOL    HW119913   2.095   1.352   4.001  0.3105 -0.3020  1.0406
 2759SOL    HW219914   1.964   1.371   3.958  0.5408 -2.0578 -3.5153
 2760SOL     OW19915   2.379   1.134   3.757 -0.4451 -0.1551 -0.6223
 2760SOL    HW119916   2.339   1.215   3.727  1.2088  1.2818  1.0740
 2760SOL    HW219917   2.445   1.169   3.817  0.4479  0.2323 -1.8416
 2761SOL     OW19918   1.385   0.924  14.836 -0.3164  0.2267 -0.2974
 2761SOL    HW119919   1.393   0.831  14.815  0.8534 -0.2678  2.3325
 2761SOL    HW219920   1.440   0.922  14.914 -0.2054 -1.0913 -0.4091
 2762SOL     OW19921   1.419   1.266   8.191  0.5498  0.0431  0.4624
 2762SOL    HW119922   1.415   1.171   8.198  0.6573  0.0671  0.8629
 2762SOL    HW219923   1.354   1.283   8.123  1.1188 -0.3608 -0.1791
 2763SOL     OW19924   1.651   3.306   9.073 -0.2666  0.0833 -0.2021
 2763SOL    HW119925   1.630   3.385   9.023 -0.3213 -0.2094 -0.6491
 2763SOL    HW219926   1.564   3.277   9.100  0.0241 -2.2594 -1.7802
 2764SOL     OW19927   1.172   1.907   1.858 -0.3500  0.1624 -0.1917
 2764SOL    HW119928   1.243   1.953   1.903  0.3958 -0.9527 -0.2226
 2764SOL    HW219929   1.220   1.888   1.777  0.1411  0.3457  0.0529
 2765SOL     OW19930   2.473   3.776   2.738  0.2368 -0.0179 -0.1265
 2765SOL    HW119931   2.434   3.830   2.669 -0.7088  1.1955  1.3635
 2765SOL    HW219932   2.416   3.700   2.743 -1.3833  1.0347 -3.1429
 2766SOL     OW19933   4.051   1.878   4.012  0.4283 -0.5138 -0.5514
 2766SOL    HW119934   4.046   1.923   3.927 -1.1267  2.4781  1.1414
 2766SOL    HW219935   4.014   1.795   3.983  1.1582 -1.5477  1.5225
 2767SOL     OW19936   3.052   0.355   1.644 -0.0154  0.2745  0.0513
 2767SOL    HW119937   3.117   0.285   1.649  0.0949  0.1776 -2.9465
 2767SOL    HW219938   3.082   0.395   1.562 -1.5366 -2.1112 -1.6604
 2768SOL     OW19939   4.739   2.001  12.149 -0.2912 -0.0923 -0.5055
 2768SOL    HW119940   4.664   2.013  12.207 -0.2531 -0.7574 -0.3106
 2768SOL    HW219941   4.737   2.081  12.096  0.8478  1.4751  1.8735
 2769SOL     OW19942   0.871   3.125   6.314 -0.2741 -0.1472  0.5167
 2769SOL    HW119943   0.792   3.073   6.294 -0.3404  0.8645 -1.8213
 2769SOL    HW219944   0.871   3.148   6.407 -0.4837  2.6779 -0.1891
 2770SOL     OW19945   1.859   2.646   2.245  0.1171  0.1132 -0.9325
 2770SOL    HW119946   1.827   2.731   2.276  1.0486  1.0238 -2.4423
 2770SOL    HW219947   1.780   2.619   2.198  1.1117 -2.2638 -1.2361
 2771SOL     OW19948   1.197   1.357   5.208 -0.3493 -0.1783  0.0299
 2771SOL    HW119949   1.109   1.321   5.194  0.5456 -1.8879 -1.1380
 2771SOL    HW219950   1.215   1.303   5.285  1.0871 -0.7879 -0.7498
 2772SOL     OW19951   2.727   2.207   1.181  0.0843  0.0029  0.1975
 2772SOL    HW119952   2.800   2.230   1.238 -1.4457  0.8231  1.8278
 2772SOL    HW219953   2.759   2.122   1.150  2.9037  0.7960  0.9157
 2773SOL     OW19954   2.712   4.301   5.907 -0.0384 -0.0479 -0.0342
 2773SOL    HW119955   2.797   4.321   5.866 -0.4410  2.5213  0.3476
 2773SOL    HW219956   2.662   4.278   5.829 -1.1613 -0.9078  0.9587
 2774SOL     OW19957   0.514   3.487   2.265  0.0329  0.4227 -0.2503
 2774SOL    HW119958   0.598   3.512   2.227 -0.8525 -0.1720 -2.6140
 2774SOL    HW219959   0.458   3.564   2.258  0.5108  0.8528  0.7119
 2775SOL     OW19960   4.263   4.394   1.932  0.0191  0.4817  0.2153
 2775SOL    HW119961   4.310   4.471   1.964  0.2042 -0.6290  2.5902
 2775SOL    HW219962   4.173   4.426   1.939  0.0553  0.7431 -0.4955
 2776SOL     OW19963   2.239   2.757   7.609 -0.4843 -0.2524 -0.2520
 2776SOL    HW119964   2.267   2.739   7.519  0.7807 -0.7258  0.2292
 2776SOL    HW219965   2.252   2.672   7.651  0.5537 -0.0590 -0.1810
 2777SOL     OW19966   4.334   4.502   7.497 -0.4259  0.2104 -0.9807
 2777SOL    HW119967   4.373   4.528   7.581  2.6443 -3.2776 -1.3490
 2777SOL    HW219968   4.414   4.476   7.452  0.6711 -0.8733  1.6046
 2778SOL     OW19969   3.093   3.055  17.049  0.2775 -0.1755  0.1825
 2778SOL    HW119970   3.150   3.116  17.002 -1.9342  1.2726 -0.6477
 2778SOL    HW219971   3.023   3.049  16.983 -0.1639 -1.8261  0.7917
 2779SOL     OW19972   3.528   0.930   4.762 -0.1997  0.3376 -0.1865
 2779SOL    HW119973   3.614   0.971   4.774  0.3871 -0.9947  0.1621
 2779SOL    HW219974   3.486   0.988   4.698 -1.0846 -1.0584 -0.8649
 2780SOL     OW19975   0.024   0.576   5.275 -0.1834  0.1152 -0.2899
 2780SOL    HW119976   4.724   0.561   5.189  0.5447  1.0535 -0.7940
 2780SOL    HW219977   4.698   0.534   5.331 -0.8588 -0.5510 -1.5859
 2781SOL     OW19978   4.059   0.960  12.291 -0.5135  0.0511  0.1550
 2781SOL    HW119979   4.049   1.003  12.376  2.1564  2.8003 -0.9343
 2781SOL    HW219980   4.065   1.040  12.239  0.5925  0.3876  0.8040
 2782SOL     OW19981   3.136   0.389   3.683 -0.4897 -0.1255  0.0181
 2782SOL    HW119982   3.205   0.400   3.749 -0.2135  1.8283 -0.5768
 2782SOL    HW219983   3.156   0.463   3.625  2.4238 -0.3474  0.7110
 2783SOL     OW19984   0.335   2.466   3.664  0.1944  0.1346  0.3450
 2783SOL    HW119985   0.397   2.469   3.738 -2.1419  0.4550  2.3078
 2783SOL    HW219986   0.391   2.516   3.605 -1.9321  2.2788  0.1509
 2784SOL     OW19987   4.269   3.834   5.903  0.4832 -0.6276 -0.0917
 2784SOL    HW119988   4.228   3.749   5.889  0.3314 -0.1813 -2.3902
 2784SOL    HW219989   4.345   3.811   5.956  1.1001  3.3049  0.7436
 2785SOL     OW19990   1.057   1.359   1.935 -0.4984 -0.4595  0.0464
 2785SOL    HW119991   1.020   1.388   1.852  0.4919  1.0730  0.1425
 2785SOL    HW219992   1.050   1.438   1.989  0.4072 -0.0646 -0.4246
 2786SOL     OW19993   0.926   2.742   2.467  0.1981 -0.2710  0.2954
 2786SOL    HW119994   1.018   2.762   2.452 -0.0737  1.6308  1.2822
 2786SOL    HW219995   0.881   2.758   2.384  0.5395  0.3147  0.2281
 2787SOL     OW19996   3.956   3.867   0.773  0.7014  0.3595  0.3748
 2787SOL    HW119997   3.959   3.894   0.681  1.8279 -1.2313 -0.0585
 2787SOL    HW219998   3.886   3.924   0.803 -1.1459 -0.2022 -2.9142
 2788SOL     OW19999   3.395   3.345   5.003 -0.2907 -0.0280 -0.0847
 2788SOL    HW120000   3.463   3.390   5.052 -0.5059 -1.0770  1.1833
 2788SOL    HW220001   3.320   3.405   5.000  0.8705  1.4568  0.6561
 2789SOL     OW20002   1.412   0.980  13.217  0.1776  0.1692 -0.2371
 2789SOL    HW120003   1.440   1.071  13.217 -0.1581  0.2716 -1.3580
 2789SOL    HW220004   1.419   0.954  13.309  2.3065 -1.0844 -0.7555
 2790SOL     OW20005   0.161   4.344   9.256  0.3993 -0.7434 -0.0878
 2790SOL    HW120006   0.163   4.307   9.344 -1.2327  4.6327  2.2298
 2790SOL    HW220007   0.166   4.261   9.210  0.0726  0.4581 -2.3015
 2791SOL     OW20008   1.387   0.223  16.559 -0.2113 -0.0000 -0.2858
 2791SOL    HW120009   1.306   0.264  16.530 -0.1260 -0.1203 -0.6913
 2791SOL    HW220010   1.428   0.222  16.473 -0.2281  0.9853 -0.2983
 2792SOL     OW20011   3.727   3.267   7.009  0.0335 -0.0076 -0.1867
 2792SOL    HW120012   3.699   3.224   6.928  2.2146 -2.2226  0.2380
 2792SOL    HW220013   3.785   3.330   6.968 -0.0134  0.5160  0.5542
 2793SOL     OW20014   3.221   1.663   1.647 -0.2517 -0.2301  0.3640
 2793SOL    HW120015   3.164   1.715   1.590  1.8067  0.7008 -0.8023
 2793SOL    HW220016   3.151   1.631   1.704 -0.8905  0.5034 -0.0138
 2794SOL     OW20017   2.729   2.870   9.309  0.1815  0.8640  0.1503
 2794SOL    HW120018   2.642   2.892   9.278  0.3006  2.7354  1.1283
 2794SOL    HW220019   2.779   2.942   9.271 -0.0363  1.6544  1.3677
 2795SOL     OW20020   3.930   1.445  11.832  0.1463  0.8758  0.0340
 2795SOL    HW120021   4.015   1.430  11.790 -0.8394 -1.9707 -0.9610
 2795SOL    HW220022   3.966   1.451  11.921  1.3305 -0.7047 -0.3232
 2796SOL     OW20023   2.588   2.956   8.600  0.2139  0.2532  0.3656
 2796SOL    HW120024   2.676   2.979   8.632  0.8370  0.7631 -1.7045
 2796SOL    HW220025   2.542   3.038   8.586 -1.4988 -0.5444  1.3064
 2797SOL     OW20026   3.575   2.786  11.202 -0.3481  0.2258  0.0004
 2797SOL    HW120027   3.533   2.790  11.116  0.7316 -1.2650 -0.5956
 2797SOL    HW220028   3.505   2.825  11.255  0.4891  1.5134  0.1564
 2798SOL     OW20029   0.462   0.305  14.406 -0.3950  0.7337  0.6271
 2798SOL    HW120030   0.424   0.318  14.319  1.7024 -0.3730 -0.4454
 2798SOL    HW220031   0.397   0.354  14.457 -2.9817 -0.8327 -1.1176
 2799SOL     OW20032   1.394   3.234   5.614 -0.0590  1.2692 -0.3572
 2799SOL    HW120033   1.322   3.171   5.611 -0.0353  1.1460  1.4092
 2799SOL    HW220034   1.476   3.185   5.603 -1.4310 -1.4592  1.6680
 2800SOL     OW20035   0.899   2.020   6.572  0.1804 -0.1143  0.0664
 2800SOL    HW120036   0.845   1.991   6.499 -0.7513 -0.7578  1.0181
 2800SOL    HW220037   0.971   1.958   6.563  0.9265  0.5967  1.0930
 2801SOL     OW20038   2.358   2.362   2.096 -0.8474  0.1881 -0.3070
 2801SOL    HW120039   2.301   2.326   2.028 -0.7074  1.8029 -1.2845
 2801SOL    HW220040   2.290   2.397   2.153  0.5849 -0.8419  2.0085
 2802SOL     OW20041   2.644   3.139   0.587  0.3475 -0.1308  0.3824
 2802SOL    HW120042   2.709   3.166   0.653  0.1734  0.9502  0.1091
 2802SOL    HW220043   2.617   3.231   0.577 -0.0417 -0.3078 -0.1679
 2803SOL     OW20044   3.631   1.980   4.040 -0.3593 -0.5452  0.4943
 2803SOL    HW120045   3.690   1.947   3.973  0.3510  0.3375  0.6946
 2803SOL    HW220046   3.561   2.022   3.990  2.2015  1.6629 -1.1750
 2804SOL     OW20047   3.361   2.375   8.413 -1.0092 -0.3555  0.1645
 2804SOL    HW120048   3.360   2.336   8.500 -3.1730 -1.6751 -0.4654
 2804SOL    HW220049   3.455   2.380   8.393 -1.3004  1.9523 -0.5955
 2805SOL     OW20050   0.249   4.415  17.205  0.4275  0.0453 -0.0445
 2805SOL    HW120051   0.330   4.372  17.234  0.4033  0.2175  0.2791
 2805SOL    HW220052   0.282   4.474  17.137 -3.3711  0.7782 -1.2135
 2806SOL     OW20053   1.336   2.251   3.441  0.1843 -0.4382 -0.3443
 2806SOL    HW120054   1.400   2.193   3.483 -1.1692 -1.8739 -0.2808
 2806SOL    HW220055   1.353   2.335   3.485 -0.5449 -0.5376  0.1294
 2807SOL     OW20056   3.723   2.168   4.565 -0.1742  0.2655  0.0529
 2807SOL    HW120057   3.697   2.100   4.626 -1.8247  1.1413  0.3245
 2807SOL    HW220058   3.644   2.161   4.511  0.1613 -0.0716 -0.3987
 2808SOL     OW20059   1.333   0.913   3.147  0.0451 -0.6782 -0.1002
 2808SOL    HW120060   1.388   0.898   3.070  0.4148 -0.6810  0.1602
 2808SOL    HW220061   1.395   0.888   3.216  1.1058  1.4522 -0.2922
 2809SOL     OW20062   0.584   1.735   3.713  0.1546 -0.5500 -0.2071
 2809SOL    HW120063   0.653   1.747   3.649  1.9517  0.4823  1.9577
 2809SOL    HW220064   0.605   1.791   3.787 -3.2845 -0.4748  0.7165
 2810SOL     OW20065   1.740   4.107  12.584 -0.1182 -0.6344  0.1048
 2810SOL    HW120066   1.781   4.187  12.617  0.4757  0.1928 -2.6331
 2810SOL    HW220067   1.698   4.059  12.655 -2.6439 -1.4195 -1.8991
 2811SOL     OW20068   2.874   2.783   2.073 -0.6963 -0.4453  0.5006
 2811SOL    HW120069   2.779   2.796   2.080 -0.6664 -0.2137  0.4857
 2811SOL    HW220070   2.913   2.829   2.147  0.2854 -1.0323  0.3522
 2812SOL     OW20071   3.801   1.932  10.503 -0.3262 -0.4821 -0.5213
 2812SOL    HW120072   3.897   1.939  10.500 -0.4701  0.9311 -1.7195
 2812SOL    HW220073   3.776   1.993  10.571  1.6998 -0.3658  0.1288
 2813SOL     OW20074   3.362   0.548   3.606 -0.0415 -0.1057 -0.0217
 2813SOL    HW120075   3.407   0.614   3.554 -1.1526  1.0914  0.5336
 2813SOL    HW220076   3.270   0.570   3.591 -0.1719  0.3034  1.4140
 2814SOL     OW20077   0.983   3.518   3.761  0.1223 -0.7880  0.0450
 2814SOL    HW120078   1.038   3.591   3.790 -0.7424  0.0351 -0.3925
 2814SOL    HW220079   0.893   3.550   3.765 -0.2519 -1.7264 -0.8786
 2815SOL     OW20080   3.768   2.130  16.846 -0.0499 -0.9500 -0.2796
 2815SOL    HW120081   3.830   2.202  16.863 -0.7532 -0.5545  0.6364
 2815SOL    HW220082   3.733   2.142  16.935  1.6325 -1.6417  0.4837
 2816SOL     OW20083   0.268   1.070   6.729  0.0799  0.2410  0.1330
 2816SOL    HW120084   0.193   1.128   6.713 -0.1530 -0.0619  0.1074
 2816SOL    HW220085   0.302   1.094   6.815 -0.2794 -1.2291  0.6898
 2817SOL     OW20086   0.998   3.904   3.942 -0.0701 -0.1811 -0.6764
 2817SOL    HW120087   0.940   3.844   3.989  0.5591  0.8543  1.4245
 2817SOL    HW220088   1.074   3.856   3.909  0.7761 -0.7488  2.0315
 2818SOL     OW20089   1.230   0.722  13.224  0.9482 -0.2422  0.7129
 2818SOL    HW120090   1.306   0.753  13.174 -1.1658  2.3707 -0.8977
 2818SOL    HW220091   1.254   0.632  13.246  0.8354 -0.9220 -1.9513
 2819SOL     OW20092   1.558   1.817   3.024  0.0627 -0.5234  0.2106
 2819SOL    HW120093   1.509   1.898   3.008  0.7734 -0.1231  0.0716
 2819SOL    HW220094   1.608   1.797   2.944 -1.4985 -0.2873 -0.8289
 2820SOL     OW20095   4.553   2.790  12.095 -0.0411  0.3215  0.0763
 2820SOL    HW120096   4.584   2.700  12.079  1.0178  0.4239  1.6228
 2820SOL    HW220097   4.460   2.771  12.101 -0.6253  2.3397 -2.3421
 2821SOL     OW20098   3.347   0.595   7.870  0.3664 -0.0484  0.1050
 2821SOL    HW120099   3.264   0.559   7.841 -0.2385  2.0394 -0.7571
 2821SOL    HW220100   3.398   0.523   7.907  0.6806 -0.5212 -1.2396
 2822SOL     OW20101   3.657   2.749   2.847  0.2505 -0.0749  0.7213
 2822SOL    HW120102   3.576   2.767   2.895 -0.2336  0.4037 -0.2571
 2822SOL    HW220103   3.724   2.772   2.910  0.3142  1.6349  0.0173
 2823SOL     OW20104   0.584   3.954  15.858 -0.0948  0.0535 -0.3844
 2823SOL    HW120105   0.661   3.912  15.895 -0.6160 -1.3404 -0.8840
 2823SOL    HW220106   0.550   3.884  15.802  1.4749 -0.0113 -1.2676
 2824SOL     OW20107   1.767   4.388  17.014  0.2910  0.4247  0.1969
 2824SOL    HW120108   1.856   4.365  16.986  0.2331  0.6432 -0.1711
 2824SOL    HW220109   1.751   4.477  16.985  2.9535  0.7745 -0.2088
 2825SOL     OW20110   1.092   0.272   7.149  0.4437 -0.5789  0.5149
 2825SOL    HW120111   1.026   0.245   7.213 -1.3102  0.1182 -0.9876
 2825SOL    HW220112   1.125   0.356   7.180  0.3475 -0.6915  0.9306
 2826SOL     OW20113   2.657   1.779   8.459  0.1078  0.0706 -0.5510
 2826SOL    HW120114   2.648   1.863   8.503 -0.2521 -0.8130  1.0763
 2826SOL    HW220115   2.573   1.773   8.413 -0.0905 -0.1169 -0.1643
 2827SOL     OW20116   0.530   1.171   6.642 -0.2159  0.1616 -0.0258
 2827SOL    HW120117   0.485   1.162   6.726  1.4698  2.0287  1.0843
 2827SOL    HW220118   0.504   1.094   6.592 -0.8160  0.2462  0.1615
 2828SOL     OW20119   3.550   4.515   6.086  0.5681 -0.1608  0.9422
 2828SOL    HW120120   3.525   4.567   6.162 -0.3385  0.4384  0.2273
 2828SOL    HW220121   3.556   4.578   6.014 -0.6154 -1.7118 -0.5245
 2829SOL     OW20122   0.778   1.550   8.165 -0.1408 -0.0411  0.3002
 2829SOL    HW120123   0.794   1.571   8.257  0.7396 -0.9922  0.3531
 2829SOL    HW220124   0.721   1.621   8.133 -2.1416 -1.0855  1.5093
 2830SOL     OW20125   3.042   2.556   6.619  0.3445 -0.3363  0.2780
 2830SOL    HW120126   3.093   2.628   6.655 -0.4730 -0.5201  1.8298
 2830SOL    HW220127   3.033   2.578   6.526  0.7242  1.2641  0.6226
 2831SOL     OW20128   2.243   3.894  14.976 -0.1899 -0.3513  0.4857
 2831SOL    HW120129   2.224   3.829  15.044  1.7501 -3.2334 -1.6863
 2831SOL    HW220130   2.158   3.898  14.932 -0.0486 -0.6554  0.1816
 2832SOL     OW20131   3.347   3.304   7.030  0.1286 -0.5394 -0.3679
 2832SOL    HW120132   3.396   3.372   6.985 -2.4587  1.6099  0.0441
 2832SOL    HW220133   3.408   3.300   7.103 -0.3726  1.8354  0.1629
 2833SOL     OW20134   1.762   3.189  13.368 -0.3663 -0.3214  0.3887
 2833SOL    HW120135   1.721   3.152  13.290 -0.3118  1.9186 -0.6798
 2833SOL    HW220136   1.706   3.263  13.391 -0.4859 -0.3100  0.0628
 2834SOL     OW20137   1.779   1.427  12.529 -0.0958 -0.7809  0.5178
 2834SOL    HW120138   1.833   1.349  12.519  3.1235  1.6894 -1.2827
 2834SOL    HW220139   1.701   1.397  12.576 -1.5718  2.0313 -0.0987
 2835SOL     OW20140   1.697   1.576  15.180 -0.5114 -0.4339 -0.2727
 2835SOL    HW120141   1.745   1.550  15.102 -0.2901  2.1408 -0.9803
 2835SOL    HW220142   1.626   1.616  15.129  1.2220  0.4003 -1.9991
 2836SOL     OW20143   3.279   0.659  12.987 -0.6412 -0.9533 -0.0435
 2836SOL    HW120144   3.319   0.572  12.991 -0.3880 -0.8776 -1.0158
 2836SOL    HW220145   3.240   0.663  13.075  1.3323 -1.3360  0.8612
 2837SOL     OW20146   0.632   1.692  15.414  0.0733  0.8348 -0.2834
 2837SOL    HW120147   0.622   1.667  15.322  0.9729 -0.2694 -0.0898
 2837SOL    HW220148   0.544   1.723  15.433  0.6661  0.0602  3.8259
 2838SOL     OW20149   2.709   4.144   7.646 -0.0415 -0.1649  0.3150
 2838SOL    HW120150   2.641   4.093   7.690  0.5916 -1.0918  0.2218
 2838SOL    HW220151   2.670   4.160   7.560 -0.1941 -0.7650  0.2710
 2839SOL     OW20152   1.174   1.549  11.354 -0.4751 -0.6867  0.0686
 2839SOL    HW120153   1.265   1.531  11.330 -0.2485  0.8469 -0.2426
 2839SOL    HW220154   1.151   1.469  11.401 -0.7644 -0.6233  0.0351
 2840SOL     OW20155   1.165   0.548   7.242  0.1820  0.1128  0.2861
 2840SOL    HW120156   1.255   0.531   7.212  0.6028 -0.8695  2.1108
 2840SOL    HW220157   1.129   0.588   7.163 -1.3766  0.8324  1.3626
 2841SOL     OW20158   0.884   4.352  10.047 -0.2757 -0.2105  0.4690
 2841SOL    HW120159   0.820   4.406  10.000 -0.3714 -1.2316 -0.5552
 2841SOL    HW220160   0.874   4.265  10.008 -1.9684  1.0460 -1.8854
 2842SOL     OW20161   2.165   2.838  16.338 -0.1684  0.2121 -0.0881
 2842SOL    HW120162   2.249   2.807  16.302  1.7893  2.7694  2.2872
 2842SOL    HW220163   2.116   2.830  16.256 -1.3455  2.3785  0.4139
 2843SOL     OW20164   3.716   3.537   3.301 -0.0269 -0.7711  0.1125
 2843SOL    HW120165   3.700   3.463   3.244  0.8387 -1.1134  0.3140
 2843SOL    HW220166   3.625   3.564   3.313 -0.7155 -2.2053 -2.0475
 2844SOL     OW20167   1.913   2.748   3.539  0.1187 -0.4920 -0.6786
 2844SOL    HW120168   1.852   2.821   3.525  0.1866 -0.7141 -2.0973
 2844SOL    HW220169   1.998   2.785   3.513  0.2571  0.2321  0.7991
 2845SOL     OW20170   3.088   2.678   8.046  0.5077  0.3172  0.2454
 2845SOL    HW120171   3.002   2.674   8.088 -0.4282 -0.7170 -1.7950
 2845SOL    HW220172   3.135   2.619   8.106  0.3218  0.5416  0.6110
 2846SOL     OW20173   1.429   1.856   9.819 -0.0906  0.2900 -0.2700
 2846SOL    HW120174   1.374   1.861   9.897 -0.6717  1.1413 -0.7353
 2846SOL    HW220175   1.404   1.772   9.781  0.3130  0.9436 -1.9627
 2847SOL     OW20176   1.749   2.378   8.155  0.2212  0.2831 -0.3313
 2847SOL    HW120177   1.718   2.289   8.166  3.9531 -0.8366  0.8163
 2847SOL    HW220178   1.702   2.424   8.225 -0.4959  2.0420 -1.9400
 2848SOL     OW20179   0.909   1.025   5.632  0.3882 -0.0013 -0.2115
 2848SOL    HW120180   0.927   0.946   5.684  0.2326 -1.1077 -1.8398
 2848SOL    HW220181   0.868   1.081   5.698 -0.4581  0.9109 -1.5288
 2849SOL     OW20182   0.889   1.264   0.284  0.4836  0.6292 -0.2404
 2849SOL    HW120183   0.910   1.327   0.353  3.2210 -0.4857 -0.0352
 2849SOL    HW220184   0.834   1.207   0.337 -1.4487  0.7206 -2.1670
 2850SOL     OW20185   0.200   2.015   3.185  0.3748  0.2178 -0.7304
 2850SOL    HW120186   0.209   1.923   3.160 -2.9741  0.0979 -1.4991
 2850SOL    HW220187   0.260   2.056   3.122  0.1258 -0.1265 -1.1983
 2851SOL     OW20188   0.068   0.494  17.512  0.0298 -0.3120  0.3300
 2851SOL    HW120189   0.040   0.461  17.427  1.8615  0.6734 -0.6718
 2851SOL    HW220190   4.725   0.513  17.555 -0.2704 -2.2708  0.5902
 2852SOL     OW20191   1.011   2.860  16.432  0.2365  0.1209  0.0012
 2852SOL    HW120192   1.041   2.781  16.387  0.8110  0.1875  0.2689
 2852SOL    HW220193   0.919   2.841  16.449  0.2057 -0.3995 -0.7392
 2853SOL     OW20194   0.405   3.739   1.511  0.4985  0.1566 -0.3615
 2853SOL    HW120195   0.329   3.712   1.460 -0.3952  1.3512  0.3394
 2853SOL    HW220196   0.465   3.778   1.446  2.7234  0.5893  1.9781
 2854SOL     OW20197   1.706   0.152  10.985  0.6017 -0.2050 -0.1257
 2854SOL    HW120198   1.739   0.194  10.906  0.3887 -1.3901 -0.8440
 2854SOL    HW220199   1.704   0.230  11.041  0.1214 -1.2064  1.2717
 2855SOL     OW20200   3.030   2.508   3.175 -0.5625  0.4728  0.1117
 2855SOL    HW120201   2.955   2.525   3.118  0.1530  0.2624 -0.8967
 2855SOL    HW220202   3.010   2.425   3.217  3.0518 -0.6069 -0.3050
 2856SOL     OW20203   3.303   2.346   2.169  0.1686  0.1002 -0.1104
 2856SOL    HW120204   3.252   2.269   2.143 -1.8509  0.5089  2.6754
 2856SOL    HW220205   3.235   2.412   2.153  0.4861  0.3822 -0.3110
 2857SOL     OW20206   3.977   0.140   1.690 -0.5015 -0.0978  0.0735
 2857SOL    HW120207   4.001   0.165   1.779 -0.5388  0.0563  0.0408
 2857SOL    HW220208   3.885   0.164   1.683 -0.2314  1.1751  0.9006
 2858SOL     OW20209   4.597   2.679  17.346  0.1038 -0.3324 -0.3063
 2858SOL    HW120210   4.538   2.735  17.396  2.1833  1.5629  0.0215
 2858SOL    HW220211   4.612   2.727  17.265  2.0935 -0.0005  0.2490
 2859SOL     OW20212   2.270   3.273  13.005 -0.7277  0.4096  0.1942
 2859SOL    HW120213   2.295   3.203  13.065 -2.6230 -1.4577 -1.1806
 2859SOL    HW220214   2.347   3.330  13.000  0.0620 -0.6044  1.0583
 2860SOL     OW20215   0.432   3.588   7.268  0.6461  0.3508 -0.1034
 2860SOL    HW120216   0.372   3.648   7.223 -0.0374  0.5572  1.0916
 2860SOL    HW220217   0.379   3.555   7.340  0.8753 -0.1835 -0.1852
 2861SOL     OW20218   4.663   0.026   9.563  0.5691  0.0909 -0.0569
 2861SOL    HW120219   4.579   4.731   9.595  1.3876 -1.3137  0.5649
 2861SOL    HW220220   4.725   4.723   9.622  0.7399  1.5745  0.8306
 2862SOL     OW20221   4.675   2.011   0.153 -0.0723 -0.1560  0.4024
 2862SOL    HW120222   4.706   2.009   0.062 -2.5116 -1.0657 -0.4108
 2862SOL    HW220223   0.006   2.066   0.187  1.2988  0.2298 -3.0724
 2863SOL     OW20224   2.821   3.919   8.403 -0.4963 -0.3071 -0.1366
 2863SOL    HW120225   2.824   3.844   8.344 -1.6375 -0.7849  0.4067
 2863SOL    HW220226   2.777   3.875   8.476 -0.2566 -1.4648 -0.6886
 2864SOL     OW20227   4.418   2.388   7.613  0.3037 -0.1371  0.2449
 2864SOL    HW120228   4.513   2.376   7.612  0.5109  1.5364  0.4157
 2864SOL    HW220229   4.395   2.412   7.523 -1.4632 -1.4581  0.3305
 2865SOL     OW20230   0.146   0.779   3.163  0.0997  0.4901  0.5079
 2865SOL    HW120231   0.100   0.733   3.233 -0.9942 -0.0303 -0.5261
 2865SOL    HW220232   0.063   0.818   3.135 -1.2744 -1.1443  2.2992
 2866SOL     OW20233   3.871   4.594   0.043  0.5873  0.8154 -0.3814
 2866SOL    HW120234   3.858   4.685   0.017  1.1056  0.7687 -0.7900
 2866SOL    HW220235   3.959   4.591   0.080  0.9853 -1.0662 -1.4435
 2867SOL     OW20236   1.898   3.284   5.200  0.0425 -0.0794  0.0110
 2867SOL    HW120237   1.928   3.374   5.212 -0.9338 -0.0079  1.9778
 2867SOL    HW220238   1.975   3.253   5.247 -1.1052 -1.8010  0.7608
 2868SOL     OW20239   1.925   2.454  13.013 -0.4153  0.6108  0.3030
 2868SOL    HW120240   1.881   2.489  13.090  0.3411  1.3380  0.4026
 2868SOL    HW220241   2.000   2.514  13.008 -0.9751  1.2509 -0.4866
 2869SOL     OW20242   0.579   0.908   5.514  0.5511 -0.1843 -0.0729
 2869SOL    HW120243   0.584   0.894   5.608 -4.4752  1.4205  0.4502
 2869SOL    HW220244   0.505   0.966   5.496  0.1676 -0.0101  2.0619
 2870SOL     OW20245   3.447   2.384   4.700 -0.2761  0.1164 -0.0620
 2870SOL    HW120246   3.518   2.441   4.670  0.4543 -0.6774  0.1548
 2870SOL    HW220247   3.442   2.320   4.629  1.8298 -0.5398  0.3812
 2871SOL     OW20248   0.574   1.514   5.234 -0.0201 -0.4933 -0.4398
 2871SOL    HW120249   0.515   1.459   5.183  0.8408 -1.4087 -0.4606
 2871SOL    HW220250   0.608   1.445   5.292 -0.9514 -0.3145  0.3227
 2872SOL     OW20251   2.702   0.516   8.820  0.3642 -0.6782 -0.5368
 2872SOL    HW120252   2.760   0.560   8.883 -0.6243 -0.4018  0.1950
 2872SOL    HW220253   2.627   0.575   8.812 -0.2578 -1.0272  2.4526
 2873SOL     OW20254   4.571   2.174   0.647 -0.3384 -0.5633  0.5532
 2873SOL    HW120255   4.654   2.126   0.646 -0.4916 -0.8216  0.3096
 2873SOL    HW220256   4.567   2.218   0.562  1.6882  0.7721  1.1446
 2874SOL     OW20257   0.291   0.480   2.178 -0.2369 -0.3780 -0.2917
 2874SOL    HW120258   0.382   0.452   2.167  0.5910  2.2581 -0.0651
 2874SOL    HW220259   0.246   0.398   2.161 -0.2618 -0.4916  0.2995
 2875SOL     OW20260   3.914   4.427   8.987 -0.4066 -0.2997  0.4409
 2875SOL    HW120261   3.867   4.360   8.938 -1.4792  0.0491  0.9867
 2875SOL    HW220262   3.852   4.435   9.060  1.3858 -1.5964  2.1066
 2876SOL     OW20263   0.143   4.147   1.942 -0.3282 -0.0217  0.5139
 2876SOL    HW120264   0.096   4.126   2.022 -1.7474  4.1188  0.7614
 2876SOL    HW220265   0.078   4.144   1.872  0.0998  1.5367  0.0349
 2877SOL     OW20266   1.614   1.310   7.573  0.3319  0.2271  0.2730
 2877SOL    HW120267   1.709   1.323   7.572  0.3851 -0.1571  0.2531
 2877SOL    HW220268   1.590   1.362   7.497  2.2927 -0.7681 -1.0454
 2878SOL     OW20269   3.192   0.476   4.822  0.3399 -0.0238 -0.0904
 2878SOL    HW120270   3.100   0.458   4.806  0.1575  1.5869 -0.9145
 2878SOL    HW220271   3.191   0.569   4.798 -0.8967  0.4094  1.6855
 2879SOL     OW20272   2.979   1.073   7.494 -0.0017  0.1627 -0.5515
 2879SOL    HW120273   2.998   0.985   7.462  1.6874 -0.0663  1.0492
 2879SOL    HW220274   2.893   1.050   7.529  1.6052 -3.6046  0.9881
 2880SOL     OW20275   0.479   1.594   5.632  0.1085  0.4733  0.2769
 2880SOL    HW120276   0.553   1.637   5.589  0.0245  0.7987  0.4620
 2880SOL    HW220277   0.459   1.651   5.706  0.8957  1.3134 -0.1612
 2881SOL     OW20278   0.527   0.129  14.181 -0.6395 -0.7222  0.4253
 2881SOL    HW120279   0.464   0.201  14.172 -0.8286 -0.9565 -0.0610
 2881SOL    HW220280   0.543   0.134  14.276 -0.4709 -0.6500  0.3942
 2882SOL     OW20281   3.598   4.060   5.665 -0.3280 -0.3459 -0.0992
 2882SOL    HW120282   3.524   4.025   5.713  0.7760 -0.1846  1.7025
 2882SOL    HW220283   3.557   4.120   5.602  0.1113  0.3818  0.3051
 2883SOL     OW20284   0.497   2.067  17.173 -0.0317 -0.6216  0.4425
 2883SOL    HW120285   0.579   2.115  17.164  0.0399 -0.2151  3.3831
 2883SOL    HW220286   0.525   1.975  17.171 -0.7138 -0.8086 -0.9433
 2884SOL     OW20287   1.617   3.102   5.954 -0.5088 -0.2298 -0.0309
 2884SOL    HW120288   1.615   3.121   6.048 -1.7847  0.9087 -0.2936
 2884SOL    HW220289   1.547   3.159   5.921  1.4098  0.3443 -3.1050
 2885SOL     OW20290   2.102   2.043   3.284  0.0024  0.1684 -0.4870
 2885SOL    HW120291   2.179   2.072   3.333 -0.2364 -1.3430  0.7898
 2885SOL    HW220292   2.054   2.126   3.280 -1.2086 -0.5386 -0.4098
 2886SOL     OW20293   2.702   4.608  12.422 -0.2949 -0.6421  0.8202
 2886SOL    HW120294   2.616   4.649  12.427  1.2324  2.6638  0.4262
 2886SOL    HW220295   2.671   4.541  12.361  1.3037 -2.1445  1.6482
 2887SOL     OW20296   1.575   0.442   6.977  0.6081  0.2010 -0.9670
 2887SOL    HW120297   1.509   0.508   6.958 -0.5380 -0.8347 -0.5385
 2887SOL    HW220298   1.635   0.510   7.010  1.6808 -1.0071 -0.4338
 2888SOL     OW20299   3.279   3.319  11.819 -0.1173 -0.1941  0.4904
 2888SOL    HW120300   3.341   3.389  11.838  0.2819 -0.6585  0.8948
 2888SOL    HW220301   3.203   3.377  11.807 -0.4576 -0.6162  0.5963
 2889SOL     OW20302   2.010   1.169   1.508 -0.5746  0.1484 -0.2087
 2889SOL    HW120303   1.966   1.093   1.470 -1.6385  0.8918 -0.4499
 2889SOL    HW220304   1.937   1.218   1.543  0.1944  0.6903  0.6402
 2890SOL     OW20305   2.452   3.934  16.534 -0.0936 -0.3778 -0.0389
 2890SOL    HW120306   2.378   3.894  16.487  0.5356 -2.0102  0.3840
 2890SOL    HW220307   2.409   3.966  16.613  0.3810 -0.6503  0.3235
 2891SOL     OW20308   4.235   3.702   6.646  0.3633 -0.2268 -0.1018
 2891SOL    HW120309   4.239   3.718   6.552 -0.5704  0.7950  0.0293
 2891SOL    HW220310   4.140   3.688   6.657  0.8810 -2.7569  1.1067
 2892SOL     OW20311   1.037   0.785  10.738  0.1088  0.1182 -0.3841
 2892SOL    HW120312   0.978   0.720  10.700 -1.2338  0.1447  1.6498
 2892SOL    HW220313   0.989   0.825  10.811  2.6155  0.1031  1.3109
 2893SOL     OW20314   3.374   0.755   2.076 -0.1962 -0.1686 -0.1358
 2893SOL    HW120315   3.446   0.805   2.114  0.0301 -0.4357 -0.2129
 2893SOL    HW220316   3.370   0.675   2.129 -0.2522  0.8026  1.3136
 2894SOL     OW20317   4.310   0.199   2.982 -1.1783 -0.2058 -0.1594
 2894SOL    HW120318   4.297   0.292   2.961  0.9124  0.0387 -0.3098
 2894SOL    HW220319   4.218   0.172   2.972 -1.5865  0.6357  1.2610
 2895SOL     OW20320   3.433   0.210  16.043  0.7438 -0.1112 -0.0870
 2895SOL    HW120321   3.498   0.269  16.083  1.7876 -1.0076 -0.4596
 2895SOL    HW220322   3.484   0.166  15.975 -2.5119 -0.7326 -2.1200
 2896SOL     OW20323   3.033   4.494   3.028  0.9384 -0.8239  0.1102
 2896SOL    HW120324   3.113   4.508   2.977 -0.3420 -1.1155 -1.9731
 2896SOL    HW220325   2.976   4.557   2.984  2.0381 -0.7312 -1.1887
 2897SOL     OW20326   4.252   0.953   9.516 -0.6981 -0.2529  0.5386
 2897SOL    HW120327   4.298   0.930   9.597 -1.3517 -0.2219  0.9225
 2897SOL    HW220328   4.303   1.021   9.474 -0.4979 -0.5713  0.2692
 2898SOL     OW20329   0.395   3.249   6.081 -1.1162  0.6457 -0.0853
 2898SOL    HW120330   0.447   3.171   6.062 -1.2178  0.6730 -0.4734
 2898SOL    HW220331   0.312   3.219   6.043 -0.3244 -1.8821  0.2143
 2899SOL     OW20332   1.256   0.392   5.227 -0.5596  0.2520  0.4370
 2899SOL    HW120333   1.289   0.307   5.199  1.0523  0.8864  0.4034
 2899SOL    HW220334   1.280   0.396   5.319 -2.1293 -1.0400  0.8836
 2900SOL     OW20335   1.538   0.388  11.849 -0.1006  0.1206  0.4979
 2900SOL    HW120336   1.445   0.404  11.834  0.1048  1.0879  0.2579
 2900SOL    HW220337   1.572   0.465  11.803  0.6537 -0.2485  0.4270
 2901SOL     OW20338   0.381   1.764  15.460  0.0303  0.3877 -0.0593
 2901SOL    HW120339   0.382   1.826  15.387 -2.5459  0.4759 -0.0162
 2901SOL    HW220340   0.291   1.741  15.480 -0.3720  2.3857  0.3776
 2902SOL     OW20341   3.123   1.387   9.371  0.0313 -0.4458  0.2476
 2902SOL    HW120342   3.152   1.325   9.304  0.6658  2.0928 -1.8240
 2902SOL    HW220343   3.053   1.334   9.410  0.0690  1.1747  2.4358
 2903SOL     OW20344   1.702   1.125  16.220  0.3648 -0.0678  0.2161
 2903SOL    HW120345   1.612   1.134  16.189  0.8248  0.4543 -0.9461
 2903SOL    HW220346   1.700   1.054  16.284  1.3061 -0.4963 -0.2451
 2904SOL     OW20347   2.935   3.500   7.415 -0.5319 -0.4082 -0.1607
 2904SOL    HW120348   2.957   3.482   7.507  1.3841  1.2598 -0.2877
 2904SOL    HW220349   3.024   3.525   7.390 -1.3370  0.7918 -1.7769
 2905SOL     OW20350   1.745   4.140   7.706 -0.6929  0.2545 -0.3553
 2905SOL    HW120351   1.820   4.090   7.741 -2.5174 -1.2402  1.4175
 2905SOL    HW220352   1.791   4.195   7.643 -0.3179 -1.0496 -1.2195
 2906SOL     OW20353   2.944   0.708  11.327  0.2560  0.4199 -0.1694
 2906SOL    HW120354   2.849   0.705  11.329  0.1933  1.7132 -1.1033
 2906SOL    HW220355   2.959   0.788  11.378  1.9638  0.0686 -0.0911
 2907SOL     OW20356   1.079   2.342   0.016  0.3113  0.1110 -0.3688
 2907SOL    HW120357   0.999   2.357   0.066  0.1649  0.5868 -0.7498
 2907SOL    HW220358   1.080   2.416  17.711  0.3929 -1.2759 -2.0410
 2908SOL     OW20359   4.691   3.804   2.043 -0.6479 -0.0831  0.5891
 2908SOL    HW120360   0.022   3.829   1.983 -1.7957 -0.1659 -0.7888
 2908SOL    HW220361   4.660   3.722   2.004 -1.1766  0.8698 -1.0072
 2909SOL     OW20362   4.371   3.732   8.719 -0.6664 -0.3455 -0.5709
 2909SOL    HW120363   4.365   3.712   8.813  1.8573  0.0640 -0.3388
 2909SOL    HW220364   4.299   3.680   8.683 -1.3906  0.7291 -0.6747
 2910SOL     OW20365   4.583   1.809   4.407 -0.3163  0.3884 -0.1419
 2910SOL    HW120366   4.554   1.773   4.323  1.9365 -0.3915 -0.5922
 2910SOL    HW220367   4.601   1.894   4.367 -1.2257  0.2479 -0.8372
 2911SOL     OW20368   1.118   2.345  13.464  0.3201 -0.1475  0.0756
 2911SOL    HW120369   1.196   2.344  13.408 -0.0611 -0.9555 -0.4486
 2911SOL    HW220370   1.152   2.322  13.551 -0.0848  0.9475  0.5211
 2912SOL     OW20371   1.618   2.906   3.479 -0.2691 -0.0874 -0.3505
 2912SOL    HW120372   1.523   2.901   3.483 -0.5452  2.7356 -2.9839
 2912SOL    HW220373   1.633   2.988   3.432  1.3957 -0.1612  0.0555
 2913SOL     OW20374   4.515   3.224   5.347  0.4984 -0.3186 -0.2159
 2913SOL    HW120375   4.531   3.171   5.425  2.6082  0.3026 -0.2301
 2913SOL    HW220376   4.501   3.313   5.381 -1.0421 -0.7516  0.2874
 2914SOL     OW20377   4.684   3.094  12.758  0.0925 -0.1801 -0.1185
 2914SOL    HW120378   4.624   3.034  12.804  0.7926 -1.7838 -1.3030
 2914SOL    HW220379   4.623   3.162  12.727  1.2057  0.9191  0.1110
 2915SOL     OW20380   0.304   1.572   4.382 -0.1929  0.0946  0.0912
 2915SOL    HW120381   0.240   1.523   4.330  1.2239 -2.4757  0.7779
 2915SOL    HW220382   0.375   1.576   4.319  0.3440 -0.4893  0.6685
 2916SOL     OW20383   0.306   3.299  17.341  0.3332 -0.0665 -0.7471
 2916SOL    HW120384   0.268   3.232  17.285 -1.4943  1.1296 -0.9309
 2916SOL    HW220385   0.324   3.363  17.272 -1.0269  0.7431 -0.3598
 2917SOL     OW20386   0.911   1.916  14.476  0.2458 -0.2247  0.1518
 2917SOL    HW120387   0.980   1.965  14.433  0.8477 -1.3370 -0.1466
 2917SOL    HW220388   0.961   1.841  14.508  0.0036  0.2939  1.7456
 2918SOL     OW20389   4.676   3.229  14.039  0.1096  0.0622  0.2259
 2918SOL    HW120390   4.607   3.181  13.993  1.5442 -0.7017 -1.1262
 2918SOL    HW220391   4.733   3.249  13.965 -0.1119 -1.4164 -0.3363
 2919SOL     OW20392   1.294   3.436   7.903  0.1372 -0.5604 -0.1687
 2919SOL    HW120393   1.366   3.498   7.894  0.8936 -1.6727 -1.9124
 2919SOL    HW220394   1.333   3.348   7.907 -0.3585 -0.7731 -0.0260
 2920SOL     OW20395   4.049   2.499   1.639  0.3839  0.5646 -0.3924
 2920SOL    HW120396   3.990   2.536   1.704  0.5796 -0.3083  0.2816
 2920SOL    HW220397   4.044   2.413   1.682 -1.3007 -0.1842 -2.1177
 2921SOL     OW20398   0.425   3.233   6.367 -0.0047 -0.1481 -0.1731
 2921SOL    HW120399   0.402   3.324   6.385  1.3365 -0.5091  3.2889
 2921SOL    HW220400   0.430   3.233   6.271  1.2394  2.2619 -0.0957
 2922SOL     OW20401   3.706   0.558   3.364  0.3463 -0.0754  0.2279
 2922SOL    HW120402   3.736   0.520   3.447  1.0668  1.7907  0.8346
 2922SOL    HW220403   3.782   0.613   3.344 -0.2026  1.0850  1.3229
 2923SOL     OW20404   2.822   1.938  13.978  0.2246 -0.0006 -0.4770
 2923SOL    HW120405   2.728   1.956  13.979  0.3311  0.5932 -0.7061
 2923SOL    HW220406   2.831   1.868  13.914  1.1215 -0.1319 -0.2027
 2924SOL     OW20407   3.604   0.415  16.648 -0.5629 -0.2822  0.5359
 2924SOL    HW120408   3.546   0.480  16.688 -2.6769 -2.7587  1.5063
 2924SOL    HW220409   3.577   0.349  16.711  1.7315  0.1438  1.9742
 2925SOL     OW20410   0.754   4.231   4.955  0.0262 -0.0146 -0.6297
 2925SOL    HW120411   0.842   4.261   4.979  0.1704 -0.4050 -0.6646
 2925SOL    HW220412   0.695   4.288   5.005  0.4851  1.4318 -1.7386
 2926SOL     OW20413   2.705   2.970   8.157  0.0650  0.0121  0.2182
 2926SOL    HW120414   2.613   2.955   8.134  0.4870 -1.0927 -0.7671
 2926SOL    HW220415   2.709   3.066   8.156  1.9971 -0.0959 -0.8323
 2927SOL     OW20416   3.098   1.826   3.922 -0.0412 -0.0811  0.0593
 2927SOL    HW120417   3.166   1.851   3.859 -0.8155 -0.7193 -1.0344
 2927SOL    HW220418   3.112   1.884   3.996 -1.1620  1.2558 -0.7979
 2928SOL     OW20419   1.642   1.481   5.665  0.0006 -0.4192 -0.8124
 2928SOL    HW120420   1.574   1.420   5.635  0.2230 -1.2119  0.2885
 2928SOL    HW220421   1.615   1.487   5.756  2.5967  0.9172 -0.1417
 2929SOL     OW20422   2.460   0.569   3.453  0.0807 -0.3248  0.7254
 2929SOL    HW120423   2.365   0.569   3.440  0.4047 -0.7360 -1.5927
 2929SOL    HW220424   2.485   0.503   3.389 -0.5176 -1.2519  1.4364
 2930SOL     OW20425   1.162   2.432   3.804  0.0121  0.1150  0.4652
 2930SOL    HW120426   1.191   2.407   3.892 -1.1106  1.0710  1.1183
 2930SOL    HW220427   1.198   2.519   3.787 -0.4211  0.6565  2.2230
 2931SOL     OW20428   2.615   2.494  14.958 -0.6076 -0.0453  0.2623
 2931SOL    HW120429   2.692   2.549  14.951 -0.9540  0.6840  2.1134
 2931SOL    HW220430   2.629   2.457  15.046  0.1014  0.6797  0.4478
 2932SOL     OW20431   0.298   3.516   6.147  0.3440  0.6440 -0.6391
 2932SOL    HW120432   0.332   3.435   6.185  1.3543  1.0544 -0.6870
 2932SOL    HW220433   0.206   3.510   6.173  0.5800  0.1299  0.1074
 2933SOL     OW20434   1.322   0.615   3.652  0.2877 -0.2845  0.4579
 2933SOL    HW120435   1.326   0.585   3.561 -0.4888  0.0598  0.3085
 2933SOL    HW220436   1.367   0.699   3.656 -1.7614  0.7521  1.2603
 2934SOL     OW20437   2.669   3.561  13.830 -0.0154 -0.2307 -0.0885
 2934SOL    HW120438   2.713   3.513  13.760 -0.6596 -0.5157 -0.3000
 2934SOL    HW220439   2.612   3.619  13.780 -1.8262  0.2466  2.5648
 2935SOL     OW20440   3.222   3.116   7.358 -0.5701  0.1653 -0.4975
 2935SOL    HW120441   3.208   3.182   7.290  2.7230  1.8786  0.4949
 2935SOL    HW220442   3.175   3.154   7.432  1.3033  1.3080  0.0999
 2936SOL     OW20443   0.509   1.810   9.054 -0.3259 -0.5302  0.6865
 2936SOL    HW120444   0.444   1.779   9.117  0.5914 -0.2977  1.7591
 2936SOL    HW220445   0.454   1.805   8.976  1.2870 -0.4938 -0.4584
 2937SOL     OW20446   0.849   1.091  17.607  0.4110  0.0366 -0.0833
 2937SOL    HW120447   0.912   1.101  17.679  1.9308 -2.6019 -1.0275
 2937SOL    HW220448   0.765   1.105  17.650 -0.6340  1.2963 -2.5514
 2938SOL     OW20449   2.788   4.104   8.043 -0.5172  0.0928  0.5724
 2938SOL    HW120450   2.870   4.062   8.068  0.9774  0.9659 -2.9145
 2938SOL    HW220451   2.737   4.034   8.002  1.5033  0.5514 -2.6727
 2939SOL     OW20452   3.014   4.107   4.453 -0.3954  0.2652  0.3181
 2939SOL    HW120453   2.980   4.158   4.379  0.5738 -0.0964 -0.3833
 2939SOL    HW220454   3.031   4.017   4.424 -0.2270  0.6598 -0.8151
 2940SOL     OW20455   2.604   3.051   9.131 -0.4866 -0.2352 -0.1283
 2940SOL    HW120456   2.528   3.098   9.099  0.9852  1.8982 -0.4500
 2940SOL    HW220457   2.638   3.107   9.201 -0.2619  1.4203 -1.5792
 2941SOL     OW20458   0.071   3.902   2.360 -0.0166  0.3673 -0.3091
 2941SOL    HW120459   0.057   3.808   2.371  2.2548 -0.1010 -1.3658
 2941SOL    HW220460   0.153   3.891   2.311  0.4916  0.4607  0.5201
 2942SOL     OW20461   4.658   4.676   8.005  0.1038  0.1494  0.6667
 2942SOL    HW120462   4.734   4.644   7.956  0.7345  1.1220  1.0046
 2942SOL    HW220463   4.604   4.723   7.942 -0.2950 -0.7184  0.3653
 2943SOL     OW20464   4.615   0.195   8.396  0.0345  0.0743 -0.5215
 2943SOL    HW120465   4.551   0.188   8.467 -0.5076  0.7231 -0.9531
 2943SOL    HW220466   4.587   0.118   8.346 -0.4020  1.4713 -2.4356
 2944SOL     OW20467   4.488   3.299   1.926 -0.6347 -0.0320  0.4157
 2944SOL    HW120468   4.406   3.252   1.910  0.4516 -1.8158  0.0737
 2944SOL    HW220469   4.505   3.259   2.011 -0.7113  0.7205  0.7855
 2945SOL     OW20470   2.758   3.980  13.764 -0.5504 -0.1623 -0.3062
 2945SOL    HW120471   2.705   3.975  13.685  0.7300 -0.9561 -1.1037
 2945SOL    HW220472   2.787   3.890  13.779 -0.8372 -0.6741 -2.7919
 2946SOL     OW20473   4.487   0.929   9.710 -0.4963  0.3756  0.8356
 2946SOL    HW120474   4.443   0.967   9.786  1.2630  0.5995  1.7284
 2946SOL    HW220475   4.541   0.998   9.672  1.2955 -0.7089  1.4237
 2947SOL     OW20476   1.441   0.422  15.339 -0.2800 -0.0383 -0.0694
 2947SOL    HW120477   1.370   0.416  15.275 -1.0772 -0.6791  0.8823
 2947SOL    HW220478   1.466   0.330  15.343 -2.5999 -0.7022 -0.6703
 2948SOL     OW20479   2.166   3.072   1.842 -0.4246  0.2534 -0.3792
 2948SOL    HW120480   2.249   3.042   1.881  0.0829  1.1161 -0.8050
 2948SOL    HW220481   2.108   3.020   1.898 -3.1442  1.0254 -2.5078
 2949SOL     OW20482   2.814   4.600   6.962 -0.0366  0.6056 -0.6017
 2949SOL    HW120483   2.847   4.665   6.899  1.5086 -0.3922 -0.8206
 2949SOL    HW220484   2.844   4.524   6.912  0.7099  0.2184  0.4428
 2950SOL     OW20485   0.810   2.850   8.008  0.4534  0.6046 -0.5990
 2950SOL    HW120486   0.802   2.755   8.011  1.5303  0.5586  0.7674
 2950SOL    HW220487   0.878   2.857   8.075 -0.3858  0.9912  0.2152
 2951SOL     OW20488   2.084   3.073   1.590 -0.6378  0.0828 -0.4180
 2951SOL    HW120489   2.130   3.048   1.670  2.6028  4.7659 -0.8423
 2951SOL    HW220490   2.089   2.994   1.535 -0.0916  0.6085 -1.1184
 2952SOL     OW20491   1.129   3.280   8.197  0.1307  0.2856 -0.1838
 2952SOL    HW120492   1.123   3.184   8.192 -1.5178  0.5169 -2.6268
 2952SOL    HW220493   1.224   3.282   8.209 -0.0412  1.2777  0.8799
 2953SOL     OW20494   3.696   4.733   5.916 -0.4813 -0.0675  0.3228
 2953SOL    HW120495   3.703   4.671   5.844  3.0435  0.2777  0.4096
 2953SOL    HW220496   3.766   4.692   5.966 -2.3943 -3.1338  0.4781
 2954SOL     OW20497   2.767   3.367   9.955 -0.5267  0.3900  0.2711
 2954SOL    HW120498   2.838   3.415   9.913 -1.1064  1.1494  0.1602
 2954SOL    HW220499   2.697   3.387   9.893 -0.2366 -0.1758 -0.2464
 2955SOL     OW20500   3.280   1.569   6.601  0.0350  1.0313 -0.3939
 2955SOL    HW120501   3.346   1.631   6.568  0.7924  0.3003 -0.2454
 2955SOL    HW220502   3.243   1.610   6.680  1.1076 -1.4077  1.3655
 2956SOL     OW20503   0.419   0.968  11.555 -0.1739  0.9420  0.2795
 2956SOL    HW120504   0.470   0.903  11.604 -0.1662  1.6712  1.2449
 2956SOL    HW220505   0.328   0.952  11.577  0.0748 -0.3994  0.2985
 2957SOL     OW20506   3.510   2.903   9.271 -0.1090 -0.0992  0.5516
 2957SOL    HW120507   3.559   2.985   9.263 -0.8138  0.4111  1.4657
 2957SOL    HW220508   3.420   2.936   9.269 -0.3611 -0.7118  1.8455
 2958SOL     OW20509   0.086   3.853   1.759 -0.1477  0.2853 -0.1571
 2958SOL    HW120510   0.172   3.893   1.769  0.5523 -1.1797 -0.2025
 2958SOL    HW220511   0.117   3.772   1.717 -0.2755  0.3201 -0.3181
 2959SOL     OW20512   1.885   0.348   4.404  0.0356 -0.4655 -0.2810
 2959SOL    HW120513   1.943   0.385   4.337  0.2447 -0.2391  0.0257
 2959SOL    HW220514   1.862   0.427   4.453 -1.1856 -0.1188 -1.4079
 2960SOL     OW20515   0.423   2.336  14.430 -0.3511  0.0711  0.2367
 2960SOL    HW120516   0.517   2.323  14.437 -0.3769 -0.2219  0.0413
 2960SOL    HW220517   0.389   2.246  14.430  0.0799 -0.0867  0.0317
 2961SOL     OW20518   1.070   1.515   4.253  0.3247 -0.3312  0.2583
 2961SOL    HW120519   1.120   1.560   4.185 -1.8694  1.7691  0.0369
 2961SOL    HW220520   0.985   1.531   4.213  0.5809 -2.2186 -1.0521
 2962SOL     OW20521   2.549   0.866   9.146  0.4032  0.1942 -0.2793
 2962SOL    HW120522   2.583   0.847   9.233  0.3040 -0.9892 -0.4922
 2962SOL    HW220523   2.474   0.918   9.175  0.9308 -0.2275  1.7937
 2963SOL     OW20524   4.422   2.745  14.178  0.0695 -0.1656  0.0880
 2963SOL    HW120525   4.369   2.810  14.225 -2.1466 -0.9064 -1.3870
 2963SOL    HW220526   4.513   2.772  14.192  0.3281 -0.5443 -0.8926
 2964SOL     OW20527   0.243   0.359   5.308  0.1096  0.3334  0.0334
 2964SOL    HW120528   0.260   0.399   5.223 -1.0296  0.2673 -0.2131
 2964SOL    HW220529   0.148   0.368   5.311  0.2240  1.3781  0.5012
 2965SOL     OW20530   4.377   1.403  16.223 -0.4343 -0.1201  0.4321
 2965SOL    HW120531   4.381   1.381  16.317  1.9017 -3.3183 -0.4165
 2965SOL    HW220532   4.367   1.314  16.188 -1.5084  0.6458 -1.1695
 2966SOL     OW20533   0.223   0.762   5.386  0.4510  0.3631 -0.5896
 2966SOL    HW120534   0.296   0.702   5.372 -0.8694 -1.4681  0.4745
 2966SOL    HW220535   0.155   0.724   5.331 -0.2077  1.1525 -0.3269
 2967SOL     OW20536   1.395   4.048  10.396 -0.1168  0.2679  0.0803
 2967SOL    HW120537   1.423   3.989  10.466  0.2544  1.5897  1.0586
 2967SOL    HW220538   1.301   4.057  10.410 -0.4549  0.3719 -2.3722
 2968SOL     OW20539   0.120   2.618   0.832 -0.4264 -0.3940 -0.3808
 2968SOL    HW120540   0.140   2.708   0.859 -1.6972  0.2018 -1.3924
 2968SOL    HW220541   0.152   2.631   0.743  0.5741 -0.9384 -0.1015
 2969SOL     OW20542   3.092   0.119   1.185  0.0587  0.0042  0.0565
 2969SOL    HW120543   3.032   0.172   1.236  1.1155  1.6191 -0.3719
 2969SOL    HW220544   3.149   0.189   1.154  2.3964 -1.0068  2.0256
 2970SOL     OW20545   1.342   1.294   1.925  0.0785  0.0179  0.3564
 2970SOL    HW120546   1.373   1.385   1.917 -0.5794  0.2217  0.1165
 2970SOL    HW220547   1.247   1.308   1.930  0.0177 -0.0540 -0.6662
 2971SOL     OW20548   3.510   3.220  16.718  0.4887  0.6846  0.3574
 2971SOL    HW120549   3.575   3.160  16.682  0.9724  0.5521  1.4516
 2971SOL    HW220550   3.462   3.150  16.762  0.1782  0.6587 -0.0187
 2972SOL     OW20551   4.473   3.786   6.364  0.1484 -0.3028  0.0475
 2972SOL    HW120552   4.467   3.876   6.396  1.4528 -0.4830  0.7618
 2972SOL    HW220553   4.431   3.795   6.278  0.0868  1.1751  0.2385
 2973SOL     OW20554   0.443   2.022   4.900  0.0395 -0.2176  0.4106
 2973SOL    HW120555   0.419   1.937   4.936  1.1758  0.6324  3.1202
 2973SOL    HW220556   0.417   2.086   4.966 -2.0926  0.0746 -0.7072
 2974SOL     OW20557   3.429   3.930   7.702  0.1265  0.0277  0.0557
 2974SOL    HW120558   3.342   3.970   7.705  0.0702 -0.3139  2.8170
 2974SOL    HW220559   3.426   3.871   7.778  1.5288  0.2438  0.2699
 2975SOL     OW20560   4.504   4.619   4.127 -0.1010 -0.3449 -0.1595
 2975SOL    HW120561   4.541   4.588   4.210  1.6994 -1.7595 -1.4819
 2975SOL    HW220562   4.420   4.574   4.130  0.0464 -0.6308 -0.2299
 2976SOL     OW20563   3.142   4.216   9.129  0.1530 -0.0571  0.4689
 2976SOL    HW120564   3.083   4.144   9.150  1.3260 -1.4946 -1.0935
 2976SOL    HW220565   3.142   4.231   9.035  0.7645  0.7318  0.5985
 2977SOL     OW20566   4.181   2.066   7.853 -0.2651 -0.4270 -0.4937
 2977SOL    HW120567   4.255   2.032   7.803  0.0814  1.9531 -1.5889
 2977SOL    HW220568   4.116   2.032   7.792 -2.0708  0.9806  0.6709
 2978SOL     OW20569   4.327   0.403   7.526  0.5040 -0.0659 -0.2897
 2978SOL    HW120570   4.402   0.343   7.520  1.3662  0.5975  3.4310
 2978SOL    HW220571   4.312   0.407   7.621 -0.1139 -2.3895 -0.2904
 2979SOL     OW20572   0.999   4.593  13.420  0.0522  0.0378 -0.2628
 2979SOL    HW120573   1.061   4.540  13.470 -1.8237 -2.3954 -0.4776
 2979SOL    HW220574   1.059   4.654  13.378 -0.3255  1.3062  1.0229
 2980SOL     OW20575   1.700   0.958   3.584 -0.1221 -0.7251  0.2117
 2980SOL    HW120576   1.609   0.950   3.613 -0.0500 -1.9347  0.0972
 2980SOL    HW220577   1.739   1.015   3.650  2.1903 -1.7398 -0.2755
 2981SOL     OW20578   1.303   3.713   8.216  0.2729  0.5216  0.1291
 2981SOL    HW120579   1.393   3.684   8.198  0.4322  1.4555 -0.6506
 2981SOL    HW220580   1.294   3.692   8.308 -1.3417  1.8985  0.2842
 2982SOL     OW20581   0.575   2.481   8.424  0.6985  0.0831 -0.3946
 2982SOL    HW120582   0.521   2.485   8.345 -0.4824  1.3802  0.4833
 2982SOL    HW220583   0.638   2.420   8.386 -0.2786  0.3582 -2.5048
 2983SOL     OW20584   2.376   3.317   1.933 -0.2374 -0.1743  0.1614
 2983SOL    HW120585   2.420   3.316   1.847  3.0526 -1.4620  1.8626
 2983SOL    HW220586   2.354   3.409   1.947 -0.6919  0.1276 -2.3837
 2984SOL     OW20587   3.195   4.112   5.898 -0.0105 -0.0853  0.4949
 2984SOL    HW120588   3.175   4.206   5.899 -1.8260 -0.4610 -0.8654
 2984SOL    HW220589   3.116   4.077   5.938  1.2608 -0.9157  2.3248
 2985SOL     OW20590   3.344   0.398  10.260 -0.0703  0.4144 -0.1828
 2985SOL    HW120591   3.360   0.492  10.266  0.9580  0.2924 -0.9972
 2985SOL    HW220592   3.433   0.363  10.272  0.6353  1.3085 -2.7190
 2986SOL     OW20593   3.289   3.781  14.473 -0.0243  0.2459  0.1170
 2986SOL    HW120594   3.337   3.861  14.493 -0.7003 -0.5450  5.0542
 2986SOL    HW220595   3.337   3.709  14.515  1.0950 -0.5198 -2.4996
 2987SOL     OW20596   3.749   2.058   7.240  0.3417  0.9354 -0.0286
 2987SOL    HW120597   3.659   2.028   7.227  0.5337  0.7750 -1.0242
 2987SOL    HW220598   3.733   2.109   7.319 -0.0841  0.8949 -0.0895
 2988SOL     OW20599   4.005   1.368   4.039 -1.0149  0.1508  0.6331
 2988SOL    HW120600   3.948   1.439   4.068 -1.6171 -1.5538  3.5240
 2988SOL    HW220601   3.988   1.312   4.114 -0.2049  0.4503  1.0468
 2989SOL     OW20602   2.988   4.517  11.337 -0.0467  0.3663 -0.3527
 2989SOL    HW120603   2.991   4.449  11.404 -1.4357 -1.1583 -1.8341
 2989SOL    HW220604   3.028   4.468  11.265 -3.0961 -1.1019 -1.0575
 2990SOL     OW20605   1.712   0.572   2.343 -0.1556  0.2046  0.0101
 2990SOL    HW120606   1.706   0.616   2.259 -1.8135 -1.7578 -0.8971
 2990SOL    HW220607   1.707   0.481   2.312  0.0716  0.0260  0.4810
 2991SOL     OW20608   0.347   1.761  14.997 -0.2349  0.1990 -0.4668
 2991SOL    HW120609   0.386   1.712  15.069 -0.4172  2.2814  1.0739
 2991SOL    HW220610   0.382   1.712  14.923  0.4251 -1.5305  1.0048
 2992SOL     OW20611   1.779   0.714   6.437 -0.4675  0.5281  0.8106
 2992SOL    HW120612   1.692   0.724   6.399 -0.0282 -0.9328 -0.5972
 2992SOL    HW220613   1.756   0.666   6.517 -0.3881  0.6374  0.8999
 2993SOL     OW20614   2.273   3.451   7.383  0.2206 -0.0948  0.0867
 2993SOL    HW120615   2.288   3.544   7.369  2.0276 -0.4017 -0.0254
 2993SOL    HW220616   2.350   3.421   7.333  0.7743  3.2256 -1.0201
 2994SOL     OW20617   2.838   2.551  15.318  0.2378 -0.1767  0.1381
 2994SOL    HW120618   2.792   2.631  15.340 -0.0327 -0.3544  0.2164
 2994SOL    HW220619   2.927   2.575  15.292  0.1765  0.6584  0.7284
 2995SOL     OW20620   0.084   1.110   7.073  0.2814 -0.3991  0.5486
 2995SOL    HW120621   0.156   1.136   7.130  0.4580  1.7432 -0.6731
 2995SOL    HW220622   0.070   1.188   7.019 -0.6265 -0.8238  0.1718
 2996SOL     OW20623   1.335   3.458   9.960  0.0855 -0.3625  0.0756
 2996SOL    HW120624   1.247   3.487   9.985  0.6122  2.2504 -1.0619
 2996SOL    HW220625   1.348   3.384  10.018 -4.1111  0.7717  2.4861
 2997SOL     OW20626   3.822   3.993   6.614  0.4443  0.2736  0.1058
 2997SOL    HW120627   3.799   3.903   6.589 -2.3098  1.1246 -0.4007
 2997SOL    HW220628   3.761   4.013   6.685 -1.5208 -1.6464 -1.0415
 2998SOL     OW20629   2.392   2.707   0.472 -0.3371  0.8788 -0.5870
 2998SOL    HW120630   2.385   2.672   0.383  1.7131  0.0986 -0.4583
 2998SOL    HW220631   2.442   2.787   0.455 -2.0086  1.5205 -2.4623
 2999SOL     OW20632   2.249   1.592   2.669 -0.1802  0.3367  0.5934
 2999SOL    HW120633   2.277   1.595   2.761 -0.7362 -0.6781  0.7968
 2999SOL    HW220634   2.334   1.595   2.625 -0.6875  0.2880 -0.3787
 3000SOL     OW20635   0.713   4.327   9.618 -0.0124 -0.2082 -0.2099
 3000SOL    HW120636   0.636   4.305   9.566 -0.8886  0.3351  0.8535
 3000SOL    HW220637   0.707   4.277   9.700 -1.6748  0.9948  0.3988
 3001SOL     OW20638   1.244   1.556   6.506  0.9146 -0.3295  0.0978
 3001SOL    HW120639   1.172   1.560   6.444  1.5005  0.8888 -0.5106
 3001SOL    HW220640   1.319   1.582   6.452  0.6353  0.5457  0.1320
 3002SOL     OW20641   3.849   3.847   5.419 -0.1499 -0.3492  0.3604
 3002SOL    HW120642   3.936   3.812   5.401 -0.3135 -0.6862  0.2338
 3002SOL    HW220643   3.854   3.922   5.361  0.3296 -0.5148  0.1894
 3003SOL     OW20644   4.413   2.840   8.212  0.5634 -0.7049 -0.2262
 3003SOL    HW120645   4.412   2.753   8.173  0.5631 -0.4966 -0.7005
 3003SOL    HW220646   4.478   2.876   8.150 -1.9549  0.6957 -2.0500
 3004SOL     OW20647   4.265   1.261   8.291 -0.1673  0.5706 -0.3885
 3004SOL    HW120648   4.248   1.172   8.322 -0.4136 -0.1250 -2.5359
 3004SOL    HW220649   4.298   1.304   8.370 -0.3214 -0.4265  0.2136
 3005SOL     OW20650   2.552   4.635   1.819  0.5700 -0.6812  0.3481
 3005SOL    HW120651   2.591   4.686   1.747 -0.5655  2.2450  1.8153
 3005SOL    HW220652   2.493   4.579   1.768 -0.2835 -0.4601  1.1086
 3006SOL     OW20653   2.821   0.309   8.246  0.1065 -0.2460 -0.2862
 3006SOL    HW120654   2.830   0.245   8.176 -2.3447  0.2636 -1.0924
 3006SOL    HW220655   2.744   0.285   8.297  0.1677 -0.4455 -0.2900
 3007SOL     OW20656   4.664   0.432   6.373  0.1340 -0.3958  0.2770
 3007SOL    HW120657   4.604   0.460   6.304  0.8937 -1.4296 -0.8186
 3007SOL    HW220658   4.607   0.399   6.442 -1.8794 -0.2342 -1.2854
 3008SOL     OW20659   1.967   0.526   8.364  0.2190 -0.4282 -0.5080
 3008SOL    HW120660   2.008   0.442   8.345  0.3962  0.2191 -3.0448
 3008SOL    HW220661   1.910   0.507   8.439  1.5392 -1.3260  0.2734
 3009SOL     OW20662   3.542   3.598   5.870 -0.3773 -0.3641 -1.0315
 3009SOL    HW120663   3.570   3.622   5.782  0.1125  1.5823 -0.3377
 3009SOL    HW220664   3.451   3.627   5.871 -0.6323 -1.3057  3.0795
 3010SOL     OW20665   3.842   2.667   6.860 -0.1455  0.5579 -0.6296
 3010SOL    HW120666   3.749   2.661   6.881 -0.2080 -0.6443 -1.2312
 3010SOL    HW220667   3.852   2.758   6.835  0.9782  0.6764  0.2468
 3011SOL     OW20668   2.886   3.907  11.171 -0.2440  0.8462 -0.5427
 3011SOL    HW120669   2.838   3.940  11.247 -0.0328 -2.4107  1.0130
 3011SOL    HW220670   2.921   3.987  11.134  1.4264  0.2905 -0.1581
 3012SOL     OW20671   4.490   3.351   4.506 -0.1970 -0.5714 -0.0406
 3012SOL    HW120672   4.498   3.263   4.541 -1.2430 -1.3515 -1.7862
 3012SOL    HW220673   4.484   3.405   4.585 -0.6016  0.2292 -0.6194
 3013SOL     OW20674   4.554   1.304   0.174 -0.1468 -0.0881  0.3450
 3013SOL    HW120675   4.500   1.373   0.212 -0.1598 -0.5950  1.2464
 3013SOL    HW220676   4.642   1.327   0.205 -1.5860  1.8431  3.0132
 3014SOL     OW20677   1.007   3.698   6.953 -0.3499 -0.4263 -0.2901
 3014SOL    HW120678   0.923   3.716   6.910 -0.9944 -1.6748  0.4550
 3014SOL    HW220679   1.067   3.715   6.880  0.9521 -3.7051  0.0019
 3015SOL     OW20680   0.029   1.775   7.444  0.3616  0.7060 -0.3696
 3015SOL    HW120681   0.023   1.698   7.387  0.8593 -0.2276  0.8273
 3015SOL    HW220682   4.709   1.757   7.517  0.2966  0.5866 -0.4530
 3016SOL     OW20683   0.955   1.455   6.670 -0.5070 -0.3516 -0.9474
 3016SOL    HW120684   0.933   1.367   6.640 -1.5681 -0.3354 -0.2058
 3016SOL    HW220685   0.866   1.490   6.669  0.7577  2.9158 -0.1330
 3017SOL     OW20686   0.841   0.355   3.619 -0.0713  0.1227 -0.5316
 3017SOL    HW120687   0.907   0.415   3.652 -1.1443  1.3612 -0.6366
 3017SOL    HW220688   0.785   0.412   3.566  1.8526  1.5101 -1.0719
 3018SOL     OW20689   2.700   4.574   7.203 -0.0001  0.9736  0.2636
 3018SOL    HW120690   2.770   4.509   7.213  0.0580  0.7916 -1.3140
 3018SOL    HW220691   2.746   4.616   7.130  0.2641 -1.7914 -1.1578
 3019SOL     OW20692   2.154   2.597  10.319  0.1385  0.6099  0.4764
 3019SOL    HW120693   2.161   2.668  10.255 -3.0673  0.6952  0.2367
 3019SOL    HW220694   2.063   2.574  10.301  0.1042  0.2566  1.0902
 3020SOL     OW20695   0.569   3.964   6.470 -0.1686  0.1049  0.1966
 3020SOL    HW120696   0.563   4.059   6.485 -0.0971  0.2003 -0.4048
 3020SOL    HW220697   0.544   3.939   6.559 -1.1189  0.9745  0.1724
 3021SOL     OW20698   3.868   4.615   7.272  0.1747  0.3552 -0.0893
 3021SOL    HW120699   3.945   4.622   7.328 -0.2371  0.8208  0.4148
 3021SOL    HW220700   3.804   4.600   7.342  0.0794  2.5712  0.2945
 3022SOL     OW20701   4.028   3.703  12.842 -0.3096  0.6005 -0.7503
 3022SOL    HW120702   4.004   3.694  12.750  0.5140 -0.8433 -0.8175
 3022SOL    HW220703   4.081   3.624  12.831 -1.7257 -0.4545 -0.0482
 3023SOL     OW20704   2.182   4.251   4.890  0.2108  0.3025  0.1148
 3023SOL    HW120705   2.099   4.255   4.842 -0.7777  1.3146  1.8747
 3023SOL    HW220706   2.192   4.342   4.918  0.6754  0.5854 -0.9720
 3024SOL     OW20707   1.403   0.532   4.756 -0.1081  0.2492 -0.3999
 3024SOL    HW120708   1.471   0.595   4.731  0.4379  0.7204  2.3251
 3024SOL    HW220709   1.456   0.453   4.741 -1.4913 -0.5876 -0.9069
 3025SOL     OW20710   0.830   3.127   8.208 -0.3367  0.6225  0.1357
 3025SOL    HW120711   0.843   3.200   8.147  0.3895  0.8242  0.5307
 3025SOL    HW220712   0.901   3.070   8.180  0.0371  1.4895 -0.6832
 3026SOL     OW20713   3.572   2.017   2.074 -0.0121 -0.5629 -0.0241
 3026SOL    HW120714   3.624   1.990   2.150 -0.5360 -1.9982 -0.1842
 3026SOL    HW220715   3.540   2.100   2.110  1.2478  0.2605 -0.7856
 3027SOL     OW20716   1.634   0.200  13.479 -0.2369  0.0954  0.3587
 3027SOL    HW120717   1.721   0.160  13.486 -1.5158 -2.6286  0.8974
 3027SOL    HW220718   1.640   0.261  13.552  0.6025 -0.7150  0.9803
 3028SOL     OW20719   1.412   3.855   6.319 -0.1431 -0.4026  0.3551
 3028SOL    HW120720   1.483   3.872   6.381  0.2635  0.1793 -0.2859
 3028SOL    HW220721   1.413   3.932   6.264  2.1302 -0.4949  0.2923
 3029SOL     OW20722   1.284   2.694   3.808  0.4657 -0.4518  0.0885
 3029SOL    HW120723   1.373   2.720   3.832 -0.1535  2.2741 -0.5743
 3029SOL    HW220724   1.252   2.778   3.775  0.4395  0.1147  1.5537
 3030SOL     OW20725   0.051   3.557   4.854  0.0742 -0.5913  0.1439
 3030SOL    HW120726   0.103   3.478   4.871 -2.6738 -2.4067  0.0723
 3030SOL    HW220727   0.105   3.633   4.877 -0.2723  0.6536 -3.1523
 3031SOL     OW20728   0.414   3.814   3.395 -0.2854 -0.5789 -0.0217
 3031SOL    HW120729   0.410   3.864   3.314  0.4553 -0.4803  0.0021
 3031SOL    HW220730   0.328   3.772   3.390  0.5538 -2.4110  0.9653
 3032SOL     OW20731   2.249   4.664   9.635 -0.4079  0.6630  0.3356
 3032SOL    HW120732   2.198   4.610   9.696  1.6757 -1.4889  0.1953
 3032SOL    HW220733   2.182   4.688   9.570 -0.8489  0.6582  0.7875
 3033SOL     OW20734   2.669   1.406   8.559  0.2975  0.1067 -0.0675
 3033SOL    HW120735   2.607   1.344   8.521  1.2708 -0.2457 -1.0991
 3033SOL    HW220736   2.671   1.478   8.497 -0.2600 -1.0584 -1.4435
 3034SOL     OW20737   4.347   4.517   1.433  0.0859  0.3850  0.3906
 3034SOL    HW120738   4.410   4.457   1.393 -1.0504 -1.5854  1.5668
 3034SOL    HW220739   4.323   4.473   1.515  0.2090  0.4815  0.4769
 3035SOL     OW20740   1.376   4.446   4.721 -0.2928  0.3321  0.0456
 3035SOL    HW120741   1.410   4.532   4.696 -2.2340  0.9793 -0.3652
 3035SOL    HW220742   1.459   4.401   4.703  0.2141  0.8110  1.1915
 3036SOL     OW20743   1.221   0.650   8.600  0.0090  0.1149  0.0645
 3036SOL    HW120744   1.257   0.728   8.558 -1.8184  1.0163  0.2027
 3036SOL    HW220745   1.290   0.584   8.595 -0.7321 -0.6703  0.2074
 3037SOL     OW20746   3.580   2.475   7.618 -0.6493  0.1080  0.1518
 3037SOL    HW120747   3.495   2.435   7.637 -0.2722 -0.4464  0.6890
 3037SOL    HW220748   3.624   2.436   7.693  0.4275  1.7116  0.3489
 3038SOL     OW20749   1.503   0.724   6.390  0.1423  0.0703 -0.2991
 3038SOL    HW120750   1.473   0.813   6.368 -1.2973  0.4679  3.1622
 3038SOL    HW220751   1.439   0.703   6.458 -1.6779  0.0449 -2.0073
 3039SOL     OW20752   3.610   2.169   2.423 -0.0437  0.3782 -0.3256
 3039SOL    HW120753   3.638   2.078   2.414  0.8440  0.8421 -2.4008
 3039SOL    HW220754   3.627   2.212   2.339 -1.6987  1.1501 -0.2700
 3040SOL     OW20755   4.288   2.561   7.850  0.2152  0.4731 -0.4469
 3040SOL    HW120756   4.311   2.491   7.789 -1.4772  0.4910 -1.1280
 3040SOL    HW220757   4.299   2.636   7.791  0.1739  1.4079  0.7455
 3041SOL     OW20758   3.509   0.422   7.968  0.6941  0.2286  0.1245
 3041SOL    HW120759   3.469   0.393   8.050 -0.8939 -1.9809 -1.4261
 3041SOL    HW220760   3.598   0.422   8.001  0.3110 -0.8889  1.1699
 3042SOL     OW20761   0.446   0.862   2.855 -0.3529  0.0717 -0.3423
 3042SOL    HW120762   0.491   0.815   2.785 -0.4222  2.4144 -1.9344
 3042SOL    HW220763   0.501   0.847   2.932 -0.2660  0.7651 -0.2752
 3043SOL     OW20764   2.846   1.627   4.573  0.1108 -0.5177  0.1238
 3043SOL    HW120765   2.916   1.614   4.637 -0.5051 -1.9091  0.5099
 3043SOL    HW220766   2.769   1.627   4.629  1.0079  1.1187  1.3673
 3044SOL     OW20767   2.913   3.651  15.299  0.4418 -0.3820 -0.4125
 3044SOL    HW120768   2.872   3.675  15.216 -0.9335 -2.4882 -0.3288
 3044SOL    HW220769   2.942   3.740  15.321  0.0759 -0.3637 -0.0123
 3045SOL     OW20770   0.714   4.243   5.791  0.0812  0.2445  0.5827
 3045SOL    HW120771   0.665   4.321   5.818 -0.8027 -1.8283  5.0065
 3045SOL    HW220772   0.744   4.271   5.704 -2.0671 -2.0278 -0.8674
 3046SOL     OW20773   3.828   3.041   1.844 -0.6215 -0.2020 -0.4531
 3046SOL    HW120774   3.786   2.959   1.868  1.9152 -1.3892 -0.0483
 3046SOL    HW220775   3.874   3.000   1.771  2.2386  1.1350  0.5833
 3047SOL     OW20776   2.792   1.566   1.929 -0.2649 -0.0880 -0.8885
 3047SOL    HW120777   2.767   1.562   1.836  1.4616  0.2423 -1.3654
 3047SOL    HW220778   2.708   1.573   1.975  0.6675  0.6445  0.6970
 3048SOL     OW20779   4.278   3.520  11.203  0.0104  0.0959 -0.0192
 3048SOL    HW120780   4.275   3.452  11.136  1.5712 -0.2746  0.2951
 3048SOL    HW220781   4.213   3.485  11.264 -1.7152  0.0367 -1.8871
 3049SOL     OW20782   2.438   2.300  12.586  0.1204 -0.0571 -0.2701
 3049SOL    HW120783   2.509   2.365  12.580  0.9247 -0.7880  1.3495
 3049SOL    HW220784   2.455   2.251  12.666 -0.0018  1.4800  0.7101
 3050SOL     OW20785   0.955   3.791  10.617 -0.2226 -0.0533  0.2493
 3050SOL    HW120786   0.890   3.857  10.642  2.9581  2.8306  0.8874
 3050SOL    HW220787   0.906   3.711  10.636 -0.6239  0.1983  0.2653
 3051SOL     OW20788   2.527   0.872   5.234  0.5286 -0.2597 -0.0465
 3051SOL    HW120789   2.478   0.800   5.273 -0.7617  0.6648  0.0467
 3051SOL    HW220790   2.597   0.884   5.298  1.1417  2.6936 -1.2414
 3052SOL     OW20791   0.754   0.469   8.057 -0.2165  0.0293 -0.2433
 3052SOL    HW120792   0.679   0.529   8.054 -0.7891 -0.6368  0.7502
 3052SOL    HW220793   0.736   0.403   8.124  1.1188 -0.7400 -0.6406
 3053SOL     OW20794   1.268   0.184   4.069  0.3472  0.3865 -0.2988
 3053SOL    HW120795   1.361   0.190   4.048  0.6567 -1.8724  0.5123
 3053SOL    HW220796   1.274   0.151   4.159 -2.4278 -2.2836 -1.1073
 3054SOL     OW20797   3.429   3.968   1.954  0.0263 -0.2295 -0.2065
 3054SOL    HW120798   3.485   3.941   1.881 -0.4393 -1.6682 -0.0164
 3054SOL    HW220799   3.493   4.032   1.986 -1.1553  1.2441 -0.7986
 3055SOL     OW20800   4.572   2.221   5.729  0.0709  0.1909 -0.0016
 3055SOL    HW120801   4.645   2.266   5.772 -1.5283  1.3982  1.4310
 3055SOL    HW220802   4.517   2.224   5.807  0.0871 -3.2881  0.1386
 3056SOL     OW20803   4.127   1.155  16.473 -0.0608 -0.0662  0.1609
 3056SOL    HW120804   4.124   1.148  16.378  1.3379 -1.7870  0.2285
 3056SOL    HW220805   4.165   1.243  16.480 -0.8091  0.2042  0.7697
 3057SOL     OW20806   1.745   4.690  16.930  0.5800 -0.5512 -0.0082
 3057SOL    HW120807   1.809   0.018  16.908 -0.2620  0.3069  0.1401
 3057SOL    HW220808   1.750   4.632  16.854 -1.1404 -0.5810 -0.1158
 3058SOL     OW20809   0.928   0.063   9.571  0.3642 -0.2274  0.7765
 3058SOL    HW120810   0.882   0.099   9.495  1.9348  0.0464 -0.0318
 3058SOL    HW220811   0.866   0.030   9.636  1.7039 -0.5526  1.8693
 3059SOL     OW20812   4.532   0.500   2.703 -0.2889 -0.4291 -0.2316
 3059SOL    HW120813   4.623   0.471   2.706 -0.0230  0.4938  0.6031
 3059SOL    HW220814   4.482   0.421   2.682 -1.6463  0.2052  0.5944
 3060SOL     OW20815   0.541   3.805   8.527 -0.4805  0.0555  0.4200
 3060SOL    HW120816   0.617   3.756   8.495  1.9725  4.3949 -0.5174
 3060SOL    HW220817   0.497   3.808   8.443  0.1558  1.7136  0.1370
 3061SOL     OW20818   3.460   3.841  15.946 -0.2292 -0.0216 -0.1730
 3061SOL    HW120819   3.486   3.916  15.893 -1.1352  0.2794 -0.1890
 3061SOL    HW220820   3.405   3.887  16.009  2.4402  0.9870  1.4157
 3062SOL     OW20821   2.691   3.445   0.383  0.6179 -0.0314  0.1011
 3062SOL    HW120822   2.621   3.460   0.320  0.9867 -0.7564 -0.4743
 3062SOL    HW220823   2.733   3.373   0.337  0.3421  1.4480 -2.4506
 3063SOL     OW20824   3.051   1.253   5.745 -0.3252 -0.4236  0.2588
 3063SOL    HW120825   3.093   1.275   5.661 -1.0226  3.7384  1.0165
 3063SOL    HW220826   3.064   1.338   5.786  2.2328 -0.2294 -0.9623
 3064SOL     OW20827   2.896   3.664   1.738 -0.0967  0.1477 -0.0261
 3064SOL    HW120828   2.822   3.685   1.681  0.0649 -1.3247 -0.7832
 3064SOL    HW220829   2.959   3.735   1.727  0.4308 -0.3215 -0.0159
 3065SOL     OW20830   1.047   1.842   2.142 -0.2588  0.1474  0.1644
 3065SOL    HW120831   1.104   1.767   2.127 -0.7725 -0.3001  0.4894
 3065SOL    HW220832   1.110   1.906   2.177  1.4228 -1.6404  0.4382
 3066SOL     OW20833   2.630   2.310   6.018 -0.1244  0.2407  0.2808
 3066SOL    HW120834   2.581   2.327   5.937  1.0536 -0.0085 -0.4818
 3066SOL    HW220835   2.563   2.264   6.069 -0.0124 -0.4134 -0.1653
 3067SOL     OW20836   1.188   3.187   6.308  0.0703 -0.0122  0.3079
 3067SOL    HW120837   1.219   3.214   6.395 -0.7153  0.3263  0.4826
 3067SOL    HW220838   1.180   3.272   6.265 -0.3404 -0.3682 -0.3078
 3068SOL     OW20839   0.596   1.891   2.934  0.3041  0.2535 -0.0906
 3068SOL    HW120840   0.664   1.959   2.931 -2.1176  2.7429  0.4226
 3068SOL    HW220841   0.619   1.839   2.858  0.1592 -0.9553  0.6884
 3069SOL     OW20842   0.661   4.525  10.023 -0.3527  0.2756 -0.2831
 3069SOL    HW120843   0.634   4.583  10.094  2.8500  0.4482  0.7923
 3069SOL    HW220844   0.707   4.584   9.963  2.7075  0.8671  2.6728
 3070SOL     OW20845   2.507   2.328   7.538  0.1629 -0.7486  0.0132
 3070SOL    HW120846   2.577   2.392   7.531  1.7639 -2.3751  1.1708
 3070SOL    HW220847   2.481   2.301   7.450  1.7096 -2.6094  0.1131
 3071SOL     OW20848   2.621   0.981   4.501 -0.1004 -0.0279  0.3230
 3071SOL    HW120849   2.715   0.964   4.501  0.0994  1.0762 -0.8359
 3071SOL    HW220850   2.592   0.890   4.509  2.4837 -0.7406  1.8639
 3072SOL     OW20851   3.608   4.270   7.828  0.5713 -0.7956  0.3907
 3072SOL    HW120852   3.701   4.292   7.838  0.5184 -1.3128  2.0036
 3072SOL    HW220853   3.594   4.265   7.733 -0.1730  3.0245  0.3236
 3073SOL     OW20854   1.220   0.344  12.439 -0.2274 -0.1089 -0.0613
 3073SOL    HW120855   1.238   0.300  12.355  0.4413  1.9450 -0.9765
 3073SOL    HW220856   1.277   0.283  12.486  0.8739  0.6556 -0.4005
 3074SOL     OW20857   3.226   0.474   9.389 -0.3239  0.0545  0.8494
 3074SOL    HW120858   3.313   0.432   9.392 -0.8885 -1.1879  0.1157
 3074SOL    HW220859   3.214   0.492   9.482  0.0058  1.3811  0.6367
 3075SOL     OW20860   4.707   3.947  12.910  0.8263 -0.0077  0.0273
 3075SOL    HW120861   4.666   3.936  12.995 -2.5239 -1.7202 -1.8004
 3075SOL    HW220862   4.685   4.038  12.889 -1.5276 -0.3472  1.0543
 3076SOL     OW20863   0.373   0.110   5.458 -0.6557 -0.3286  0.6346
 3076SOL    HW120864   0.396   0.164   5.383  0.3809  0.0187  1.2025
 3076SOL    HW220865   0.419   0.028   5.440 -2.7085 -1.7668  1.8125
 3077SOL     OW20866   0.106   2.794   7.329 -0.0476  0.9408  0.2112
 3077SOL    HW120867   0.117   2.716   7.384 -3.0619 -1.3478 -2.4542
 3077SOL    HW220868   0.180   2.789   7.268  0.1453  0.8919  0.4496
 3078SOL     OW20869   2.126   2.054   9.726 -0.1344  0.3788 -0.1187
 3078SOL    HW120870   2.165   2.063   9.813 -0.0356 -0.3786 -0.0894
 3078SOL    HW220871   2.208   2.056   9.676  0.3152 -1.3912  0.5823
 3079SOL     OW20872   3.735   4.438  14.415 -1.0236  0.5491  0.0072
 3079SOL    HW120873   3.655   4.472  14.375 -1.2387 -0.1798 -0.1949
 3079SOL    HW220874   3.751   4.493  14.491  2.6079 -2.3553  1.3469
 3080SOL     OW20875   2.217   3.962   6.394  0.4199  0.0105 -0.6022
 3080SOL    HW120876   2.197   4.024   6.323 -0.7729 -0.6743 -0.8644
 3080SOL    HW220877   2.227   3.883   6.341  0.1097 -0.8923  0.6962
 3081SOL     OW20878   1.871   0.572   2.573  0.2462  0.0696  0.4067
 3081SOL    HW120879   1.906   0.483   2.568 -0.9364 -0.2803 -2.0398
 3081SOL    HW220880   1.816   0.577   2.495  1.4535  1.0831 -0.3857
 3082SOL     OW20881   2.013   0.559   1.767  0.3813  0.0281  0.0465
 3082SOL    HW120882   2.103   0.534   1.744  0.5888 -0.7488  1.6751
 3082SOL    HW220883   2.027   0.591   1.856  0.2116 -0.0725  0.1083
 3083SOL     OW20884   3.482   1.732   8.176  0.1096  0.3522  0.0978
 3083SOL    HW120885   3.519   1.818   8.190  0.2703  0.3159 -0.1110
 3083SOL    HW220886   3.543   1.689   8.115 -2.2692 -0.0889 -2.0066
 3084SOL     OW20887   3.747   1.950  16.612 -0.0370 -0.0152 -0.0706
 3084SOL    HW120888   3.762   2.032  16.565  1.0775 -0.3796 -0.3581
 3084SOL    HW220889   3.773   1.975  16.700 -0.0472 -1.8489  0.4549
 3085SOL     OW20890   3.347   2.607  11.352 -0.1506  0.5403  0.0513
 3085SOL    HW120891   3.401   2.685  11.358  1.8584 -0.7148 -1.4000
 3085SOL    HW220892   3.367   2.556  11.430 -0.4286  0.9451  0.3858
 3086SOL     OW20893   3.006   2.061   9.854  0.1202  0.0205  0.7639
 3086SOL    HW120894   3.018   2.080   9.761 -0.0045  0.7759  0.9049
 3086SOL    HW220895   2.974   2.145   9.885 -2.4545 -0.6283 -0.1309
 3087SOL     OW20896   2.879   3.159  15.259 -0.1297 -0.4055  0.4636
 3087SOL    HW120897   2.860   3.246  15.294  0.5909 -0.0663  0.0256
 3087SOL    HW220898   2.919   3.187  15.177  1.1253 -3.7551 -0.0976
 3088SOL     OW20899   4.094   4.474  13.484  0.4789  0.0953 -0.3304
 3088SOL    HW120900   4.109   4.451  13.392 -1.2448 -3.5394  0.3189
 3088SOL    HW220901   4.087   4.389  13.527  0.4969  0.9909  1.4231
 3089SOL     OW20902   1.495   2.773   8.963 -0.6195 -0.0678  0.1765
 3089SOL    HW120903   1.436   2.815   9.026 -0.6100 -0.1571  0.2435
 3089SOL    HW220904   1.548   2.719   9.020 -0.1988  0.5131  0.3387
 3090SOL     OW20905   2.288   0.714   3.059 -0.1881 -0.0594  0.3761
 3090SOL    HW120906   2.310   0.676   3.145 -0.6551  0.1489  0.5837
 3090SOL    HW220907   2.248   0.638   3.018  1.7143 -0.6756 -0.3181
 3091SOL     OW20908   4.037   3.555   2.598  0.2290 -0.2026 -0.3554
 3091SOL    HW120909   4.053   3.465   2.629 -0.7743  0.1043  1.0693
 3091SOL    HW220910   4.076   3.610   2.666 -0.1498  1.2241 -1.3059
 3092SOL     OW20911   4.039   0.051   2.565 -0.6520 -0.0918  0.5074
 3092SOL    HW120912   4.054   0.033   2.658  1.0502 -0.0115  0.2464
 3092SOL    HW220913   3.945   0.042   2.550 -0.6006 -2.2697  1.5622
 3093SOL     OW20914   1.217   1.844  12.268  0.0181  0.0419 -0.0235
 3093SOL    HW120915   1.313   1.842  12.267  0.0183  0.2555 -1.5391
 3093SOL    HW220916   1.184   1.869  12.181 -0.7064 -1.6760 -0.2466
 3094SOL     OW20917   3.057   0.721   6.988  0.4088 -0.4315 -0.1488
 3094SOL    HW120918   3.087   0.631   6.981 -0.8694 -0.8954  0.3965
 3094SOL    HW220919   2.987   0.706   7.051  0.8710 -1.8612  0.0161
 3095SOL     OW20920   4.732   0.204   6.276  0.5611 -0.4606 -0.2967
 3095SOL    HW120921   0.071   0.245   6.239  0.0694  0.4322 -0.3440
 3095SOL    HW220922   4.662   0.265   6.254 -1.3670 -2.2233  0.9518
 3096SOL     OW20923   3.106   1.908   1.143  0.3167  0.0370  0.0135
 3096SOL    HW120924   3.155   1.978   1.186 -0.3213 -0.3797  1.4258
 3096SOL    HW220925   3.031   1.883   1.196  0.0365  1.1460  0.1465
 3097SOL     OW20926   3.455   2.941   4.802 -0.8185  0.0150  0.1198
 3097SOL    HW120927   3.360   2.945   4.811 -0.5275  2.6548  2.3205
 3097SOL    HW220928   3.475   3.035   4.798  1.3433 -0.4142  1.0586
 3098SOL     OW20929   0.355   4.569  14.775 -0.7248 -0.0380  0.1295
 3098SOL    HW120930   0.383   4.533  14.859 -1.6116 -1.4210 -0.1675
 3098SOL    HW220931   0.406   4.650  14.772 -2.4188  1.0402  0.6515
 3099SOL     OW20932   1.287   0.376   2.708 -0.3482  0.0732 -0.1908
 3099SOL    HW120933   1.381   0.367   2.722 -0.2802 -0.1927 -0.8437
 3099SOL    HW220934   1.287   0.437   2.634 -0.5445  2.3262  1.6728
 3100SOL     OW20935   1.588   1.735   4.403 -0.1042 -0.3643 -0.8330
 3100SOL    HW120936   1.523   1.756   4.337  1.0864 -1.0178 -2.2022
 3100SOL    HW220937   1.559   1.786   4.479  0.5207 -2.6767  0.9512
 3101SOL     OW20938   4.329   2.803   3.926 -0.8600 -0.3576 -0.4414
 3101SOL    HW120939   4.366   2.829   4.010 -0.6161 -0.4646 -0.5170
 3101SOL    HW220940   4.240   2.833   3.947 -0.3666  1.1229 -0.4789
 3102SOL     OW20941   3.441   3.493   9.608  0.1383 -0.5250 -0.7581
 3102SOL    HW120942   3.487   3.411   9.627 -3.1362 -2.2228 -0.0825
 3102SOL    HW220943   3.467   3.513   9.518 -2.0862 -1.1580 -1.5497
 3103SOL     OW20944   3.970   4.493   2.312  0.6502 -0.3212 -0.2397
 3103SOL    HW120945   4.009   4.406   2.305  1.8393  0.1829  0.0494
 3103SOL    HW220946   4.034   4.531   2.373  0.4187  1.3766 -1.0352
 3104SOL     OW20947   1.028   1.244  14.803 -0.1261 -0.0690 -0.2780
 3104SOL    HW120948   1.034   1.165  14.749  1.7956 -0.5804  0.7080
 3104SOL    HW220949   0.934   1.245  14.822 -0.0861 -0.6447 -0.0532
 3105SOL     OW20950   2.285   1.594   8.267 -0.8562  0.4825 -0.3966
 3105SOL    HW120951   2.244   1.649   8.200 -2.3530  0.4966  0.5269
 3105SOL    HW220952   2.354   1.546   8.221 -1.0862 -0.6860  0.4623
 3106SOL     OW20953   1.347   1.473   3.412  0.5454 -0.2112 -0.2835
 3106SOL    HW120954   1.322   1.514   3.495 -0.7193 -3.6764  1.0642
 3106SOL    HW220955   1.308   1.533   3.349  0.7800  1.7216  1.4140
 3107SOL     OW20956   1.840   2.231   3.778 -0.2410  0.2666  0.2984
 3107SOL    HW120957   1.876   2.316   3.804  1.4907 -0.4976  0.3962
 3107SOL    HW220958   1.912   2.179   3.741 -1.9826 -0.4788 -2.0162
 3108SOL     OW20959   1.586   2.744   4.246 -0.3231 -0.2987  0.0129
 3108SOL    HW120960   1.654   2.731   4.312 -1.6703 -0.5751  1.3469
 3108SOL    HW220961   1.510   2.756   4.303 -0.3045  0.2969 -0.0862
 3109SOL     OW20962   2.981   1.328   6.740  0.3389  1.0280  0.3473
 3109SOL    HW120963   3.045   1.356   6.805  0.1319  2.7619 -0.1984
 3109SOL    HW220964   3.027   1.258   6.693 -0.8874  1.2654 -1.2153
 3110SOL     OW20965   0.559   3.800   1.811  0.1774 -0.3002  0.0148
 3110SOL    HW120966   0.509   3.861   1.756 -0.9991  1.0120  2.4871
 3110SOL    HW220967   0.644   3.809   1.769  0.7213  3.1472  1.8103
 3111SOL     OW20968   2.240   4.046  16.909 -0.2685 -0.4423  0.5318
 3111SOL    HW120969   2.293   3.970  16.884 -1.2872 -0.1755 -2.4417
 3111SOL    HW220970   2.292   4.116  16.869  1.1936 -1.8052  0.0711
 3112SOL     OW20971   0.862   2.324  15.348 -0.4540  0.0905  0.6395
 3112SOL    HW120972   0.905   2.331  15.434  1.0971 -0.4365 -0.1042
 3112SOL    HW220973   0.812   2.405  15.335  1.8673  1.0873 -2.1896
 3113SOL     OW20974   2.336   4.118  17.554  0.0020  0.0985 -0.4396
 3113SOL    HW120975   2.249   4.125  17.513 -0.2354 -2.0500 -0.2842
 3113SOL    HW220976   2.358   4.210  17.538 -0.6634  0.7220  2.2416
 3114SOL     OW20977   0.585   2.988  12.144  0.3461  0.2656  0.1215
 3114SOL    HW120978   0.667   3.010  12.102  0.4476 -4.1344 -2.0160
 3114SOL    HW220979   0.605   3.027  12.229 -2.3712 -3.7665  2.6716
 3115SOL     OW20980   2.033   0.986   1.819  0.2489 -0.2015 -0.1134
 3115SOL    HW120981   2.037   0.900   1.778 -0.1410  0.7038 -2.0512
 3115SOL    HW220982   2.029   0.971   1.914  1.8299  0.4090  0.0495
 3116SOL     OW20983   4.402   4.725   6.687  0.3168 -0.5386  0.0392
 3116SOL    HW120984   4.480   0.025   6.649  0.2420 -0.4175  0.0131
 3116SOL    HW220985   4.419   4.643   6.640 -0.8792 -0.2392 -0.9067
 3117SOL     OW20986   0.045   4.036   3.403  0.1693 -0.3226  0.1791
 3117SOL    HW120987   0.088   3.979   3.340 -0.2424 -0.0133 -0.3840
 3117SOL    HW220988   4.735   4.077   3.332  1.1645 -0.6975 -0.7163
 3118SOL     OW20989   4.665   2.862  16.300 -0.0795 -0.2838  0.2641
 3118SOL    HW120990   4.726   2.935  16.294 -1.6242  0.9442 -0.1835
 3118SOL    HW220991   4.590   2.900  16.256 -0.7661 -1.4789  0.3893
 3119SOL     OW20992   3.314   3.689   8.184  0.8350 -0.5429 -0.1480
 3119SOL    HW120993   3.229   3.710   8.223  1.1086 -1.2087  0.8124
 3119SOL    HW220994   3.364   3.662   8.261 -0.8767 -0.2570  1.0675
 3120SOL     OW20995   3.011   0.194  15.100 -0.0278  0.2707  0.0338
 3120SOL    HW120996   3.013   0.122  15.037 -1.1168  1.2614 -1.1464
 3120SOL    HW220997   3.031   0.152  15.184 -0.9828 -1.5736 -0.6683
 3121SOL     OW20998   4.038   2.111  11.988 -0.3250  0.0307  0.3312
 3121SOL    HW120999   3.991   2.048  11.933 -0.9312 -1.0348  2.0653
 3121SOL    HW221000   4.021   2.191  11.940  0.8692 -0.7323 -1.3796
 3122SOL     OW21001   4.626   1.814  15.616 -0.5678 -0.3087 -0.0162
 3122SOL    HW121002   4.697   1.761  15.581  0.2547  1.3069 -0.8172
 3122SOL    HW221003   4.613   1.770  15.700  2.7226 -0.6059  0.3296
 3123SOL     OW21004   2.772   2.130  11.837  0.3484  0.2412  0.5646
 3123SOL    HW121005   2.730   2.052  11.803  1.7746  0.2110 -1.1300
 3123SOL    HW221006   2.690   2.173  11.860  0.4612  1.6452 -1.7165
 3124SOL     OW21007   3.809   3.672  16.498  0.6988 -0.2357  0.9620
 3124SOL    HW121008   3.823   3.598  16.439  0.5062 -0.1794  0.8453
 3124SOL    HW221009   3.772   3.636  16.578  1.3642  0.1297  1.4326
 3125SOL     OW21010   3.732   2.193   9.239  0.2834 -0.5117  0.1458
 3125SOL    HW121011   3.663   2.207   9.173 -1.1178 -2.0620  1.2707
 3125SOL    HW221012   3.738   2.098   9.228  2.2130 -0.4155  0.4360
 3126SOL     OW21013   0.766   2.048   6.845  0.4143  0.0138  0.0210
 3126SOL    HW121014   0.813   2.057   6.763 -0.0411  1.4709 -0.0908
 3126SOL    HW221015   0.835   2.002   6.893  0.5235 -0.0780 -0.2267
 3127SOL     OW21016   2.322   4.610   4.438 -0.0061  0.7830 -0.0426
 3127SOL    HW121017   2.316   4.622   4.343  1.3190  3.7724  0.2557
 3127SOL    HW221018   2.240   4.646   4.471 -0.3029  0.8566 -0.8493
 3128SOL     OW21019   1.109   0.811   9.954 -0.9864 -0.3427  0.6140
 3128SOL    HW121020   1.095   0.900   9.923 -0.0995 -0.9583 -1.5913
 3128SOL    HW221021   1.201   0.803   9.928 -0.9993 -1.6919  0.9738
 3129SOL     OW21022   3.120   0.780  12.358 -0.1184 -0.0030  0.3570
 3129SOL    HW121023   3.155   0.700  12.318 -2.2995  0.1031 -1.7501
 3129SOL    HW221024   3.128   0.839  12.282 -1.2714  1.7772  1.6114
 3130SOL     OW21025   3.457   0.741   7.455  0.4459 -0.1482  0.1993
 3130SOL    HW121026   3.421   0.807   7.396  5.4022  0.6493 -1.9281
 3130SOL    HW221027   3.449   0.762   7.548  1.6804  0.9468  0.0592
 3131SOL     OW21028   3.910   0.439   4.672 -0.3194 -0.4918 -0.0305
 3131SOL    HW121029   3.986   0.403   4.627 -0.0618  0.4221 -0.3233
 3131SOL    HW221030   3.878   0.504   4.609 -1.4249 -0.8285  0.1773
 3132SOL     OW21031   2.795   0.403  11.299 -0.4004  0.0858 -0.7114
 3132SOL    HW121032   2.735   0.340  11.261 -2.6578  2.6632 -1.4108
 3132SOL    HW221033   2.744   0.483  11.288 -0.2964  0.3533  0.6458
 3133SOL     OW21034   4.255   4.499   4.110 -0.1314 -0.0108  0.0489
 3133SOL    HW121035   4.266   4.457   4.025 -2.3337 -0.5716  0.0186
 3133SOL    HW221036   4.205   4.433   4.160 -2.4274  1.2323 -0.5878
 3134SOL     OW21037   3.167   0.391   2.486 -0.7334  0.7289  0.1576
 3134SOL    HW121038   3.173   0.297   2.467 -1.7462  0.9172 -1.0930
 3134SOL    HW221039   3.144   0.383   2.579  1.7557 -3.9718  0.3289
 3135SOL     OW21040   1.892   4.052  11.705 -0.8790 -0.5015  0.1957
 3135SOL    HW121041   1.979   4.073  11.672 -1.4286 -0.2361 -1.0883
 3135SOL    HW221042   1.930   3.977  11.752 -2.4896  1.7744  5.1242
 3136SOL     OW21043   3.317   3.535   5.424 -0.6192 -0.5672  0.4490
 3136SOL    HW121044   3.294   3.627   5.412  1.8979 -0.0031 -0.0491
 3136SOL    HW221045   3.412   3.539   5.409 -0.5989  1.0707  0.9775
 3137SOL     OW21046   2.642   3.929   2.079 -0.0676 -0.0420  0.2725
 3137SOL    HW121047   2.681   3.934   1.992  1.3897 -1.3292  0.8599
 3137SOL    HW221048   2.705   3.993   2.114 -0.6340  0.9513 -0.5267
 3138SOL     OW21049   0.844   3.733  14.578  0.4041 -0.4243  0.4952
 3138SOL    HW121050   0.900   3.773  14.511 -3.1119  0.9773 -1.5952
 3138SOL    HW221051   0.868   3.642  14.565  1.7666 -0.2641  1.9122
 3139SOL     OW21052   1.929   1.830   8.517 -0.0749 -0.1960  0.4175
 3139SOL    HW121053   2.013   1.785   8.508  0.5368  0.5111  2.4855
 3139SOL    HW221054   1.920   1.823   8.612  0.1059 -0.4616  0.4159
 3140SOL     OW21055   0.653   1.512   0.060 -0.1433 -0.0597  0.4901
 3140SOL    HW121056   0.573   1.485   0.015  1.4775 -2.4069 -0.9954
 3140SOL    HW221057   0.670   1.598   0.022 -1.2580  0.7655  1.8595
 3141SOL     OW21058   2.024   0.746   3.784  0.1365  0.3968 -0.3944
 3141SOL    HW121059   1.945   0.706   3.821 -1.1626  2.2634 -1.0991
 3141SOL    HW221060   2.028   0.827   3.836  1.7260 -0.6138  1.0240
 3142SOL     OW21061   0.846   0.087   3.606 -0.3598  0.1943 -0.7193
 3142SOL    HW121062   0.777   0.090   3.673  1.1955 -1.2841  0.9550
 3142SOL    HW221063   0.855   0.181   3.593 -0.0687  0.4492  1.3236
 3143SOL     OW21064   3.151   0.984   9.545 -0.0079 -0.1147  0.8309
 3143SOL    HW121065   3.158   0.981   9.641 -1.2073 -1.0878  0.8922
 3143SOL    HW221066   3.106   0.900   9.532  0.8802 -0.2880 -1.0093
 3144SOL     OW21067   0.220   0.156   4.824 -0.2327 -0.4464 -0.0768
 3144SOL    HW121068   0.262   0.071   4.817  1.0487  0.3030 -1.4809
 3144SOL    HW221069   0.294   0.216   4.815 -0.1535 -0.2649  1.8652
 3145SOL     OW21070   1.359   3.305   6.603 -0.1633 -0.5882 -0.5381
 3145SOL    HW121071   1.384   3.249   6.676  0.3978 -0.9740 -1.0185
 3145SOL    HW221072   1.438   3.339   6.561 -1.1096  1.7848 -0.3870
 3146SOL     OW21073   3.976   4.696  11.592 -0.3397 -0.0863  0.4212
 3146SOL    HW121074   4.048   4.726  11.648 -0.4377 -0.3418  0.6867
 3146SOL    HW221075   3.916   0.030  11.587 -0.9383 -0.5107  1.3490
 3147SOL     OW21076   0.172   4.367  16.084 -0.0058  0.0022 -0.3183
 3147SOL    HW121077   0.089   4.319  16.080  0.7394 -1.1847 -1.9101
 3147SOL    HW221078   0.237   4.309  16.043  1.1258  2.3577 -1.8327
 3148SOL     OW21079   4.364   3.910   5.618  0.1919 -0.0650 -0.8564
 3148SOL    HW121080   4.303   3.906   5.692  2.8473 -0.7361  1.2809
 3148SOL    HW221081   4.439   3.866   5.658  0.0546  0.1428 -0.3654
 3149SOL     OW21082   2.425   3.491   0.306  0.2929  0.7382 -0.4719
 3149SOL    HW121083   2.430   3.546   0.384 -3.1132  1.7867 -0.9541
 3149SOL    HW221084   2.379   3.553   0.250 -1.3201  0.6818  0.7807
 3150SOL     OW21085   1.055   1.259   0.820 -0.1172  0.4448 -0.2603
 3150SOL    HW121086   1.005   1.183   0.850  1.2142  0.0811  1.0733
 3150SOL    HW221087   0.994   1.332   0.826  0.4435  0.8343  0.7620
 3151SOL     OW21088   1.423   0.073   9.645  0.1322  0.0930 -0.3925
 3151SOL    HW121089   1.342   0.035   9.613  0.7981 -1.3870 -0.3140
 3151SOL    HW221090   1.399   0.165   9.655  0.2020  0.1369 -0.6436
 3152SOL     OW21091   3.065   1.574   1.868 -0.2998  0.3246  0.2415
 3152SOL    HW121092   2.981   1.592   1.910 -0.6032  1.7824 -0.9519
 3152SOL    HW221093   3.116   1.525   1.932  1.7203  3.2876  0.9533
 3153SOL     OW21094   2.094   0.252   3.538 -0.1473 -0.3681 -0.6493
 3153SOL    HW121095   2.023   0.288   3.592  0.1705 -0.2998 -0.2812
 3153SOL    HW221096   2.036   0.228   3.466  0.9312 -2.1529 -0.9130
 3154SOL     OW21097   0.457   1.408   0.452  0.0034 -0.5927 -0.4702
 3154SOL    HW121098   0.458   1.329   0.399  1.9703  0.0066 -1.3624
 3154SOL    HW221099   0.499   1.475   0.397  0.6057 -1.3916 -0.9716
 3155SOL     OW21100   3.703   2.150   8.779  0.9627 -0.2983 -0.4439
 3155SOL    HW121101   3.641   2.086   8.816  0.6161  0.6272  0.5717
 3155SOL    HW221102   3.734   2.095   8.707 -0.5994 -0.8466 -0.7028
 3156SOL     OW21103   2.200   0.868   5.565 -0.4408 -0.2993  0.3726
 3156SOL    HW121104   2.291   0.842   5.547  0.1188  1.3553  0.7619
 3156SOL    HW221105   2.154   0.785   5.562 -1.6215  0.4262 -1.7549
 3157SOL     OW21106   3.964   1.248   7.161 -0.3033 -0.4524  0.0323
 3157SOL    HW121107   3.954   1.153   7.169  0.1005 -0.3571  1.5328
 3157SOL    HW221108   3.884   1.277   7.205 -0.6222 -0.2287 -0.6957
 3158SOL     OW21109   2.759   1.718   3.212 -0.2463 -0.1298  0.3614
 3158SOL    HW121110   2.682   1.707   3.155 -0.4964 -2.2709  1.1184
 3158SOL    HW221111   2.752   1.642   3.268  0.6561  0.8501  1.7940
 3159SOL     OW21112   1.289   1.635   3.615  0.4790 -0.5237  0.3279
 3159SOL    HW121113   1.238   1.597   3.686 -1.2231  2.3915  0.6370
 3159SOL    HW221114   1.249   1.721   3.604  1.5314  0.1133  1.5108
 3160SOL     OW21115   3.167   1.603   7.536  0.0047 -0.1687 -0.3388
 3160SOL    HW121116   3.132   1.681   7.579  0.0458  0.4487 -1.4137
 3160SOL    HW221117   3.249   1.635   7.497  2.0782 -0.8603  3.3844
 3161SOL     OW21118   1.514   1.562   3.748  0.1823 -0.2396  0.1875
 3161SOL    HW121119   1.473   1.481   3.720  3.1369 -1.3873 -0.8305
 3161SOL    HW221120   1.482   1.627   3.686 -3.2632 -1.9577  0.1515
 3162SOL     OW21121   1.489   3.748   8.744 -0.5090 -0.0774  0.0333
 3162SOL    HW121122   1.538   3.781   8.668 -2.0653  0.9817 -0.4990
 3162SOL    HW221123   1.445   3.673   8.703  0.7455 -1.3826  1.0509
 3163SOL     OW21124   1.149   0.661   6.985 -0.2915 -0.0952 -0.3810
 3163SOL    HW121125   1.086   0.592   6.968 -1.6295  0.7634  1.0726
 3163SOL    HW221126   1.120   0.731   6.927 -1.1470 -0.4342 -0.3600
 3164SOL     OW21127   0.877   3.669  13.983  0.9213 -0.1138 -0.8098
 3164SOL    HW121128   0.801   3.621  13.950 -0.8175  1.7881  0.4515
 3164SOL    HW221129   0.953   3.629  13.940  1.7715 -0.3595  0.9276
 3165SOL     OW21130   2.601   3.716   8.389  0.8754 -0.4337  0.0204
 3165SOL    HW121131   2.606   3.636   8.337  0.9922 -0.2320 -0.2738
 3165SOL    HW221132   2.580   3.781   8.323  1.0944 -2.2504 -1.8276
 3166SOL     OW21133   1.815   4.537   0.017 -1.0961  0.0512 -0.4650
 3166SOL    HW121134   1.788   4.606  17.712 -0.1513  0.0276 -0.9101
 3166SOL    HW221135   1.886   4.503  17.720 -1.7749 -1.1970 -0.5687
 3167SOL     OW21136   4.371   1.358  16.543 -0.4332 -0.1592 -0.6083
 3167SOL    HW121137   4.461   1.384  16.563 -0.8008 -1.5193  2.6589
 3167SOL    HW221138   4.319   1.360  16.623 -1.3052 -1.1905 -1.1505
 3168SOL     OW21139   2.514   0.181   3.097  0.0298 -0.1699  0.2515
 3168SOL    HW121140   2.596   0.200   3.051  1.1943 -1.8503  1.6114
 3168SOL    HW221141   2.518   0.086   3.102 -0.5945 -0.2752 -1.4200
 3169SOL     OW21142   3.303   3.464   0.089  0.2379 -0.3496 -0.1018
 3169SOL    HW121143   3.398   3.457   0.101  0.1138 -2.1391 -0.0952
 3169SOL    HW221144   3.296   3.458  17.750  1.2880  2.7140 -0.3574
 3170SOL     OW21145   2.514   1.667   3.450  0.1544 -0.6668  0.0002
 3170SOL    HW121146   2.500   1.762   3.457 -2.7119 -1.0889 -0.1236
 3170SOL    HW221147   2.424   1.635   3.460 -0.7233  1.3066 -1.6181
 3171SOL     OW21148   3.986   2.438   2.223  0.8427  0.5574  0.3410
 3171SOL    HW121149   3.959   2.374   2.157  0.6178 -0.3353  1.3054
 3171SOL    HW221150   3.932   2.412   2.297  0.4973 -0.6512 -0.3254
 3172SOL     OW21151   3.640   0.539   8.521 -0.2275  0.0790 -0.5007
 3172SOL    HW121152   3.600   0.460   8.484  0.0108 -0.4529  0.3864
 3172SOL    HW221153   3.707   0.505   8.580 -1.6048 -0.2977  0.8473
 3173SOL     OW21154   2.528   1.505   6.390  0.7349  0.3657 -0.3873
 3173SOL    HW121155   2.566   1.472   6.472 -1.9597 -2.5202 -0.2933
 3173SOL    HW221156   2.522   1.416   6.355  0.7729  0.3341 -0.3144
 3174SOL     OW21157   2.940   4.628   5.449  0.7994 -0.5023 -0.1162
 3174SOL    HW121158   2.882   4.682   5.396 -0.1414 -0.4678  0.9746
 3174SOL    HW221159   3.017   4.611   5.393  1.3120 -0.9093  0.7064
 3175SOL     OW21160   2.124   2.333   3.689  0.4304  0.4820  0.6018
 3175SOL    HW121161   2.080   2.379   3.617 -0.5460 -1.5716 -0.1161
 3175SOL    HW221162   2.103   2.243   3.662 -0.5490  0.7596  0.4560
 3176SOL     OW21163   0.747   0.422   5.077  0.1170 -0.1621 -0.5958
 3176SOL    HW121164   0.757   0.475   5.157  0.7826  0.1492 -0.8855
 3176SOL    HW221165   0.701   0.477   5.014  2.6030  1.4046 -1.0271
 3177SOL     OW21166   2.890   3.594   6.323  0.4025 -0.1807 -0.5603
 3177SOL    HW121167   2.876   3.517   6.267 -0.8540 -1.0574  0.9512
 3177SOL    HW221168   2.983   3.585   6.341  0.2825  0.7631  0.5354
 3178SOL     OW21169   2.319   2.492   2.385  0.1466 -0.3936  0.4957
 3178SOL    HW121170   2.276   2.550   2.323  0.8887  0.6005  0.9122
 3178SOL    HW221171   2.408   2.476   2.353 -1.0134 -1.7912 -2.0075
 3179SOL     OW21172   2.596   1.992   8.846 -0.7832  0.2383  0.3934
 3179SOL    HW121173   2.575   1.901   8.867 -1.4737  0.7949  2.0938
 3179SOL    HW221174   2.571   1.995   8.753  1.5039  0.4582 -0.2203
 3180SOL     OW21175   1.700   1.048  13.868  0.1336 -0.2453  0.0529
 3180SOL    HW121176   1.666   1.004  13.945  3.3810 -0.4873  1.3402
 3180SOL    HW221177   1.787   1.073  13.898  0.9317 -1.4897 -1.2350
 3181SOL     OW21178   1.927   1.069   8.895 -0.2891 -0.0765  0.1975
 3181SOL    HW121179   1.891   1.155   8.917  2.2442  0.9307  0.4319
 3181SOL    HW221180   1.936   1.031   8.982  1.9969 -2.0768 -0.8866
 3182SOL     OW21181   0.663   2.463   7.040  0.2136 -0.2403 -0.8562
 3182SOL    HW121182   0.611   2.536   7.008 -0.8875 -0.1495  1.1188
 3182SOL    HW221183   0.630   2.452   7.130  0.6349 -1.5280 -0.8651
 3183SOL     OW21184   2.365   1.794  11.766  0.0209 -0.0480 -0.3551
 3183SOL    HW121185   2.328   1.764  11.683 -0.2692 -0.1192 -0.2008
 3183SOL    HW221186   2.291   1.805  11.827  0.1643 -0.4783 -0.1027
 3184SOL     OW21187   1.363   3.500   3.635  0.5847  0.0365  0.0614
 3184SOL    HW121188   1.327   3.566   3.576  2.1480  0.0333 -0.8701
 3184SOL    HW221189   1.403   3.440   3.573 -1.0062 -0.3033 -0.6490
 3185SOL     OW21190   0.343   4.454   7.369  0.2452  0.5256 -0.2853
 3185SOL    HW121191   0.393   4.378   7.398 -0.4501  0.0327 -0.4004
 3185SOL    HW221192   0.314   4.490   7.453 -0.6160 -0.7584 -0.0460
 3186SOL     OW21193   0.759   0.819   9.300 -0.1584  0.0064 -0.6307
 3186SOL    HW121194   0.673   0.784   9.324  0.5882 -0.8487  0.7444
 3186SOL    HW221195   0.735   0.890   9.240 -1.2684 -0.4214 -0.7036
 3187SOL     OW21196   0.798   3.863   6.194 -0.1194 -0.3841  0.1977
 3187SOL    HW121197   0.742   3.870   6.116  1.2427  0.0715 -0.7441
 3187SOL    HW221198   0.771   3.782   6.238 -3.2302  0.3658 -0.2873
 3188SOL     OW21199   1.037   2.269   7.218  0.4523  0.0176 -0.3042
 3188SOL    HW121200   1.092   2.226   7.153  0.6968 -0.7853  0.4393
 3188SOL    HW221201   0.991   2.332   7.162  0.2795 -0.6442 -0.9027
 3189SOL     OW21202   3.736   0.078  14.900 -0.5594 -0.3594  0.3657
 3189SOL    HW121203   3.796   0.037  14.962 -1.2251 -1.8982 -0.0016
 3189SOL    HW221204   3.741   0.170  14.926  1.0079  0.3038 -2.2430
 3190SOL     OW21205   0.044   1.262  17.353  0.3194  0.9830  0.7099
 3190SOL    HW121206   0.128   1.303  17.333 -0.3859  1.8687 -0.3808
 3190SOL    HW221207   0.045   1.255  17.449  1.5712  1.6938  0.7395
 3191SOL     OW21208   2.068   2.265  12.275 -0.0352 -0.1995  0.6848
 3191SOL    HW121209   1.992   2.321  12.259 -0.3471 -0.2291  2.0785
 3191SOL    HW221210   2.029   2.178  12.272  0.4360 -0.3349 -1.9078
 3192SOL     OW21211   0.623   4.615   9.311 -0.2037 -0.2834  0.5850
 3192SOL    HW121212   0.625   4.609   9.216 -0.6428  0.0435  0.5577
 3192SOL    HW221213   0.537   4.575   9.325 -0.7033  0.1945 -1.2155
 3193SOL     OW21214   3.664   0.457   6.755  0.4149  0.1256 -0.5269
 3193SOL    HW121215   3.678   0.367   6.785  3.1732  0.1965 -1.5987
 3193SOL    HW221216   3.610   0.483   6.829  0.8513 -1.2829  0.2776
 3194SOL     OW21217   2.152   2.540   8.916  0.2832 -0.2068  0.3427
 3194SOL    HW121218   2.075   2.499   8.955 -1.1529  0.5311 -1.7803
 3194SOL    HW221219   2.153   2.620   8.968 -1.3816 -0.3223  0.5406
 3195SOL     OW21220   1.620   2.545   2.108  0.0319 -0.3258  0.3407
 3195SOL    HW121221   1.552   2.526   2.044  0.9328  0.9063 -0.9984
 3195SOL    HW221222   1.588   2.504   2.188  1.1026  1.2006  1.5467
 3196SOL     OW21223   0.073   1.252   6.659 -0.0328  0.0104  0.0297
 3196SOL    HW121224   0.110   1.338   6.638 -0.1352  0.0586  0.0448
 3196SOL    HW221225   0.000   1.234   6.600  1.1541  0.0481 -1.4423
 3197SOL     OW21226   1.317   3.201   4.212  0.3805  0.5403  0.0248
 3197SOL    HW121227   1.309   3.152   4.294  1.2569 -0.1267 -0.2889
 3197SOL    HW221228   1.233   3.247   4.211  0.3337  0.4742  0.8980
 3198SOL     OW21229   3.816   2.377   8.917  0.0720 -0.2554 -0.2845
 3198SOL    HW121230   3.892   2.380   8.975  1.1228  1.1653 -1.7635
 3198SOL    HW221231   3.802   2.293   8.873  0.1611 -0.6845  0.5108
 3199SOL     OW21232   3.915   2.428  13.468  0.8008 -0.0536 -0.3972
 3199SOL    HW121233   3.821   2.436  13.486  0.7897  0.4965 -0.6826
 3199SOL    HW221234   3.934   2.406  13.559 -1.5348 -1.0604 -0.1506
 3200SOL     OW21235   0.777   3.261   2.929  0.4677  0.5809 -0.0306
 3200SOL    HW121236   0.846   3.325   2.946  0.4613  0.1862  1.4507
 3200SOL    HW221237   0.797   3.227   2.841  0.7554  1.0952 -0.1619
 3201SOL     OW21238   2.712   0.030  16.308 -0.3462  0.8877  0.4735
 3201SOL    HW121239   2.639   0.091  16.316 -1.9011 -1.0777  0.9994
 3201SOL    HW221240   2.769   0.060  16.379 -0.4383  1.1249  0.4488
 3202SOL     OW21241   0.122   2.881   0.883  0.3649 -0.3039 -0.3675
 3202SOL    HW121242   0.041   2.897   0.932 -1.8218 -2.2282 -3.3954
 3202SOL    HW221243   0.157   2.968   0.867  2.7287 -1.0852  0.5567
 3203SOL     OW21244   2.495   2.236   2.380  0.3784 -0.0818 -0.2391
 3203SOL    HW121245   2.474   2.143   2.377  1.3658 -0.2605 -1.6706
 3203SOL    HW221246   2.462   2.263   2.295 -0.1319  0.7144  0.2123
 3204SOL     OW21247   3.232   4.149   2.554  0.4113  0.3803  0.1718
 3204SOL    HW121248   3.163   4.159   2.488 -1.5088 -0.5255  2.0622
 3204SOL    HW221249   3.241   4.228   2.607 -0.3482 -0.4670  1.5626
 3205SOL     OW21250   1.375   1.691  11.230  0.1880  0.6866 -0.1517
 3205SOL    HW121251   1.311   1.746  11.274  0.1201  0.6289 -0.1787
 3205SOL    HW221252   1.328   1.669  11.149 -1.0544 -2.2382  1.3492
 3206SOL     OW21253   0.227   4.375   1.649 -0.3212 -0.9253 -0.0361
 3206SOL    HW121254   0.234   4.470   1.638  0.3360 -1.1428 -1.4214
 3206SOL    HW221255   0.139   4.369   1.611 -0.7017 -0.6964  0.8004
 3207SOL     OW21256   1.220   0.793   5.262 -0.1751 -0.3096 -0.3160
 3207SOL    HW121257   1.154   0.860   5.280 -1.6201 -1.3026 -1.8968
 3207SOL    HW221258   1.227   0.750   5.347  0.6145  0.6160  0.0848
 3208SOL     OW21259   1.532   2.365   1.282  0.5025  0.3230 -0.3941
 3208SOL    HW121260   1.546   2.290   1.339  0.7239  1.0012  0.4463
 3208SOL    HW221261   1.553   2.438   1.340  0.8093  0.0461 -0.1583
 3209SOL     OW21262   2.118   2.517  17.501 -0.0502 -0.3733  0.3952
 3209SOL    HW121263   2.106   2.589  17.439 -0.2911 -1.7891 -1.2032
 3209SOL    HW221264   2.046   2.465  17.465  0.9113 -0.3317 -1.6323
 3210SOL     OW21265   2.517   4.471   8.584  0.5379 -0.1185  0.5956
 3210SOL    HW121266   2.564   4.509   8.510 -0.6475 -0.7662 -0.4823
 3210SOL    HW221267   2.446   4.425   8.539  1.4786 -0.1647 -0.8435
 3211SOL     OW21268   1.577   1.985  12.905 -0.0845  0.3898  0.4404
 3211SOL    HW121269   1.651   2.036  12.938 -0.1466  1.2749 -0.7649
 3211SOL    HW221270   1.525   2.056  12.866  1.7195  1.2705 -0.4223
 3212SOL     OW21271   0.356   0.432   8.152  0.1063 -0.2650 -0.1509
 3212SOL    HW121272   0.360   0.455   8.059 -0.5191  3.3790  0.6867
 3212SOL    HW221273   0.440   0.387   8.148  0.0823 -0.3218 -0.0185
 3213SOL     OW21274   1.277   2.452   5.578  0.3339 -0.1344 -0.1978
 3213SOL    HW121275   1.215   2.476   5.510 -1.7421 -2.4387  0.8688
 3213SOL    HW221276   1.340   2.401   5.526  0.4130  0.0954 -0.3287
 3214SOL     OW21277   2.025   3.173   2.137 -0.2092 -0.4110  0.5323
 3214SOL    HW121278   2.022   3.085   2.099  0.3152  0.1467 -0.8282
 3214SOL    HW221279   1.950   3.161   2.195 -0.9756  2.7450  0.1715
 3215SOL     OW21280   0.696   1.809   7.376 -0.1974 -0.1505 -0.2966
 3215SOL    HW121281   0.603   1.812   7.399 -0.2107 -0.1578 -0.3505
 3215SOL    HW221282   0.715   1.723   7.414 -0.5625 -0.2454 -0.3252
 3216SOL     OW21283   1.324   2.616   6.556  0.4747  0.1236  0.1209
 3216SOL    HW121284   1.262   2.633   6.484 -0.7528 -2.0450  0.6725
 3216SOL    HW221285   1.408   2.653   6.531  1.1554 -0.7628  1.1209
 3217SOL     OW21286   2.653   1.294   3.590 -0.0046  0.6187  0.5426
 3217SOL    HW121287   2.712   1.300   3.665 -0.9222 -0.4249  1.3400
 3217SOL    HW221288   2.703   1.331   3.517  0.1207  2.1676  1.4198
 3218SOL     OW21289   3.429   4.310  13.611 -0.3762 -0.8496 -0.2226
 3218SOL    HW121290   3.408   4.353  13.528  0.8659  1.3755  0.6211
 3218SOL    HW221291   3.399   4.219  13.606  0.9358 -1.3361  0.8041
 3219SOL     OW21292   3.094   3.795   8.669 -0.1819 -0.3641  0.1038
 3219SOL    HW121293   3.010   3.751   8.683  0.1107 -0.5034  1.4234
 3219SOL    HW221294   3.073   3.884   8.697 -1.2316 -0.1691 -1.3086
 3220SOL     OW21295   3.867   0.018   3.904  0.2840 -0.4098  0.5060
 3220SOL    HW121296   3.919   0.031   3.824  2.9124 -1.2042  2.0941
 3220SOL    HW221297   3.934   0.038   3.969  0.3848  2.4306 -0.4782
 3221SOL     OW21298   4.459   0.410   2.261 -0.3018 -0.3479 -0.3427
 3221SOL    HW121299   4.440   0.484   2.204 -1.7785 -0.7210 -0.3301
 3221SOL    HW221300   4.498   0.344   2.204 -0.5358 -2.1470  1.5691
 3222SOL     OW21301   2.187   2.302   9.107  0.3570 -0.1272  0.1809
 3222SOL    HW121302   2.226   2.284   9.021 -0.2037 -0.0746 -0.0884
 3222SOL    HW221303   2.224   2.388   9.126 -2.0470  1.0421 -0.4409
 3223SOL     OW21304   4.244   3.113   5.530  0.2777 -0.4511  0.4246
 3223SOL    HW121305   4.274   3.131   5.619  0.2393  2.3562 -0.1216
 3223SOL    HW221306   4.256   3.199   5.489  1.0936 -0.6217  0.2963
 3224SOL     OW21307   3.005   0.138   4.853 -0.5155 -0.0323  0.3067
 3224SOL    HW121308   2.945   0.068   4.877  1.0120 -1.9881 -1.5699
 3224SOL    HW221309   3.091   0.095   4.846 -0.9717 -0.7004 -1.0774
 3225SOL     OW21310   0.823   1.202   6.630 -0.1711 -0.3870  0.2368
 3225SOL    HW121311   0.733   1.170   6.622 -0.4368  0.6579 -0.8289
 3225SOL    HW221312   0.858   1.148   6.559 -1.4610 -0.5960 -0.2354
 3226SOL     OW21313   1.757   0.181   6.144 -0.0192 -0.4115  0.1377
 3226SOL    HW121314   1.815   0.189   6.220  1.9550 -0.6642 -1.3366
 3226SOL    HW221315   1.782   0.094   6.114  2.6724 -0.1935  1.6701
 3227SOL     OW21316   1.033   1.008  14.656 -0.4970  0.3518  0.1752
 3227SOL    HW121317   0.997   0.958  14.583  0.5440 -0.4981  0.2453
 3227SOL    HW221318   0.976   0.967  14.721 -1.3095  1.9726  0.4730
 3228SOL     OW21319   1.008   0.893   8.815  0.2081  0.8701  0.1641
 3228SOL    HW121320   0.934   0.837   8.792 -1.9037  3.3683  0.9429
 3228SOL    HW221321   0.966   0.937   8.889  0.7588 -0.0064  1.0071
 3229SOL     OW21322   1.135   0.353  16.567  0.3021 -0.4046 -0.1828
 3229SOL    HW121323   1.147   0.447  16.584  1.2405 -0.3217 -1.3118
 3229SOL    HW221324   1.041   0.338  16.579 -0.2599  2.0359 -1.5656
 3230SOL     OW21325   1.714   4.409  10.365 -0.5028 -0.3041  0.5674
 3230SOL    HW121326   1.752   4.474  10.424  0.3130  0.6979 -1.0663
 3230SOL    HW221327   1.782   4.343  10.349  1.0075  1.5457 -0.7130
 3231SOL     OW21328   1.116   4.264   4.632  0.0673 -0.4277 -0.5567
 3231SOL    HW121329   1.067   4.342   4.607  0.0187 -0.2585  0.0441
 3231SOL    HW221330   1.122   4.219   4.548 -2.3492 -3.0007  0.6308
 3232SOL     OW21331   3.127   1.928   2.168  0.9038  0.2501 -0.0230
 3232SOL    HW121332   3.137   2.014   2.126  2.5869  1.1665  2.3034
 3232SOL    HW221333   3.031   1.932   2.174  0.8205 -1.3103 -0.3488
 3233SOL     OW21334   3.195   2.889   8.477  0.0846  0.2185  0.0654
 3233SOL    HW121335   3.196   2.956   8.410  1.0677 -1.0843 -1.2309
 3233SOL    HW221336   3.159   2.817   8.424  2.6114 -0.5388 -0.6236
 3234SOL     OW21337   4.147   1.196   8.710  0.1966 -0.1599  0.3006
 3234SOL    HW121338   4.064   1.163   8.743 -0.5840  2.5120  1.0037
 3234SOL    HW221339   4.133   1.182   8.617 -1.7829  0.3478  0.5324
 3235SOL     OW21340   2.227   3.854   2.940  0.0578  0.1359  0.0519
 3235SOL    HW121341   2.270   3.770   2.922  0.6602  0.6717 -1.0375
 3235SOL    HW221342   2.155   3.836   2.879  1.5426 -0.0977 -1.6313
 3236SOL     OW21343   1.705   4.730   4.982 -0.9722  0.1136  0.1969
 3236SOL    HW121344   1.749   0.017   4.902 -1.3171 -0.9337 -0.3399
 3236SOL    HW221345   1.726   4.637   4.977 -2.6855 -0.2121 -1.1559
 3237SOL     OW21346   1.917   0.169   7.088  0.5509 -0.5746  0.1036
 3237SOL    HW121347   1.952   0.083   7.112  0.8266 -0.4540  0.1240
 3237SOL    HW221348   1.848   0.172   7.155  0.7515 -1.8865  0.3628
 3238SOL     OW21349   1.198   2.489   6.081 -0.3471 -0.6583  0.7120
 3238SOL    HW121350   1.227   2.411   6.128 -0.3030 -0.6221  0.7443
 3238SOL    HW221351   1.226   2.463   5.993 -4.0641 -1.8758 -0.1242
 3239SOL     OW21352   0.652   2.560   9.160  0.1472 -1.0482  0.0889
 3239SOL    HW121353   0.722   2.626   9.162 -0.9310  0.1033  0.2846
 3239SOL    HW221354   0.653   2.516   9.245 -1.7354 -0.2391  0.5487
 3240SOL     OW21355   1.367   0.194   6.627  0.2026 -0.1543 -0.3794
 3240SOL    HW121356   1.282   0.175   6.588  0.3949 -1.9025  0.0701
 3240SOL    HW221357   1.401   0.105   6.624  0.2414 -0.1665  0.3876
 3241SOL     OW21358   2.066   0.538  14.839 -0.3074 -0.1643  0.0285
 3241SOL    HW121359   2.044   0.472  14.772 -0.3045 -0.5846  0.4401
 3241SOL    HW221360   2.091   0.490  14.918  0.2447  0.4441  0.2179
 3242SOL     OW21361   0.638   2.739   4.157 -0.4236 -0.3949  0.1755
 3242SOL    HW121362   0.675   2.730   4.245  2.0819  0.3166 -0.7944
 3242SOL    HW221363   0.677   2.821   4.126 -2.4750  0.2325 -0.7205
 3243SOL     OW21364   2.209   3.534   4.347 -0.0898  0.3232  0.6674
 3243SOL    HW121365   2.178   3.453   4.386 -0.6111  0.3636  0.3287
 3243SOL    HW221366   2.295   3.532   4.391 -1.0901 -1.8489  2.5470
 3244SOL     OW21367   2.681   4.725   3.699  0.0842  0.6475 -0.1837
 3244SOL    HW121368   2.661   0.078   3.711 -2.0409 -0.0114  1.5239
 3244SOL    HW221369   2.751   4.735   3.635  2.2511 -1.5842  1.8654
 3245SOL     OW21370   1.846   1.135  10.116  0.3563  0.4796  0.6480
 3245SOL    HW121371   1.833   1.193  10.040 -1.6927  1.1379  1.4815
 3245SOL    HW221372   1.761   1.150  10.158 -0.2785 -1.1531 -0.0428
 3246SOL     OW21373   2.746   2.911   8.951  0.3403  0.2066  0.5909
 3246SOL    HW121374   2.725   2.836   9.006 -2.1950 -0.1732 -0.9103
 3246SOL    HW221375   2.701   2.973   9.009  0.4098 -0.2727  1.1587
 3247SOL     OW21376   4.700   4.670   5.942  0.0774  0.6650  0.0013
 3247SOL    HW121377   0.055   4.683   5.933  0.4144 -0.5495  1.8308
 3247SOL    HW221378   4.682   4.691   6.034  2.1782  2.0658  0.1027
 3248SOL     OW21379   1.086   3.790   1.747 -0.4574 -0.1354 -0.4055
 3248SOL    HW121380   1.002   3.747   1.732 -0.4534 -0.4968  0.6263
 3248SOL    HW221381   1.140   3.782   1.669 -0.6854  3.5824 -0.9677
 3249SOL     OW21382   3.447   0.623  15.602  0.5891 -1.0021 -0.6048
 3249SOL    HW121383   3.369   0.677  15.586  1.6622  0.8741  0.5155
 3249SOL    HW221384   3.515   0.690  15.607 -0.7897  0.3634 -0.1195
 3250SOL     OW21385   3.979   2.029   7.365 -0.0337 -0.1565 -0.2185
 3250SOL    HW121386   4.018   2.112   7.336  0.1964  0.1722  1.0497
 3250SOL    HW221387   3.900   2.029   7.310  0.1485 -0.8269 -0.4770
 3251SOL     OW21388   3.323   4.658   0.747 -0.1265  0.0450 -0.0225
 3251SOL    HW121389   3.313   4.638   0.840 -0.3925  0.8646  0.1302
 3251SOL    HW221390   3.398   4.716   0.736  1.2414 -1.7848 -0.1253
 3252SOL     OW21391   3.046   1.276   6.386 -0.0406  0.0298 -0.1742
 3252SOL    HW121392   3.083   1.216   6.451 -3.8372 -2.6203 -0.4316
 3252SOL    HW221393   3.124   1.314   6.345  0.2813 -0.7097 -0.2578
 3253SOL     OW21394   2.911   2.926   1.142  0.2560 -0.5489 -0.1372
 3253SOL    HW121395   2.900   2.847   1.194 -0.0139  0.0013  0.6467
 3253SOL    HW221396   3.006   2.930   1.150  0.1900 -1.3649  0.9870
 3254SOL     OW21397   2.359   3.213   9.540  0.1714 -0.2538 -0.2881
 3254SOL    HW121398   2.322   3.132   9.504  0.9459 -0.1029 -1.3981
 3254SOL    HW221399   2.341   3.199   9.634 -2.3484  1.3875 -0.5262
 3255SOL     OW21400   3.343   1.408   4.107  0.4139  0.0043  0.2627
 3255SOL    HW121401   3.318   1.349   4.037 -1.7090 -1.2116  2.0308
 3255SOL    HW221402   3.262   1.458   4.098 -0.3565 -1.3796 -0.3955
 3256SOL     OW21403   2.351   0.249   8.600  0.3693 -0.7310  0.0715
 3256SOL    HW121404   2.336   0.344   8.602 -1.9894 -1.1309  0.9122
 3256SOL    HW221405   2.372   0.228   8.509 -1.8510 -1.4274 -0.2744
 3257SOL     OW21406   0.130   4.417   8.314  0.1172  0.2930 -0.2825
 3257SOL    HW121407   0.150   4.365   8.236 -0.0115 -3.2299  2.0619
 3257SOL    HW221408   0.057   4.367   8.351 -0.0189 -1.2406 -2.6653
 3258SOL     OW21409   2.992   3.195   0.510 -0.6563 -0.4914  0.1214
 3258SOL    HW121410   2.996   3.100   0.501  1.3827 -0.4373  0.6373
 3258SOL    HW221411   2.976   3.198   0.604 -1.1345  0.3096  0.0187
 3259SOL     OW21412   1.920   3.482  13.704 -0.3714 -0.3782 -0.6971
 3259SOL    HW121413   1.929   3.506  13.612 -0.5220  0.4581 -0.4925
 3259SOL    HW221414   1.829   3.460  13.722 -0.3489  2.0582  2.4963
 3260SOL     OW21415   0.966   4.081   0.919  0.9047  0.8625 -0.0594
 3260SOL    HW121416   0.951   4.145   0.988 -4.7326 -1.0108  0.5085
 3260SOL    HW221417   1.010   4.011   0.967  0.8575 -0.5009 -1.9934
 3261SOL     OW21418   0.725   0.540  14.289 -0.2121 -0.4487  0.0355
 3261SOL    HW121419   0.680   0.624  14.289  2.3648  0.9337  2.4122
 3261SOL    HW221420   0.656   0.499  14.237  1.3799 -0.8797 -1.7408
 3262SOL     OW21421   1.288   4.464   4.096 -0.1368 -0.0341  0.0639
 3262SOL    HW121422   1.324   4.376   4.083 -2.3959 -0.9272 -0.1623
 3262SOL    HW221423   1.223   4.462   4.025 -0.8276 -1.6501  0.7361
 3263SOL     OW21424   1.210   4.594  17.209  0.1674 -0.1094 -0.1265
 3263SOL    HW121425   1.265   4.573  17.134 -0.2576 -1.0473 -0.1694
 3263SOL    HW221426   1.127   4.595  17.161  0.5565  2.4298 -0.7335
 3264SOL     OW21427   2.295   1.127  12.603 -0.3602 -0.2962 -0.0956
 3264SOL    HW121428   2.316   1.090  12.689 -0.8736  1.7867  0.9427
 3264SOL    HW221429   2.234   1.063  12.566 -2.2134 -0.2349  2.8413
 3265SOL     OW21430   1.558   1.209   9.712 -1.4417 -0.6415 -0.1093
 3265SOL    HW121431   1.476   1.172   9.744 -1.0631 -3.4940 -2.4639
 3265SOL    HW221432   1.571   1.174   9.624  1.2708 -0.2992  0.1592
 3266SOL     OW21433   4.319   2.634   3.692 -0.5025 -0.4039 -0.4599
 3266SOL    HW121434   4.340   2.691   3.765 -0.5046  0.0009 -0.7779
 3266SOL    HW221435   4.295   2.557   3.744 -2.2242 -0.1558 -0.8652
 3267SOL     OW21436   1.910   4.385  15.179 -0.1978 -0.4040 -0.2430
 3267SOL    HW121437   1.896   4.435  15.099  1.2194  1.1556  0.4814
 3267SOL    HW221438   1.961   4.312  15.144 -1.0850 -0.6089 -1.0902
 3268SOL     OW21439   0.937   0.763   7.712  0.2706 -0.3885  0.2427
 3268SOL    HW121440   0.994   0.839   7.701  1.3529 -0.9483  1.9459
 3268SOL    HW221441   0.853   0.800   7.682  2.0149  2.5233 -1.0509
 3269SOL     OW21442   0.012   3.932   8.873  0.4477 -0.3715 -0.2795
 3269SOL    HW121443   0.018   3.880   8.793 -0.9794 -2.4427  0.9716
 3269SOL    HW221444   0.094   3.982   8.873 -0.1048  0.5245 -1.5600
 3270SOL     OW21445   1.164   4.337  11.159  0.0082  0.3486  0.2802
 3270SOL    HW121446   1.221   4.413  11.150 -0.8553  1.1714  1.8561
 3270SOL    HW221447   1.087   4.379  11.198 -0.2129 -0.2368  0.4764
 3271SOL     OW21448   1.026   1.172   2.130  0.4872  0.1958 -0.6872
 3271SOL    HW121449   1.119   1.193   2.140  0.5114 -0.7241  0.9572
 3271SOL    HW221450   1.002   1.229   2.056  1.5064 -0.0107 -1.1748
 3272SOL     OW21451   1.638   2.621  11.376 -0.1440  0.3134  0.4795
 3272SOL    HW121452   1.625   2.571  11.295 -0.5316 -1.0760  1.4066
 3272SOL    HW221453   1.733   2.634  11.373 -0.1441  0.3145  0.4843
 3273SOL     OW21454   4.211   0.372   4.668 -0.5666 -0.6142  0.0813
 3273SOL    HW121455   4.288   0.425   4.652  1.0994 -2.8189  0.7422
 3273SOL    HW221456   4.186   0.331   4.584 -1.6887  3.0524 -1.3561
 3274SOL     OW21457   3.067   0.796   8.850 -1.1542  0.4871  0.3146
 3274SOL    HW121458   3.033   0.861   8.789 -0.9183 -0.1233 -0.4590
 3274SOL    HW221459   3.138   0.855   8.874 -0.1027 -0.4739 -0.3944
 3275SOL     OW21460   0.476   3.304   7.239  0.0900  0.0082  0.4540
 3275SOL    HW121461   0.472   3.208   7.233 -0.4739 -0.0709  2.3414
 3275SOL    HW221462   0.519   3.328   7.157 -2.6875  0.1396 -0.9508
 3276SOL     OW21463   3.698   3.346   3.100  0.0330 -0.1608  0.6466
 3276SOL    HW121464   3.652   3.265   3.079  0.7480 -0.2345 -0.6313
 3276SOL    HW221465   3.665   3.392   3.023  0.0361  1.8623  1.8685
 3277SOL     OW21466   1.894   3.876   5.911 -0.0571 -0.0621  0.8505
 3277SOL    HW121467   1.940   3.946   5.865  0.6613 -1.7185 -0.9464
 3277SOL    HW221468   1.955   3.802   5.916 -0.2460 -0.2999 -0.3482
 3278SOL     OW21469   2.402   0.171  11.082 -0.0828 -0.0718 -0.2036
 3278SOL    HW121470   2.366   0.255  11.110 -0.3190  0.2565 -1.4977
 3278SOL    HW221471   2.335   0.120  11.128  0.9935  0.0449  1.4971
 3279SOL     OW21472   2.641   0.235  12.902  0.2927  0.3695  0.3537
 3279SOL    HW121473   2.591   0.161  12.937 -1.9316  1.3567 -0.6967
 3279SOL    HW221474   2.656   0.283  12.983  1.5990 -1.0046  0.9382
 3280SOL     OW21475   4.583   2.999   1.477 -0.7206 -0.1538 -0.1345
 3280SOL    HW121476   4.672   2.985   1.511 -0.6447  0.3007 -0.1526
 3280SOL    HW221477   4.557   3.068   1.537  2.2686  1.4977 -0.7592
 3281SOL     OW21478   2.173   4.049   2.160 -0.2708  0.0606  0.0263
 3281SOL    HW121479   2.109   4.033   2.229  0.1571  0.3077  0.4821
 3281SOL    HW221480   2.231   3.980   2.192 -0.0239  0.1082 -0.3178
 3282SOL     OW21481   0.590   1.484   6.901  0.0169  0.0550 -0.1275
 3282SOL    HW121482   0.622   1.504   6.813 -0.7714  1.6484 -0.0481
 3282SOL    HW221483   0.638   1.406   6.929  0.7717  1.5702  2.9167
 3283SOL     OW21484   0.022   1.132   8.858 -0.3159 -0.2731  0.4657
 3283SOL    HW121485   0.056   1.184   8.931  1.1658 -0.0337 -0.3984
 3283SOL    HW221486   4.728   1.206   8.808 -0.0099  0.0249  0.7033
 3284SOL     OW21487   0.903   1.629   5.352  0.2197 -0.0543  0.1932
 3284SOL    HW121488   0.977   1.588   5.396  0.9539  3.1910  1.9868
 3284SOL    HW221489   0.835   1.584   5.403 -0.2277 -1.0332 -1.2879
 3285SOL     OW21490   0.643   0.209   5.319  1.0017 -0.0605  0.7318
 3285SOL    HW121491   0.627   0.172   5.406  1.1701 -1.5886  0.1155
 3285SOL    HW221492   0.671   0.296   5.347 -0.4281 -0.2153  2.6797
 3286SOL     OW21493   0.920   1.840   3.786  0.0007  0.1266  0.3133
 3286SOL    HW121494   0.884   1.819   3.872  0.4404 -0.8219  0.2642
 3286SOL    HW221495   0.962   1.924   3.803 -0.7947  0.6851 -0.4749
 3287SOL     OW21496   1.186   3.254   2.873 -0.5293  0.6272 -0.0818
 3287SOL    HW121497   1.241   3.269   2.950 -0.5796  2.5566 -0.4133
 3287SOL    HW221498   1.109   3.298   2.910 -0.1283  1.7141 -0.5259
 3288SOL     OW21499   0.429   0.854   4.238 -0.1299 -0.2221  0.4879
 3288SOL    HW121500   0.381   0.932   4.210 -1.6403 -2.5188 -3.3508
 3288SOL    HW221501   0.513   0.851   4.192 -0.9554 -2.3320 -0.8881
 3289SOL     OW21502   2.696   3.221  16.935  0.3038 -1.0157 -0.6661
 3289SOL    HW121503   2.677   3.145  16.990 -0.8521 -0.3970 -0.2083
 3289SOL    HW221504   2.748   3.281  16.988 -1.0449 -0.1211 -0.3383
 3290SOL     OW21505   0.652   0.569   6.842 -0.2845 -0.2970 -0.1012
 3290SOL    HW121506   0.574   0.595   6.794  0.7312 -0.4506 -1.8811
 3290SOL    HW221507   0.717   0.603   6.780 -0.1659  0.0984  0.2428
 3291SOL     OW21508   1.490   1.112   3.828 -0.1415 -0.0657 -0.3548
 3291SOL    HW121509   1.519   1.141   3.914 -0.7163  1.0352 -0.5366
 3291SOL    HW221510   1.494   1.188   3.770  0.4511  0.5689  0.5408
 3292SOL     OW21511   3.690   0.133   7.927  0.1049  0.0086  0.0494
 3292SOL    HW121512   3.785   0.134   7.937  0.2267 -0.7284 -1.0603
 3292SOL    HW221513   3.657   0.223   7.925 -1.0709 -0.4552 -1.7816
 3293SOL     OW21514   2.549   3.658   1.798  0.2891 -0.8865 -0.2586
 3293SOL    HW121515   2.501   3.667   1.715 -0.2263  2.4632  0.4153
 3293SOL    HW221516   2.474   3.637   1.854 -0.3726 -0.5952 -1.0228
 3294SOL     OW21517   2.132   3.566  16.280  0.0112 -0.0932 -0.1588
 3294SOL    HW121518   2.166   3.507  16.348  2.3306  0.1620 -1.0891
 3294SOL    HW221519   2.176   3.527  16.204  1.2361  0.8412  0.0652
 3295SOL     OW21520   3.825   4.347   7.594 -0.0041  0.0918  0.1021
 3295SOL    HW121521   3.768   4.296   7.535  0.2012 -0.0318  0.0099
 3295SOL    HW221522   3.811   4.430   7.549  2.7897  1.1742  1.2906
 3296SOL     OW21523   1.959   3.167  10.164  0.6891 -0.2571 -0.5054
 3296SOL    HW121524   2.042   3.141  10.204 -0.2480 -1.4504  0.6334
 3296SOL    HW221525   1.972   3.129  10.077  1.0311  2.0103 -1.4395
 3297SOL     OW21526   0.978   4.168   7.165  0.4219 -0.2833 -0.1985
 3297SOL    HW121527   0.915   4.101   7.138  0.1873  0.0762 -0.5406
 3297SOL    HW221528   1.005   4.133   7.251 -1.1847 -1.1499 -0.0556
 3298SOL     OW21529   3.428   2.328  12.111 -0.3908  0.2070 -0.5100
 3298SOL    HW121530   3.456   2.397  12.171  0.4477  0.4158 -1.1442
 3298SOL    HW221531   3.436   2.364  12.023  0.7922 -0.9719 -0.8767
 3299SOL     OW21532   4.132   4.319   0.753  0.1555  0.2042 -0.0174
 3299SOL    HW121533   4.200   4.278   0.805 -0.0262  2.0225  1.6211
 3299SOL    HW221534   4.091   4.381   0.813 -1.7327 -0.9565 -0.1027
 3300SOL     OW21535   1.825   1.211   2.405  0.1181  0.2600 -0.1527
 3300SOL    HW121536   1.840   1.249   2.492  0.8406 -1.6672  0.5771
 3300SOL    HW221537   1.918   1.188   2.394 -0.1209  0.0409 -1.6141
 3301SOL     OW21538   4.027   1.674   1.928 -0.2443  0.2982 -0.3516
 3301SOL    HW121539   4.046   1.730   2.003  0.9085  1.3038 -1.3968
 3301SOL    HW221540   3.946   1.706   1.889 -1.6733  0.3419  2.7138
 3302SOL     OW21541   0.054   3.817   5.265  0.2846 -0.0744 -0.2208
 3302SOL    HW121542   0.051   3.848   5.356  1.5663 -0.1792 -0.1433
 3302SOL    HW221543   0.073   3.897   5.215 -0.4685  0.9688  1.1658
 3303SOL     OW21544   3.692   2.164   9.851  0.5343 -0.0186  0.1372
 3303SOL    HW121545   3.614   2.150   9.906  0.2537  0.9534 -0.0109
 3303SOL    HW221546   3.649   2.165   9.766 -0.9622  0.0800  0.8882
 3304SOL     OW21547   1.532   4.370  13.067 -0.3037 -0.1121  0.0746
 3304SOL    HW121548   1.550   4.360  13.161 -1.0425 -1.4817  0.0708
 3304SOL    HW221549   1.445   4.409  13.066 -0.0294  0.4857 -0.6524
 3305SOL     OW21550   2.764   3.668  11.103 -0.6054  0.2864 -0.0513
 3305SOL    HW121551   2.797   3.753  11.129 -0.9803  0.6113 -0.6358
 3305SOL    HW221552   2.737   3.631  11.187 -2.9332  1.8757 -0.0994
 3306SOL     OW21553   2.300   2.078   8.396  0.2328 -0.0743  0.3598
 3306SOL    HW121554   2.261   2.140   8.458 -0.7499 -0.4164  0.0853
 3306SOL    HW221555   2.331   2.142   8.332  0.4816 -1.8051 -1.2359
 3307SOL     OW21556   1.833   3.793   2.197 -0.2687 -0.0105 -0.1091
 3307SOL    HW121557   1.781   3.781   2.276  0.9824 -0.2738  0.6708
 3307SOL    HW221558   1.771   3.837   2.138  0.7758  0.2672 -1.0011
 3308SOL     OW21559   2.239   2.925   4.755 -0.3435 -0.2820  0.3368
 3308SOL    HW121560   2.283   2.979   4.820  1.6343 -0.2523 -1.0102
 3308SOL    HW221561   2.173   2.982   4.716 -0.5980  0.8253  2.3950
 3309SOL     OW21562   0.853   1.301   8.079  0.3424 -0.1820 -0.0620
 3309SOL    HW121563   0.816   1.315   8.166  0.8660 -0.8831  0.2730
 3309SOL    HW221564   0.871   1.393   8.057  1.7289 -0.8489 -1.7892
 3310SOL     OW21565   2.937   1.496   5.529  0.6022 -0.7684  0.4896
 3310SOL    HW121566   2.937   1.519   5.622  1.8903 -0.1095  0.3150
 3310SOL    HW221567   2.863   1.435   5.535 -0.1159  0.2199  1.5968
 3311SOL     OW21568   1.240   3.763   8.885 -0.3035  0.2930 -0.2106
 3311SOL    HW121569   1.329   3.773   8.852 -0.7760  0.6047 -1.4166
 3311SOL    HW221570   1.191   3.721   8.814 -1.7023  0.1275  0.8652
 3312SOL     OW21571   1.234   4.375   5.412  0.3209 -0.0329  0.1501
 3312SOL    HW121572   1.316   4.409   5.449  0.4758 -0.5641  0.2873
 3312SOL    HW221573   1.209   4.431   5.338  1.0509 -0.2280 -0.2420
 3313SOL     OW21574   0.349   0.073   3.499 -0.0941  0.5106  0.6750
 3313SOL    HW121575   0.439   0.098   3.478 -0.1045 -1.5551 -1.8679
 3313SOL    HW221576   0.319   0.049   3.412  1.6299 -0.6367  0.3984
 3314SOL     OW21577   0.208   1.012  17.594  0.2809  0.0395  0.7089
 3314SOL    HW121578   0.301   1.030  17.581 -0.1771  3.2655  1.8515
 3314SOL    HW221579   0.198   0.923  17.561  1.6272  0.7462 -1.6240
 3315SOL     OW21580   1.251   0.370  11.996 -0.3181 -0.1094  0.3306
 3315SOL    HW121581   1.324   0.382  12.056  0.2356  0.8352 -0.5418
 3315SOL    HW221582   1.228   0.461  11.978 -0.1073  0.2884  2.1428
 3316SOL     OW21583   2.740   3.632   8.057  0.6723 -0.5097 -0.0655
 3316SOL    HW121584   2.654   3.596   8.079  1.2593 -1.6725  0.3497
 3316SOL    HW221585   2.792   3.611   8.135 -2.2563 -0.8004  1.7958
 3317SOL     OW21586   4.358   2.446  16.970 -0.3074  0.1168  0.2669
 3317SOL    HW121587   4.280   2.420  17.019 -2.1246  2.1230 -1.5374
 3317SOL    HW221588   4.423   2.435  17.039 -0.3626 -0.1755  0.2725
 3318SOL     OW21589   4.670   3.852   4.319 -0.0077 -0.3981  0.1855
 3318SOL    HW121590   4.610   3.801   4.373  0.2532 -0.9128 -0.0069
 3318SOL    HW221591   4.617   3.892   4.250  0.5442  0.1147  0.0510
 3319SOL     OW21592   1.866   2.311   6.981 -0.0658  0.8852  0.0119
 3319SOL    HW121593   1.872   2.277   7.071 -0.2642 -1.5100 -0.8621
 3319SOL    HW221594   1.949   2.357   6.970  0.8347 -0.8643 -0.5924
 3320SOL     OW21595   3.273   2.153   4.429  0.4901  0.4069 -0.9027
 3320SOL    HW121596   3.326   2.073   4.430 -1.8053 -1.1071  0.2761
 3320SOL    HW221597   3.321   2.213   4.373 -2.1111  2.7716 -0.6091
 3321SOL     OW21598   4.199   3.616   4.225 -0.4672 -0.6502  0.7015
 3321SOL    HW121599   4.219   3.667   4.303 -2.3863 -1.4104  1.7025
 3321SOL    HW221600   4.147   3.541   4.254  0.0135 -0.6427  1.5808
 3322SOL     OW21601   2.022   1.101  15.818  0.0737  0.1259  0.4586
 3322SOL    HW121602   1.935   1.140  15.810  0.2306  0.9091  2.5805
 3322SOL    HW221603   2.014   1.024  15.761 -0.5813  0.7404 -0.2685
 3323SOL     OW21604   4.189   4.505   3.043 -0.0500  1.3006 -0.2553
 3323SOL    HW121605   4.196   4.599   3.031  1.1102  1.3753  0.9505
 3323SOL    HW221606   4.278   4.477   3.018  0.5265  0.4860  2.6583
 3324SOL     OW21607   3.760   0.918  11.443  0.3597  0.5006 -0.2876
 3324SOL    HW121608   3.714   1.002  11.439 -0.4259 -0.0934 -3.2582
 3324SOL    HW221609   3.724   0.876  11.365  1.3857 -0.6798 -0.1238
 3325SOL     OW21610   3.351   1.385   7.542  0.2778 -0.0483  0.3089
 3325SOL    HW121611   3.262   1.350   7.551  0.2320  0.7650  2.9166
 3325SOL    HW221612   3.346   1.452   7.474  0.2659 -2.3163 -1.9288
 3326SOL     OW21613   3.743   3.353   8.539  0.4318  0.0416  0.1762
 3326SOL    HW121614   3.665   3.397   8.571 -0.0201  1.5057 -2.9007
 3326SOL    HW221615   3.778   3.417   8.477 -0.8223 -0.8930 -1.5124
 3327SOL     OW21616   1.248   1.221   9.296  0.1748  0.5052  0.0885
 3327SOL    HW121617   1.199   1.140   9.309 -1.0374  1.4925  1.7109
 3327SOL    HW221618   1.280   1.215   9.206 -0.3215  1.0677 -0.1272
 3328SOL     OW21619   4.200   1.054   8.440 -0.1026  0.5286  0.1949
 3328SOL    HW121620   4.250   0.976   8.417  0.0984  0.8818 -0.5648
 3328SOL    HW221621   4.130   1.016   8.493  0.6432  0.3652  1.0661
 3329SOL     OW21622   0.266   3.875  11.400  0.1264  0.0778 -0.2455
 3329SOL    HW121623   0.217   3.795  11.380 -0.4497  0.0546  1.2616
 3329SOL    HW221624   0.320   3.830  11.465  0.2846 -1.0879 -1.1739
 3330SOL     OW21625   2.575   2.593   9.532 -0.1973 -0.5130 -0.9177
 3330SOL    HW121626   2.519   2.637   9.596 -1.1672 -0.7347 -1.6037
 3330SOL    HW221627   2.663   2.600   9.567 -0.2241 -1.2102 -0.7130
 3331SOL     OW21628   1.947   0.813   7.299  0.2818 -0.9991 -0.1428
 3331SOL    HW121629   1.891   0.873   7.348  1.1659 -1.8031  1.8521
 3331SOL    HW221630   2.000   0.784   7.373  1.6892 -2.3485 -1.6787
 3332SOL     OW21631   1.627   4.321   3.976 -0.2857 -0.0188 -0.3472
 3332SOL    HW121632   1.622   4.331   3.881  0.7733 -1.9621 -0.6092
 3332SOL    HW221633   1.712   4.357   4.001 -0.3550 -1.4377  1.9146
 3333SOL     OW21634   2.098   3.217   9.385  0.3787  0.1231  0.1902
 3333SOL    HW121635   2.093   3.238   9.478  1.3995  0.3993  0.1905
 3333SOL    HW221636   2.039   3.143   9.368  1.8234 -0.0376 -4.1299
 3334SOL     OW21637   3.062   0.312   9.702 -0.4493  0.1465  0.7090
 3334SOL    HW121638   3.112   0.242   9.744  1.0616 -0.0470 -1.4267
 3334SOL    HW221639   3.135   0.373   9.706 -0.5974  0.3530  0.3379
 3335SOL     OW21640   3.211   2.316   7.621 -0.2662 -0.1065 -1.1828
 3335SOL    HW121641   3.255   2.380   7.678  1.2921 -1.4682 -0.8566
 3335SOL    HW221642   3.285   2.270   7.581  1.9026  2.2060  0.1466
 3336SOL     OW21643   2.262   3.248   4.174 -0.1495 -0.1690  0.6581
 3336SOL    HW121644   2.205   3.189   4.224 -1.1365 -0.1506 -0.4282
 3336SOL    HW221645   2.207   3.324   4.155 -1.0493 -0.9871 -0.0725
 3337SOL     OW21646   2.832   1.735   7.325 -0.5079  0.0787 -0.2506
 3337SOL    HW121647   2.767   1.673   7.292  0.3974 -2.4203  2.6924
 3337SOL    HW221648   2.795   1.816   7.292 -2.6717 -1.9182 -2.7603
 3338SOL     OW21649   1.458   1.271   3.288  0.0586  0.2393  0.1797
 3338SOL    HW121650   1.400   1.343   3.313 -1.0540 -1.2094  1.7119
 3338SOL    HW221651   1.470   1.300   3.197  0.6218 -1.0856 -0.1672
 3339SOL     OW21652   4.545   3.025   6.381 -0.2991 -0.6283 -0.2899
 3339SOL    HW121653   4.458   3.062   6.367  1.1561  1.9832 -2.4950
 3339SOL    HW221654   4.531   2.981   6.465 -2.2961  1.0244  0.2684
 3340SOL     OW21655   1.626   3.785   3.714  0.2585  0.3360 -0.1725
 3340SOL    HW121656   1.669   3.702   3.738 -1.4596 -0.5445 -0.1674
 3340SOL    HW221657   1.682   3.850   3.756 -0.2245 -1.4874  3.3131
 3341SOL     OW21658   3.090   3.914   7.914 -0.0824  0.2106  0.1702
 3341SOL    HW121659   3.049   3.973   7.977  0.0055 -1.7725  2.1053
 3341SOL    HW221660   3.170   3.964   7.897  0.0625 -0.0167  0.1752
 3342SOL     OW21661   2.655   0.711  11.334  0.1987  0.3956 -0.3917
 3342SOL    HW121662   2.603   0.783  11.298  0.1636  0.6048  0.0841
 3342SOL    HW221663   2.606   0.634  11.306 -1.9755  2.7583 -3.1311
 3343SOL     OW21664   0.338   3.654  10.261 -0.1303  0.0833 -0.4091
 3343SOL    HW121665   0.387   3.614  10.188  1.2166  0.4558  0.2805
 3343SOL    HW221666   0.315   3.575  10.309  0.8577  0.7363  1.1168
 3344SOL     OW21667   4.223   0.862  15.751  0.4669 -1.0271 -0.1142
 3344SOL    HW121668   4.168   0.932  15.717  0.5229 -1.3615 -0.9024
 3344SOL    HW221669   4.302   0.916  15.756 -1.1730  1.2728  0.9316
 3345SOL     OW21670   2.574   4.682  13.010 -0.2333 -0.0778 -0.4522
 3345SOL    HW121671   2.654   4.631  13.025  0.0087  0.0116 -1.4087
 3345SOL    HW221672   2.575   4.675  12.914  2.7895  0.4742 -0.4821
 3346SOL     OW21673   2.703   1.509   7.233 -0.3315  0.8707  0.6859
 3346SOL    HW121674   2.744   1.481   7.151 -1.0000 -0.9766  0.9789
 3346SOL    HW221675   2.708   1.425   7.280  4.7604  1.2376  0.8750
 3347SOL     OW21676   4.017   3.269   2.596  0.2982 -0.2558  0.2909
 3347SOL    HW121677   4.074   3.192   2.592 -0.0623 -0.4748 -0.6026
 3347SOL    HW221678   3.974   3.260   2.511 -1.2310 -1.4260  1.1870
 3348SOL     OW21679   3.132   3.971   1.354 -0.2926  0.2304 -0.2117
 3348SOL    HW121680   3.217   3.932   1.331 -0.2253  0.1282  0.2131
 3348SOL    HW221681   3.088   3.890   1.378 -1.0700  0.3493 -1.2086
 3349SOL     OW21682   1.309   2.375  13.673  0.0150  0.3019  0.4486
 3349SOL    HW121683   1.404   2.383  13.677  0.2114 -2.5518  1.9932
 3349SOL    HW221684   1.276   2.452  13.720 -1.7968 -0.1673 -0.0461
 3350SOL     OW21685   3.570   2.038  14.032  0.3832 -0.4501  0.1956
 3350SOL    HW121686   3.631   1.965  14.031  0.2870 -0.5300  0.1493
 3350SOL    HW221687   3.529   2.020  14.117 -4.0821  1.4598 -1.5327
 3351SOL     OW21688   1.365   1.146   5.128 -0.0063 -0.9210  0.0088
 3351SOL    HW121689   1.315   1.226   5.147 -0.1011 -0.4212 -2.3392
 3351SOL    HW221690   1.299   1.090   5.088  0.8300 -3.5115  2.3017
 3352SOL     OW21691   4.133   2.241   3.581  0.0909 -0.2944  0.1177
 3352SOL    HW121692   4.088   2.262   3.662  2.5391 -0.4580  1.5367
 3352SOL    HW221693   4.161   2.330   3.559 -2.7323  0.3218 -0.9951
 3353SOL     OW21694   2.139   1.660   2.249  0.3229  0.0857 -0.6547
 3353SOL    HW121695   2.112   1.744   2.212 -0.3651  0.1625  0.0269
 3353SOL    HW221696   2.143   1.690   2.340  2.6430  0.4402 -0.8672
 3354SOL     OW21697   4.015   2.022   7.646 -0.0833 -0.0808 -0.4978
 3354SOL    HW121698   3.992   2.018   7.553 -1.4027  0.3544 -0.1906
 3354SOL    HW221699   3.977   2.106   7.672  0.7830  0.9118 -2.4299
 3355SOL     OW21700   1.233   4.671   2.905  0.5725  0.1972  0.0527
 3355SOL    HW121701   1.304   4.670   2.841 -0.3884 -0.7863 -1.0038
 3355SOL    HW221702   1.166   4.699   2.842 -0.9690 -3.2560  0.1711
 3356SOL     OW21703   1.829   2.448  13.446  0.5074  0.0869  1.0718
 3356SOL    HW121704   1.811   2.377  13.508 -0.4909  2.1815  3.1521
 3356SOL    HW221705   1.849   2.523  13.501 -2.1268  0.4860  1.4905
 3357SOL     OW21706   4.343   0.587   5.130  0.0966  0.1303 -0.0609
 3357SOL    HW121707   4.378   0.497   5.130  2.3060  1.0002  0.8275
 3357SOL    HW221708   4.329   0.601   5.036  1.5288  3.7065  0.2707
 3358SOL     OW21709   2.089   3.653   6.810  0.3362  0.0563  0.5902
 3358SOL    HW121710   2.136   3.736   6.809  3.5235 -1.7332  2.1195
 3358SOL    HW221711   2.160   3.591   6.823  1.8361  1.6863  0.1422
 3359SOL     OW21712   3.239   1.922   4.701 -0.1284 -0.2036  0.0407
 3359SOL    HW121713   3.270   1.837   4.670 -0.2400  0.1877 -1.1701
 3359SOL    HW221714   3.145   1.920   4.680 -0.4786  1.8769  1.4858
 3360SOL     OW21715   1.174   2.874  11.381 -0.4256 -0.1357  0.4727
 3360SOL    HW121716   1.225   2.821  11.320  0.1195  0.6997  0.1950
 3360SOL    HW221717   1.209   2.961  11.360  2.3008 -0.8952  1.8050
 3361SOL     OW21718   4.498   3.416   9.018  0.6154  0.3846 -0.2424
 3361SOL    HW121719   4.578   3.432   8.966  0.1343 -0.0220 -1.1036
 3361SOL    HW221720   4.461   3.504   9.007 -1.2468 -0.4195 -0.4108
 3362SOL     OW21721   3.075   1.760   1.429  0.4149  0.0214  0.2486
 3362SOL    HW121722   3.011   1.718   1.371  0.8851 -0.1786 -0.1244
 3362SOL    HW221723   3.014   1.824   1.465 -0.0214 -0.1992 -0.1017
 3363SOL     OW21724   3.253   3.231   2.485 -0.3517  0.1693  0.3653
 3363SOL    HW121725   3.260   3.233   2.389 -2.2097  0.3690  0.2385
 3363SOL    HW221726   3.180   3.293   2.489  0.5103  1.4536 -3.9551
 3364SOL     OW21727   2.080   1.196   2.958 -0.3737 -0.1755  0.0011
 3364SOL    HW121728   2.163   1.165   2.922 -0.5891 -2.9404  1.8716
 3364SOL    HW221729   2.079   1.164   3.048 -1.6789  0.4395  0.2081
 3365SOL     OW21730   3.927   1.351  13.388  0.1722 -0.1952  0.0183
 3365SOL    HW121731   3.925   1.271  13.440  0.5230 -0.6816 -0.7113
 3365SOL    HW221732   3.836   1.378  13.376 -0.2433 -0.7963  1.8405
 3366SOL     OW21733   2.144   2.517   6.023  0.6005  0.0212 -0.4555
 3366SOL    HW121734   2.159   2.553   5.936  0.0372 -2.0259 -1.3956
 3366SOL    HW221735   2.151   2.596   6.077  1.0848  0.1942 -0.7804
 3367SOL     OW21736   1.068   3.737   0.605  0.4228  0.5864  0.1143
 3367SOL    HW121737   0.997   3.693   0.653  0.4897 -1.0525 -1.3085
 3367SOL    HW221738   1.144   3.692   0.642 -1.0613 -0.4283  1.9778
 3368SOL     OW21739   1.674   1.135   5.737 -0.1460  0.1519  0.1327
 3368SOL    HW121740   1.583   1.116   5.714  0.1344 -0.5066 -0.4132
 3368SOL    HW221741   1.685   1.085   5.818  0.7657 -1.9937 -1.3261
 3369SOL     OW21742   1.849   4.507  14.952  0.6217 -0.5330 -0.1273
 3369SOL    HW121743   1.835   4.501  14.858  1.1432 -0.6202 -0.2023
 3369SOL    HW221744   1.826   4.599  14.964  0.2614 -0.1279 -4.0905
 3370SOL     OW21745   2.603   4.476   3.776  0.5449  0.1739 -0.5863
 3370SOL    HW121746   2.649   4.544   3.727 -1.2864 -0.6366 -3.3834
 3370SOL    HW221747   2.513   4.495   3.751  0.1932 -0.4968  0.1564
 3371SOL     OW21748   1.204   2.428   6.733 -0.1733  0.0950  0.5667
 3371SOL    HW121749   1.257   2.502   6.701  0.5893 -1.2231 -1.2459
 3371SOL    HW221750   1.219   2.445   6.826  2.1206 -1.3873  0.4708
 3372SOL     OW21751   4.186   3.297   2.266  0.2182 -0.0192  0.0790
 3372SOL    HW121752   4.195   3.327   2.357  1.5814 -0.5034  0.1110
 3372SOL    HW221753   4.210   3.377   2.218 -0.7778 -0.3702 -0.9909
 3373SOL     OW21754   2.360   0.808   4.285  0.1867  0.9517 -0.1996
 3373SOL    HW121755   2.272   0.836   4.260 -0.0442 -1.2499 -1.8547
 3373SOL    HW221756   2.368   0.738   4.219 -2.1251  0.9770 -0.5088
 3374SOL     OW21757   0.910   1.020   6.412 -0.3688  0.1794  0.2421
 3374SOL    HW121758   0.956   0.939   6.435 -1.7471 -0.1227  1.9168
 3374SOL    HW221759   0.820   0.996   6.390 -0.1145 -3.4463  2.9705
 3375SOL     OW21760   4.514   1.687   8.225 -0.1194 -0.2489  0.2352
 3375SOL    HW121761   4.522   1.748   8.152 -2.4775 -0.6269 -0.3316
 3375SOL    HW221762   4.448   1.627   8.190 -1.3057  1.4671 -0.4815
 3376SOL     OW21763   2.745   1.736  16.699  0.0697  0.1031 -0.3729
 3376SOL    HW121764   2.744   1.813  16.755 -1.2717  0.8920 -1.4698
 3376SOL    HW221765   2.833   1.704  16.720  1.4209  3.0028 -1.6425
 3377SOL     OW21766   2.574   3.983   0.275 -0.3964  0.0796  0.5259
 3377SOL    HW121767   2.595   4.046   0.206  2.6627 -0.6018  0.8145
 3377SOL    HW221768   2.480   3.975   0.262 -0.4249 -0.5487  1.1201
 3378SOL     OW21769   3.321   3.648  11.733 -0.2378 -0.2275 -0.0622
 3378SOL    HW121770   3.326   3.643  11.828  0.8737 -0.0998 -0.1198
 3378SOL    HW221771   3.411   3.671  11.712  0.1993 -1.1803  0.8066
 3379SOL     OW21772   1.508   3.360  14.897  0.6407  0.0703 -0.3033
 3379SOL    HW121773   1.474   3.319  14.817 -0.1714  1.1912 -0.5303
 3379SOL    HW221774   1.595   3.388  14.868  0.2160  0.8835 -0.7901
 3380SOL     OW21775   2.343   1.303   3.486 -0.4903  0.6342  0.0629
 3380SOL    HW121776   2.360   1.289   3.393  1.0706  1.0774  0.2816
 3380SOL    HW221777   2.433   1.304   3.518 -0.3853 -1.1167 -0.1789
 3381SOL     OW21778   1.899   1.029   9.174  0.4471 -0.6292 -0.1823
 3381SOL    HW121779   1.900   1.080   9.255  2.4207 -1.1370  0.1123
 3381SOL    HW221780   1.901   0.939   9.205  0.7529 -0.1013  1.3480
 3382SOL     OW21781   4.037   3.253  11.157  0.6702  0.9824  0.0961
 3382SOL    HW121782   3.955   3.214  11.189  1.2949  0.0014  0.4897
 3382SOL    HW221783   4.079   3.265  11.242 -1.0590 -0.0361  1.1111
 3383SOL     OW21784   1.930   1.056   5.130  0.2703  0.1417  0.6581
 3383SOL    HW121785   1.921   1.034   5.223 -3.1127  1.9302  0.7700
 3383SOL    HW221786   1.924   0.973   5.084 -0.9674 -0.2194  1.4695
 3384SOL     OW21787   3.324   3.424   7.455  0.3303 -0.4904 -0.3716
 3384SOL    HW121788   3.251   3.410   7.395  0.0681 -2.9502  0.5154
 3384SOL    HW221789   3.305   3.511   7.490  0.5576 -0.5777 -0.0297
 3385SOL     OW21790   1.436   3.084   9.717  0.8969 -0.2137 -0.6510
 3385SOL    HW121791   1.473   2.997   9.702 -4.2142 -2.4068 -0.5682
 3385SOL    HW221792   1.470   3.119   9.799  0.7669  2.1694 -1.5922
 3386SOL     OW21793   0.716   3.691   5.331  0.4729 -0.5611 -0.1707
 3386SOL    HW121794   0.633   3.721   5.369 -0.2066 -0.9104 -1.3855
 3386SOL    HW221795   0.681   3.641   5.257 -1.0836 -0.6055  0.5952
 3387SOL     OW21796   4.647   4.560   2.984  0.0570  0.4862 -0.5166
 3387SOL    HW121797   0.000   4.538   2.977  0.4776  2.3074 -0.7770
 3387SOL    HW221798   4.647   4.647   2.944 -0.1690  2.2552  3.3794
 3388SOL     OW21799   2.214   1.578  11.927  0.3549 -0.7340 -0.2962
 3388SOL    HW121800   2.200   1.672  11.927  0.3263 -0.7547 -2.5066
 3388SOL    HW221801   2.135   1.562  11.979  0.5013 -1.3260 -0.2499
 3389SOL     OW21802   3.259   2.145   9.125 -0.3397 -1.0237  0.0133
 3389SOL    HW121803   3.255   2.071   9.065  1.3144 -1.9516  1.0745
 3389SOL    HW221804   3.208   2.113   9.199 -1.1172 -2.8811 -1.3405
 3390SOL     OW21805   3.482   3.210   0.438  0.4524 -0.1620  0.4640
 3390SOL    HW121806   3.395   3.240   0.413  0.8407  0.3479 -0.2868
 3390SOL    HW221807   3.531   3.292   0.428 -0.0374  0.0116 -0.5702
 3391SOL     OW21808   3.086   4.607   8.235 -0.3488 -0.8369 -0.0919
 3391SOL    HW121809   3.019   4.627   8.301  0.8544 -3.4521  1.9243
 3391SOL    HW221810   3.031   4.557   8.175 -0.4853 -0.1262 -0.5665
 3392SOL     OW21811   3.363   4.733  13.429  0.3456 -0.5139  0.4862
 3392SOL    HW121812   3.417   4.667  13.473  1.4219  0.1160  0.0894
 3392SOL    HW221813   3.430   0.049  13.390  0.3643 -0.5603  0.4529
 3393SOL     OW21814   1.193   3.982   4.624 -0.0370 -0.0839  0.0562
 3393SOL    HW121815   1.154   4.036   4.693 -2.7929 -1.8832 -0.0885
 3393SOL    HW221816   1.283   4.015   4.617 -0.1970 -0.3875 -3.5103
 3394SOL     OW21817   3.096   2.661   7.356 -0.2721  0.6202 -0.4903
 3394SOL    HW121818   3.099   2.615   7.440 -1.8742  1.3425 -0.0276
 3394SOL    HW221819   3.142   2.737   7.392  0.6266  0.9074 -2.2807
 3395SOL     OW21820   2.034   2.393   3.046  0.3842 -0.3169 -0.3067
 3395SOL    HW121821   2.112   2.367   2.998  1.9436  0.4121  1.8254
 3395SOL    HW221822   1.990   2.432   2.971  1.1690  0.9071 -0.1315
 3396SOL     OW21823   3.975   0.358   9.509  0.1692 -0.0914  0.7012
 3396SOL    HW121824   3.907   0.319   9.455 -0.4590  0.7830  0.8560
 3396SOL    HW221825   4.017   0.396   9.432 -1.9341 -1.3544 -1.0378
 3397SOL     OW21826   1.006   0.501   5.956 -0.6069 -0.5907  0.3804
 3397SOL    HW121827   0.912   0.495   5.973 -0.3783  0.6198  2.0014
 3397SOL    HW221828   1.020   0.421   5.905 -0.9766  0.5229 -1.4657
 3398SOL     OW21829   0.202   1.297   9.009  0.1223  0.1846 -0.4079
 3398SOL    HW121830   0.235   1.219   9.053  1.7029  0.5164 -1.0111
 3398SOL    HW221831   0.279   1.317   8.955  0.7701 -2.3788 -0.4408
 3399SOL     OW21832   2.423   1.233   3.246 -0.0791 -0.2652  0.3358
 3399SOL    HW121833   2.397   1.156   3.195 -0.7040  0.2665 -0.1412
 3399SOL    HW221834   2.509   1.254   3.211  0.0964 -1.2067  0.1923
 3400SOL     OW21835   3.225   1.260   5.480  0.2404  0.3099  0.8933
 3400SOL    HW121836   3.262   1.343   5.511 -1.5354  0.0106  3.7619
 3400SOL    HW221837   3.210   1.292   5.390 -1.5939 -1.0096  0.7235
 3401SOL     OW21838   0.497   0.063  17.272 -0.1884  0.0045 -0.3328
 3401SOL    HW121839   0.407   0.037  17.254  1.2387 -3.6287 -2.1518
 3401SOL    HW221840   0.501   0.144  17.221 -1.2340 -0.7428 -1.6057
 3402SOL     OW21841   3.502   2.817   5.549  0.2934 -0.0539 -0.1715
 3402SOL    HW121842   3.453   2.742   5.518  1.1289 -1.5053  2.0864
 3402SOL    HW221843   3.537   2.785   5.632  0.5769 -1.3470 -0.8006
 3403SOL     OW21844   2.122   2.104   2.934  0.6522  0.2017 -0.3945
 3403SOL    HW121845   2.149   2.015   2.914  0.4139 -0.1926  1.0226
 3403SOL    HW221846   2.058   2.083   3.002 -2.2149  1.9300 -2.5859
 3404SOL     OW21847   2.323   0.679   4.036  0.1410 -0.7180  0.4788
 3404SOL    HW121848   2.282   0.611   3.982  0.4317  0.7486 -1.5800
 3404SOL    HW221849   2.368   0.739   3.976 -1.5842 -0.2927 -0.4028
 3405SOL     OW21850   4.027   1.847  15.955 -0.5079 -0.4434 -0.3206
 3405SOL    HW121851   3.970   1.922  15.973 -1.2202 -1.2498  0.7269
 3405SOL    HW221852   4.102   1.854  16.013  1.0498 -0.5286 -2.3001
 3406SOL     OW21853   3.229   0.418   3.080 -0.2062 -0.0561  0.7313
 3406SOL    HW121854   3.317   0.382   3.076 -0.0977  0.3332 -0.5066
 3406SOL    HW221855   3.252   0.492   3.137  0.7816  1.1070 -1.1817
 3407SOL     OW21856   1.268   4.209   6.303  0.7715  0.7803 -0.0742
 3407SOL    HW121857   1.251   4.117   6.282 -1.5201  1.4512 -1.1677
 3407SOL    HW221858   1.364   4.206   6.302  0.7778  1.0404 -0.1116
 3408SOL     OW21859   0.023   1.788   8.514 -0.3078 -0.1244 -0.4407
 3408SOL    HW121860   4.718   1.774   8.597  0.8934  0.9937  0.3896
 3408SOL    HW221861   4.739   1.714   8.458  1.6926  1.4822 -3.4255
 3409SOL     OW21862   4.317   0.922   1.994 -0.1137  0.0351 -0.2278
 3409SOL    HW121863   4.314   0.906   1.900 -1.1455  1.3181 -0.4110
 3409SOL    HW221864   4.288   1.012   2.004  1.3465  0.3217  1.4103
 3410SOL     OW21865   1.723   1.615   2.572 -0.1322 -0.3666  0.0734
 3410SOL    HW121866   1.685   1.658   2.496 -1.5130  0.1520  1.0643
 3410SOL    HW221867   1.677   1.657   2.645  1.7494  0.1010  0.9887
 3411SOL     OW21868   3.048   4.315   1.697  0.1468 -0.1861  0.1673
 3411SOL    HW121869   2.990   4.348   1.765  0.3448  0.5395 -0.0248
 3411SOL    HW221870   3.045   4.219   1.705  1.1332 -0.1597  0.8570
 3412SOL     OW21871   2.720   1.827  17.372 -0.4642 -0.2015 -0.3620
 3412SOL    HW121872   2.776   1.831  17.450  1.0798 -2.1457 -1.3973
 3412SOL    HW221873   2.664   1.751  17.389  3.4227 -2.9573  0.0611
 3413SOL     OW21874   1.882   3.380  16.252 -0.4295  0.5764  0.1691
 3413SOL    HW121875   1.860   3.307  16.310 -0.0196  0.9566  0.7975
 3413SOL    HW221876   1.955   3.427  16.291 -1.0598  1.0296  0.7939
 3414SOL     OW21877   3.542   1.640   6.821  0.1404 -0.3411 -0.1578
 3414SOL    HW121878   3.541   1.551   6.857 -0.1109 -0.4173 -0.3518
 3414SOL    HW221879   3.449   1.661   6.826 -0.1713 -2.1919  1.6319
 3415SOL     OW21880   1.144   3.251   7.118 -0.1663 -0.0271 -0.4630
 3415SOL    HW121881   1.165   3.340   7.088  0.8223  0.9131  3.0679
 3415SOL    HW221882   1.184   3.257   7.205  0.9825  0.4187 -1.0216
 3416SOL     OW21883   3.148   0.456   7.039 -0.0588  0.3695  0.4952
 3416SOL    HW121884   3.156   0.461   7.134 -2.4740  0.4722  0.7119
 3416SOL    HW221885   3.102   0.372   7.030  0.2271  0.4338 -1.4917
 3417SOL     OW21886   2.832   4.208   6.656  0.0416  0.0400  0.5534
 3417SOL    HW121887   2.797   4.125   6.686 -1.4231  0.4024 -0.1285
 3417SOL    HW221888   2.768   4.234   6.589 -1.7417 -0.3777  2.0950
 3418SOL     OW21889   3.757   3.752   3.535  0.0853  0.2100 -0.3168
 3418SOL    HW121890   3.753   3.679   3.473  3.1598 -1.0199  0.9255
 3418SOL    HW221891   3.679   3.740   3.589  0.9986  0.9439  1.1924
 3419SOL     OW21892   4.019   0.856   2.943  0.2403 -0.1494 -0.6213
 3419SOL    HW121893   4.088   0.795   2.918  3.0285  2.5840  0.5024
 3419SOL    HW221894   3.942   0.808   2.912 -0.5241  0.6700  0.0106
 3420SOL     OW21895   1.766   4.145   1.538  0.3353 -0.6999  0.8934
 3420SOL    HW121896   1.808   4.064   1.508 -3.0562 -2.1448  0.1152
 3420SOL    HW221897   1.828   4.184   1.600 -0.2598  0.9063  0.4880
 3421SOL     OW21898   4.289   3.449   5.328  0.1057 -0.4590  0.0948
 3421SOL    HW121899   4.200   3.483   5.321 -0.2875 -2.2361 -3.3982
 3421SOL    HW221900   4.341   3.529   5.315  1.1714 -1.3520 -1.1052
 3422SOL     OW21901   3.391   2.580   2.646 -0.1427 -0.3457 -0.2717
 3422SOL    HW121902   3.378   2.674   2.635  1.6725 -0.0662 -0.0288
 3422SOL    HW221903   3.340   2.559   2.568  0.0154  1.0469 -0.7433
 3423SOL     OW21904   4.196   0.207   9.052 -0.3833  0.5414 -0.0653
 3423SOL    HW121905   4.248   0.230   9.129 -0.3281  0.2337 -0.0115
 3423SOL    HW221906   4.156   0.123   9.075 -2.7975  2.1040  1.4540
 3424SOL     OW21907   4.464   1.711   4.988  0.0264 -0.6225 -0.2782
 3424SOL    HW121908   4.539   1.709   5.047 -0.5404  1.4295  0.5059
 3424SOL    HW221909   4.498   1.663   4.913  0.1589 -0.4921 -0.2989
 3425SOL     OW21910   4.380   2.033  13.587  0.0660 -0.2919 -0.4824
 3425SOL    HW121911   4.309   2.054  13.527 -1.0941 -0.2382  0.9014
 3425SOL    HW221912   4.442   2.104  13.574  1.2743 -0.8741  2.1254
 3426SOL     OW21913   3.643   2.529   4.569 -0.1929 -0.0804  0.0790
 3426SOL    HW121914   3.671   2.440   4.550 -1.4932 -0.3752 -0.4459
 3426SOL    HW221915   3.641   2.574   4.485 -0.9931  0.6132  0.4597
 3427SOL     OW21916   4.407   0.574   9.332  0.0195 -0.4135  0.2097
 3427SOL    HW121917   4.403   0.581   9.427 -0.9665  2.3139 -0.0341
 3427SOL    HW221918   4.500   0.590   9.318 -0.2740  2.5345  1.6217
 3428SOL     OW21919   0.485   1.256  11.526 -0.4308  0.3277  0.7272
 3428SOL    HW121920   0.518   1.178  11.569 -1.3780 -0.5111 -0.0715
 3428SOL    HW221921   0.418   1.280  11.590 -0.3535  2.2160  0.1026
 3429SOL     OW21922   3.709   4.426   2.025  0.1419  0.2406 -0.1747
 3429SOL    HW121923   3.735   4.356   1.966  0.5167 -0.5661  0.9525
 3429SOL    HW221924   3.748   4.500   1.979  1.7385  0.1518  1.0476
 3430SOL     OW21925   4.571   1.432  14.078  0.2491  0.5743 -0.4626
 3430SOL    HW121926   4.523   1.512  14.100 -1.1116 -0.6355  0.9787
 3430SOL    HW221927   4.553   1.413  13.986 -3.7728  0.6144  0.3285
 3431SOL     OW21928   0.587   1.994  15.632 -0.3528 -0.0923  0.3069
 3431SOL    HW121929   0.525   2.046  15.581  2.4289  0.0662 -2.9492
 3431SOL    HW221930   0.567   2.019  15.722 -3.1848 -0.5526 -0.2037
 3432SOL     OW21931   1.069   3.110  16.351  0.2662  0.1750 -0.2442
 3432SOL    HW121932   1.093   3.108  16.259  0.0805  0.7726 -0.3082
 3432SOL    HW221933   1.048   3.019  16.370 -0.4153  0.5592  0.8404
 3433SOL     OW21934   0.334   2.227   4.266  0.6340  0.8350 -0.1176
 3433SOL    HW121935   0.341   2.241   4.172  1.3609 -0.1026 -0.2022
 3433SOL    HW221936   0.406   2.284   4.292  1.8287 -0.4005 -0.6882
 3434SOL     OW21937   0.351   2.762   7.532 -0.1458  0.1969 -0.4179
 3434SOL    HW121938   0.399   2.783   7.452  2.6071 -0.6181  1.0017
 3434SOL    HW221939   0.371   2.844   7.577 -1.3117  0.7537 -0.9236
 3435SOL     OW21940   1.910   1.384   9.939 -0.3443  0.3268  0.6973
 3435SOL    HW121941   1.919   1.430   9.855  1.6562  0.8171  1.1769
 3435SOL    HW221942   1.992   1.408   9.981 -0.4614  2.0413 -0.0746
 3436SOL     OW21943   3.118   1.551   5.004 -0.0869  0.0831  0.4712
 3436SOL    HW121944   3.037   1.545   5.054  1.5159 -4.4695  2.5292
 3436SOL    HW221945   3.179   1.558   5.078  0.8709  0.3184 -0.3397
 3437SOL     OW21946   4.003   1.647   8.072 -0.0452  0.0572 -0.5174
 3437SOL    HW121947   3.965   1.691   8.148  1.4792  2.5009 -1.1851
 3437SOL    HW221948   4.020   1.557   8.101  0.1040  0.2421 -0.0342
 3438SOL     OW21949   2.729   1.706  13.516 -0.6692 -0.4494  0.3143
 3438SOL    HW121950   2.803   1.751  13.475 -2.8456  1.9956 -0.8922
 3438SOL    HW221951   2.662   1.720  13.449  0.2773  3.1055  0.1218
 3439SOL     OW21952   3.058   0.559   4.304 -0.6319  0.0181 -0.1712
 3439SOL    HW121953   3.115   0.599   4.369 -0.3957  3.7683 -2.6918
 3439SOL    HW221954   3.026   0.486   4.357 -0.8846 -0.6131 -1.1976
 3440SOL     OW21955   2.873   1.280   1.713 -0.3768 -0.2770  0.1096
 3440SOL    HW121956   2.922   1.208   1.752  0.6920  0.0611 -0.6055
 3440SOL    HW221957   2.810   1.235   1.656 -1.9177  0.7175  1.0203
 3441SOL     OW21958   3.424   4.389   7.998  0.0358  0.2663  0.0316
 3441SOL    HW121959   3.497   4.354   7.947 -1.2949  1.9994 -3.0589
 3441SOL    HW221960   3.421   4.480   7.970  0.3747 -0.6891 -3.1435
 3442SOL     OW21961   3.618   3.191   0.073  0.9785 -0.1057  0.5689
 3442SOL    HW121962   3.587   3.281   0.082 -0.7205 -0.5980 -0.2751
 3442SOL    HW221963   3.549   3.151   0.019 -0.3350  1.6648  0.9341
 3443SOL     OW21964   1.509   0.791   5.972 -0.1493 -0.1802  0.0590
 3443SOL    HW121965   1.438   0.802   5.909 -2.2733  1.9551  2.8597
 3443SOL    HW221966   1.471   0.753   6.050  0.8134  0.3284  0.7805
 3444SOL     OW21967   4.110   1.193   5.774  0.1028 -0.2654  0.1262
 3444SOL    HW121968   4.055   1.258   5.818 -0.6687 -1.6846  1.2371
 3444SOL    HW221969   4.130   1.249   5.698 -2.4252  2.6119  1.6029
 3445SOL     OW21970   1.325   2.486   8.555 -0.4072 -0.2330 -0.6726
 3445SOL    HW121971   1.369   2.569   8.536 -2.3161  0.4898 -1.9206
 3445SOL    HW221972   1.378   2.462   8.631  1.8327  0.0948 -2.1346
 3446SOL     OW21973   3.379   3.875   8.719  0.2980 -0.2209 -0.5230
 3446SOL    HW121974   3.301   3.837   8.679  0.0678 -0.1697 -0.1151
 3446SOL    HW221975   3.375   3.967   8.694 -0.9969 -0.4205 -1.0549
 3447SOL     OW21976   2.026   2.456  11.758 -0.2144  0.1755  0.1509
 3447SOL    HW121977   2.088   2.389  11.787 -0.5526  0.0198  0.5210
 3447SOL    HW221978   2.086   2.515  11.714  0.2024  0.1153  0.6311
 3448SOL     OW21979   3.907   4.309   6.911  0.1673 -0.4695 -0.0116
 3448SOL    HW121980   3.866   4.386   6.871 -0.3058 -2.1518 -2.8291
 3448SOL    HW221981   3.970   4.349   6.970  1.5054 -0.2302 -1.6117
 3449SOL     OW21982   1.083   1.867   7.518  0.2150  0.0911 -0.0188
 3449SOL    HW121983   1.082   1.955   7.481  1.0994 -0.2564 -0.8787
 3449SOL    HW221984   1.004   1.832   7.475  0.0294  1.0694 -0.4917
 3450SOL     OW21985   2.788   0.349  13.231 -0.1935  0.3107 -0.1762
 3450SOL    HW121986   2.842   0.300  13.294 -2.1509  0.2904  1.4565
 3450SOL    HW221987   2.839   0.430  13.225  0.3426 -0.0029  0.0943
 3451SOL     OW21988   2.989   1.857  13.027 -0.3564 -0.3241  0.6776
 3451SOL    HW121989   2.924   1.799  13.070 -1.0066 -1.9939 -2.5780
 3451SOL    HW221990   2.955   1.942  13.055 -0.0357  0.0393 -0.0421
 3452SOL     OW21991   1.730   2.353   9.438 -0.2493  0.0104  0.0078
 3452SOL    HW121992   1.750   2.263   9.412  0.4351 -0.5325  2.4600
 3452SOL    HW221993   1.737   2.336   9.532 -0.4518 -0.1124 -0.0004
 3453SOL     OW21994   3.324   1.396   3.076  0.1387 -0.1522  0.1740
 3453SOL    HW121995   3.282   1.321   3.034 -3.2523  1.1161  1.3044
 3453SOL    HW221996   3.296   1.370   3.164  1.3142 -0.2255  0.5328
 3454SOL     OW21997   3.793   2.251   5.441 -0.2945 -0.1213 -0.2161
 3454SOL    HW121998   3.734   2.324   5.422 -0.3580 -0.4442 -1.2868
 3454SOL    HW221999   3.872   2.269   5.390 -1.0215  1.9371 -0.6326
 3455SOL     OW22000   2.645   0.930   7.951 -0.0051  0.1155 -0.2725
 3455SOL    HW122001   2.711   0.998   7.967  0.2282  0.0847 -1.0555
 3455SOL    HW222002   2.667   0.858   8.010  0.6650  0.2565 -0.3499
 3456SOL     OW22003   2.165   3.185   3.629  0.6317  0.2118 -0.0010
 3456SOL    HW122004   2.173   3.254   3.695 -0.8342 -0.8518  1.2817
 3456SOL    HW222005   2.254   3.150   3.625  0.8582  0.8792 -0.8777
 3457SOL     OW22006   3.120   0.581   8.478 -0.3056 -0.1496 -0.3031
 3457SOL    HW122007   3.132   0.560   8.571  1.2427 -1.1796 -0.7356
 3457SOL    HW222008   3.039   0.630   8.492  1.5583  2.7447  0.4304
 3458SOL     OW22009   4.300   4.634   6.924  0.1479  0.2011  0.6551
 3458SOL    HW122010   4.343   4.660   6.843 -0.8429 -1.8284 -0.5151
 3458SOL    HW222011   4.216   4.678   6.918  0.2696  0.0429 -1.9571
 3459SOL     OW22012   0.549   0.348  12.408 -0.5065 -0.4122 -0.3027
 3459SOL    HW122013   0.637   0.357  12.445 -0.4522 -2.1437  0.0158
 3459SOL    HW222014   0.564   0.379  12.319 -0.0769  2.7398  0.8716
 3460SOL     OW22015   1.117   1.518  15.824 -0.0422  0.2160  0.3412
 3460SOL    HW122016   1.025   1.523  15.799  0.4336  2.2532 -0.9890
 3460SOL    HW222017   1.130   1.426  15.802 -0.9615  0.0850  0.3517
 3461SOL     OW22018   1.051   2.945   3.215  0.5913 -0.0941 -0.1073
 3461SOL    HW122019   1.071   2.852   3.201  1.3917 -0.0837  0.9338
 3461SOL    HW222020   0.965   2.959   3.177 -0.0309 -0.6454  1.0858
 3462SOL     OW22021   3.676   3.369   4.661 -0.1454  0.5932  0.1734
 3462SOL    HW122022   3.604   3.322   4.702 -1.3320  0.7468 -1.7262
 3462SOL    HW222023   3.742   3.301   4.672  0.2572  1.0765  0.7381
 3463SOL     OW22024   0.129   1.089  13.789  0.1041 -0.6712  0.3934
 3463SOL    HW122025   0.142   1.074  13.695 -2.5787 -0.9430  0.0696
 3463SOL    HW222026   0.211   1.047  13.813  1.2778  0.5025 -1.5591
 3464SOL     OW22027   0.574   4.301   7.168  0.5378 -0.1904 -0.3194
 3464SOL    HW122028   0.651   4.327   7.217 -0.4245  1.3714  0.3462
 3464SOL    HW222029   0.582   4.357   7.091 -1.9468 -0.0955 -0.5156
 3465SOL     OW22030   0.845   3.696   1.443 -0.0518  0.0120 -0.4294
 3465SOL    HW122031   0.919   3.757   1.443  1.1763 -1.4669 -0.3749
 3465SOL    HW222032   0.874   3.628   1.381 -1.5664 -0.2215 -0.8762
 3466SOL     OW22033   4.618   1.764   5.862 -0.3222  0.1916  0.2876
 3466SOL    HW122034   4.586   1.686   5.816 -0.3609  0.6764 -0.5016
 3466SOL    HW222035   4.583   1.752   5.950  0.4675  2.1504  0.8716
 3467SOL     OW22036   3.490   3.166   2.958 -0.5003  0.0771  0.9277
 3467SOL    HW122037   3.410   3.187   2.910 -0.9598 -3.8311  0.0226
 3467SOL    HW222038   3.525   3.096   2.903  0.8369  2.4214 -1.2068
 3468SOL     OW22039   3.217   2.937   8.016 -0.2041  0.4031 -0.2994
 3468SOL    HW122040   3.193   2.846   7.998  0.0472 -0.2391  2.5716
 3468SOL    HW222041   3.292   2.951   7.959  0.4138  0.3507  0.4915
 3469SOL     OW22042   1.230   1.666  10.528  0.2062 -0.5158  0.3871
 3469SOL    HW122043   1.270   1.579  10.528 -1.6590 -1.3773  1.3156
 3469SOL    HW222044   1.185   1.683  10.611  1.0382  0.0863  0.7181
 3470SOL     OW22045   1.814   0.094   5.763  0.0977 -0.1723 -0.3703
 3470SOL    HW122046   1.756   0.025   5.731 -1.7823  0.7256  1.0832
 3470SOL    HW222047   1.842   0.059   5.847  3.6812  0.6946 -1.1884
 3471SOL     OW22048   3.995   0.858   9.562 -0.4006  0.2426  0.0747
 3471SOL    HW122049   4.086   0.874   9.537 -0.8122 -0.0539 -1.5913
 3471SOL    HW222050   3.993   0.778   9.614 -2.3977  1.2449  1.5636
 3472SOL     OW22051   3.179   2.019   4.096  0.2639  0.4400 -0.4152
 3472SOL    HW122052   3.177   2.012   4.191 -1.0740 -1.4525 -0.5885
 3472SOL    HW222053   3.154   2.110   4.078 -1.3851 -0.1088 -0.9263
 3473SOL     OW22054   4.658   1.446  14.507  0.0939 -0.8407 -0.2873
 3473SOL    HW122055   4.711   1.503  14.450 -1.6559  0.0272 -1.0591
 3473SOL    HW222056   4.585   1.445  14.445 -1.0579 -0.5153  1.0906
 3474SOL     OW22057   4.513   3.845   9.694  0.1498 -0.4054 -0.1330
 3474SOL    HW122058   4.534   3.894   9.615 -1.3805  2.4905  1.2256
 3474SOL    HW222059   4.592   3.792   9.705  1.8497  2.2620  0.3060
 3475SOL     OW22060   4.615   4.641  16.392  0.3175  0.1150 -0.5741
 3475SOL    HW122061   4.585   4.656  16.302  1.5266 -0.2491 -1.0392
 3475SOL    HW222062   4.544   4.579  16.409 -0.0120  0.2618 -1.3875
 3476SOL     OW22063   2.278   4.514   4.778  0.7027 -0.7513  0.5249
 3476SOL    HW122064   2.334   4.585   4.808  1.8894 -1.8598  0.9583
 3476SOL    HW222065   2.344   4.472   4.722  1.1340  0.7281 -0.0596
 3477SOL     OW22066   4.623   2.640   6.591  0.1996  0.2278  0.1077
 3477SOL    HW122067   4.692   2.644   6.656  0.1164  0.6851  0.1650
 3477SOL    HW222068   4.674   2.591   6.526  1.2375  1.2199  0.1742
 3478SOL     OW22069   1.280   2.604   2.284  0.1521 -0.0301  0.1119
 3478SOL    HW122070   1.328   2.526   2.256  1.2642  0.5649  0.3411
 3478SOL    HW222071   1.327   2.661   2.224  0.3585  1.3832  1.6295
 3479SOL     OW22072   0.347   4.196   7.066 -0.2256 -0.0075 -0.7984
 3479SOL    HW122073   0.274   4.239   7.111 -0.7625 -0.4362 -1.2533
 3479SOL    HW222074   0.418   4.227   7.122  1.2222  0.7286 -3.0417
 3480SOL     OW22075   1.100   1.530   7.589  0.0575  0.2293  0.2807
 3480SOL    HW122076   1.066   1.532   7.499 -0.0631  0.1092  0.3252
 3480SOL    HW222077   1.190   1.513   7.558 -0.1524 -0.7234  0.1988
 3481SOL     OW22078   1.417   1.366   2.371  0.1618  0.0564 -0.2595
 3481SOL    HW122079   1.470   1.445   2.371 -1.2380  1.0031 -1.1500
 3481SOL    HW222080   1.435   1.342   2.462 -2.4139  0.7011  0.4170
 3482SOL     OW22081   2.890   3.911   7.459  0.0951 -0.2760  0.1146
 3482SOL    HW122082   2.841   3.913   7.541 -0.4536 -0.0511 -0.2214
 3482SOL    HW222083   2.864   3.826   7.422 -1.3036  0.7313 -1.2221
 3483SOL     OW22084   2.929   0.030  12.833  0.2874 -0.1188 -0.4733
 3483SOL    HW122085   2.997   0.050  12.769  2.1683 -2.4092  0.8368
 3483SOL    HW222086   2.895   4.689  12.795 -0.4400  0.3413 -0.8157
 3484SOL     OW22087   0.542   2.436   4.316 -0.5905  0.7564  0.4802
 3484SOL    HW122088   0.573   2.442   4.407 -0.2148  0.4524  0.3717
 3484SOL    HW222089   0.458   2.482   4.319 -0.7553  0.2271  3.6922
 3485SOL     OW22090   3.630   1.234   4.395 -0.3587 -1.2266  0.1749
 3485SOL    HW122091   3.673   1.159   4.355  0.2517 -1.6423  1.6007
 3485SOL    HW222092   3.595   1.187   4.471  1.1982 -1.7192  0.6095
 3486SOL     OW22093   4.549   2.041   8.454 -0.6092 -0.0494 -0.5217
 3486SOL    HW122094   4.627   1.991   8.429 -0.6472  0.4063 -1.5351
 3486SOL    HW222095   4.485   1.970   8.468 -0.8281  0.4308  0.9781
 3487SOL     OW22096   4.528   1.962   8.090  0.3887 -0.3119 -0.3834
 3487SOL    HW122097   4.466   1.917   8.032 -1.9664  3.4045 -0.7418
 3487SOL    HW222098   4.467   2.021   8.135 -0.3659 -0.6409 -0.9696
 3488SOL     OW22099   3.076   3.304   0.862 -0.1726  0.5310 -0.4884
 3488SOL    HW122100   3.117   3.371   0.808  1.2691  1.3714  1.6373
 3488SOL    HW222101   3.156   3.297   0.914  0.5236  3.6783 -1.1252
 3489SOL     OW22102   0.340   3.217   4.302 -0.2153 -0.3140 -0.1123
 3489SOL    HW122103   0.308   3.183   4.386  0.2542 -1.3387 -0.3448
 3489SOL    HW222104   0.282   3.294   4.299  0.6891  0.3469 -0.5298
 3490SOL     OW22105   2.924   2.089   7.381  0.1937 -0.1174 -0.7573
 3490SOL    HW122106   2.911   2.172   7.335 -2.1357  0.6394  1.2767
 3490SOL    HW222107   2.855   2.033   7.347  0.8343  0.9637 -3.7751
 3491SOL     OW22108   3.058   4.545  15.086 -0.5261 -0.3341 -0.7547
 3491SOL    HW122109   2.974   4.532  15.131 -0.9525 -0.6447 -1.6460
 3491SOL    HW222110   3.029   4.586  15.004  1.1974 -1.4497 -1.9037
 3492SOL     OW22111   3.608   2.279   1.830 -0.3372 -0.3646 -0.0728
 3492SOL    HW122112   3.514   2.263   1.823 -0.7295  0.7724  2.7163
 3492SOL    HW222113   3.644   2.190   1.828 -1.8763 -1.0726  3.9221
 3493SOL     OW22114   1.025   3.496   7.868  0.4834 -0.0905  1.1093
 3493SOL    HW122115   1.116   3.476   7.891  0.7518  0.6586  0.6853
 3493SOL    HW222116   1.016   3.581   7.911  0.4448  1.3381 -1.7549
 3494SOL     OW22117   2.670   0.869  17.657 -0.5744  0.2606  0.0683
 3494SOL    HW122118   2.764   0.854  17.646 -0.6686  0.4619 -0.9680
 3494SOL    HW222119   2.664   0.935  17.726 -1.0269  0.2051  0.0821
 3495SOL     OW22120   3.894   0.461  16.078  0.1849  0.0715  0.4539
 3495SOL    HW122121   3.807   0.437  16.110  0.2180  0.3599  0.7637
 3495SOL    HW222122   3.897   0.405  16.001 -0.9410  0.0404  0.4295
 3496SOL     OW22123   4.700   0.006   4.816  0.1092  0.5225  0.1850
 3496SOL    HW122124   4.650   0.086   4.826 -1.8561 -0.7394  0.3916
 3496SOL    HW222125   0.047   0.045   4.830 -0.8298  3.0263 -1.0297
 3497SOL     OW22126   2.121   4.577   6.410 -0.0533 -0.7645 -0.0616
 3497SOL    HW122127   2.080   4.611   6.331  2.2504 -2.6928 -2.1171
 3497SOL    HW222128   2.210   4.613   6.407  0.7271 -2.7955 -1.6934
 3498SOL     OW22129   0.495   2.854   3.510 -0.2832  0.0427 -0.0376
 3498SOL    HW122130   0.402   2.856   3.532 -0.3513  0.8349 -0.4147
 3498SOL    HW222131   0.499   2.922   3.443  0.7019 -0.8081 -0.8482
 3499SOL     OW22132   3.601   0.784  13.360 -0.2340  0.4743  0.0464
 3499SOL    HW122133   3.632   0.867  13.324  1.7780  1.1564  3.3911
 3499SOL    HW222134   3.683   0.735  13.357 -0.1293  0.7490 -1.8403
 3500SOL     OW22135   0.375   3.498   6.442  0.2015 -0.3158  0.2287
 3500SOL    HW122136   0.353   3.591   6.432 -2.1445 -0.7225  1.4541
 3500SOL    HW222137   0.314   3.475   6.512  0.3440  0.3220  0.5599
 3501SOL     OW22138   3.295   1.897   5.754  0.1661  0.3914 -0.1593
 3501SOL    HW122139   3.350   1.944   5.692  0.9697  0.5027  0.6457
 3501SOL    HW222140   3.268   1.830   5.691 -2.2407  0.3192  0.9322
 3502SOL     OW22141   1.042   0.901   8.205 -0.3195 -0.1720 -0.5273
 3502SOL    HW122142   0.967   0.906   8.146 -0.2035  0.3856 -0.6240
 3502SOL    HW222143   1.003   0.893   8.292  1.2233 -2.0278  0.0056
 3503SOL     OW22144   2.243   0.684   3.660  0.3870 -0.3073 -0.0277
 3503SOL    HW122145   2.176   0.720   3.717  1.9420  2.2796  0.1578
 3503SOL    HW222146   2.287   0.760   3.622  0.4414  0.1326  0.9069
 3504SOL     OW22147   3.699   1.941   7.678  0.0093  0.0899  0.2093
 3504SOL    HW122148   3.726   2.033   7.683  0.5683  0.0340 -1.7167
 3504SOL    HW222149   3.757   1.901   7.743 -0.1820 -0.7974 -0.1668
 3505SOL     OW22150   2.933   2.876   9.467  0.0747 -0.3252  0.5177
 3505SOL    HW122151   2.989   2.824   9.410  0.4035 -2.2747  2.5981
 3505SOL    HW222152   2.850   2.883   9.421  0.0074 -0.3447  0.6357
 3506SOL     OW22153   4.217   1.720   8.858 -0.6201  0.3116 -0.2377
 3506SOL    HW122154   4.258   1.796   8.816  1.8431  0.6304  2.7506
 3506SOL    HW222155   4.125   1.741   8.837 -0.6938  0.6139  0.3912
 3507SOL     OW22156   3.468   3.319  15.741  0.1285 -0.3901  0.3590
 3507SOL    HW122157   3.407   3.391  15.754  1.1008  0.4182  0.4396
 3507SOL    HW222158   3.433   3.278  15.662 -0.1301 -0.1462  0.3512
 3508SOL     OW22159   1.240   0.499   2.964  0.0121  0.4215  0.3102
 3508SOL    HW122160   1.289   0.545   2.896 -0.2764 -0.0182 -0.1905
 3508SOL    HW222161   1.184   0.439   2.915  2.1745 -1.2415 -0.1180
 3509SOL     OW22162   4.013   3.689  12.384 -0.0395 -0.0984  0.6653
 3509SOL    HW122163   4.045   3.777  12.405  0.9825 -0.6580  1.4528
 3509SOL    HW222164   3.919   3.705  12.378  0.4322  1.9608 -1.2164
 3510SOL     OW22165   0.504   2.357   2.384 -0.3856  0.0823  0.3987
 3510SOL    HW122166   0.415   2.361   2.350 -1.1042  3.5886  2.7315
 3510SOL    HW222167   0.481   2.286   2.444 -0.6463  1.0239  1.4150
 3511SOL     OW22168   3.414   2.654  15.418  0.0928 -0.9374 -0.0258
 3511SOL    HW122169   3.503   2.636  15.448 -0.4300 -1.3841  1.2752
 3511SOL    HW222170   3.435   2.728  15.361 -2.2935  0.5851  1.0767
 3512SOL     OW22171   0.122   1.615   4.013 -0.0973  0.0502  0.6059
 3512SOL    HW122172   0.140   1.702   3.976 -2.9687 -0.0159 -0.9939
 3512SOL    HW222173   0.063   1.579   3.946  3.2092 -2.3565 -0.9887
 3513SOL     OW22174   1.428   2.967   2.959  0.4420 -0.3859  0.4209
 3513SOL    HW122175   1.410   2.978   3.053 -0.7282  0.9811  0.0556
 3513SOL    HW222176   1.343   2.987   2.918  0.8352  3.0796  1.3275
 3514SOL     OW22177   0.310   0.619   1.693 -0.0761  0.7379  0.5739
 3514SOL    HW122178   0.276   0.704   1.722 -0.8625  0.3141  0.8758
 3514SOL    HW222179   0.296   0.644   1.601  0.7052  0.3442  0.3418
 3515SOL     OW22180   2.451   3.080  15.636 -0.2436  0.5600 -0.0417
 3515SOL    HW122181   2.448   3.125  15.721  1.4494 -0.9399  0.8020
 3515SOL    HW222182   2.519   3.014  15.648 -0.1927  0.9367  1.7490
 3516SOL     OW22183   3.078   1.860   7.907  0.4922  0.0745  0.3432
 3516SOL    HW122184   3.127   1.854   7.989 -0.4976 -0.2556  0.9179
 3516SOL    HW222185   3.076   1.955   7.895  0.5580 -0.2588 -2.1968
 3517SOL     OW22186   1.735   1.356   7.014 -0.1369  0.4753  0.0668
 3517SOL    HW122187   1.779   1.436   7.044  0.9910 -0.4052  0.7693
 3517SOL    HW222188   1.723   1.310   7.097  1.8695 -0.1978 -0.0152
 3518SOL     OW22189   1.684   3.177   5.644 -0.0167 -0.0953 -0.0388
 3518SOL    HW122190   1.748   3.147   5.709 -0.5401 -1.1518 -0.0018
 3518SOL    HW222191   1.691   3.272   5.640  2.1033 -0.2495  0.2734
 3519SOL     OW22192   2.597   2.590   7.288 -0.4092  0.4029 -0.0899
 3519SOL    HW122193   2.646   2.535   7.228  2.7559 -0.9513  3.7665
 3519SOL    HW222194   2.646   2.572   7.368  0.5649 -0.1436 -0.8271
 3520SOL     OW22195   4.599   3.957   6.729 -0.2955  0.4331 -0.3669
 3520SOL    HW122196   4.656   3.888   6.694 -1.6015 -0.0314 -1.5825
 3520SOL    HW222197   4.556   3.988   6.649  0.0040  0.7333 -0.4075
 3521SOL     OW22198   2.291   4.688   3.499 -0.2693 -0.1548 -0.3610
 3521SOL    HW122199   2.197   4.691   3.483 -0.2494 -2.8779 -0.9128
 3521SOL    HW222200   2.317   0.018   3.438  0.5653 -0.2095 -0.0671
 3522SOL     OW22201   3.624   3.378   8.947 -0.0094  0.1085  0.2361
 3522SOL    HW122202   3.580   3.319   9.008  2.0632 -1.5111  0.1839
 3522SOL    HW222203   3.602   3.323   8.871 -0.0683  0.1969  0.1895
 3523SOL     OW22204   0.014   2.290   9.267  0.0744  0.2986  0.3591
 3523SOL    HW122205   4.697   2.213   9.280 -0.7538  1.3133  2.7219
 3523SOL    HW222206   4.727   2.324   9.181 -1.0190  0.9480  0.9535
 3524SOL     OW22207   0.763   3.522   4.871  0.1608  0.3244 -0.2664
 3524SOL    HW122208   0.749   3.614   4.848  1.4432  0.4399 -0.6272
 3524SOL    HW222209   0.684   3.502   4.920 -0.2428  1.2208 -0.5509
 3525SOL     OW22210   4.548   0.238   7.467 -0.9531 -0.4997  0.0424
 3525SOL    HW122211   4.588   0.304   7.522 -0.3922 -1.5165  0.8653
 3525SOL    HW222212   4.599   0.245   7.386  0.2398  1.7795  1.0249
 3526SOL     OW22213   0.416   1.890   1.024 -0.3364  0.4709 -0.1261
 3526SOL    HW122214   0.402   1.801   0.990 -1.1886  0.2652  0.7284
 3526SOL    HW222215   0.324   1.915   1.038 -0.5606  0.3239 -1.3071
 3527SOL     OW22216   0.468   4.707   6.960  0.5597 -0.2829  0.2527
 3527SOL    HW122217   0.520   4.702   6.880  0.4293  2.6494 -0.0063
 3527SOL    HW222218   0.535   4.730   7.024  1.7359 -1.2168 -0.6486
 3528SOL     OW22219   3.691   1.578  11.762 -0.3495 -0.3027 -0.1963
 3528SOL    HW122220   3.655   1.639  11.826 -0.8739  0.0222 -0.8012
 3528SOL    HW222221   3.758   1.533  11.814 -0.0098 -0.9335 -1.1717
 3529SOL     OW22222   1.417   1.476   8.394  0.6065 -0.1261 -0.2726
 3529SOL    HW122223   1.336   1.526   8.403  0.2831 -0.2805 -2.3433
 3529SOL    HW222224   1.391   1.390   8.359 -1.1698 -0.6923  2.4602
 3530SOL     OW22225   3.237   1.263   3.296  0.5795  0.4803  0.4103
 3530SOL    HW122226   3.309   1.218   3.342  0.2818 -0.5365 -0.1214
 3530SOL    HW222227   3.164   1.242   3.354 -0.9055  2.2310 -0.8328
 3531SOL     OW22228   2.823   3.040   4.372  0.2080 -0.3249  0.0651
 3531SOL    HW122229   2.731   3.023   4.350  0.8575 -2.7075 -0.7574
 3531SOL    HW222230   2.847   2.954   4.405  1.1303  0.0396  0.3537
 3532SOL     OW22231   3.639   1.920   3.019  0.2286 -0.1874  0.0878
 3532SOL    HW122232   3.587   1.939   3.097 -1.8700 -2.1798 -0.8225
 3532SOL    HW222233   3.725   1.944   3.054 -0.6702  1.0014  1.4893
 3533SOL     OW22234   2.510   1.817   2.633  0.6732  0.4096 -0.0607
 3533SOL    HW122235   2.588   1.864   2.603 -0.4510  3.2402  1.4408
 3533SOL    HW222236   2.515   1.738   2.580 -1.4802  0.2735 -0.0541
 3534SOL     OW22237   4.419   2.559   3.200  0.2330  0.5104 -0.0205
 3534SOL    HW122238   4.511   2.544   3.222 -0.0890  0.0406  1.0527
 3534SOL    HW222239   4.411   2.651   3.173 -1.1048  0.6758  0.9262
 3535SOL     OW22240   4.474   1.146   3.256  0.2502 -0.0192 -0.0449
 3535SOL    HW122241   4.509   1.176   3.339  2.6517 -0.3853 -0.9263
 3535SOL    HW222242   4.546   1.186   3.207 -0.0542  0.3199 -0.2166
 3536SOL     OW22243   4.376   4.130  10.369  0.6415 -0.0688 -0.3768
 3536SOL    HW122244   4.282   4.118  10.378  0.7551 -1.7755 -1.5429
 3536SOL    HW222245   4.381   4.084  10.285  2.1752  0.9958 -0.8770
 3537SOL     OW22246   3.073   0.399   7.521  0.2126 -0.3707  0.2695
 3537SOL    HW122247   3.105   0.366   7.606 -2.4548  0.2761  1.5175
 3537SOL    HW222248   2.995   0.345   7.511  0.9834 -1.4988  0.2620
 3538SOL     OW22249   3.267   4.701   6.536 -0.0458  0.6751  0.1434
 3538SOL    HW122250   3.314   4.664   6.611 -1.6586  0.4315  1.0292
 3538SOL    HW222251   3.284   0.055   6.538 -0.1359  0.7360 -1.9843
 3539SOL     OW22252   2.965   2.964   6.820  0.2840  0.2802  0.6554
 3539SOL    HW122253   3.037   2.910   6.853 -0.8283  0.4983  3.4357
 3539SOL    HW222254   2.899   2.895   6.808  1.1966 -0.3996 -0.4558
 3540SOL     OW22255   0.525   1.773   3.173 -0.0806 -0.2003 -0.1505
 3540SOL    HW122256   0.560   1.816   3.094  0.9584  2.3371  1.6726
 3540SOL    HW222257   0.527   1.847   3.235  0.9691 -1.7815  1.6913
 3541SOL     OW22258   1.961   3.800   8.352  0.0208  0.1367 -0.3781
 3541SOL    HW122259   1.882   3.808   8.405  0.5512 -1.9157  0.7110
 3541SOL    HW222260   2.007   3.732   8.401  2.3636  0.8700 -1.5538
 3542SOL     OW22261   0.111   3.291  10.937 -0.5368  0.2226 -0.5661
 3542SOL    HW122262   0.154   3.208  10.955  1.5695  1.0833 -1.6530
 3542SOL    HW222263   0.032   3.259  10.893  0.3322 -0.9865 -1.2352
 3543SOL     OW22264   1.076   0.312   2.849 -0.1477  0.7540 -0.4944
 3543SOL    HW122265   1.149   0.327   2.788 -2.0928  1.2822 -2.7039
 3543SOL    HW222266   1.054   0.220   2.834 -2.3730  1.1356  0.4193
 3544SOL     OW22267   4.270   2.185   7.250  0.4123  0.3604 -0.7149
 3544SOL    HW122268   4.302   2.271   7.279 -1.8526  0.9301  0.0899
 3544SOL    HW222269   4.187   2.218   7.215  1.0270  2.4892 -0.1573
 3545SOL     OW22270   4.638   2.127   2.511  0.0560 -0.1999 -0.6304
 3545SOL    HW122271   4.683   2.076   2.443  2.1044  1.2179 -0.3657
 3545SOL    HW222272   4.618   2.062   2.579  0.0884 -0.0054 -0.4329
 3546SOL     OW22273   0.117   3.848  12.116  0.9258  0.1006 -0.4937
 3546SOL    HW122274   0.127   3.779  12.181  1.8114  0.9857  0.3096
 3546SOL    HW222275   0.127   3.798  12.036 -1.4026  0.2577 -0.8937
 3547SOL     OW22276   3.788   1.932   8.636 -0.6527  0.1254  0.4644
 3547SOL    HW122277   3.730   1.856   8.630  1.9509 -1.8164  0.2709
 3547SOL    HW222278   3.851   1.902   8.702  0.6233 -0.4538 -1.0268
 3548SOL     OW22279   4.679   1.052   5.893  0.5627  0.4814 -0.2299
 3548SOL    HW122280   4.673   1.098   5.810 -0.9486 -3.0992 -2.1314
 3548SOL    HW222281   4.615   0.983   5.872  1.8069 -0.5579 -0.6036
 3549SOL     OW22282   1.506   3.429   6.406  0.4917 -0.1439  0.5573
 3549SOL    HW122283   1.421   3.473   6.413  0.0544 -0.6299 -1.6319
 3549SOL    HW222284   1.519   3.450   6.314 -0.5601  1.0560  0.6763
 3550SOL     OW22285   3.206   2.960   6.367 -0.0055  0.4570 -0.3166
 3550SOL    HW122286   3.267   2.940   6.295  3.2266  0.4672  2.4512
 3550SOL    HW222287   3.275   2.986   6.428  1.5256  0.3058 -1.9750
 3551SOL     OW22288   1.690   0.967   4.764  0.3307  0.3326  0.7011
 3551SOL    HW122289   1.679   0.957   4.858 -0.4423  3.4594  0.9078
 3551SOL    HW222290   1.767   1.023   4.772  1.3158 -1.2215  2.3001
 3552SOL     OW22291   2.065   2.983   8.375 -0.1868 -0.0617 -0.9257
 3552SOL    HW122292   2.151   3.012   8.404  0.1159 -1.8632 -0.0467
 3552SOL    HW222293   2.012   3.058   8.404  2.9399  0.8087  2.4396
 3553SOL     OW22294   3.459   2.074  17.324 -0.1274  0.1105 -1.2460
 3553SOL    HW122295   3.476   1.980  17.316 -0.7584 -0.0335 -0.8658
 3553SOL    HW222296   3.432   2.106  17.238 -0.9576 -0.8518 -1.3429
 3554SOL     OW22297   0.081   3.178   5.364 -0.0985  0.0022  0.2465
 3554SOL    HW122298   4.734   3.215   5.348 -0.5812 -0.5990  1.4985
 3554SOL    HW222299   0.072   3.105   5.302 -1.7486  0.1072  0.3692
 3555SOL     OW22300   2.394   0.758  10.469 -0.2925 -0.1453  0.2409
 3555SOL    HW122301   2.414   0.688  10.407  1.0788  0.6013 -0.1529
 3555SOL    HW222302   2.346   0.819  10.413  0.3448  0.0180 -0.1291
 3556SOL     OW22303   1.096   3.260   1.779  0.1386  0.6144 -0.0414
 3556SOL    HW122304   1.120   3.299   1.863 -0.7534  1.0517  0.0107
 3556SOL    HW222305   1.151   3.326   1.736 -1.0882  0.7183 -1.4435
 3557SOL     OW22306   1.478   0.352   2.987  0.0698  0.0088  0.0915
 3557SOL    HW122307   1.521   0.416   3.044  0.4114  2.0035 -2.4065
 3557SOL    HW222308   1.384   0.368   2.992 -0.1550 -1.0270 -0.8701
 3558SOL     OW22309   1.291   2.667  13.763 -0.9095 -0.6331  0.2195
 3558SOL    HW122310   1.296   2.762  13.761 -1.2544 -0.6114  0.3583
 3558SOL    HW222311   1.255   2.657  13.675 -1.8654  3.5679  0.1449
 3559SOL     OW22312   1.045   4.476   4.247 -0.6679  0.1235  0.7135
 3559SOL    HW122313   0.977   4.505   4.186  1.1490  3.0728  0.0951
 3559SOL    HW222314   1.126   4.481   4.196 -1.3404 -1.5816 -0.5693
 3560SOL     OW22315   2.279   3.669   5.723 -0.2473  0.2455 -0.4029
 3560SOL    HW122316   2.269   3.718   5.805 -0.2379 -1.9095  0.8933
 3560SOL    HW222317   2.187   3.660   5.699  0.3398 -1.7223 -1.9359
 3561SOL     OW22318   2.912   0.381  16.383  0.0435 -0.3706  0.4217
 3561SOL    HW122319   2.862   0.326  16.443  0.8014  0.3676  1.7135
 3561SOL    HW222320   2.848   0.380  16.312  0.0882 -1.6144  0.3999
 3562SOL     OW22321   0.251   2.768   5.033 -0.5663  0.3643  0.5363
 3562SOL    HW122322   0.217   2.713   5.104 -0.9299 -0.1623 -0.0488
 3562SOL    HW222323   0.243   2.694   4.973  0.3664  0.7459 -0.0607
 3563SOL     OW22324   2.542   2.093   5.092 -0.2281 -0.7206  0.2102
 3563SOL    HW122325   2.635   2.082   5.071 -0.1447 -2.0582  1.2790
 3563SOL    HW222326   2.497   2.013   5.066 -1.3572 -0.0515  0.0896
 3564SOL     OW22327   0.047   1.959  14.004  0.3659  0.3435  0.1183
 3564SOL    HW122328   4.716   1.905  13.968 -0.9968  3.0829 -1.3534
 3564SOL    HW222329   4.735   2.016  14.061 -0.1231  1.1931 -1.1748
 3565SOL     OW22330   2.758   4.430   5.034 -0.3510  0.4144 -0.0807
 3565SOL    HW122331   2.758   4.417   5.129 -0.2993  3.3199  0.3166
 3565SOL    HW222332   2.702   4.508   5.032 -0.7386  0.0941 -1.5732
 3566SOL     OW22333   1.708   1.162  15.209 -0.3104  0.5732 -0.7844
 3566SOL    HW122334   1.746   1.152  15.296  1.2900  1.7242 -1.3599
 3566SOL    HW222335   1.626   1.204  15.233  0.1487  1.7737 -1.2892
 3567SOL     OW22336   0.141   0.608  16.632  0.0348 -0.4475 -0.3141
 3567SOL    HW122337   0.146   0.583  16.724  1.3458 -0.6467 -0.4438
 3567SOL    HW222338   0.065   0.666  16.626 -1.8038 -2.8125 -0.0687
 3568SOL     OW22339   2.364   1.762   0.696  0.4240  0.9586 -0.0153
 3568SOL    HW122340   2.346   1.856   0.702  0.0995  0.8842  0.1806
 3568SOL    HW222341   2.283   1.734   0.653  0.2995  0.7442  0.3607
 3569SOL     OW22342   3.371   0.101   7.140  0.3400  0.6007 -0.1546
 3569SOL    HW122343   3.281   0.077   7.161  0.4247  1.6465  1.3357
 3569SOL    HW222344   3.402   0.013   7.118 -0.6634  0.7828 -2.2975
 3570SOL     OW22345   0.813   2.212  16.853 -0.4341 -0.0759 -0.3898
 3570SOL    HW122346   0.844   2.251  16.770  0.3590  2.4063  1.0620
 3570SOL    HW222347   0.824   2.119  16.836  2.4156  0.4329 -1.4781
 3571SOL     OW22348   1.328   2.560   8.914 -0.0111  0.1904  0.4976
 3571SOL    HW122349   1.364   2.648   8.926  0.1005  0.1835  0.2099
 3571SOL    HW222350   1.401   2.524   8.863 -1.1461  1.0318 -1.6963
 3572SOL     OW22351   0.576   3.708   2.097  0.4400 -0.0351 -0.0937
 3572SOL    HW122352   0.515   3.711   2.023 -1.2634 -1.4445  1.2410
 3572SOL    HW222353   0.656   3.733   2.050  1.8061 -1.4062  1.5115
 3573SOL     OW22354   2.987   2.586   2.566  0.7292  0.5454 -0.1355
 3573SOL    HW122355   2.948   2.615   2.648  2.3904 -1.0676  1.2051
 3573SOL    HW222356   3.004   2.493   2.574  1.3660  0.7643  1.0413
 3574SOL     OW22357   2.477   1.572  14.241  0.8912  0.0176 -0.0503
 3574SOL    HW122358   2.446   1.595  14.329 -0.0783 -0.6195 -0.2275
 3574SOL    HW222359   2.524   1.492  14.264 -1.5969 -1.3194  0.3392
 3575SOL     OW22360   2.315   1.313   7.513 -0.4316  0.1584 -0.5363
 3575SOL    HW122361   2.269   1.237   7.549  1.3091 -1.7710 -2.4475
 3575SOL    HW222362   2.296   1.364   7.592  0.6262 -0.5992  0.2035
 3576SOL     OW22363   2.860   3.243   7.307 -0.2162  0.0689  0.2503
 3576SOL    HW122364   2.901   3.293   7.378 -1.6411  0.5019  0.7824
 3576SOL    HW222365   2.870   3.303   7.233 -2.0027  0.8820  0.6554
 3577SOL     OW22366   0.122   2.014   6.108  0.3583  0.1419 -0.0532
 3577SOL    HW122367   0.100   2.096   6.152 -1.2409  0.5543 -1.5811
 3577SOL    HW222368   0.074   1.948   6.159  0.8781 -0.6151 -0.5499
 3578SOL     OW22369   4.414   1.843   2.998  0.0364 -0.2776 -0.0001
 3578SOL    HW122370   4.431   1.769   3.055  1.6067  0.2208  0.1761
 3578SOL    HW222371   4.344   1.806   2.944 -2.7398  0.9739  2.7228
 3579SOL     OW22372   4.737   0.286   7.907 -0.2862  0.0181 -0.5015
 3579SOL    HW122373   4.668   0.221   7.897  0.4305 -0.6459 -1.1665
 3579SOL    HW222374   0.069   0.226   7.932  0.4749  1.7647  1.5379
 3580SOL     OW22375   4.027   0.467  13.809  0.3312 -0.3454  0.2349
 3580SOL    HW122376   4.032   0.550  13.856  0.2373  0.2582 -0.8200
 3580SOL    HW222377   4.060   0.403  13.872 -1.5927 -2.2519 -0.6709
 3581SOL     OW22378   1.708   1.612   6.715  0.0942  0.4467 -0.2506
 3581SOL    HW122379   1.690   1.692   6.765 -1.7936  0.1244 -0.4216
 3581SOL    HW222380   1.803   1.623   6.711  0.1449  0.7954  1.5771
 3582SOL     OW22381   1.161   3.638   4.831 -0.5382 -0.1987  0.1291
 3582SOL    HW122382   1.248   3.630   4.793  0.2346  0.4884  1.7382
 3582SOL    HW222383   1.100   3.625   4.758 -1.5769 -0.3762  1.0213
 3583SOL     OW22384   0.120   0.142   1.748 -0.4943  0.7197 -0.1490
 3583SOL    HW122385   0.176   0.079   1.793 -2.0186 -0.1122  0.5617
 3583SOL    HW222386   0.154   0.225   1.782 -0.3635 -0.6984  3.0980
 3584SOL     OW22387   3.214   4.079   8.394 -0.1287 -0.4717 -0.0798
 3584SOL    HW122388   3.298   4.060   8.351 -1.0793 -2.0389 -1.2317
 3584SOL    HW222389   3.240   4.094   8.485  0.6298 -0.2432 -0.3335
 3585SOL     OW22390   0.817   1.677   6.450 -0.3970  0.3402  0.4818
 3585SOL    HW122391   0.764   1.749   6.415 -3.7271 -1.3166  2.0798
 3585SOL    HW222392   0.899   1.722   6.471  0.9484 -1.1633 -1.5752
 3586SOL     OW22393   2.107   3.750   8.103  0.1688 -0.7397 -0.3837
 3586SOL    HW122394   2.058   3.675   8.070  0.7385 -0.9579 -0.7309
 3586SOL    HW222395   2.065   3.761   8.188 -0.1576  0.8912 -0.7492
 3587SOL     OW22396   0.941   1.014   7.256  0.2162  0.2295  0.0994
 3587SOL    HW122397   1.020   0.972   7.222 -0.7462 -1.4134 -0.1539
 3587SOL    HW222398   0.934   1.100   7.215 -1.4421 -0.1169 -0.3538
 3588SOL     OW22399   0.081   2.277   4.325  0.2144  0.6115  0.6942
 3588SOL    HW122400   0.170   2.265   4.290 -0.8876 -0.4185 -1.7540
 3588SOL    HW222401   0.097   2.273   4.419 -3.9745 -2.9806  1.1994
 3589SOL     OW22402   2.667   2.736   3.718  0.0251 -0.2418  0.2362
 3589SOL    HW122403   2.591   2.727   3.660 -1.1527 -0.8773  1.8642
 3589SOL    HW222404   2.621   2.764   3.797 -0.5178  0.9588 -0.5004
 3590SOL     OW22405   4.134   3.773   5.459  0.4652 -0.3180  0.9699
 3590SOL    HW122406   4.228   3.786   5.452  0.6237 -1.8633  0.2623
 3590SOL    HW222407   4.109   3.727   5.379  0.5193 -0.7548  1.2044
 3591SOL     OW22408   4.187   2.922   3.372  0.3451  0.2790 -0.2472
 3591SOL    HW122409   4.240   2.984   3.322  2.2931  0.3295  1.9054
 3591SOL    HW222410   4.252   2.854   3.388  1.1369  0.9330 -0.6972
 3592SOL     OW22411   1.207   3.618   2.984  0.1893 -0.2382  0.3952
 3592SOL    HW122412   1.216   3.649   3.074 -2.6723  1.3177  0.1344
 3592SOL    HW222413   1.240   3.701   2.949  1.0583 -2.3167 -3.6858
 3593SOL     OW22414   2.313   4.447  10.420 -0.1443 -0.2237  0.4851
 3593SOL    HW122415   2.387   4.456  10.481 -0.4966 -1.8640  1.1637
 3593SOL    HW222416   2.270   4.363  10.439  0.1140 -0.3140  0.6812
 3594SOL     OW22417   0.734   2.041   3.654 -0.2951  0.0666 -0.8416
 3594SOL    HW122418   0.715   2.135   3.660  0.8389  0.1976  0.7222
 3594SOL    HW222419   0.796   2.038   3.727 -2.3005 -0.1728  0.8543
 3595SOL     OW22420   0.341   4.259   8.139 -0.1473  0.2272  0.5424
 3595SOL    HW122421   0.415   4.207   8.108  1.3730  2.3318  0.6401
 3595SOL    HW222422   0.271   4.194   8.140 -0.2036  0.2659 -0.2745
 3596SOL     OW22423   0.138   3.227   9.184  0.0470  0.0696  0.2871
 3596SOL    HW122424   0.160   3.301   9.241  2.6610 -0.9352  0.5501
 3596SOL    HW222425   0.221   3.182   9.173  0.5803  0.8248  1.2080
 3597SOL     OW22426   3.370   0.163   6.864 -0.0490 -0.2954  0.2321
 3597SOL    HW122427   3.279   0.139   6.852 -0.3350 -0.0070  1.7718
 3597SOL    HW222428   3.381   0.163   6.959 -0.3660 -2.6720  0.2826
 3598SOL     OW22429   0.349   0.923  15.190 -0.6356 -0.4907  0.0459
 3598SOL    HW122430   0.433   0.962  15.165  0.4953 -3.5668 -0.8432
 3598SOL    HW222431   0.353   0.943  15.283 -1.4458 -1.6035  0.3138
 3599SOL     OW22432   2.921   4.047   0.277 -0.0303  0.1293 -0.1947
 3599SOL    HW122433   2.920   4.040   0.181  0.6801  0.1263 -0.2001
 3599SOL    HW222434   2.878   4.132   0.281  0.5675  0.4649 -0.9616
 3600SOL     OW22435   4.158   0.850   7.027 -0.1338 -0.2666  0.5937
 3600SOL    HW122436   4.179   0.865   6.934  0.7459 -1.4170  0.6038
 3600SOL    HW222437   4.087   0.788   7.008  1.6108 -1.9053 -0.6578
 3601SOL     OW22438   0.024   0.913   4.351 -0.3034  0.5512  0.5313
 3601SOL    HW122439   0.004   0.911   4.257  0.3720 -0.7270  0.4287
 3601SOL    HW222440   0.052   1.004   4.363 -0.0300  0.6394 -0.7017
 3602SOL     OW22441   0.918   3.906   3.115  0.1301  0.1749  0.0141
 3602SOL    HW122442   0.826   3.919   3.094 -0.1783  1.4122  2.1091
 3602SOL    HW222443   0.958   3.983   3.077 -0.0743 -1.2949 -3.1634
 3603SOL     OW22444   4.154   0.892   6.768  0.0195 -0.6496  0.1800
 3603SOL    HW122445   4.066   0.857   6.751 -0.7481  0.6535  1.4345
 3603SOL    HW222446   4.138   0.985   6.756  1.5585 -0.5363 -0.9968
 3604SOL     OW22447   0.765   1.529  14.469 -0.1121  0.1387 -0.6549
 3604SOL    HW122448   0.813   1.579  14.402 -0.2894  0.6646 -0.3932
 3604SOL    HW222449   0.675   1.556  14.451 -0.3947  0.1033  0.7807
 3605SOL     OW22450   4.465   1.863  15.393  0.1851  0.2003  0.2001
 3605SOL    HW122451   4.535   1.819  15.442  2.0670 -0.2842 -2.9375
 3605SOL    HW222452   4.427   1.787  15.348 -0.4867 -0.0668  1.1960
 3606SOL     OW22453   0.823   4.269   1.105 -0.1316  0.0910 -0.5254
 3606SOL    HW122454   0.762   4.201   1.134  0.9916 -0.8920 -0.4558
 3606SOL    HW222455   0.827   4.318   1.187 -0.4270 -1.1540  0.2221
 3607SOL     OW22456   2.267   3.028  15.262  0.0765 -0.2482 -0.7011
 3607SOL    HW122457   2.290   2.952  15.316 -1.0595 -0.7181 -0.8746
 3607SOL    HW222458   2.231   3.081  15.333  2.2008  0.3867 -0.0967
 3608SOL     OW22459   1.678   2.509   7.144 -0.1430 -0.1174  0.1649
 3608SOL    HW122460   1.714   2.449   7.078  2.4107  1.5250  0.0657
 3608SOL    HW222461   1.713   2.470   7.224  0.5060  0.4849  0.1701
 3609SOL     OW22462   4.024   0.708   1.483  0.1799 -0.1025 -0.4865
 3609SOL    HW122463   4.047   0.773   1.550  0.4529  0.7804 -1.4402
 3609SOL    HW222464   4.066   0.630   1.519  0.7903  0.9690  1.1307
 3610SOL     OW22465   0.847   4.461   3.712  0.2959  0.4022  0.8366
 3610SOL    HW122466   0.900   4.433   3.787  0.9510 -1.7232 -0.4074
 3610SOL    HW222467   0.897   4.535   3.678  0.3297 -0.3907 -0.8296
 3611SOL     OW22468   2.855   3.688   7.240  0.2229 -0.1346  0.3416
 3611SOL    HW122469   2.895   3.624   7.299 -0.5051 -0.5565  0.3752
 3611SOL    HW222470   2.932   3.729   7.200 -0.0409  0.0108 -0.0153
 3612SOL     OW22471   2.933   0.663   7.914 -0.1811 -0.3734 -0.0015
 3612SOL    HW122472   2.925   0.570   7.936 -2.0264 -0.2658 -0.2528
 3612SOL    HW222473   2.976   0.658   7.829  0.0461  0.8074  0.0492
 3613SOL     OW22474   0.089   0.484  16.387 -0.9410  0.0679  0.3515
 3613SOL    HW122475   0.101   0.516  16.477 -0.5961 -0.3541  0.4580
 3613SOL    HW222476   0.132   0.399  16.397  0.0164  0.4914 -0.1530
 3614SOL     OW22477   1.288   0.183   6.904  0.2482 -0.2442  0.3051
 3614SOL    HW122478   1.352   0.112   6.906  0.7857  0.2001 -1.5201
 3614SOL    HW222479   1.315   0.235   6.829  0.1285  0.0135  0.4414
 3615SOL     OW22480   3.434   0.788   4.517 -0.0202 -0.0900  0.2634
 3615SOL    HW122481   3.464   0.808   4.605  2.3735 -1.1338 -0.3045
 3615SOL    HW222482   3.504   0.827   4.465  0.5352 -1.1866  0.1857
 3616SOL     OW22483   1.224   0.710  10.946  0.5192 -0.5493 -0.5350
 3616SOL    HW122484   1.155   0.743  10.888  0.1175 -1.4427 -0.5594
 3616SOL    HW222485   1.268   0.792  10.969  0.3096 -0.5480 -0.1429
 3617SOL     OW22486   2.905   0.152   1.483 -0.1729 -0.8235 -0.2719
 3617SOL    HW122487   2.913   0.069   1.529 -1.7283 -0.4732  0.6529
 3617SOL    HW222488   2.967   0.206   1.532 -1.4557  0.1748  0.2645
 3618SOL     OW22489   2.549   3.602  14.359  0.3930  0.4800  0.3540
 3618SOL    HW122490   2.613   3.600  14.430  1.8571  1.2559 -0.9379
 3618SOL    HW222491   2.608   3.614  14.285  0.3974 -0.8318  0.1400
 3619SOL     OW22492   4.120   0.681  17.026 -0.0358  0.2179 -0.3857
 3619SOL    HW122493   4.127   0.635  16.943  1.1604 -0.5726  0.1522
 3619SOL    HW222494   4.034   0.721  17.022 -1.4093 -2.7478 -0.4399
 3620SOL     OW22495   2.298   3.880   3.285  0.5803  0.4673 -0.2558
 3620SOL    HW122496   2.389   3.875   3.256  1.1796 -1.2497  1.8651
 3620SOL    HW222497   2.266   3.967   3.263  0.5194  0.4338 -0.2985
 3621SOL     OW22498   2.831   2.586   1.227  0.0181 -0.0438 -0.2792
 3621SOL    HW122499   2.886   2.625   1.295  1.4666  0.1110 -1.5193
 3621SOL    HW222500   2.764   2.559   1.290  1.3920 -0.4202  1.0201
 3622SOL     OW22501   2.025   0.290   5.067  0.7235 -0.6145  0.6007
 3622SOL    HW122502   1.964   0.255   5.002  0.8478  0.6021 -0.1688
 3622SOL    HW222503   2.011   0.221   5.131  1.2449  1.1045  2.5690
 3623SOL     OW22504   0.015   2.191   0.422  0.0014 -0.0035 -0.4469
 3623SOL    HW122505   0.054   2.207   0.508  1.1262 -1.2704 -0.7175
 3623SOL    HW222506   0.082   2.227   0.363  0.3467  0.4148  0.2032
 3624SOL     OW22507   3.359   1.365  15.595  0.0640  0.1309 -0.0620
 3624SOL    HW122508   3.441   1.412  15.586 -0.1635  0.4806 -0.3019
 3624SOL    HW222509   3.361   1.315  15.514  0.8984  1.1448 -0.6586
 3625SOL     OW22510   0.213   4.015   9.228  0.1750  0.3363 -0.4257
 3625SOL    HW122511   0.226   3.921   9.244 -0.7479  0.4309  0.9537
 3625SOL    HW222512   0.128   4.026   9.270  0.6670  2.5315 -0.0011
 3626SOL     OW22513   0.953   0.367   8.332 -0.3101  0.2984 -0.4131
 3626SOL    HW122514   0.999   0.332   8.256 -1.4783 -0.0786 -0.9425
 3626SOL    HW222515   0.974   0.460   8.324 -2.9070  0.7775 -1.8928
 3627SOL     OW22516   0.240   3.662   1.982 -0.4094  0.0856  0.4119
 3627SOL    HW122517   0.264   3.573   2.008 -2.0583 -0.6265 -0.5400
 3627SOL    HW222518   0.225   3.652   1.888  5.0612 -1.8636 -0.2767
 3628SOL     OW22519   3.257   4.475   7.323 -0.0482  0.1114  0.2547
 3628SOL    HW122520   3.180   4.503   7.274 -0.0588  1.9325  1.3091
 3628SOL    HW222521   3.276   4.543   7.389 -1.2843  1.0926 -0.4116
 3629SOL     OW22522   2.356   3.350   7.013 -0.1955 -0.2707 -0.2573
 3629SOL    HW122523   2.279   3.396   7.045  0.4130  0.0765  0.7113
 3629SOL    HW222524   2.369   3.266   7.056 -0.7149 -0.2752 -0.1174
 3630SOL     OW22525   2.029   4.450   8.262  0.5683  0.3384 -0.7277
 3630SOL    HW122526   2.062   4.525   8.311 -1.4636  1.5201 -1.1718
 3630SOL    HW222527   2.112   4.418   8.227 -1.0034 -0.8745 -3.3120
 3631SOL     OW22528   2.211   2.829   9.191  0.2792  0.5756  0.0346
 3631SOL    HW122529   2.136   2.862   9.140 -0.9659 -2.4339 -0.0460
 3631SOL    HW222530   2.188   2.737   9.186 -1.3912  0.9791 -0.0079
 3632SOL     OW22531   3.630   3.039   0.300 -0.4905  0.0469  0.2137
 3632SOL    HW122532   3.572   3.092   0.355 -0.5669  0.4893 -0.2957
 3632SOL    HW222533   3.641   3.097   0.224 -2.1626 -0.9348 -0.8035
 3633SOL     OW22534   0.622   3.244   7.871 -0.4919 -0.6580  0.4312
 3633SOL    HW122535   0.707   3.278   7.841 -2.0271  2.9079  0.0923
 3633SOL    HW222536   0.634   3.150   7.859  0.1515 -0.4034 -0.8943
 3634SOL     OW22537   2.115   4.410   8.575 -0.1692 -0.5804  0.0103
 3634SOL    HW122538   2.130   4.483   8.635  2.6307 -0.9381 -0.2928
 3634SOL    HW222539   2.020   4.419   8.567 -0.2320 -0.2564  1.0799
 3635SOL     OW22540   4.084   4.519   1.654  0.0297 -0.2332 -0.2992
 3635SOL    HW122541   4.061   4.558   1.738 -0.4557  1.5879 -1.2842
 3635SOL    HW222542   4.057   4.427   1.661 -0.7914  0.0248 -0.0944
 3636SOL     OW22543   3.085   0.714   2.470  0.6472 -0.1680  0.2161
 3636SOL    HW122544   3.053   0.704   2.380 -2.3563  2.1726  1.0086
 3636SOL    HW222545   3.163   0.659   2.463 -0.3693 -1.5575 -0.2998
 3637SOL     OW22546   0.061   3.367   5.914  0.4007 -0.1658  0.1194
 3637SOL    HW122547   0.098   3.446   5.876  0.6564 -0.4298 -0.1851
 3637SOL    HW222548   4.730   3.349   5.852 -0.4046 -0.1706  1.0533
 3638SOL     OW22549   0.223   4.539   2.355 -0.3795 -0.1724  0.0275
 3638SOL    HW122550   0.257   4.592   2.427 -0.7124  0.7691 -0.5042
 3638SOL    HW222551   0.300   4.508   2.306 -1.1701 -2.5308  0.2965
 3639SOL     OW22552   2.485   2.860   6.126  0.0488  0.1425  0.1722
 3639SOL    HW122553   2.533   2.927   6.078  2.2641 -1.3087  0.3761
 3639SOL    HW222554   2.468   2.794   6.059 -1.9081 -0.8397  1.6424
 3640SOL     OW22555   2.230   3.868   6.777 -0.6561 -0.2231 -0.1373
 3640SOL    HW122556   2.213   3.945   6.831  3.2094  1.2226 -0.9814
 3640SOL    HW222557   2.297   3.886   6.710 -0.4977  3.1496  0.9480
 3641SOL     OW22558   3.995   3.659  10.106  0.0093  0.1154  0.1244
 3641SOL    HW122559   3.906   3.646  10.074 -0.0981  3.2245 -0.8390
 3641SOL    HW222560   4.046   3.662  10.025  0.3593 -0.2800  0.3283
 3642SOL     OW22561   4.026   0.492  11.755 -0.0632 -0.7253 -0.6051
 3642SOL    HW122562   3.976   0.420  11.793 -0.3345  0.4908  1.3112
 3642SOL    HW222563   3.962   0.539  11.702 -0.7552 -0.7667  0.2072
 3643SOL     OW22564   3.173   1.972   7.446 -0.3037 -0.2063  0.6198
 3643SOL    HW122565   3.151   1.930   7.529  1.0050 -0.3782  0.8790
 3643SOL    HW222566   3.081   1.988   7.426 -0.2441  0.4091  0.8575
 3644SOL     OW22567   4.175   2.809   2.645  0.8027 -0.3382  0.2118
 3644SOL    HW122568   4.259   2.794   2.600  0.2248 -1.2613 -0.5507
 3644SOL    HW222569   4.180   2.744   2.714 -0.2039 -1.1012 -0.4491
 3645SOL     OW22570   4.119   2.168  17.478  0.6821 -0.0211 -0.1669
 3645SOL    HW122571   4.187   2.194  17.416  1.3577  0.4570  0.7809
 3645SOL    HW222572   4.074   2.099  17.429 -1.3089  1.6768 -0.7316
 3646SOL     OW22573   4.305   3.956   1.786  0.0968  0.1410 -0.2594
 3646SOL    HW122574   4.268   3.979   1.701  0.5639  1.8161 -0.0022
 3646SOL    HW222575   4.387   3.923   1.748  1.0087 -2.8774  4.2578
 3647SOL     OW22576   0.637   4.617   4.893  0.6998  0.0645 -0.7357
 3647SOL    HW122577   0.661   4.551   4.828 -0.9709 -0.7655 -0.5128
 3647SOL    HW222578   0.650   4.702   4.851  2.5699 -0.6996 -1.7226
 3648SOL     OW22579   3.305   3.431  11.431 -0.0311  0.1877 -0.3025
 3648SOL    HW122580   3.233   3.475  11.476  0.4734 -0.0123  0.6818
 3648SOL    HW222581   3.283   3.455  11.341  1.3463 -2.6007 -1.3789
 3649SOL     OW22582   3.090   1.279   7.624 -0.2559  0.1414  0.4069
 3649SOL    HW122583   3.022   1.343   7.604  0.4644  0.4321 -1.1335
 3649SOL    HW222584   3.059   1.206   7.570  0.6486  0.8553 -1.0966
 3650SOL     OW22585   0.412   3.924  10.314  0.1123  0.2456 -0.8504
 3650SOL    HW122586   0.328   3.941  10.355  0.4819  0.6723 -0.2734
 3650SOL    HW222587   0.414   3.831  10.291  1.4585 -0.5182  2.4132
 3651SOL     OW22588   1.343   4.113   7.355  0.3953  0.3988  0.3440
 3651SOL    HW122589   1.417   4.167   7.382  0.3862  1.1089 -1.0690
 3651SOL    HW222590   1.365   4.057   7.282 -1.9137 -0.3321  0.1992
 3652SOL     OW22591   1.736   0.080   0.415  0.5225 -0.0058 -0.0917
 3652SOL    HW122592   1.644   0.106   0.414 -0.0412 -1.9866 -0.5723
 3652SOL    HW222593   1.732   4.735   0.371 -1.1666 -0.4656  0.9533
 3653SOL     OW22594   0.747   0.714  14.036 -0.2573 -0.3413  0.4142
 3653SOL    HW122595   0.750   0.619  14.028  2.2765 -0.2131 -0.0232
 3653SOL    HW222596   0.823   0.732  14.091  1.2609 -0.7205 -1.5444
 3654SOL     OW22597   2.006   2.826   8.628 -0.2688  0.3656  0.3598
 3654SOL    HW122598   2.065   2.825   8.703 -1.4776  2.3153  1.3597
 3654SOL    HW222599   2.045   2.905   8.591 -1.8523  0.6117 -0.8018
 3655SOL     OW22600   0.632   2.903   8.248  0.7279  0.0581 -0.0428
 3655SOL    HW122601   0.653   2.948   8.166  1.8576  2.5423  1.5833
 3655SOL    HW222602   0.637   2.976   8.309 -2.9271  0.3072 -0.0170
 3656SOL     OW22603   3.626   2.398   8.405  0.0872 -0.3862 -0.4201
 3656SOL    HW122604   3.638   2.424   8.496  0.6614 -0.7298 -0.3952
 3656SOL    HW222605   3.645   2.479   8.357  1.4874 -0.7227 -0.4556
 3657SOL     OW22606   4.106   1.789  17.108 -0.0351  0.1377 -0.1142
 3657SOL    HW122607   4.186   1.756  17.149  1.9398  4.5978 -0.4257
 3657SOL    HW222608   4.134   1.815  17.020 -1.7760  1.1926 -0.3628
 3658SOL     OW22609   2.372   3.240   9.204  0.2659 -0.0010 -0.0154
 3658SOL    HW122610   2.320   3.207   9.277 -0.4307 -1.4811 -1.1804
 3658SOL    HW222611   2.296   3.275   9.157 -0.6363 -1.8589  0.0859
 3659SOL     OW22612   3.160   0.161   4.453 -0.3875 -0.3482 -0.0922
 3659SOL    HW122613   3.133   0.141   4.363 -0.8647 -0.3135  0.0482
 3659SOL    HW222614   3.091   0.118   4.502  0.7579 -1.7414  0.2997
 3660SOL     OW22615   0.477   3.308   2.615  0.2462 -0.7710 -0.3802
 3660SOL    HW122616   0.413   3.238   2.627  1.4807 -1.6252  1.1662
 3660SOL    HW222617   0.553   3.263   2.652 -0.9076  0.8109  3.8968
 3661SOL     OW22618   1.365   0.819  15.100 -0.0846 -0.1577 -0.0407
 3661SOL    HW122619   1.325   0.905  15.088 -1.3212 -0.9182 -1.5606
 3661SOL    HW222620   1.293   0.757  15.091 -1.8562  1.5316  2.5256
 3662SOL     OW22621   3.212   2.549  15.979  0.2515  0.2268  0.2881
 3662SOL    HW122622   3.173   2.637  15.988  0.7557  0.4438  0.3595
 3662SOL    HW222623   3.149   2.514  16.042  2.7758 -2.2058  1.4147
 3663SOL     OW22624   2.136   4.672  15.118  0.0756 -0.3617  0.6225
 3663SOL    HW122625   2.220   4.716  15.133  0.3516 -0.4507 -0.5824
 3663SOL    HW222626   2.074   4.714  15.176 -0.2271 -1.3472  1.0078
 3664SOL     OW22627   3.645   2.698   9.350  0.3257 -0.3415  0.5318
 3664SOL    HW122628   3.654   2.644   9.271 -1.2751 -0.7405  0.6239
 3664SOL    HW222629   3.617   2.781   9.312 -0.1460 -0.2685  1.0454
 3665SOL     OW22630   3.704   1.672   8.641  0.0986  0.4542 -0.1534
 3665SOL    HW122631   3.740   1.646   8.726 -1.2052  1.1749  0.6204
 3665SOL    HW222632   3.676   1.585   8.611 -1.7218  0.3803  1.7741
 3666SOL     OW22633   4.259   0.573   2.544  0.3555 -0.2460 -0.2947
 3666SOL    HW122634   4.313   0.641   2.586 -0.9001  0.1161  0.7431
 3666SOL    HW222635   4.216   0.621   2.473  0.4568  0.8374  0.3674
 3667SOL     OW22636   3.112   4.293   3.742 -0.1261  0.2004  0.1850
 3667SOL    HW122637   3.181   4.263   3.803  0.5559 -0.3189 -0.8454
 3667SOL    HW222638   3.091   4.213   3.693  1.6679  0.0210 -0.2987
 3668SOL     OW22639   4.677   0.414   7.666 -0.0890 -0.1442 -0.4538
 3668SOL    HW122640   0.031   0.418   7.645 -0.0819  1.4721 -0.1019
 3668SOL    HW222641   4.674   0.405   7.761 -0.4292  1.1599 -0.3400
 3669SOL     OW22642   2.680   4.494   3.351 -0.1051 -0.9009  0.2040
 3669SOL    HW122643   2.665   4.585   3.376 -0.8757  0.4303 -4.9581
 3669SOL    HW222644   2.696   4.504   3.257 -0.8010 -1.3808  0.0388
 3670SOL     OW22645   4.132   4.176   2.922 -0.7120  0.1191  0.2456
 3670SOL    HW122646   4.047   4.198   2.885 -0.9295 -2.0883 -0.5549
 3670SOL    HW222647   4.166   4.261   2.951  0.0860 -0.1158  0.0167
 3671SOL     OW22648   1.265   0.029  15.508 -0.2905  0.1143  0.5911
 3671SOL    HW122649   1.184   0.037  15.557  0.1966  2.4336  0.9927
 3671SOL    HW222650   1.247   4.702  15.441  1.2074 -0.6721  0.9507
 3672SOL     OW22651   4.411   3.818   7.777 -0.0438  0.1768 -0.0742
 3672SOL    HW122652   4.450   3.742   7.734 -3.4653 -1.2534 -0.6475
 3672SOL    HW222653   4.358   3.868   7.715  0.3621  1.3882  0.5395
 3673SOL     OW22654   3.024   4.119   3.464 -0.0271  0.2586  0.2171
 3673SOL    HW122655   3.019   4.214   3.460  0.4673  0.1583 -2.9062
 3673SOL    HW222656   3.117   4.100   3.452  0.3183  2.8931 -1.2171
 3674SOL     OW22657   2.797   3.479   7.827  0.3624 -0.4815  0.3412
 3674SOL    HW122658   2.745   3.398   7.828 -1.0353  0.4256  0.5379
 3674SOL    HW222659   2.810   3.502   7.919 -0.6242 -0.5797  0.5083
 3675SOL     OW22660   1.722   2.706   0.816  0.2426  0.0676 -0.1170
 3675SOL    HW122661   1.694   2.717   0.726 -0.6135  0.8138  0.2316
 3675SOL    HW222662   1.773   2.628   0.796 -0.3218 -0.3934  0.2490
 3676SOL     OW22663   4.368   3.976  12.023  0.1201 -0.7565 -0.0490
 3676SOL    HW122664   4.310   3.975  11.947  0.2945 -0.7969 -0.1836
 3676SOL    HW222665   4.375   3.881  12.038 -0.9098 -0.7226  0.6570
 3677SOL     OW22666   0.314   0.033  11.253 -0.4678  0.1026  0.1040
 3677SOL    HW122667   0.358   4.704  11.303 -0.8669  0.9336  1.6028
 3677SOL    HW222668   0.388   0.090  11.234 -2.4326  2.0418 -1.7082
 3678SOL     OW22669   2.776   1.879   9.148 -0.0627  0.2038  0.1248
 3678SOL    HW122670   2.769   1.899   9.241  1.9466 -0.5839  0.4503
 3678SOL    HW222671   2.725   1.799   9.139 -0.7366  0.5461  0.8853
 3679SOL     OW22672   1.733   2.211   1.835 -0.5246 -0.5238  0.2885
 3679SOL    HW122673   1.728   2.120   1.803 -2.5993 -0.4686  0.4248
 3679SOL    HW222674   1.746   2.198   1.929 -3.0812  0.9714  0.8516
 3680SOL     OW22675   2.419   0.983   7.788  0.0288 -0.3447 -0.0564
 3680SOL    HW122676   2.490   0.973   7.851 -0.1044  3.4157  0.6621
 3680SOL    HW222677   2.342   0.958   7.838 -0.8400  0.3999 -1.0266
 3681SOL     OW22678   4.238   0.521   0.913 -0.6160  0.0557  0.3825
 3681SOL    HW122679   4.284   0.603   0.894  0.0573 -0.6778 -1.1347
 3681SOL    HW222680   4.199   0.532   1.000  1.0533  3.7306  0.6508
 3682SOL     OW22681   3.223   2.978   9.230 -0.2712 -0.0919  0.5432
 3682SOL    HW122682   3.188   2.906   9.283 -0.3932 -1.2437 -1.0846
 3682SOL    HW222683   3.218   3.051   9.292 -0.6651  0.8801 -0.6403
 3683SOL     OW22684   3.719   2.190  12.164 -0.0091 -0.1899 -0.4317
 3683SOL    HW122685   3.703   2.215  12.255  3.0418 -1.1243  0.3670
 3683SOL    HW222686   3.647   2.226  12.112 -0.8547 -1.4444 -0.1285
 3684SOL     OW22687   0.490   3.894   6.736 -0.4196  0.2897  0.3214
 3684SOL    HW122688   0.460   3.980   6.764  0.6867  0.1064  2.0948
 3684SOL    HW222689   0.492   3.854   6.824  3.6877  0.0290  0.1071
 3685SOL     OW22690   3.219   4.218  17.709 -0.5963 -0.3376  0.3529
 3685SOL    HW122691   3.254   4.273   0.023 -0.8963  0.1882  0.0933
 3685SOL    HW222692   3.221   4.132  17.751  1.5818 -0.4140  0.0768
 3686SOL     OW22693   4.684   3.712   3.990  0.3516  0.3195 -0.7420
 3686SOL    HW122694   4.610   3.654   3.978  0.5634  0.0651 -0.8170
 3686SOL    HW222695   4.643   3.781   4.042  0.1826 -0.4532  0.1386
 3687SOL     OW22696   1.683   3.581  12.859 -0.0931 -0.3317 -0.4041
 3687SOL    HW122697   1.728   3.666  12.860 -1.2933  0.2849  0.8108
 3687SOL    HW222698   1.751   3.514  12.852 -1.3013 -1.4167 -1.8590
 3688SOL     OW22699   0.159   3.967   1.413  0.4343  0.4408 -0.4189
 3688SOL    HW122700   0.158   3.979   1.318 -1.5630 -0.1025 -0.4710
 3688SOL    HW222701   0.221   4.033   1.443 -0.9569  0.5742  2.2755
 3689SOL     OW22702   1.253   1.721   0.142  0.3879 -0.1569 -0.6307
 3689SOL    HW122703   1.243   1.674   0.225  1.1097  0.4440 -0.1979
 3689SOL    HW222704   1.165   1.733   0.107 -0.1890  0.6985  1.1200
 3690SOL     OW22705   0.489   0.245   5.052 -0.2777  0.0991  0.3602
 3690SOL    HW122706   0.497   0.150   5.052  0.0444  0.1263  0.8540
 3690SOL    HW222707   0.570   0.274   5.094 -0.4649  1.1808 -0.0092
 3691SOL     OW22708   3.030   4.298  11.496 -0.3954  0.2212  0.2215
 3691SOL    HW122709   2.999   4.243  11.424  0.1696  0.8472 -0.5038
 3691SOL    HW222710   2.974   4.270  11.568  1.4860  0.0026  1.5748
 3692SOL     OW22711   4.536   4.287   3.288 -0.3797 -1.0721  0.2384
 3692SOL    HW122712   4.575   4.227   3.224 -1.1146 -1.0877 -0.1886
 3692SOL    HW222713   4.482   4.225   3.338 -0.0173 -0.4044  1.4672
 3693SOL     OW22714   0.585   1.577   1.695 -0.4941  0.4656  0.3311
 3693SOL    HW122715   0.526   1.649   1.674 -1.1865 -0.8556 -2.3151
 3693SOL    HW222716   0.653   1.626   1.741 -0.7836  0.0336  1.2207
 3694SOL     OW22717   0.440   1.932  15.238  0.3396 -0.3043 -0.2292
 3694SOL    HW122718   0.500   1.917  15.165  1.2770  1.4450  0.1837
 3694SOL    HW222719   0.476   1.992  15.303 -1.0142 -0.3281  0.5391
 3695SOL     OW22720   0.210   1.830   3.868 -0.2738 -0.1512 -0.6964
 3695SOL    HW122721   0.275   1.900   3.858  0.1374 -0.5868 -1.0489
 3695SOL    HW222722   0.211   1.793   3.780  0.3117 -1.5044 -0.1119
 3696SOL     OW22723   3.438   4.412   9.077  0.4708 -0.2379  0.3065
 3696SOL    HW122724   3.388   4.353   9.021  0.2709 -0.5920  0.8608
 3696SOL    HW222725   3.500   4.356   9.124  1.2902  0.9499  0.6343
 3697SOL     OW22726   3.081   2.708   9.001  0.5296  0.2345  0.0746
 3697SOL    HW122727   3.137   2.654   8.945  1.1677  0.8511  0.1055
 3697SOL    HW222728   3.006   2.722   8.943 -0.9466 -1.1765  1.6732
 3698SOL     OW22729   3.017   3.372   9.264 -0.0074 -0.2365 -0.2867
 3698SOL    HW122730   2.962   3.445   9.237  0.6950  0.4248  0.0446
 3698SOL    HW222731   3.096   3.393   9.214 -0.6732  3.9143  0.4022
 3699SOL     OW22732   0.567   2.993   8.621  0.6276 -0.2460 -0.2965
 3699SOL    HW122733   0.499   2.946   8.572  1.1839  1.5823 -2.8099
 3699SOL    HW222734   0.524   3.020   8.702  0.8986  1.0852 -0.5977
 3700SOL     OW22735   0.048   0.342   4.135 -0.4237  0.6778 -0.8753
 3700SOL    HW122736   0.095   0.277   4.188 -0.7748  0.7171 -0.5140
 3700SOL    HW222737   0.055   0.293   4.053 -0.2081 -0.2973 -0.2716
 3701SOL     OW22738   2.056   4.512   0.522 -0.9602  0.9570 -0.5912
 3701SOL    HW122739   1.963   4.489   0.516 -0.2327 -2.3538  0.5539
 3701SOL    HW222740   2.058   4.582   0.586  0.7900  1.1187 -0.8223
 3702SOL     OW22741   3.053   0.792   1.584 -0.0952 -0.7263 -0.1142
 3702SOL    HW122742   3.044   0.792   1.680  0.8879 -0.3127 -0.0215
 3702SOL    HW222743   3.099   0.875   1.568 -0.1970 -0.4187  1.1392
 3703SOL     OW22744   4.033   1.937   4.689 -0.2644 -0.1004  0.0415
 3703SOL    HW122745   3.992   1.851   4.678 -1.8908  0.8430 -1.4001
 3703SOL    HW222746   4.126   1.919   4.700  0.0588  1.0262 -0.8516
 3704SOL     OW22747   3.366   4.342   4.136  0.1049 -0.5441 -0.0864
 3704SOL    HW122748   3.378   4.254   4.171 -2.8130  0.1450  2.7288
 3704SOL    HW222749   3.439   4.384   4.182  0.6949  0.2169 -1.7097
 3705SOL     OW22750   0.664   4.153   3.905 -0.2194  0.1767 -0.2418
 3705SOL    HW122751   0.742   4.163   3.959 -1.9264 -0.5912  2.4020
 3705SOL    HW222752   0.606   4.214   3.952  0.5711  1.0883 -0.4592
 3706SOL     OW22753   2.892   0.842   8.520  0.7377 -0.2601  0.3487
 3706SOL    HW122754   2.953   0.903   8.562  0.7594 -0.2329  0.2767
 3706SOL    HW222755   2.897   0.867   8.428  2.8108 -0.4328  0.4136
 3707SOL     OW22756   0.978   1.935   4.290  0.3757  0.0722  0.2625
 3707SOL    HW122757   0.886   1.923   4.313  0.5320  1.4065  1.5810
 3707SOL    HW222758   1.026   1.879   4.350  3.4438 -0.4599 -2.6832
 3708SOL     OW22759   1.860   1.400   2.664 -0.1322 -0.2563 -0.2810
 3708SOL    HW122760   1.953   1.398   2.644  0.5117 -1.1060  2.7942
 3708SOL    HW222761   1.838   1.488   2.633 -0.4689  0.7043  2.6628
 3709SOL     OW22762   3.313   0.681   9.223  0.1998  0.8002  0.4083
 3709SOL    HW122763   3.276   0.605   9.267  1.5757 -1.0815 -1.7291
 3709SOL    HW222764   3.403   0.656   9.204  0.2620  1.6344 -0.4551
 3710SOL     OW22765   0.955   1.195   4.919  0.7138  0.0039  0.4040
 3710SOL    HW122766   1.022   1.135   4.953  0.4148 -0.8179 -0.4463
 3710SOL    HW222767   0.883   1.185   4.981  1.5037  0.1060  1.3282
 3711SOL     OW22768   0.398   1.807   8.786 -0.2679  0.2388 -0.0335
 3711SOL    HW122769   0.451   1.739   8.743 -3.1122 -1.3888 -0.9530
 3711SOL    HW222770   0.368   1.841   8.702  0.8193  0.6478 -0.2641
 3712SOL     OW22771   4.277   0.002   6.187 -0.6246 -0.1329  0.0463
 3712SOL    HW122772   4.243   0.089   6.167 -0.2816 -0.0409 -0.1535
 3712SOL    HW222773   4.212   4.688   6.142 -2.3362  0.9029  1.3277
 3713SOL     OW22774   3.906   3.439  16.356  0.2116 -0.1655  0.2611
 3713SOL    HW122775   3.898   3.393  16.273  0.8686  2.0604 -1.0178
 3713SOL    HW222776   3.903   3.368  16.421  0.3598 -1.6698 -1.3825
 3714SOL     OW22777   1.635   0.295   2.232 -0.3178 -0.1106 -0.7562
 3714SOL    HW122778   1.654   0.320   2.141  4.0369  3.4381  1.1110
 3714SOL    HW222779   1.545   0.267   2.215 -0.9635  1.8033 -0.5346
 3715SOL     OW22780   2.615   3.709   3.329 -0.0054 -0.4889 -0.2321
 3715SOL    HW122781   2.621   3.651   3.405  1.1835 -0.0156  0.0340
 3715SOL    HW222782   2.709   3.717   3.312 -0.3169  2.4399 -0.4466
 3716SOL     OW22783   3.901   0.393   6.440  0.4432 -0.0964 -0.4455
 3716SOL    HW122784   3.972   0.331   6.422 -0.1176 -1.0292  0.5847
 3716SOL    HW222785   3.941   0.477   6.460 -2.4312  1.0661  0.3252
 3717SOL     OW22786   0.954   2.186   5.193 -0.1647 -0.0495 -0.3521
 3717SOL    HW122787   1.004   2.165   5.272  1.0136  3.7406 -0.0523
 3717SOL    HW222788   0.868   2.148   5.207 -0.1054  0.0927  0.3877
 3718SOL     OW22789   3.431   2.159   3.949 -0.7371  0.9565 -0.3486
 3718SOL    HW122790   3.345   2.156   3.991 -0.7411  0.6540 -0.3830
 3718SOL    HW222791   3.453   2.253   3.949  1.2038  0.5049  0.7816
 3719SOL     OW22792   3.757   1.175   7.706  0.4067  0.2476  0.2221
 3719SOL    HW122793   3.685   1.228   7.671  0.1491 -1.6404 -2.0660
 3719SOL    HW222794   3.718   1.158   7.792 -0.8418  2.0167  0.0009
 3720SOL     OW22795   2.076   1.071   2.442  0.1037 -0.8461  0.6159
 3720SOL    HW122796   2.051   1.086   2.533  2.7262  3.6569  0.6015
 3720SOL    HW222797   2.170   1.087   2.444 -0.2498  1.4987 -0.4334
 3721SOL     OW22798   0.505   1.630  14.385  0.0756 -0.2970  0.0967
 3721SOL    HW122799   0.494   1.705  14.444 -1.0271  1.0831 -1.8763
 3721SOL    HW222800   0.499   1.661  14.294  0.3269  3.0645  1.2242
 3722SOL     OW22801   0.269   2.554   6.966  0.2100 -0.6097 -0.4529
 3722SOL    HW122802   0.235   2.605   7.040  0.1557  0.9773 -1.5866
 3722SOL    HW222803   0.273   2.464   6.999  1.5383  0.2501  1.7077
 3723SOL     OW22804   3.736   3.640   1.739 -0.3908 -0.1326  0.0771
 3723SOL    HW122805   3.677   3.568   1.719 -3.4890  1.7275  2.4488
 3723SOL    HW222806   3.823   3.601   1.735  0.2066  1.3772 -1.7350
 3724SOL     OW22807   3.703   2.545   2.339  0.1440 -0.0243 -0.9842
 3724SOL    HW122808   3.608   2.539   2.328 -0.0597 -1.6595  1.8400
 3724SOL    HW222809   3.721   2.607   2.410  0.6127 -0.6934 -0.5230
 3725SOL     OW22810   4.146   3.220  16.108 -0.4886 -0.3270  0.1297
 3725SOL    HW122811   4.184   3.234  16.022 -0.2519  0.8159  0.4144
 3725SOL    HW222812   4.168   3.129  16.126 -5.2026 -1.4368  0.4749
 3726SOL     OW22813   0.232   1.326   5.493  0.4926 -0.0576  0.2996
 3726SOL    HW122814   0.306   1.286   5.538 -0.5631 -1.6309  0.6478
 3726SOL    HW222815   0.196   1.251   5.445  1.9331 -0.7750  0.3507
 3727SOL     OW22816   2.563   1.440   0.470  0.5512  0.4943 -0.1733
 3727SOL    HW122817   2.652   1.426   0.502  1.1633  0.7010 -1.7537
 3727SOL    HW222818   2.524   1.373   0.526  2.6194 -0.4405  0.1678
 3728SOL     OW22819   0.138   0.891  11.561  0.9731  0.1425 -0.3349
 3728SOL    HW122820   0.198   0.821  11.534  1.0196  0.0308  0.0596
 3728SOL    HW222821   0.134   0.942  11.480  3.7765  0.8192 -0.0455
 3729SOL     OW22822   4.201   1.465  13.961  0.4666  0.1269 -0.0247
 3729SOL    HW122823   4.278   1.420  13.927  0.9189 -0.7065  2.1525
 3729SOL    HW222824   4.161   1.495  13.879 -2.4904  0.3542  1.4648
 3730SOL     OW22825   2.541   0.951   5.638  0.2959 -0.1325 -0.8410
 3730SOL    HW122826   2.526   1.037   5.598  0.6053  0.6273  0.6515
 3730SOL    HW222827   2.466   0.944   5.696 -0.0428  2.8064 -0.8882
 3731SOL     OW22828   1.172   3.649   2.017 -0.3852  0.2426 -0.1885
 3731SOL    HW122829   1.169   3.554   2.004 -1.5659  0.6220 -2.6223
 3731SOL    HW222830   1.159   3.682   1.928  2.4362 -1.4462 -1.2103
 3732SOL     OW22831   1.452   0.281  15.677  0.1365 -0.2755 -0.2579
 3732SOL    HW122832   1.406   0.295  15.760  1.0038  0.0528  0.1629
 3732SOL    HW222833   1.386   0.247  15.617 -0.2889 -1.6454  0.9768
 3733SOL     OW22834   1.788   0.987   2.746  0.4322 -0.3964 -0.2267
 3733SOL    HW122835   1.824   0.906   2.781 -1.5228 -0.9673  0.4529
 3733SOL    HW222836   1.736   1.025   2.817 -0.2271 -3.6472  1.0040
 3734SOL     OW22837   1.305   1.635  16.479 -0.0004 -0.0622  0.1052
 3734SOL    HW122838   1.248   1.565  16.447  1.5884 -1.6736  0.8064
 3734SOL    HW222839   1.270   1.701  16.419  2.3191  2.8647  1.9696
 3735SOL     OW22840   4.237   0.629   4.868 -0.4528  0.2511  0.7787
 3735SOL    HW122841   4.198   0.695   4.810 -1.5513 -2.3130 -1.3927
 3735SOL    HW222842   4.174   0.558   4.855 -0.2688  0.3043 -0.3546
 3736SOL     OW22843   1.622   1.200   1.220  0.2073 -0.5885  0.0681
 3736SOL    HW122844   1.599   1.178   1.311  1.7612 -1.4740  0.2570
 3736SOL    HW222845   1.545   1.251   1.195  1.6579  2.6107  2.0291
 3737SOL     OW22846   1.344   1.992   0.840 -0.3750  0.1123 -0.0119
 3737SOL    HW122847   1.374   2.063   0.897  1.3442 -0.9727  0.4329
 3737SOL    HW222848   1.277   1.960   0.899 -0.5634 -0.5749 -0.6064
 3738SOL     OW22849   2.902   0.482  15.646 -0.3329  0.5199 -0.1461
 3738SOL    HW122850   2.989   0.447  15.629 -0.1073  0.0276  2.0232
 3738SOL    HW222851   2.857   0.428  15.581 -0.2038 -1.3252  1.3134
 3739SOL     OW22852   0.487   3.096   3.346  0.5892 -0.2328  0.7829
 3739SOL    HW122853   0.520   3.140   3.268 -0.1470  1.6738  1.5606
 3739SOL    HW222854   0.491   3.154   3.422  3.8005  2.1374 -1.2079
 3740SOL     OW22855   1.552   1.741   6.031  0.0709  0.6423 -0.6628
 3740SOL    HW122856   1.629   1.780   6.072  1.3252 -3.5087  1.0429
 3740SOL    HW222857   1.581   1.649   6.034  2.3082  1.3693 -0.2658
 3741SOL     OW22858   0.990   0.398   6.292  0.5522 -0.6219  0.0010
 3741SOL    HW122859   1.075   0.436   6.271 -0.0061  1.2081  1.0103
 3741SOL    HW222860   0.969   0.346   6.215  1.8008  1.3262 -1.6778
 3742SOL     OW22861   2.093   3.782   1.592  0.2706 -1.1796  0.2812
 3742SOL    HW122862   2.099   3.710   1.530 -1.6029 -1.1078  0.0194
 3742SOL    HW222863   2.023   3.836   1.557  0.0504 -1.3526  0.4533
 3743SOL     OW22864   1.306   1.764   2.760 -0.4348  0.3806  0.2879
 3743SOL    HW122865   1.339   1.765   2.849 -0.2784  0.4860  0.2290
 3743SOL    HW222866   1.219   1.796   2.781  0.2521  1.6546  1.1488
 3744SOL     OW22867   1.902   1.581  17.083  0.2047 -0.1323  0.3109
 3744SOL    HW122868   1.974   1.636  17.114 -1.1951  1.3777  0.8633
 3744SOL    HW222869   1.833   1.603  17.145  1.2369  0.4846  1.2519
 3745SOL     OW22870   4.731   3.787   2.659 -0.7505  0.0312 -0.3992
 3745SOL    HW122871   0.033   3.728   2.722  0.5037 -0.2325 -1.4487
 3745SOL    HW222872   0.029   3.753   2.577  0.2736 -0.9495  0.4794
 3746SOL     OW22873   1.662   4.477   9.158 -0.3276  0.4170  0.1042
 3746SOL    HW122874   1.705   4.395   9.137  2.0833  2.4795 -3.0488
 3746SOL    HW222875   1.586   4.456   9.212 -0.6754 -1.8787 -1.3076
 3747SOL     OW22876   2.501   2.369   8.985 -0.5384  0.0732 -0.0770
 3747SOL    HW122877   2.581   2.326   8.953 -1.1329  0.0126 -1.4451
 3747SOL    HW222878   2.444   2.337   8.916 -0.9665  0.6034  0.0373
 3748SOL     OW22879   1.847   1.846   9.502 -0.2341 -0.1082 -0.1274
 3748SOL    HW122880   1.787   1.783   9.462 -1.7334  1.3109 -0.1292
 3748SOL    HW222881   1.931   1.804   9.482  0.6024  0.8091  1.4623
 3749SOL     OW22882   1.067   0.062   4.507 -0.1932  0.2473  0.0265
 3749SOL    HW122883   1.099   4.712   4.497  0.1458  0.5021 -1.0898
 3749SOL    HW222884   1.000   0.036   4.571 -0.0569 -0.6021 -0.1809
 3750SOL     OW22885   4.008   4.170   0.550  0.1570  0.0384  0.4424
 3750SOL    HW122886   4.046   4.219   0.623  1.1014  1.5232 -1.0560
 3750SOL    HW222887   4.082   4.116   0.521 -0.7195 -0.3746 -1.0604
 3751SOL     OW22888   2.857   0.062  17.166 -0.0732  0.0115  0.2765
 3751SOL    HW122889   2.843   0.156  17.154  1.3900  0.1893  0.0190
 3751SOL    HW222890   2.927   0.060  17.231 -0.3579  0.2330  0.5899
 3752SOL     OW22891   1.768   0.288   9.149  0.5590  0.1749  0.0824
 3752SOL    HW122892   1.809   0.257   9.068 -0.6929 -0.5873 -0.2630
 3752SOL    HW222893   1.810   0.226   9.208 -0.2904 -0.8327 -0.3626
 3753SOL     OW22894   1.578   3.524   2.277  0.2753 -0.3525  0.1341
 3753SOL    HW122895   1.557   3.617   2.283 -1.2751 -0.8973  3.0295
 3753SOL    HW222896   1.490   3.491   2.298 -0.0757  1.3385  1.2255
 3754SOL     OW22897   0.803   1.134  17.000  0.0577 -0.3813 -0.1641
 3754SOL    HW122898   0.728   1.111  16.946 -1.1979  2.0163  0.5484
 3754SOL    HW222899   0.789   1.079  17.077  1.9549  0.1243  0.5414
 3755SOL     OW22900   2.894   3.228   6.871 -0.2681  0.3972 -0.1813
 3755SOL    HW122901   2.928   3.139   6.873 -0.4372  0.3329 -0.1372
 3755SOL    HW222902   2.803   3.202   6.854  0.9186 -4.5043  1.0913
 3756SOL     OW22903   2.557   4.206   7.405 -0.1047 -0.1175 -0.1981
 3756SOL    HW122904   2.501   4.128   7.396 -1.0555  0.2107  2.9592
 3756SOL    HW222905   2.555   4.243   7.317 -0.9276  0.7685  0.1958
 3757SOL     OW22906   2.481   1.804   3.135  0.0609 -0.2532  0.0527
 3757SOL    HW122907   2.389   1.825   3.155 -0.8849 -1.3273 -3.1373
 3757SOL    HW222908   2.470   1.712   3.111 -1.4412 -0.3248  1.0021
 3758SOL     OW22909   4.604   4.406   3.697  0.1473 -0.3949  0.2410
 3758SOL    HW122910   4.615   4.311   3.702  1.7531 -0.1638  0.8694
 3758SOL    HW222911   4.633   4.421   3.607  1.8691  0.9922  1.0284
 3759SOL     OW22912   4.691   1.588   6.907 -0.3475  0.5716  0.2447
 3759SOL    HW122913   4.658   1.570   6.819  0.0831  1.0300 -0.0158
 3759SOL    HW222914   0.032   1.632   6.878  0.8439 -0.7824  1.4756
 3760SOL     OW22915   1.999   2.609   7.655 -0.0529 -0.3624  0.0892
 3760SOL    HW122916   2.067   2.671   7.682 -2.0144  2.5842 -1.6936
 3760SOL    HW222917   1.927   2.672   7.658  0.0620 -0.3964  2.8298
 3761SOL     OW22918   1.639   1.775   3.273  0.1788 -0.2819 -1.0643
 3761SOL    HW122919   1.608   1.793   3.184  0.2103 -3.1824 -1.6650
 3761SOL    HW222920   1.662   1.682   3.275  1.7645  0.1260 -0.0592
 3762SOL     OW22921   0.968   4.636   9.124 -0.0950 -0.4034  0.3581
 3762SOL    HW122922   0.967   4.633   9.219  1.5489  1.4496  0.4336
 3762SOL    HW222923   1.029   4.574   9.084 -0.2505 -0.1637 -0.2608
 3763SOL     OW22924   1.920   0.352   3.067 -0.2005  0.2775  0.0471
 3763SOL    HW122925   1.878   0.434   3.041  1.1154  0.0915 -2.7011
 3763SOL    HW222926   1.919   0.311   2.981 -0.0812 -1.1014  0.7065
 3764SOL     OW22927   0.749   1.863   5.413 -0.3449 -0.7476  0.0136
 3764SOL    HW122928   0.698   1.831   5.338  1.3849 -2.7032 -0.3275
 3764SOL    HW222929   0.834   1.824   5.392  0.7724  2.0099 -0.5663
 3765SOL     OW22930   4.200   1.904   2.096 -0.2964 -0.2685  0.4398
 3765SOL    HW122931   4.286   1.894   2.055 -0.5557  2.1038 -0.7061
 3765SOL    HW222932   4.167   1.969   2.033  1.5404  0.3811  0.1593
 3766SOL     OW22933   2.676   1.281   3.140  1.0422  0.0757  0.5979
 3766SOL    HW122934   2.737   1.310   3.208 -0.9775  3.3699  1.0005
 3766SOL    HW222935   2.729   1.283   3.060  0.0472  0.1192 -0.0620
 3767SOL     OW22936   2.196   2.114   5.034 -0.2230  0.1581 -0.0157
 3767SOL    HW122937   2.120   2.142   4.984 -0.8927 -0.2100  0.8074
 3767SOL    HW222938   2.164   2.028   5.060 -2.4854  0.5414 -1.5351
 3768SOL     OW22939   2.295   2.730   4.332  0.3569 -0.1576  0.0277
 3768SOL    HW122940   2.219   2.772   4.293  0.0022 -1.4360 -0.6679
 3768SOL    HW222941   2.338   2.799   4.382 -1.2862  2.4275 -2.1647
 3769SOL     OW22942   1.220   0.912  12.885  0.0084  0.0186 -0.3758
 3769SOL    HW122943   1.314   0.902  12.869  0.1424  1.0913 -0.3101
 3769SOL    HW222944   1.200   0.991  12.835 -1.6624 -2.1663 -3.1245
 3770SOL     OW22945   2.793   2.326  16.497  0.1061 -0.0195  0.1710
 3770SOL    HW122946   2.756   2.263  16.435 -2.4661  0.3560  1.3227
 3770SOL    HW222947   2.720   2.329  16.558  1.0593  1.3550  1.2486
 3771SOL     OW22948   2.475   1.816   6.132  0.2258 -0.0525  0.3707
 3771SOL    HW122949   2.513   1.728   6.133  2.4399  0.9266  1.6625
 3771SOL    HW222950   2.427   1.823   6.049 -0.3999  1.3433  0.8496
 3772SOL     OW22951   0.846   4.252   8.143  0.1586  0.1427 -0.4175
 3772SOL    HW122952   0.804   4.336   8.162 -0.4616 -0.1383 -0.5515
 3772SOL    HW222953   0.865   4.217   8.230  2.7964  1.2807 -0.5356
 3773SOL     OW22954   4.175   4.281   4.478 -0.8433 -0.4415 -0.3649
 3773SOL    HW122955   4.102   4.248   4.530  0.6421 -1.7797  0.8597
 3773SOL    HW222956   4.185   4.364   4.524  0.8474 -1.0063  0.2753
 3774SOL     OW22957   2.444   3.584  17.702  0.2422 -0.4858 -0.4167
 3774SOL    HW122958   2.446   3.489  17.711  2.4105 -0.4410 -0.4078
 3774SOL    HW222959   2.530   3.626  17.696  0.2106 -0.2605  0.7719
 3775SOL     OW22960   1.293   3.180   9.498 -0.2524 -0.2715  0.1344
 3775SOL    HW122961   1.275   3.103   9.445  4.7522 -0.9030 -0.6120
 3775SOL    HW222962   1.340   3.150   9.576  2.0528 -0.6575 -1.4181
 3776SOL     OW22963   2.886   3.136   9.268 -0.0387 -0.0646  0.1121
 3776SOL    HW122964   2.950   3.089   9.321  1.3310  0.4006 -1.1272
 3776SOL    HW222965   2.923   3.224   9.270 -0.4314  0.0453  2.5949
 3777SOL     OW22966   1.292   4.318   4.962 -0.2002  0.3824  0.0270
 3777SOL    HW122967   1.323   4.342   4.874 -0.5026  0.4750 -0.0566
 3777SOL    HW222968   1.354   4.367   5.015 -1.0629 -0.4255  1.7592
 3778SOL     OW22969   1.604   1.032  11.823  0.0866  0.3670 -0.3382
 3778SOL    HW122970   1.678   1.080  11.860  1.6497 -2.7264  0.6158
 3778SOL    HW222971   1.574   0.996  11.907  1.5430 -0.9793 -0.3913
 3779SOL     OW22972   2.199   1.147   4.336 -0.5523  0.5603 -0.1557
 3779SOL    HW122973   2.200   1.089   4.412  0.1749  0.3881 -0.2987
 3779SOL    HW222974   2.117   1.197   4.340  0.0382  1.5877 -0.7692
 3780SOL     OW22975   2.876   1.410  11.389 -0.3729 -0.6904  0.0715
 3780SOL    HW122976   2.813   1.482  11.379 -0.2245 -0.1312  3.1080
 3780SOL    HW222977   2.854   1.389  11.480  0.8940 -2.2508  0.0190
 3781SOL     OW22978   2.488   0.666   4.467 -0.0508  0.1851  0.2561
 3781SOL    HW122979   2.442   0.719   4.402  0.0593 -1.9172 -1.5559
 3781SOL    HW222980   2.515   0.591   4.413 -0.5365 -0.4294  0.8582
 3782SOL     OW22981   4.281   0.019  14.679 -0.1906  0.5766  0.0796
 3782SOL    HW122982   4.318   4.673  14.657 -0.3353  0.8372 -1.1906
 3782SOL    HW222983   4.352   0.079  14.656  0.0110 -0.4726 -2.0847
 3783SOL     OW22984   2.107   1.427  14.926  0.0281 -0.5546 -0.3970
 3783SOL    HW122985   2.013   1.417  14.940 -0.1436  0.1791 -1.0138
 3783SOL    HW222986   2.116   1.522  14.926 -0.4910 -0.5068 -0.7040
 3784SOL     OW22987   2.735   2.029   6.057 -0.5346 -0.6382  0.3110
 3784SOL    HW122988   2.656   1.975   6.049 -0.7854 -0.3233  0.6168
 3784SOL    HW222989   2.693   2.115   6.051 -1.2066 -0.8239  2.2096
 3785SOL     OW22990   2.700   3.603  10.842 -0.2106 -0.1554  0.4493
 3785SOL    HW122991   2.619   3.653  10.852 -0.2922 -0.4252  1.1270
 3785SOL    HW222992   2.752   3.635  10.916 -0.7549  0.5683  0.5148
 3786SOL     OW22993   0.354   0.551   6.373  0.0944 -0.3768 -0.3745
 3786SOL    HW122994   0.271   0.516   6.407  0.4035  0.0956  0.8580
 3786SOL    HW222995   0.309   0.614   6.316  3.0648  0.5638 -1.6899
 3787SOL     OW22996   4.461   4.348  10.768 -0.1721  0.6727  0.6111
 3787SOL    HW122997   4.520   4.287  10.725 -0.3426  0.9251  0.0258
 3787SOL    HW222998   4.377   4.323  10.730 -0.4689  4.0469 -0.9507
 3788SOL     OW22999   4.473   3.429   8.450  0.0728 -0.0703  0.3199
 3788SOL    HW123000   4.554   3.390   8.483  0.4292  0.1886 -0.2347
 3788SOL    HW223001   4.408   3.417   8.519  0.9284 -1.1079  0.9448
 3789SOL     OW23002   0.770   4.564   6.133  0.7088 -0.6915  0.2165
 3789SOL    HW123003   0.720   4.643   6.156 -1.1725 -1.3592 -1.5162
 3789SOL    HW223004   0.857   4.584   6.166  0.8423 -0.8572 -0.0294
 3790SOL     OW23005   1.118   1.710  10.840 -0.2557 -0.3715 -0.2093
 3790SOL    HW123006   1.111   1.627  10.794  1.5915 -1.6248  1.7835
 3790SOL    HW223007   1.116   1.681  10.931 -0.7677  0.1321 -0.0571
 3791SOL     OW23008   2.441   0.850   6.627 -0.0976  0.1305 -0.0565
 3791SOL    HW123009   2.466   0.928   6.677  0.9864 -0.6111  0.5625
 3791SOL    HW223010   2.378   0.885   6.564  0.9681  0.3366 -1.0039
 3792SOL     OW23011   2.171   3.050   4.402 -0.2229 -0.2779  0.1453
 3792SOL    HW123012   2.236   3.044   4.472  0.9653  1.2186 -0.8397
 3792SOL    HW223013   2.101   2.994   4.436 -0.2186 -0.9173 -0.8974
 3793SOL     OW23014   2.123   0.400   6.094  0.1877  0.0328  0.0041
 3793SOL    HW123015   2.173   0.461   6.148 -0.5072  0.5742  0.0364
 3793SOL    HW223016   2.061   0.457   6.049 -2.4245 -2.4447  0.4609
 3794SOL     OW23017   2.407   1.739   7.236 -0.0950  0.3725  0.5941
 3794SOL    HW123018   2.417   1.750   7.331  0.6800  1.9030  0.3361
 3794SOL    HW223019   2.317   1.768   7.222 -0.5781 -0.4645  2.0492
 3795SOL     OW23020   1.123   2.075   7.905  0.0808  0.0202  0.6359
 3795SOL    HW123021   1.182   2.001   7.892  0.9156  1.1223 -1.8008
 3795SOL    HW223022   1.043   2.053   7.858  0.0699 -0.5534  0.9318
 3796SOL     OW23023   0.344   3.909   3.156  0.2547  0.3078 -0.3492
 3796SOL    HW123024   0.258   3.874   3.135  0.4205 -0.3080  0.0316
 3796SOL    HW223025   0.372   3.940   3.069 -0.9084  0.3428 -0.7103
 3797SOL     OW23026   4.642   1.592   2.238 -0.3994  0.4323 -0.0564
 3797SOL    HW123027   4.612   1.619   2.325  0.1431 -2.2172  0.9490
 3797SOL    HW223028   4.641   1.499   2.261 -0.8872  0.4191 -0.1417
 3798SOL     OW23029   0.636   2.589   8.788 -0.3817 -0.3143  0.1060
 3798SOL    HW123030   0.710   2.643   8.817  1.1599 -0.9357 -2.5918
 3798SOL    HW223031   0.682   2.529   8.729  1.1213  0.6360  0.3143
 3799SOL     OW23032   3.909   2.901   7.526 -0.1930 -0.2589 -0.3545
 3799SOL    HW123033   3.882   2.914   7.617  0.3022 -0.9582 -0.1035
 3799SOL    HW223034   3.838   2.842   7.502 -0.5451 -0.7315  1.8091
 3800SOL     OW23035   3.740   1.574   3.160 -0.2855  0.2337 -0.2080
 3800SOL    HW123036   3.816   1.621   3.127 -0.4697  0.4712 -0.2915
 3800SOL    HW223037   3.763   1.485   3.136 -1.4748 -0.1697  0.1594
 3801SOL     OW23038   4.084   4.170   5.844  0.1373  0.6404 -0.1699
 3801SOL    HW123039   4.139   4.165   5.767 -0.4646 -1.5863 -0.4757
 3801SOL    HW223040   4.025   4.242   5.824 -2.0450 -1.9132 -3.0314
 3802SOL     OW23041   3.655   1.107   8.659  0.3233  0.0204 -0.2627
 3802SOL    HW123042   3.570   1.073   8.689 -0.0835  2.2055  1.0099
 3802SOL    HW223043   3.637   1.201   8.664 -1.4554 -0.2850 -0.7242
 3803SOL     OW23044   2.686   1.406   5.702  0.3339  0.7687  0.3607
 3803SOL    HW123045   2.600   1.404   5.743  0.7340 -1.4107  1.1091
 3803SOL    HW223046   2.717   1.320   5.673  0.2122  0.9048 -0.1800
 3804SOL     OW23047   2.339   1.454   9.247 -0.8283 -0.3747  0.6149
 3804SOL    HW123048   2.323   1.369   9.289 -3.1906 -0.4252 -0.3335
 3804SOL    HW223049   2.343   1.431   9.154 -0.0636 -0.7915  0.7514
 3805SOL     OW23050   4.062   2.728   1.480 -0.4650  0.0002 -0.3066
 3805SOL    HW123051   4.050   2.642   1.520  0.1922  0.8488  1.7176
 3805SOL    HW223052   4.151   2.754   1.503 -0.4363  1.6254 -2.3020
 3806SOL     OW23053   0.721   0.947   7.724  0.1159 -0.0184 -0.1127
 3806SOL    HW123054   0.656   0.963   7.793  0.0121  1.7561 -0.6086
 3806SOL    HW223055   0.672   0.877   7.682  0.6370 -0.9501  0.8443
 3807SOL     OW23056   1.879   1.818   4.372  0.0897  0.0150 -0.3642
 3807SOL    HW123057   1.895   1.765   4.294  2.4996  1.2128 -0.6829
 3807SOL    HW223058   1.784   1.809   4.380  0.4700 -0.8676  3.0762
 3808SOL     OW23059   4.009   0.248   2.136 -0.2178 -0.1952 -0.1605
 3808SOL    HW123060   3.997   0.154   2.150  3.5762 -1.0148 -2.3043
 3808SOL    HW223061   4.056   0.244   2.053  0.0527 -0.2586 -0.0051
 3809SOL     OW23062   1.851   4.263   6.515 -0.1761  0.4888  0.7555
 3809SOL    HW123063   1.847   4.223   6.428 -2.8046 -0.5546  1.3686
 3809SOL    HW223064   1.924   4.204   6.534 -0.9430  0.1558  2.7418
 3810SOL     OW23065   1.698   1.789   7.474  0.3288 -0.0571 -0.5121
 3810SOL    HW123066   1.709   1.849   7.548 -1.9972  1.2950 -1.2465
 3810SOL    HW223067   1.653   1.845   7.411 -0.7337  0.4317  0.6790
 3811SOL     OW23068   2.931   1.309   1.999 -0.4496  0.8969 -0.1036
 3811SOL    HW123069   2.904   1.245   1.933  0.9124  0.7733 -0.5584
 3811SOL    HW223070   2.885   1.387   1.971 -0.3267  0.1247 -2.4089
 3812SOL     OW23071   3.479   0.341   0.810  0.1603  0.3712  0.3355
 3812SOL    HW123072   3.465   0.287   0.888  3.0680 -3.1547 -1.5831
 3812SOL    HW223073   3.438   0.422   0.842 -0.7098  1.1938 -2.9091
 3813SOL     OW23074   4.576   3.046   5.582 -0.1813 -0.1504  0.1129
 3813SOL    HW123075   4.634   3.000   5.642  0.7439  1.6826  0.6177
 3813SOL    HW223076   4.500   2.988   5.573 -0.7078  0.7004 -0.9871
 3814SOL     OW23077   1.927   0.651   3.530  0.4015  0.4834  0.2442
 3814SOL    HW123078   1.908   0.741   3.504 -0.2694  0.0072 -0.9117
 3814SOL    HW223079   1.993   0.663   3.598 -0.6227 -0.9393  1.5042
 3815SOL     OW23080   3.032   0.007   6.397  0.6591 -0.4078  0.1428
 3815SOL    HW123081   3.032   0.092   6.441 -3.2583 -0.3041 -0.0518
 3815SOL    HW223082   3.121   4.712   6.404  0.9162 -0.1562 -1.9563
 3816SOL     OW23083   4.122   3.619  16.401 -0.0761  0.1647 -0.3607
 3816SOL    HW123084   4.182   3.549  16.428  0.3224  0.3856 -0.6684
 3816SOL    HW223085   4.039   3.575  16.385 -0.0994 -0.4461  1.4497
 3817SOL     OW23086   4.303   2.764   1.581 -0.1639 -0.1243 -0.0941
 3817SOL    HW123087   4.303   2.844   1.528 -2.0964  0.0192  0.1391
 3817SOL    HW223088   4.363   2.796   1.649  1.2259 -1.3929 -0.7262
 3818SOL     OW23089   1.452   3.493   3.231  0.0208 -0.5984  0.6293
 3818SOL    HW123090   1.513   3.561   3.203 -1.2342  0.1783 -0.2201
 3818SOL    HW223091   1.367   3.537   3.243  0.5199  0.4615  0.2771
 3819SOL     OW23092   0.348   3.675  14.402 -0.6479 -0.0452  0.4501
 3819SOL    HW123093   0.291   3.599  14.417 -1.2850  0.2887 -0.3255
 3819SOL    HW223094   0.420   3.641  14.455 -1.1964  0.4998  1.5475
 3820SOL     OW23095   4.709   3.695   7.083 -0.0703  0.1258  0.1463
 3820SOL    HW123096   4.686   3.603   7.077  4.3946 -1.1448  1.7492
 3820SOL    HW223097   4.623   3.735   7.091 -0.7798 -1.0015 -2.1059
 3821SOL     OW23098   4.479   3.295  10.655  0.4359 -0.4922  0.2160
 3821SOL    HW123099   4.507   3.312  10.745  1.0899  1.9920 -0.4627
 3821SOL    HW223100   4.466   3.386  10.629  0.2948 -1.8768 -4.5809
 3822SOL     OW23101   3.490   3.625   1.547 -0.5064 -0.0302  0.0444
 3822SOL    HW123102   3.570   3.649   1.501 -1.8278  3.8600 -0.2040
 3822SOL    HW223103   3.512   3.545   1.596  0.4395  0.8589  1.0655
 3823SOL     OW23104   2.510   3.395  12.987  0.0963  0.3869 -0.2715
 3823SOL    HW123105   2.519   3.390  12.892  0.5802 -2.5622 -0.0956
 3823SOL    HW223106   2.583   3.339  13.014  0.5670  1.9734  1.7299
 3824SOL     OW23107   4.370   0.946  14.787 -0.5635 -0.0745  0.1581
 3824SOL    HW123108   4.301   0.952  14.853 -0.6103  2.1272 -0.1117
 3824SOL    HW223109   4.327   0.880  14.733  2.4553 -1.1903 -0.9098
 3825SOL     OW23110   2.020   4.725   7.867 -0.2967 -0.6942 -0.7854
 3825SOL    HW123111   1.965   4.698   7.941  0.0701 -0.6440 -0.4930
 3825SOL    HW223112   2.086   4.655   7.866  0.1412 -0.2502 -3.3823
 3826SOL     OW23113   1.997   2.459   7.931  0.1384 -0.4440 -0.8736
 3826SOL    HW123114   1.983   2.492   7.843 -2.1062  0.0530 -0.3178
 3826SOL    HW223115   1.911   2.462   7.972  0.5313  0.5496 -0.1174
 3827SOL     OW23116   0.433   1.736  13.067  0.1884  0.4294 -0.0014
 3827SOL    HW123117   0.385   1.726  12.985 -1.5846  2.1551  0.8183
 3827SOL    HW223118   0.440   1.647  13.101  0.0975  0.1821 -0.6252
 3828SOL     OW23119   0.567   2.419  11.608 -0.0999 -0.0609  0.1281
 3828SOL    HW123120   0.595   2.427  11.699 -0.0018  1.2149 -0.0123
 3828SOL    HW223121   0.473   2.434  11.614 -0.2792 -0.7823 -0.9961
 3829SOL     OW23122   1.494   4.521  13.532  0.1881 -0.0191  0.0689
 3829SOL    HW123123   1.479   4.463  13.607 -0.1670  0.2176  0.1819
 3829SOL    HW223124   1.586   4.543  13.545 -0.2060  1.2748  0.6055
 3830SOL     OW23125   3.537   3.111   2.392 -0.0454  0.1464  0.0141
 3830SOL    HW123126   3.586   3.194   2.394 -1.4201  0.9500  0.5530
 3830SOL    HW223127   3.457   3.140   2.349 -0.0954 -0.7538 -0.4825
 3831SOL     OW23128   1.619   1.204  12.676  0.5961 -0.2416 -0.1196
 3831SOL    HW123129   1.606   1.145  12.750 -1.4320  0.7447  0.3223
 3831SOL    HW223130   1.531   1.224  12.644 -0.3559 -1.9150  1.5105
 3832SOL     OW23131   0.223   0.067   5.802  0.1674 -0.2246  0.7576
 3832SOL    HW123132   0.294   0.128   5.781  0.6569 -0.7371  0.9142
 3832SOL    HW223133   0.175   0.086   5.721 -1.2267  0.1930  1.6800
 3833SOL     OW23134   1.361   4.511   9.782 -0.0256 -0.1272 -0.3152
 3833SOL    HW123135   1.314   4.594   9.795 -0.6547 -0.7042  1.1710
 3833SOL    HW223136   1.367   4.466   9.867  1.5931  3.4246  1.4297
 3834SOL     OW23137   4.051   1.362   3.300 -0.1998 -0.4021  0.6479
 3834SOL    HW123138   4.129   1.335   3.251 -0.5324  0.8899 -0.6046
 3834SOL    HW223139   4.104   1.377   3.379 -0.2245 -0.1970  0.6246
 3835SOL     OW23140   2.161   0.055  16.686 -0.0740  0.0336  0.2741
 3835SOL    HW123141   2.123   0.143  16.696  3.2555  1.3258  1.7681
 3835SOL    HW223142   2.250   0.089  16.670  0.2557 -0.9058  0.1318
 3836SOL     OW23143   3.358   0.782  13.498 -0.2247  0.4973  0.1821
 3836SOL    HW123144   3.431   0.804  13.440 -0.2953  2.1657  0.7193
 3836SOL    HW223145   3.362   0.689  13.518  0.6755 -0.0688 -2.5858
 3837SOL     OW23146   3.085   0.696   0.245  0.3883  0.2290 -0.0366
 3837SOL    HW123147   3.066   0.672   0.336 -0.2712  0.7718 -0.0405
 3837SOL    HW223148   3.034   0.776   0.239  0.7623  0.4026 -0.8638
 3838SOL     OW23149   4.223   2.437   8.831 -0.2594 -0.0543  0.6790
 3838SOL    HW123150   4.190   2.437   8.741 -2.1501 -0.0979  1.3653
 3838SOL    HW223151   4.316   2.423   8.816 -0.3898 -0.6725  0.4553
 3839SOL     OW23152   1.681   1.326   8.261  0.7561 -0.1987 -0.0048
 3839SOL    HW123153   1.587   1.323   8.243  0.6149 -0.5402  0.7562
 3839SOL    HW223154   1.707   1.405   8.215  0.5013 -0.6452 -0.9289
 3840SOL     OW23155   3.358   2.631  10.994 -0.6443  0.0058  0.7021
 3840SOL    HW123156   3.375   2.725  11.001  1.0151 -0.2500  0.1455
 3840SOL    HW223157   3.391   2.607  10.907  1.7347  1.2027  1.2733
 3841SOL     OW23158   0.301   2.857   6.429  0.8350  0.2385  0.0181
 3841SOL    HW123159   0.308   2.772   6.472  0.7473  1.1299  1.7969
 3841SOL    HW223160   0.338   2.915   6.495  3.0037  0.1212 -1.0933
 3842SOL     OW23161   1.196   3.195   2.252 -0.2411 -0.2199 -0.4106
 3842SOL    HW123162   1.257   3.123   2.268  0.9584  0.8184 -0.2857
 3842SOL    HW223163   1.130   3.181   2.320  1.6467 -0.4015  1.3954
 3843SOL     OW23164   0.451   1.173   0.329  0.0515 -0.0442  0.1455
 3843SOL    HW123165   0.546   1.169   0.345 -0.4994 -2.1682  2.9062
 3843SOL    HW223166   0.433   1.103   0.266  0.5810  1.5264 -1.7240
 3844SOL     OW23167   3.390   3.970   5.823 -0.6467  0.6209 -0.5753
 3844SOL    HW123168   3.335   3.892   5.811  0.4536 -0.6910  3.0007
 3844SOL    HW223169   3.323   4.021   5.868 -1.1569 -0.1898 -0.4174
 3845SOL     OW23170   2.551   3.118  11.532 -0.7402  0.0150 -0.2660
 3845SOL    HW123171   2.586   3.033  11.505 -0.0182  0.6877 -1.4257
 3845SOL    HW223172   2.490   3.089  11.600 -0.6919 -1.1948 -0.7330
 3846SOL     OW23173   1.505   0.857   2.062 -0.4865  0.0380  0.0130
 3846SOL    HW123174   1.532   0.777   2.106  3.3668 -0.3404 -3.1319
 3846SOL    HW223175   1.438   0.887   2.124 -2.1861  0.0079 -1.7953
 3847SOL     OW23176   3.580   0.101   6.417 -0.8396 -0.4152  0.2659
 3847SOL    HW123177   3.532   0.024   6.389  0.0565 -0.3744 -1.3790
 3847SOL    HW223178   3.517   0.153   6.467 -2.5468 -0.2597 -2.0625
 3848SOL     OW23179   0.492   3.163   0.788 -0.3616  0.6914  0.0558
 3848SOL    HW123180   0.559   3.101   0.817 -0.8863 -1.5755 -3.6403
 3848SOL    HW223181   0.419   3.108   0.759 -0.7712  2.3109 -2.0136
 3849SOL     OW23182   0.915   1.440   1.727  0.2348 -0.0969  0.0103
 3849SOL    HW123183   0.880   1.528   1.743 -1.8895 -1.1624  1.1230
 3849SOL    HW223184   0.882   1.424   1.638 -3.5872 -1.1156  1.6129
 3850SOL     OW23185   1.541   3.930   6.835 -0.0975  0.6814 -0.0496
 3850SOL    HW123186   1.635   3.945   6.823  0.3261 -1.2541  0.9118
 3850SOL    HW223187   1.506   4.017   6.857 -2.7282  0.1146 -2.0733
 3851SOL     OW23188   0.078   3.567   5.332 -0.1785 -0.4887 -0.0411
 3851SOL    HW123189   0.071   3.647   5.280 -0.3759 -0.4780  0.0015
 3851SOL    HW223190   0.011   3.514   5.289  0.9504 -2.2100  0.3101
 3852SOL     OW23191   2.398   2.048   1.698  0.1769  0.6231 -0.3363
 3852SOL    HW123192   2.448   2.101   1.761 -1.6159  1.7488  0.1259
 3852SOL    HW223193   2.350   1.987   1.752 -1.6876  0.4209 -2.2319
 3853SOL     OW23194   3.798   0.127   8.599 -0.3570 -0.4492 -1.1852
 3853SOL    HW123195   3.810   0.051   8.656 -2.3545  1.4427  1.7559
 3853SOL    HW223196   3.891   0.143   8.585 -0.4285  0.2755 -0.7966
 3854SOL     OW23197   2.194   4.587   6.932 -0.3463  0.3319 -0.2399
 3854SOL    HW123198   2.287   4.564   6.936 -1.0219 -2.4885 -0.7247
 3854SOL    HW223199   2.181   4.639   7.012  3.4202 -0.0932  0.6608
 3855SOL     OW23200   0.558   0.972   5.788 -0.3630  0.0733 -0.0843
 3855SOL    HW123201   0.543   0.916   5.864  0.2335 -1.5895 -1.2055
 3855SOL    HW223202   0.639   1.019   5.807  0.9298 -2.7947  1.4207
 3856SOL     OW23203   2.978   4.601  14.088  1.0439  0.4440  0.3632
 3856SOL    HW123204   2.913   4.654  14.133  0.1124 -0.3274 -0.0854
 3856SOL    HW223205   3.058   4.643  14.121  2.1584  0.0182 -1.8026
 3857SOL     OW23206   2.879   3.945   4.091  0.0134  0.3704  0.1393
 3857SOL    HW123207   2.911   4.033   4.069  0.9768 -0.1365 -0.4696
 3857SOL    HW223208   2.897   3.899   4.009 -1.2988 -0.9817  0.6134
 3858SOL     OW23209   4.639   3.830  14.197 -0.2413 -0.0756  0.6239
 3858SOL    HW123210   4.583   3.764  14.239 -0.6708  0.6436  1.1718
 3858SOL    HW223211   4.703   3.851  14.265  1.4368 -0.7439 -0.7601
 3859SOL     OW23212   2.493   2.954   0.413  0.1249 -0.0590  0.2371
 3859SOL    HW123213   2.541   2.989   0.489  1.7454 -1.5372 -0.1084
 3859SOL    HW223214   2.410   2.995   0.439 -0.1476 -0.6724  0.3243
 3860SOL     OW23215   1.399   3.460  10.366  0.2938 -0.2536 -0.3817
 3860SOL    HW123216   1.395   3.381  10.312 -2.6281 -0.3536  0.0158
 3860SOL    HW223217   1.343   3.430  10.438  1.2695  2.0608  1.3556
 3861SOL     OW23218   1.430   1.652   6.313  0.5430 -0.3933  0.3867
 3861SOL    HW123219   1.413   1.586   6.245 -3.6458  0.8815  0.1844
 3861SOL    HW223220   1.525   1.650   6.324  0.7291  0.5102 -0.9663
 3862SOL     OW23221   2.903   4.563   7.998 -0.1455  0.1625  0.0287
 3862SOL    HW123222   2.955   4.531   7.925 -1.3386 -2.1241  0.1788
 3862SOL    HW223223   2.819   4.516   7.998  0.5631 -1.0469 -5.2585
 3863SOL     OW23224   1.519   1.145  13.703  0.0837  0.2071  0.4458
 3863SOL    HW123225   1.579   1.107  13.767  0.2873  2.1575  1.3865
 3863SOL    HW223226   1.550   1.233  13.684 -2.8378  0.7592 -1.8852
 3864SOL     OW23227   1.106   2.631   7.160  0.1109 -0.0904  0.2168
 3864SOL    HW123228   1.071   2.550   7.124  2.8300 -1.1967  0.0826
 3864SOL    HW223229   1.036   2.696   7.155 -0.8333 -1.1145  0.3760
 3865SOL     OW23230   2.985   2.324   9.924  0.5975  0.0661  0.0172
 3865SOL    HW123231   3.025   2.321   9.838  0.1338 -2.6679 -0.1291
 3865SOL    HW223232   2.993   2.419   9.928 -0.5049  0.1010  1.5257
 3866SOL     OW23233   0.508   0.589   2.817  0.0251 -0.0107 -0.0482
 3866SOL    HW123234   0.446   0.601   2.889  1.1101 -0.9389  1.0633
 3866SOL    HW223235   0.592   0.601   2.862  0.3772 -1.2114 -0.3790
 3867SOL     OW23236   3.484   0.738   3.453 -0.1172  0.2231 -0.1346
 3867SOL    HW123237   3.546   0.774   3.516 -0.4288  0.5187  0.0012
 3867SOL    HW223238   3.555   0.703   3.398  0.9013  0.9694  0.7077
 3868SOL     OW23239   0.932   2.490   6.739  0.1117 -0.2704  0.0714
 3868SOL    HW123240   1.014   2.454   6.706 -0.5393 -2.8789  1.3278
 3868SOL    HW223241   0.887   2.470   6.657  1.2552  2.1135 -1.1312
 3869SOL     OW23242   3.546   3.677   7.530  0.0693  0.0364  0.0624
 3869SOL    HW123243   3.574   3.647   7.616 -0.6805  0.9187  0.6149
 3869SOL    HW223244   3.454   3.680   7.555  0.4356  0.2843  1.3796
 3870SOL     OW23245   3.580   2.292  11.538  0.1346 -0.2126 -0.3038
 3870SOL    HW123246   3.553   2.207  11.504  0.3952 -0.3402 -0.1891
 3870SOL    HW223247   3.630   2.323  11.463 -1.2929  2.0016 -0.3625
 3871SOL     OW23248   4.449   0.724   0.956 -0.2676 -0.4308 -0.0530
 3871SOL    HW123249   4.485   0.744   0.870  0.5830  1.9863  0.8757
 3871SOL    HW223250   4.394   0.801   0.965 -0.4479 -0.5514 -0.1334
 3872SOL     OW23251   3.371   0.927  12.961 -0.5904 -0.8831  0.0995
 3872SOL    HW123252   3.348   0.834  12.967  0.4330 -1.2257 -1.3729
 3872SOL    HW223253   3.301   0.963  12.906 -0.8368 -0.8694  0.4222
 3873SOL     OW23254   2.727   2.798   8.423 -0.3389 -0.0933  0.2184
 3873SOL    HW123255   2.698   2.714   8.457 -0.8192  0.3194  0.8393
 3873SOL    HW223256   2.664   2.854   8.469  1.3271  1.9052  0.0998
 3874SOL     OW23257   3.605   2.899   8.597 -0.5282  0.1107  0.3877
 3874SOL    HW123258   3.625   2.865   8.684 -1.1214 -2.5082 -0.5252
 3874SOL    HW223259   3.510   2.899   8.612 -0.1790 -1.8986  2.4737
 3875SOL     OW23260   3.252   3.492   5.690 -0.6314  0.2245  0.3957
 3875SOL    HW123261   3.171   3.441   5.680 -1.0608  0.7070  1.4591
 3875SOL    HW223262   3.273   3.520   5.601 -1.7997  0.0198  0.0535
 3876SOL     OW23263   2.764   4.196   3.806  0.4309 -0.3532 -1.3659
 3876SOL    HW123264   2.740   4.279   3.764 -3.0973 -1.2932 -1.2712
 3876SOL    HW223265   2.702   4.184   3.878 -0.0969  1.1143 -1.5790
 3877SOL     OW23266   1.673   3.389   0.205  0.1659  0.3204  0.3431
 3877SOL    HW123267   1.710   3.322   0.263 -0.8769  0.1897  0.8539
 3877SOL    HW223268   1.606   3.338   0.160  1.4527  0.3643 -1.6164
 3878SOL     OW23269   1.040   2.331   1.714 -0.4426 -0.3223 -0.3733
 3878SOL    HW123270   1.020   2.394   1.645 -0.5063 -0.3718 -0.3999
 3878SOL    HW223271   0.952   2.301   1.736 -1.4393  3.2055  0.5097
 3879SOL     OW23272   3.562   4.308   5.481  0.8754  0.3312  0.6196
 3879SOL    HW123273   3.638   4.271   5.437 -0.4827 -0.4540 -1.1075
 3879SOL    HW223274   3.580   4.400   5.499 -0.8356  0.9809 -0.8533
 3880SOL     OW23275   3.772   0.364  15.841 -0.6500 -0.4632 -0.2615
 3880SOL    HW123276   3.732   0.359  15.754  0.8651  1.1349 -1.0516
 3880SOL    HW223277   3.715   0.305  15.891 -0.3521  0.3248  0.9991
 3881SOL     OW23278   1.018   2.147   2.368 -0.0785 -0.6754  0.2898
 3881SOL    HW123279   1.009   2.229   2.417  2.1830 -1.2679  1.6794
 3881SOL    HW223280   0.984   2.166   2.280  1.6369  0.3568 -0.1533
 3882SOL     OW23281   1.968   1.980  16.778  0.2283  0.1618  0.4523
 3882SOL    HW123282   1.941   1.921  16.708 -0.9629  0.0655  0.9844
 3882SOL    HW223283   1.986   2.059  16.727  1.9023 -0.3636  0.2599
 3883SOL     OW23284   0.511   1.909   6.808  0.1501  0.1469  0.7095
 3883SOL    HW123285   0.436   1.968   6.821 -0.1743 -0.1205  0.0327
 3883SOL    HW223286   0.577   1.978   6.800 -2.8992  2.8321 -1.1224
 3884SOL     OW23287   1.501   2.626   8.184 -0.2544  0.7756 -0.2444
 3884SOL    HW123288   1.470   2.666   8.266 -1.0970 -1.1381  0.3682
 3884SOL    HW223289   1.481   2.536   8.211 -1.3672  1.4559  1.1997
 3885SOL     OW23290   3.817   1.071   8.183 -0.0412 -0.3914  0.0962
 3885SOL    HW123291   3.795   0.992   8.133  0.6441 -0.3447 -0.2650
 3885SOL    HW223292   3.795   1.043   8.273 -0.5150  1.4708  0.5478
 3886SOL     OW23293   3.669   3.122   3.924  0.9046  0.1555  0.3894
 3886SOL    HW123294   3.584   3.080   3.913  0.4213  0.9507  1.1624
 3886SOL    HW223295   3.716   3.070   3.989  0.7747 -0.1061  0.2699
 3887SOL     OW23296   1.820   4.392  12.652  0.1704 -0.8921  0.0937
 3887SOL    HW123297   1.798   4.359  12.739 -2.9450 -2.5725 -1.3227
 3887SOL    HW223298   1.909   4.427  12.659  0.2719 -1.2267  0.5049
 3888SOL     OW23299   0.257   0.704   1.444 -0.3458  1.0512 -0.1873
 3888SOL    HW123300   0.287   0.686   1.355  0.9449 -0.4514  0.5478
 3888SOL    HW223301   0.178   0.754   1.423 -1.5497 -0.8047 -0.0618
 3889SOL     OW23302   3.083   1.688  15.809  0.1591 -0.3023  0.7058
 3889SOL    HW123303   3.074   1.751  15.737 -0.3939  0.4410  1.4180
 3889SOL    HW223304   2.997   1.696  15.851 -0.9405 -0.2015 -1.5657
 3890SOL     OW23305   0.261   3.166  17.597 -0.2918 -0.0396  0.0867
 3890SOL    HW123306   0.267   3.242  17.539 -0.3331  1.0588  1.5238
 3890SOL    HW223307   0.207   3.110  17.541 -0.7635 -1.1129  1.6169
 3891SOL     OW23308   3.918   0.695   9.210 -0.4211 -0.2344  0.3687
 3891SOL    HW123309   3.876   0.647   9.139  1.1057 -2.1478  0.7596
 3891SOL    HW223310   3.975   0.623   9.238 -0.5656 -1.6812 -3.0243
 3892SOL     OW23311   0.617   0.716   7.639  0.3156  0.4944  0.2948
 3892SOL    HW123312   0.562   0.710   7.561  0.6878 -0.7646  0.1389
 3892SOL    HW223313   0.667   0.635   7.631 -0.3999 -0.0011  0.7814
 3893SOL     OW23314   4.014   2.963   7.283  0.1064 -0.1329 -0.6339
 3893SOL    HW123315   4.096   2.995   7.318 -0.8215 -0.2308  1.6081
 3893SOL    HW223316   3.965   2.964   7.365  0.5050 -0.4557 -0.3979
 3894SOL     OW23317   3.614   4.300  16.314  0.0734  0.0708 -0.5618
 3894SOL    HW123318   3.692   4.245  16.323  1.3884  2.0300 -0.0727
 3894SOL    HW223319   3.601   4.331  16.404 -1.2102  2.3559 -1.5252
 3895SOL     OW23320   0.706   0.432   9.032 -0.0398 -0.2619 -0.2744
 3895SOL    HW123321   0.700   0.337   9.044  3.9617 -0.4013  0.7800
 3895SOL    HW223322   0.780   0.452   9.089  0.6005 -1.9382 -0.4894
 3896SOL     OW23323   1.129   4.172  11.867  0.0742 -0.2714 -0.2448
 3896SOL    HW123324   1.157   4.232  11.936  0.1202  0.7475 -1.1536
 3896SOL    HW223325   1.211   4.124  11.851  0.1638  0.4310 -1.9645
 3897SOL     OW23326   4.444   0.871   2.880  0.0733  0.8202 -0.6292
 3897SOL    HW123327   4.437   0.868   2.785 -2.9889  2.1735 -0.4532
 3897SOL    HW223328   4.515   0.934   2.887  1.2302 -0.6528  0.7661
 3898SOL     OW23329   2.170   0.981   4.591 -0.2600 -0.1090 -0.6923
 3898SOL    HW123330   2.251   0.932   4.607 -0.3636  0.5758  1.8404
 3898SOL    HW223331   2.120   0.947   4.664  1.8534 -0.4328  0.6213
 3899SOL     OW23332   0.917   0.992   6.103 -0.7025  0.2513  0.0860
 3899SOL    HW123333   0.965   0.941   6.169  1.7204  0.5765 -1.4093
 3899SOL    HW223334   0.956   1.077   6.124 -2.5822  1.4833 -1.4783
 3900SOL     OW23335   1.348   1.310   8.770 -0.1662 -0.6035  0.0282
 3900SOL    HW123336   1.312   1.391   8.733  2.5746 -0.0804 -1.5107
 3900SOL    HW223337   1.272   1.254   8.785 -0.8864  0.4775  0.3850
 3901SOL     OW23338   3.279   0.238   4.969 -0.0590 -0.2372  0.4309
 3901SOL    HW123339   3.249   0.315   4.920  0.4968 -1.7539 -2.3169
 3901SOL    HW223340   3.226   0.257   5.046 -2.7296 -1.4179 -1.1154
 3902SOL     OW23341   3.662   3.816   2.496 -0.3201  0.2903 -0.4466
 3902SOL    HW123342   3.670   3.838   2.403  3.1634  0.3949 -0.1364
 3902SOL    HW223343   3.704   3.729   2.496  1.6847  1.2580  1.2390
 3903SOL     OW23344   2.944   2.363   7.301 -0.4565 -0.0769  0.5449
 3903SOL    HW123345   2.969   2.451   7.328  0.2791  0.4801 -1.9569
 3903SOL    HW223346   2.892   2.384   7.223 -1.7708 -0.1231  1.4085
 3904SOL     OW23347   4.683   3.318  16.733  0.4303 -0.1178  0.5314
 3904SOL    HW123348   0.003   3.244  16.745  0.2251  0.3251  4.3377
 3904SOL    HW223349   4.728   3.388  16.685 -0.6726  0.0429 -0.2629
 3905SOL     OW23350   2.505   1.036   4.259  0.2704  0.5109  0.4488
 3905SOL    HW123351   2.480   0.945   4.272 -0.1718  0.5906  0.1398
 3905SOL    HW223352   2.547   1.058   4.343 -1.7964  1.2691  1.2781
 3906SOL     OW23353   0.516   2.070  15.880  0.0530 -0.1317 -0.2162
 3906SOL    HW123354   0.559   2.056  15.964 -0.8043  1.8787  0.5461
 3906SOL    HW223355   0.433   2.111  15.905  0.1783 -1.8572  3.0015
 3907SOL     OW23356   2.037   1.600   4.472  0.2945 -0.1149 -0.1989
 3907SOL    HW123357   2.065   1.606   4.564  0.8758 -2.4180 -0.2275
 3907SOL    HW223358   1.995   1.685   4.460  0.2851  0.1132  1.4071
 3908SOL     OW23359   2.016   2.843   5.782  0.2179 -0.0412  0.0729
 3908SOL    HW123360   1.950   2.782   5.815  0.7602 -1.6333 -1.8006
 3908SOL    HW223361   2.088   2.784   5.759  1.3569  1.3162  0.2130
 3909SOL     OW23362   0.280   1.509   7.586  0.5955  0.1376  0.5155
 3909SOL    HW123363   0.207   1.453   7.560  1.4835 -0.4452 -0.7214
 3909SOL    HW223364   0.346   1.446   7.614 -0.8699 -1.5300  0.1806
 3910SOL     OW23365   1.661   1.563   8.090 -0.4433 -0.2799  0.2782
 3910SOL    HW123366   1.700   1.613   8.019  0.5308 -0.3510  0.7587
 3910SOL    HW223367   1.608   1.500   8.040 -0.3366 -0.1049 -0.0539
 3911SOL     OW23368   4.673   0.992   1.397 -0.4476  0.0600  0.2479
 3911SOL    HW123369   4.703   0.901   1.392  2.5637  1.2457 -3.0222
 3911SOL    HW223370   4.615   0.989   1.321 -0.5947 -1.1630  0.3980
 3912SOL     OW23371   1.598   0.413  10.053 -0.5071  0.3382  0.1348
 3912SOL    HW123372   1.542   0.462   9.993 -0.8306  1.0043  0.9664
 3912SOL    HW223373   1.681   0.453  10.028  0.6910 -2.7922 -0.8564
 3913SOL     OW23374   3.539   4.187   9.201 -0.0077 -0.1367  0.3046
 3913SOL    HW123375   3.489   4.145   9.271 -0.1532  1.1459  0.9769
 3913SOL    HW223376   3.547   4.114   9.140  2.9761  1.0040 -0.6826
 3914SOL     OW23377   4.328   2.887   4.217  0.0739  0.0773 -0.0908
 3914SOL    HW123378   4.417   2.871   4.250 -0.2669 -1.1539  0.2482
 3914SOL    HW223379   4.319   2.979   4.241  1.3117  0.5734 -1.4908
 3915SOL     OW23380   4.553   1.029   0.219  0.0274  0.6115  0.3130
 3915SOL    HW123381   4.636   1.045   0.175  0.2988 -0.5152  0.4254
 3915SOL    HW223382   4.515   1.117   0.212 -1.3546 -0.0436 -0.3840
 3916SOL     OW23383   0.221   2.490   2.462 -0.2298  0.5762  0.2428
 3916SOL    HW123384   0.213   2.514   2.370  1.0509 -1.4471 -0.4123
 3916SOL    HW223385   0.143   2.438   2.482 -0.0333 -1.3239 -4.0157
 3917SOL     OW23386   1.432   0.579   9.898 -0.1170  0.8086  0.8485
 3917SOL    HW123387   1.425   0.660   9.847  0.2387  0.2893 -0.0202
 3917SOL    HW223388   1.384   0.520   9.840 -1.2457  1.6663  0.9128
 3918SOL     OW23389   4.466   2.428   6.162 -0.1887  0.1503  0.0370
 3918SOL    HW123390   4.419   2.420   6.246  0.8085 -0.5385  0.5399
 3918SOL    HW223391   4.496   2.338   6.146 -0.4129  0.0666  0.0870
 3919SOL     OW23392   3.130   0.248  12.989  0.3912 -0.3749  0.2677
 3919SOL    HW123393   3.040   0.269  12.964  0.0414 -2.2889 -0.1047
 3919SOL    HW223394   3.115   0.258  13.083 -1.2733 -2.2265  0.2086
 3920SOL     OW23395   0.924   3.466   7.061  0.3544  0.0361 -0.5206
 3920SOL    HW123396   0.961   3.549   7.032  2.2218 -1.0296 -1.1474
 3920SOL    HW223397   0.927   3.478   7.156 -1.2797 -0.2374 -0.4268
 3921SOL     OW23398   4.393   4.529   2.625  0.4716 -0.2575  0.0814
 3921SOL    HW123399   4.405   4.436   2.607  1.6471 -0.0725 -0.0650
 3921SOL    HW223400   4.447   4.570   2.557  1.7146 -1.6837  0.2108
 3922SOL     OW23401   0.617   2.774   7.052  0.2572 -0.2359 -0.3544
 3922SOL    HW123402   0.707   2.803   7.042  0.5924 -1.7393 -1.7484
 3922SOL    HW223403   0.568   2.845   7.011 -2.6691 -1.5738  0.7694
 3923SOL     OW23404   2.572   2.483   1.987  0.2516 -0.0123  0.0879
 3923SOL    HW123405   2.617   2.502   2.069  0.4031  1.9995 -0.4538
 3923SOL    HW223406   2.489   2.448   2.017  0.2517  0.3890  0.5509
 3924SOL     OW23407   3.004   1.724   2.695  0.1606  0.2213 -0.1148
 3924SOL    HW123408   2.970   1.796   2.748 -1.0513 -0.4243  0.0074
 3924SOL    HW223409   2.942   1.652   2.711  1.6101 -0.6741  1.4841
 3925SOL     OW23410   0.521   4.116  10.471 -0.0096 -0.0944  0.0493
 3925SOL    HW123411   0.483   4.098  10.557 -0.2157  0.2805  0.0379
 3925SOL    HW223412   0.495   4.041  10.418 -0.9632  0.3104 -0.0573
 3926SOL     OW23413   4.730   3.195  10.569  0.1864  0.4548  0.1849
 3926SOL    HW123414   4.638   3.201  10.592  0.8112  0.1109  2.7023
 3926SOL    HW223415   4.720   3.140  10.491 -1.0862  0.8478  0.0623
 3927SOL     OW23416   0.044   0.758   7.158  0.5404  0.0970 -0.2905
 3927SOL    HW123417   0.003   0.808   7.088  0.0402  2.8388  1.9883
 3927SOL    HW223418   4.719   0.688   7.163  0.7503 -0.0529  0.3316
 3928SOL     OW23419   2.485   3.130   6.618 -0.0221  0.4364  0.2025
 3928SOL    HW123420   2.407   3.100   6.664  1.9245 -2.6216  1.5586
 3928SOL    HW223421   2.474   3.101   6.528  0.0510 -0.0651  0.3548
 3929SOL     OW23422   2.901   4.229   7.379 -0.0429 -0.4770  0.6135
 3929SOL    HW123423   2.847   4.152   7.396  1.8099 -1.6302  1.3350
 3929SOL    HW223424   2.835   4.290   7.347  1.2523  1.1565  1.0630
 3930SOL     OW23425   2.196   0.067  11.258 -0.5787 -0.1083 -0.5572
 3930SOL    HW123426   2.236   0.061  11.345 -1.9951  3.4221  0.2928
 3930SOL    HW223427   2.117   0.116  11.281  0.4460  0.4709  1.7890
 3931SOL     OW23428   2.135   2.236   4.040 -0.3500 -0.8869  0.0504
 3931SOL    HW123429   2.088   2.186   4.106  1.5067 -0.0181  2.0490
 3931SOL    HW223430   2.070   2.292   3.997 -0.9644 -0.9330  0.9343
 3932SOL     OW23431   1.274   2.034   2.511  0.3963  0.6403 -0.6451
 3932SOL    HW123432   1.290   2.080   2.593 -2.6207 -0.5777  0.6056
 3932SOL    HW223433   1.201   2.083   2.474 -0.6595  0.2501  0.9491
 3933SOL     OW23434   0.163   0.377  16.030  0.5577 -0.2229 -0.1139
 3933SOL    HW123435   0.091   0.437  16.053  1.4987  0.7664  0.2872
 3933SOL    HW223436   0.130   0.309  16.088  1.6634  0.2403  1.0691
 3934SOL     OW23437   3.376   4.141  17.480 -0.2044 -0.0113  0.0395
 3934SOL    HW123438   3.335   4.173  17.560 -0.5422  2.1982 -1.0221
 3934SOL    HW223439   3.451   4.091  17.512 -0.7716  0.0468  1.4550
 3935SOL     OW23440   1.425   2.721   8.431 -0.1742  0.4623 -0.0366
 3935SOL    HW123441   1.512   2.701   8.468 -0.0263 -0.8914 -1.1044
 3935SOL    HW223442   1.427   2.816   8.438 -0.3794  0.8885 -5.9310
 3936SOL     OW23443   1.063   0.490   8.926 -0.0985 -0.3111 -0.0834
 3936SOL    HW123444   1.075   0.493   8.831 -0.0431 -2.2710 -0.1350
 3936SOL    HW223445   1.080   0.581   8.950  0.6058 -0.8277  1.4476
 3937SOL     OW23446   0.576   4.427   5.909 -0.3111 -0.1617  0.0568
 3937SOL    HW123447   0.498   4.403   5.960 -0.0039  0.3611  0.7785
 3937SOL    HW223448   0.636   4.459   5.976 -0.5148  1.6665 -0.6505
 3938SOL     OW23449   1.733   3.027  10.284 -0.0835  0.5416 -0.5164
 3938SOL    HW123450   1.681   3.042  10.205  0.5600  2.2862 -0.6063
 3938SOL    HW223451   1.814   3.074  10.265  2.1733 -2.2673  2.1488
 3939SOL     OW23452   2.732   0.016   5.317 -0.0146  0.5185  1.0698
 3939SOL    HW123453   2.738   0.063   5.234 -1.5154 -1.9576 -0.4424
 3939SOL    HW223454   2.700   0.082   5.378 -1.1959 -1.3130  2.4319
 3940SOL     OW23455   0.395   0.062  12.998 -0.0984  0.4529 -0.2619
 3940SOL    HW123456   0.437   0.143  12.969 -0.5657  1.0775  0.7779
 3940SOL    HW223457   0.416   0.063  13.092 -3.0576  0.4090  0.3894
 3941SOL     OW23458   0.012   3.001   8.345  0.1305  0.3424  0.3955
 3941SOL    HW123459   0.060   2.928   8.385 -0.7692  0.5020  1.7470
 3941SOL    HW223460   0.004   2.982   8.252  0.2653 -0.1264  0.4799
 3942SOL     OW23461   3.240   0.785  15.569  0.2445 -0.1307  0.2591
 3942SOL    HW123462   3.207   0.819  15.486  1.0145 -1.0561 -0.4214
 3942SOL    HW223463   3.289   0.863  15.595 -0.6251  0.0910  1.2214
 3943SOL     OW23464   2.442   0.538   2.447 -0.0934 -0.4186  0.3800
 3943SOL    HW123465   2.443   0.550   2.542  0.7373 -0.1431  0.3349
 3943SOL    HW223466   2.351   0.566   2.435 -1.0299 -3.7558 -0.2625
 3944SOL     OW23467   2.256   4.414   6.704 -0.4038 -0.5262  0.2294
 3944SOL    HW123468   2.218   4.495   6.738  0.6839  0.2203 -0.3238
 3944SOL    HW223469   2.348   4.442   6.710 -0.0180 -2.0028  1.0751
 3945SOL     OW23470   4.077   1.859   0.013  0.5183  0.1578 -0.2999
 3945SOL    HW123471   4.030   1.941   0.027 -0.6310 -0.5882  0.2021
 3945SOL    HW223472   4.161   1.887   0.049  0.3296  0.7514 -0.3147
 3946SOL     OW23473   2.117   4.690  13.798 -0.6394 -0.2843 -0.4954
 3946SOL    HW123474   2.152   4.649  13.878  0.7102 -2.4451 -2.1920
 3946SOL    HW223475   2.036   4.638  13.794 -0.7311 -0.3331  1.5998
 3947SOL     OW23476   2.713   1.235   7.384 -0.0498 -0.0033  0.3053
 3947SOL    HW123477   2.714   1.232   7.480  0.7065 -3.0811  0.2057
 3947SOL    HW223478   2.796   1.278   7.364  0.6469 -2.0559 -1.2285
 3948SOL     OW23479   1.279   0.660   8.272 -0.1190  0.6438 -0.0279
 3948SOL    HW123480   1.225   0.618   8.338  1.5924  1.2691  1.7762
 3948SOL    HW223481   1.327   0.581   8.248 -0.6565  0.2450  0.2049
 3949SOL     OW23482   1.380   2.757  11.244 -0.4828 -0.3828  0.2483
 3949SOL    HW123483   1.464   2.802  11.252 -1.6842  2.1460 -1.7058
 3949SOL    HW223484   1.412   2.677  11.202  0.8826  0.7651 -0.8613
 3950SOL     OW23485   1.358   1.950   1.663 -0.2349 -0.0888  0.1920
 3950SOL    HW123486   1.424   2.000   1.712 -0.8233  0.6325  0.2608
 3950SOL    HW223487   1.412   1.919   1.590  2.2674  1.7910  1.2230
 3951SOL     OW23488   0.278   4.043  14.265  0.4887 -0.2587 -0.5409
 3951SOL    HW123489   0.259   4.107  14.333 -0.1141 -0.2666 -0.7083
 3951SOL    HW223490   0.270   4.096  14.186 -0.2003  1.2569  0.5578
 3952SOL     OW23491   2.314   1.493   4.539 -0.2970 -0.0856  0.0030
 3952SOL    HW123492   2.219   1.488   4.523 -0.2576 -1.2667  0.1558
 3952SOL    HW223493   2.353   1.407   4.524 -0.6811 -0.6436  2.2080
 3953SOL     OW23494   1.190   2.156   2.733  0.1470  0.2720  0.7174
 3953SOL    HW123495   1.164   2.227   2.792  2.5602  1.2251  0.6357
 3953SOL    HW223496   1.146   2.078   2.768 -0.4723  1.0316  1.6124
 3954SOL     OW23497   1.334   1.605   5.464  1.0299  0.0875 -0.5177
 3954SOL    HW123498   1.315   1.552   5.386 -1.3951 -0.6912  0.5831
 3954SOL    HW223499   1.340   1.534   5.529  1.4931 -0.5979 -1.3057
 3955SOL     OW23500   1.941   0.119   5.271  0.2940  0.2522  0.1224
 3955SOL    HW123501   1.980   0.090   5.354 -0.3133 -2.5311 -0.5935
 3955SOL    HW223502   1.852   0.094   5.292 -0.2223  2.5755  0.7083
 3956SOL     OW23503   3.673   3.345   5.591 -0.0528 -0.0704  0.3318
 3956SOL    HW123504   3.686   3.303   5.506  1.1008  0.7475  0.1062
 3956SOL    HW223505   3.687   3.271   5.650  2.5913 -0.2571 -0.5081
 3957SOL     OW23506   4.492   3.997   9.427  0.2579 -0.2075 -0.5692
 3957SOL    HW123507   4.397   4.006   9.433  0.2152 -1.1088  0.0865
 3957SOL    HW223508   4.525   4.067   9.484 -0.4525 -0.0796 -0.3072
 3958SOL     OW23509   0.980   4.213   8.952  0.0336 -0.4327  0.4753
 3958SOL    HW123510   0.995   4.217   9.047 -2.0281  1.9394  0.6953
 3958SOL    HW223511   1.042   4.141   8.941 -0.4781 -0.9739  1.0600
 3959SOL     OW23512   4.009   1.214   2.662 -0.5634  0.1604 -0.1353
 3959SOL    HW123513   3.968   1.187   2.744 -0.2420 -1.1685 -0.4015
 3959SOL    HW223514   4.029   1.301   2.695  0.0857  0.8880 -2.4316
 3960SOL     OW23515   3.642   3.979   8.461 -0.4106 -0.3230  0.6333
 3960SOL    HW123516   3.573   3.923   8.425 -0.8019  0.4350  0.1995
 3960SOL    HW223517   3.713   3.961   8.399 -0.2224  2.7852 -0.0392
 3961SOL     OW23518   2.387   3.725   4.796 -0.5880 -0.1298  0.3924
 3961SOL    HW123519   2.414   3.753   4.884 -2.2654  1.8110  0.2626
 3961SOL    HW223520   2.362   3.802   4.745  0.5323 -0.5199 -0.7480
 3962SOL     OW23521   0.239   4.497   8.998  0.1220  0.3216  0.2437
 3962SOL    HW123522   0.193   4.413   8.997 -1.6855  1.3208 -1.2551
 3962SOL    HW223523   0.172   4.546   9.046 -0.4156 -1.6314  1.4853
 3963SOL     OW23524   0.883   1.076   9.254  0.3921  0.5707 -0.1473
 3963SOL    HW123525   0.974   1.062   9.280  0.2213  0.2336  0.2586
 3963SOL    HW223526   0.846   1.053   9.339 -1.8938  2.2238 -0.6951
 3964SOL     OW23527   1.583   2.060   2.446 -0.0765  0.1289 -0.1540
 3964SOL    HW123528   1.515   1.994   2.431 -2.1722  2.1014  0.5445
 3964SOL    HW223529   1.568   2.078   2.539  1.5434 -2.8448  0.6853
 3965SOL     OW23530   1.487   3.407   4.107 -0.6101 -0.3253  0.3027
 3965SOL    HW123531   1.424   3.422   4.036  1.2207  2.1415 -0.7730
 3965SOL    HW223532   1.441   3.336   4.152 -2.1022 -0.0380 -0.7602
 3966SOL     OW23533   4.105   0.264   6.333 -0.2091  0.5155 -0.3313
 3966SOL    HW123534   4.133   0.201   6.399 -1.7254  0.1429 -0.0570
 3966SOL    HW223535   4.053   0.209   6.275 -3.5693  0.9498  2.3061
 3967SOL     OW23536   2.721   0.018  15.339 -0.1508 -0.0668  0.1523
 3967SOL    HW123537   2.649   4.735  15.398 -2.0086  1.9810 -1.3767
 3967SOL    HW223538   2.682   4.709  15.266  2.0102 -1.1024 -0.3094
 3968SOL     OW23539   0.138   2.962  12.066 -1.0435  0.4453 -0.2239
 3968SOL    HW123540   0.154   2.879  12.021  2.3659  0.5153  0.8243
 3968SOL    HW223541   0.180   2.935  12.148 -0.6012  2.8115  0.3362
 3969SOL     OW23542   4.669   0.476   8.434 -0.3235  0.9060 -0.4501
 3969SOL    HW123543   4.643   0.389   8.405 -0.5941  1.0129 -0.5294
 3969SOL    HW223544   0.016   0.463   8.471 -0.5539 -0.5453 -0.4178
 3970SOL     OW23545   3.782   0.294   2.746  0.0080  0.2107  0.1494
 3970SOL    HW123546   3.728   0.351   2.690 -0.1084 -0.8906 -0.8525
 3970SOL    HW223547   3.867   0.334   2.727 -0.5285  0.1552 -2.3166
 3971SOL     OW23548   0.025   1.181   7.776 -0.3245  0.2375  0.3505
 3971SOL    HW123549   0.039   1.203   7.684  4.3605 -0.6689  0.8440
 3971SOL    HW223550   0.065   1.095   7.766 -2.1199 -0.8194  2.3754
 3972SOL     OW23551   3.781   4.618   9.862  0.1716  0.8219  0.5936
 3972SOL    HW123552   3.853   4.614   9.925  0.6435 -1.4067 -0.1073
 3972SOL    HW223553   3.697   4.624   9.906  0.0501 -1.4214  0.6510
 3973SOL     OW23554   0.460   3.723   6.199 -0.2807 -0.2249 -0.4278
 3973SOL    HW123555   0.401   3.650   6.184  1.5950 -2.0197  0.8736
 3973SOL    HW223556   0.539   3.670   6.209  0.5026  1.6108  3.2947
 3974SOL     OW23557   0.408   2.289  17.005  0.2194  0.0666  0.3581
 3974SOL    HW123558   0.422   2.209  17.057 -0.6153 -0.1164  0.2998
 3974SOL    HW223559   0.313   2.296  17.012  0.0137 -0.4375 -2.2672
 3975SOL     OW23560   1.851   4.235   0.448 -0.6258 -0.4658  0.3062
 3975SOL    HW123561   1.862   4.327   0.472 -1.5446 -0.5982  1.2070
 3975SOL    HW223562   1.874   4.200   0.534 -0.1859  0.8464  0.7313
 3976SOL     OW23563   2.987   0.493   4.044 -0.4011 -0.1235 -0.6969
 3976SOL    HW123564   2.904   0.541   4.043 -0.6447 -0.5054  0.7090
 3976SOL    HW223565   3.002   0.516   4.136  1.6509 -0.4216 -0.9682
 3977SOL     OW23566   3.268   1.578   9.558 -0.5458 -0.1202  0.2130
 3977SOL    HW123567   3.226   1.526   9.489  0.5744 -1.1564  0.3273
 3977SOL    HW223568   3.361   1.565   9.540 -0.5559 -0.0053  0.0769
 3978SOL     OW23569   3.419   1.789   6.482 -0.0877 -0.0386  0.2763
 3978SOL    HW123570   3.483   1.765   6.416 -0.2219  0.1789  0.0666
 3978SOL    HW223571   3.483   1.824   6.544 -0.0103  0.9098 -0.3426
 3979SOL     OW23572   4.232   0.022   1.604 -0.3401 -0.0010  0.0020
 3979SOL    HW123573   4.243   4.672   1.637  0.4634  0.2805  0.4854
 3979SOL    HW223574   4.136   0.028   1.607 -0.4022  0.1128 -2.7541
 3980SOL     OW23575   3.206   4.656   8.633  0.8100  0.0253 -0.5166
 3980SOL    HW123576   3.116   4.683   8.614  0.2268 -0.4108  1.6389
 3980SOL    HW223577   3.224   4.705   8.713  0.1988  0.9601 -0.9366
 3981SOL     OW23578   2.763   3.486   8.469 -0.2193 -0.2704  0.1191
 3981SOL    HW123579   2.829   3.421   8.492  0.2802  0.4577  0.7815
 3981SOL    HW223580   2.808   3.535   8.399 -1.2014  0.1986 -0.1773
 3982SOL     OW23581   2.098   0.850   9.345  0.6672 -0.2439 -0.2376
 3982SOL    HW123582   2.155   0.790   9.393  2.3585  1.3440 -0.2366
 3982SOL    HW223583   2.069   0.904   9.418  1.0995 -1.1097  0.5754
 3983SOL     OW23584   3.277   0.171   1.854 -0.0298  0.0976 -0.4870
 3983SOL    HW123585   3.284   0.236   1.924  1.9009 -1.4295  0.7364
 3983SOL    HW223586   3.215   0.113   1.898  1.7671 -0.6423  1.1115
 3984SOL     OW23587   0.002   0.869   7.527 -0.4703  0.4101 -0.1402
 3984SOL    HW123588   4.693   0.830   7.454  0.4465 -1.5929  0.3221
 3984SOL    HW223589   0.090   0.832   7.520 -0.1412  0.7589  2.2542
 3985SOL     OW23590   4.519   0.958  12.747 -0.3325  0.3011 -0.8232
 3985SOL    HW123591   4.550   0.941  12.837  0.7080  0.4323 -1.1514
 3985SOL    HW223592   4.588   0.912  12.699  0.4143 -1.6774  2.0779
 3986SOL     OW23593   0.834   2.652   2.098  0.0495  0.0680 -0.1382
 3986SOL    HW123594   0.750   2.651   2.052  0.7863  0.3327 -1.4594
 3986SOL    HW223595   0.795   2.643   2.185  0.9109 -2.8736 -0.0523
 3987SOL     OW23596   4.208   4.014   0.474  0.2984 -0.3668  0.4511
 3987SOL    HW123597   4.288   3.971   0.505 -0.0644 -2.1351 -1.0402
 3987SOL    HW223598   4.158   3.936   0.450 -2.3835  1.7571 -0.8903
 3988SOL     OW23599   4.148   2.984   8.559  0.0412 -0.0614 -0.7049
 3988SOL    HW123600   4.055   2.984   8.538 -0.2749 -2.4117  0.6863
 3988SOL    HW223601   4.161   2.893   8.534 -1.9707  0.4350 -3.5295
 3989SOL     OW23602   1.328   1.101  14.629  0.1498 -0.0584  0.1301
 3989SOL    HW123603   1.244   1.057  14.617 -0.2955  0.8356 -0.0232
 3989SOL    HW223604   1.377   1.041  14.684  1.0967 -2.0434 -2.8559
 3990SOL     OW23605   1.739   2.158   6.797  0.1893  0.0980 -0.1416
 3990SOL    HW123606   1.792   2.220   6.848  2.3852 -2.8274  1.1660
 3990SOL    HW223607   1.675   2.162   6.868  0.0033 -0.6673 -0.2687
 3991SOL     OW23608   3.945   4.418   9.378  0.4265  0.3189  0.5666
 3991SOL    HW123609   3.941   4.399   9.472  2.0843  1.0378  0.7685
 3991SOL    HW223610   3.888   4.351   9.340 -0.4232 -0.0106  2.4220
 3992SOL     OW23611   0.495   1.710  11.947 -0.0322  0.6195 -0.0601
 3992SOL    HW123612   0.427   1.775  11.966  0.1676  0.7984  0.0480
 3992SOL    HW223613   0.554   1.706  12.023 -0.1246 -0.5405 -0.0483
 3993SOL     OW23614   1.847   3.216   0.834 -0.0261  0.1581 -0.0393
 3993SOL    HW123615   1.858   3.122   0.824  0.0346  0.1176  0.4111
 3993SOL    HW223616   1.900   3.237   0.912 -1.1438 -1.1702  1.0680
 3994SOL     OW23617   4.418   1.161   9.382 -0.3912  0.2213 -0.2332
 3994SOL    HW123618   4.440   1.244   9.339 -0.5975  0.7811  0.7588
 3994SOL    HW223619   4.401   1.102   9.308 -1.5147 -1.5866  1.4865
 3995SOL     OW23620   0.610   4.408   8.500 -0.1756 -0.0358  0.5700
 3995SOL    HW123621   0.568   4.440   8.421 -0.3032  1.0236  1.0655
 3995SOL    HW223622   0.694   4.454   8.500 -0.5446  0.6319 -0.9817
 3996SOL     OW23623   3.726   2.707   3.927  0.3684 -0.0380 -0.0214
 3996SOL    HW123624   3.774   2.629   3.957  0.8316  0.3060  0.1403
 3996SOL    HW223625   3.781   2.772   3.972  1.3461 -1.4624  0.8358
 3997SOL     OW23626   2.995   0.911   2.207 -0.5664 -0.6024 -0.1978
 3997SOL    HW123627   3.019   0.818   2.198 -0.1068 -0.1938 -3.0090
 3997SOL    HW223628   2.928   0.914   2.139 -0.5058 -0.5348 -0.2549
 3998SOL     OW23629   2.679   1.633   9.112  0.2000 -0.3548  0.2581
 3998SOL    HW123630   2.661   1.612   9.203 -0.2546  1.0319  0.4950
 3998SOL    HW223631   2.732   1.557   9.086  0.5906  0.1401 -0.4292
 3999SOL     OW23632   3.178   1.926   2.968  0.1469 -0.2571 -0.1578
 3999SOL    HW123633   3.214   1.837   2.964 -0.6650 -0.5765 -0.3529
 3999SOL    HW223634   3.105   1.917   3.029  0.3582  0.2856  0.1661
 4000SOL     OW23635   2.397   3.672   1.588 -0.2280  0.6007 -0.1070
 4000SOL    HW123636   2.303   3.684   1.605 -0.0944 -0.5122  1.3656
 4000SOL    HW223637   2.378   3.587   1.548  1.6249 -0.7938  1.9778
 4001SOL     OW23638   1.756   3.983  14.340 -0.3900 -0.2415 -0.3522
 4001SOL    HW123639   1.816   3.978  14.266 -1.8047  2.8629 -1.6889
 4001SOL    HW223640   1.682   4.023  14.294  0.5870 -0.9171 -2.5330
 4002SOL     OW23641   2.707   2.259   5.748  0.1420 -0.2920 -0.2697
 4002SOL    HW123642   2.782   2.263   5.807 -0.9036 -5.1733  1.3677
 4002SOL    HW223643   2.726   2.333   5.689 -0.2115 -0.1891 -0.2549
 4003SOL     OW23644   3.141   3.623   7.306  0.4768  0.7222  0.7230
 4003SOL    HW123645   3.160   3.541   7.261  0.4555  0.3657  1.3562
 4003SOL    HW223646   3.184   3.683   7.245  0.3846  1.1871  1.1148
 4004SOL     OW23647   4.159   3.231   3.794 -0.2404 -0.2732 -0.0468
 4004SOL    HW123648   4.162   3.249   3.888  1.3271  1.6825 -0.4813
 4004SOL    HW223649   4.071   3.256   3.768 -0.0898  1.8262  1.4517
 4005SOL     OW23650   0.527   0.223  13.856  0.0653 -0.8922 -0.2302
 4005SOL    HW123651   0.556   0.315  13.862  1.8585 -1.3329 -1.9786
 4005SOL    HW223652   0.470   0.234  13.779  1.5824  2.4594 -0.9025
 4006SOL     OW23653   1.341   2.799   6.840 -0.3623 -0.7857 -0.4706
 4006SOL    HW123654   1.349   2.791   6.745  0.5569 -0.7796 -0.3998
 4006SOL    HW223655   1.246   2.806   6.836 -0.2175  1.8388  0.9917
 4007SOL     OW23656   0.144   0.869   8.425  0.0585  0.2269  0.2100
 4007SOL    HW123657   0.118   0.843   8.513  0.1011 -3.1535 -0.7439
 4007SOL    HW223658   0.181   0.788   8.389  2.5514  2.6913 -2.7848
 4008SOL     OW23659   2.623   1.893  11.792  0.4447 -0.0024 -0.1679
 4008SOL    HW123660   2.689   1.828  11.816 -0.3570 -0.9813 -0.6182
 4008SOL    HW223661   2.554   1.826  11.798  1.2018 -0.8082 -0.3465
 4009SOL     OW23662   0.182   0.738   6.607 -0.3855 -0.1105 -0.4106
 4009SOL    HW123663   0.114   0.731   6.674 -0.2752  2.9974  0.0302
 4009SOL    HW223664   0.164   0.662   6.552 -2.5041  0.3231 -0.2921
 4010SOL     OW23665   4.182   0.299  13.979 -0.2850 -0.6603  0.3861
 4010SOL    HW123666   4.278   0.293  13.986 -0.2323  0.1659  0.4325
 4010SOL    HW223667   4.156   0.209  13.996 -1.6777 -0.3568 -0.1942
 4011SOL     OW23668   1.540   2.013   6.962 -0.0179  0.0019  0.4545
 4011SOL    HW123669   1.514   2.104   6.976  1.4733  0.8053 -2.0532
 4011SOL    HW223670   1.458   1.969   6.982  0.3871 -1.6587 -1.5490
 4012SOL     OW23671   4.488   2.949   7.590 -0.2800  0.1173 -0.3713
 4012SOL    HW123672   4.567   2.947   7.536 -0.2015 -0.9604 -0.2077
 4012SOL    HW223673   4.522   3.010   7.656  0.3712 -2.2072  1.4374
 4013SOL     OW23674   1.851   1.404   8.549  1.0064  0.2809  0.1998
 4013SOL    HW123675   1.801   1.468   8.499  0.7458 -1.5682 -1.8821
 4013SOL    HW223676   1.782   1.349   8.588  0.3688 -0.8271 -2.5061
 4014SOL     OW23677   4.395   1.484   0.351  0.1828  0.0309 -0.6719
 4014SOL    HW123678   4.308   1.477   0.390  0.5239 -0.8204 -0.0668
 4014SOL    HW223679   4.402   1.574   0.317 -2.8375  0.7352  0.4921
 4015SOL     OW23680   0.974   2.469  12.379  0.5862 -0.0923 -0.3467
 4015SOL    HW123681   1.062   2.466  12.341  1.2193 -0.7175  1.1571
 4015SOL    HW223682   0.920   2.487  12.303 -1.5766 -0.1463  1.1992
 4016SOL     OW23683   0.458   0.870   6.726  0.2431 -0.1737 -0.4685
 4016SOL    HW123684   0.394   0.816   6.681 -0.1540 -0.7054  0.7249
 4016SOL    HW223685   0.403   0.945   6.750  0.5673 -0.2434  0.4964
 4017SOL     OW23686   2.049   1.657  12.310  0.3325  0.2061  0.0972
 4017SOL    HW123687   2.135   1.648  12.351  0.0525  0.6877  0.7873
 4017SOL    HW223688   2.001   1.687  12.387 -1.4151 -2.2486 -0.0338
 4018SOL     OW23689   2.449   4.335   8.790  0.0291  0.3956 -0.1192
 4018SOL    HW123690   2.460   4.248   8.754 -0.8552  0.1819  0.1463
 4018SOL    HW223691   2.479   4.385   8.714  0.8533  0.8909  0.5282
 4019SOL     OW23692   0.529   1.645   1.246 -0.0529  0.5677 -0.3669
 4019SOL    HW123693   0.457   1.607   1.195 -0.4205 -3.0522  2.9012
 4019SOL    HW223694   0.543   1.582   1.317  0.6315 -0.1774 -1.1635
 4020SOL     OW23695   3.397   2.903   7.306  0.0663  0.3753  0.1593
 4020SOL    HW123696   3.329   2.966   7.282  0.5943  0.7625 -0.2833
 4020SOL    HW223697   3.351   2.870   7.384  2.8283  1.2507  2.1377
 4021SOL     OW23698   3.461   2.912   2.562  0.4958  0.0019  0.0474
 4021SOL    HW123699   3.369   2.938   2.552  0.8157  0.6126 -1.2932
 4021SOL    HW223700   3.506   2.968   2.498 -0.3914  0.4260 -0.2179
 4022SOL     OW23701   4.224   2.812  10.287 -0.0770  0.0749 -0.3195
 4022SOL    HW123702   4.308   2.814  10.332  0.2570  0.2087 -0.9537
 4022SOL    HW223703   4.243   2.755  10.212  1.4291  0.5352 -0.2941
 4023SOL     OW23704   4.031   2.906   3.590  0.3586 -0.2232  0.3981
 4023SOL    HW123705   3.964   2.927   3.525 -0.0099  0.8467  1.1214
 4023SOL    HW223706   4.107   2.916   3.534 -0.8097 -0.8143 -1.3004
 4024SOL     OW23707   0.760   3.146   8.544 -0.1669  0.3195 -0.0167
 4024SOL    HW123708   0.713   3.220   8.505  2.1082  0.6752 -2.1426
 4024SOL    HW223709   0.685   3.090   8.561 -1.1631  1.2804 -1.2921
 4025SOL     OW23710   1.857   2.025   9.716  0.4062  0.3575  0.3193
 4025SOL    HW123711   1.837   1.984   9.632  0.4979 -1.3478  1.1318
 4025SOL    HW223712   1.951   2.013   9.722  0.1617 -2.1554 -0.8951
 4026SOL     OW23713   3.174   3.264  10.137  0.0151 -0.2274  0.6100
 4026SOL    HW123714   3.245   3.200  10.131  0.4135  0.3835 -1.4214
 4026SOL    HW223715   3.217   3.344  10.106 -1.3417 -0.3045 -1.5347
 4027SOL     OW23716   3.276   2.686  16.867  0.2391  0.3907 -0.1416
 4027SOL    HW123717   3.209   2.617  16.867 -0.3450  0.9607  0.2009
 4027SOL    HW223718   3.269   2.726  16.781 -0.7632  2.4474  0.8805
 4028SOL     OW23719   4.228   3.352   6.091 -0.6978 -0.5995  0.0758
 4028SOL    HW123720   4.255   3.363   6.182  1.5265 -1.1885 -0.5318
 4028SOL    HW223721   4.195   3.262   6.094 -1.7404 -0.2921 -1.9064
 4029SOL     OW23722   0.680   3.588   1.010  0.1782 -0.4104 -0.0617
 4029SOL    HW123723   0.585   3.580   1.008  0.0840  1.2232 -1.7988
 4029SOL    HW223724   0.678   3.683   1.017  2.0743 -0.4792  1.4356
 4030SOL     OW23725   4.500   1.516  17.033 -0.1074  0.4099  0.0670
 4030SOL    HW123726   4.579   1.545  17.081  2.3271 -1.4392 -2.8281
 4030SOL    HW223727   4.430   1.554  17.086 -0.7826 -0.1824 -0.4142
 4031SOL     OW23728   3.226   3.001   8.951  0.1254 -0.5107 -0.3207
 4031SOL    HW123729   3.212   2.956   9.034 -0.4210 -0.9737 -0.6613
 4031SOL    HW223730   3.152   3.062   8.941 -0.7710 -1.4697  0.3947
 4032SOL     OW23731   1.230   3.732   7.768 -0.5163 -0.3069 -0.3861
 4032SOL    HW123732   1.156   3.698   7.818 -2.0216  2.7831 -0.5443
 4032SOL    HW223733   1.300   3.711   7.830 -0.8766 -0.9997 -0.2100
 4033SOL     OW23734   1.590   3.625   8.436 -0.1709 -0.0212 -0.1353
 4033SOL    HW123735   1.621   3.626   8.345 -0.1181 -3.7106 -0.1488
 4033SOL    HW223736   1.643   3.695   8.475 -2.2367  1.0612  0.7338
 4034SOL     OW23737   1.596   3.887   6.515  0.9388 -0.1755  0.3289
 4034SOL    HW123738   1.592   3.965   6.572  1.6667 -0.4691  0.7812
 4034SOL    HW223739   1.690   3.884   6.497  0.8933  0.5524 -0.0418
 4035SOL     OW23740   2.447   2.544   7.003 -0.1891  0.3563 -0.5030
 4035SOL    HW123741   2.509   2.503   6.942 -1.7545 -2.3618 -0.2631
 4035SOL    HW223742   2.507   2.545   7.077  1.4045  0.5595 -1.7873
 4036SOL     OW23743   0.982   3.590  13.255 -0.1861 -0.5422 -0.0859
 4036SOL    HW123744   1.031   3.530  13.310  2.3091  0.3983 -1.2667
 4036SOL    HW223745   1.026   3.586  13.169  2.2692 -1.0388  1.1798
 4037SOL     OW23746   0.855   3.677   9.077  0.1709 -0.1283  0.3653
 4037SOL    HW123747   0.816   3.759   9.049  0.0724 -0.0361  0.7651
 4037SOL    HW223748   0.808   3.661   9.159  1.2015 -2.0204  0.6153
 4038SOL     OW23749   2.184   1.803  16.689 -0.1077  0.1883  0.0109
 4038SOL    HW123750   2.172   1.726  16.746  1.1818  0.2809  0.4107
 4038SOL    HW223751   2.139   1.862  16.749  1.5248  0.0226  1.4153
 4039SOL     OW23752   4.341   1.264   7.814  0.0484  0.4047 -0.0439
 4039SOL    HW123753   4.285   1.207   7.762 -2.5911  1.9265  1.1103
 4039SOL    HW223754   4.280   1.332   7.843 -0.3910  0.5114 -1.2545
 4040SOL     OW23755   0.525   0.319   0.837  0.1397 -0.3473 -0.4972
 4040SOL    HW123756   0.487   0.370   0.908  0.0385  0.0392 -0.8288
 4040SOL    HW223757   0.587   0.385   0.805  3.1194 -1.6474  2.5020
 4041SOL     OW23758   2.919   3.604   8.278  0.4906  0.5334  0.4338
 4041SOL    HW123759   2.976   3.564   8.212 -1.6381 -2.0802  0.1912
 4041SOL    HW223760   2.986   3.655   8.323 -0.3413  1.1643  0.9621
 4042SOL     OW23761   0.004   0.048   3.218  0.6967 -0.9621  0.1860
 4042SOL    HW123762   4.653   0.075   3.201  0.9752 -1.7835 -2.5858
 4042SOL    HW223763   0.008   4.739   3.300  3.0411  0.0095  0.6432
 4043SOL     OW23764   2.036   3.853  13.528 -0.2526 -0.3365  0.2202
 4043SOL    HW123765   2.016   3.760  13.541 -1.0334 -0.2354 -0.2607
 4043SOL    HW223766   2.055   3.853  13.434  1.1994  0.4820  0.5258
 4044SOL     OW23767   1.202   0.082  11.121  0.2863 -0.0169 -0.2743
 4044SOL    HW123768   1.215   0.160  11.175  0.0205 -0.6776  0.7411
 4044SOL    HW223769   1.272   0.024  11.152  1.4371  0.9969 -0.9932
 4045SOL     OW23770   0.059   0.277   0.163  0.0404  0.5227 -0.1294
 4045SOL    HW123771   0.075   0.331   0.241 -0.1285 -0.3458  0.5100
 4045SOL    HW223772   0.062   0.185   0.190  1.6538  0.2137 -1.3190
 4046SOL     OW23773   2.449   2.926   2.746 -0.2904  0.0846 -0.2556
 4046SOL    HW123774   2.437   2.956   2.836  0.4235 -0.1264 -0.0934
 4046SOL    HW223775   2.487   3.005   2.708  0.7284 -0.2457  0.0978
 4047SOL     OW23776   4.458   1.771   1.728  0.2891  0.0687  0.3325
 4047SOL    HW123777   4.472   1.810   1.814 -1.4491 -1.5979  1.3869
 4047SOL    HW223778   4.375   1.726   1.744  0.6402 -1.4466 -2.0191
 4048SOL     OW23779   2.754   3.520   2.579 -0.3633 -0.1102 -0.5032
 4048SOL    HW123780   2.744   3.472   2.496  0.2618 -1.5747  0.2638
 4048SOL    HW223781   2.755   3.610   2.547 -2.0100  0.3218  0.6714
 4049SOL     OW23782   2.630   0.343   1.769  0.2595 -0.1610  0.2760
 4049SOL    HW123783   2.577   0.409   1.814  2.7855  1.6082  0.6066
 4049SOL    HW223784   2.723   0.357   1.787 -0.1101  0.7662  1.5249
 4050SOL     OW23785   0.951   2.880   2.201  0.1886 -0.0383 -0.0681
 4050SOL    HW123786   0.864   2.912   2.225 -0.2318  0.1576 -1.8429
 4050SOL    HW223787   0.929   2.816   2.133 -3.9310 -0.5787  1.7423
 4051SOL     OW23788   1.811   3.507  10.629 -0.4872 -0.5700  0.3268
 4051SOL    HW123789   1.722   3.472  10.627 -0.6764 -0.0028 -1.4911
 4051SOL    HW223790   1.859   3.437  10.673 -1.9704 -1.1387  1.0082
 4052SOL     OW23791   4.074   2.443   6.390 -0.7694 -0.1783  0.3132
 4052SOL    HW123792   4.045   2.532   6.370  0.9834  0.1818 -0.6473
 4052SOL    HW223793   3.996   2.391   6.370 -0.8507 -1.2320  3.3020
 4053SOL     OW23794   4.227   0.497  15.093 -0.2503  0.4637  0.6566
 4053SOL    HW123795   4.193   0.562  15.155 -3.3886 -0.4602 -0.0847
 4053SOL    HW223796   4.162   0.427  15.090 -1.1503  1.5191 -4.0878
 4054SOL     OW23797   4.491   0.561   4.826 -0.1632 -0.5300  0.3828
 4054SOL    HW123798   4.408   0.608   4.829 -0.3200 -0.6632 -1.6953
 4054SOL    HW223799   4.462   0.471   4.814  0.5381 -0.6168 -0.7298
 4055SOL     OW23800   1.023   2.415  12.938  0.4400  0.1761  0.5671
 4055SOL    HW123801   1.009   2.358  13.013  1.9839  0.2082  0.8706
 4055SOL    HW223802   0.937   2.407  12.895  1.0923 -2.2842 -0.2946
 4056SOL     OW23803   3.688   1.141   4.939 -0.4334  0.0772 -0.4616
 4056SOL    HW123804   3.698   1.176   4.851 -1.9886 -0.9188 -1.0442
 4056SOL    HW223805   3.777   1.121   4.968 -0.4151  0.4633 -0.2522
 4057SOL     OW23806   4.192   2.099   2.588 -0.0417 -0.1735  0.0407
 4057SOL    HW123807   4.163   2.008   2.593 -0.2313 -0.1180 -0.0509
 4057SOL    HW223808   4.186   2.105   2.492 -0.3990 -2.1930 -0.0641
 4058SOL     OW23809   1.269   0.454  10.281 -0.0429 -0.3884  0.2980
 4058SOL    HW123810   1.246   0.367  10.313  2.1251 -0.8457  0.6665
 4058SOL    HW223811   1.273   0.514  10.355  1.1396 -1.8270  1.3954
 4059SOL     OW23812   0.467   4.012  10.707 -0.0081 -0.4238 -0.2388
 4059SOL    HW123813   0.443   3.929  10.748  1.3073 -1.3734 -1.3612
 4059SOL    HW223814   0.560   4.031  10.722 -0.2707  1.1677 -0.6373
 4060SOL     OW23815   1.513   0.294   6.133  0.7825  0.4024  0.0072
 4060SOL    HW123816   1.501   0.217   6.077  0.2742  1.7099 -1.6469
 4060SOL    HW223817   1.608   0.285   6.143  0.2585 -3.7229  1.6343
 4061SOL     OW23818   0.201   1.756   5.188 -0.3369  0.0593  0.6440
 4061SOL    HW123819   0.267   1.776   5.255  0.1057  1.1657 -0.1210
 4061SOL    HW223820   0.251   1.764   5.107 -0.7782 -0.5501  0.3126
 4062SOL     OW23821   1.753   3.187   9.473  0.4686  0.5135  0.4367
 4062SOL    HW123822   1.739   3.139   9.392  1.1431  0.9291  0.0759
 4062SOL    HW223823   1.823   3.149   9.525  0.7318  3.3202  2.1668
 4063SOL     OW23824   0.251   4.166   2.498 -0.1023  0.2350  0.1012
 4063SOL    HW123825   0.335   4.173   2.454 -0.3316 -0.7640 -0.4737
 4063SOL    HW223826   0.256   4.071   2.505 -0.1264  0.2650  0.5721
 4064SOL     OW23827   2.197   2.241   6.621  0.1030 -0.6799 -0.8901
 4064SOL    HW123828   2.130   2.230   6.554 -0.3345  1.4310 -0.8067
 4064SOL    HW223829   2.174   2.159   6.666 -1.5423  1.5187  2.3506
 4065SOL     OW23830   4.579   1.939   6.897  0.3124 -0.0692  0.5526
 4065SOL    HW123831   4.496   1.957   6.940  0.5459  2.5261 -0.0388
 4065SOL    HW223832   4.542   1.968   6.814  2.4476  1.1761  0.0201
 4066SOL     OW23833   1.717   0.079   5.487  0.1023 -0.0394 -0.1480
 4066SOL    HW123834   1.682   0.000   5.528  0.0591 -0.0731 -0.2492
 4066SOL    HW223835   1.812   0.070   5.497 -0.0611 -1.3860  0.1700
 4067SOL     OW23836   3.604   0.483   2.586 -0.6010  0.3236 -0.4017
 4067SOL    HW123837   3.556   0.464   2.667 -0.0209 -0.1593 -0.1631
 4067SOL    HW223838   3.556   0.554   2.544  1.0939  3.0147  2.2225
 4068SOL     OW23839   4.321   0.389  10.862 -0.5626  0.0305  0.2260
 4068SOL    HW123840   4.238   0.429  10.835 -0.7276 -1.1876 -1.0338
 4068SOL    HW223841   4.322   0.430  10.949 -0.3524 -0.5502  0.5002
 4069SOL     OW23842   2.331   3.714   7.462  0.0830 -0.0971 -0.6092
 4069SOL    HW123843   2.356   3.806   7.454  1.5250 -0.4418 -0.0557
 4069SOL    HW223844   2.405   3.666   7.501 -0.8451 -0.8950  0.1881
 4070SOL     OW23845   2.455   2.201   6.709  0.1600  0.1321 -0.0277
 4070SOL    HW123846   2.447   2.146   6.787 -0.2491  1.5898  0.9712
 4070SOL    HW223847   2.364   2.230   6.697 -0.6535 -1.4592  2.3146
 4071SOL     OW23848   4.602   4.304  17.216  0.0623  0.5057  0.1969
 4071SOL    HW123849   4.636   4.326  17.303  1.5032  0.2395 -0.3058
 4071SOL    HW223850   4.657   4.229  17.192  1.0283  1.7507 -1.4993
 4072SOL     OW23851   4.056   0.967   6.162  0.3351  0.2486 -0.2166
 4072SOL    HW123852   3.980   0.923   6.124  0.9444 -0.3317 -0.7616
 4072SOL    HW223853   4.038   1.059   6.144 -1.9615 -0.2221 -0.3525
 4073SOL     OW23854   2.293   1.618   6.307  0.1292  0.2440  0.6204
 4073SOL    HW123855   2.312   1.619   6.213  0.5314 -2.3159  0.6660
 4073SOL    HW223856   2.379   1.602   6.348  1.5478 -0.3274 -2.5719
 4074SOL     OW23857   4.466   2.840   4.965 -0.2274  0.7466  0.0159
 4074SOL    HW123858   4.387   2.786   4.968  2.3439 -2.9631  1.4855
 4074SOL    HW223859   4.448   2.898   5.039 -1.5981 -1.4403  1.4269
 4075SOL     OW23860   4.282   2.832   2.103 -0.2019  0.2389  0.1439
 4075SOL    HW123861   4.249   2.748   2.135  2.3648 -0.1652  1.7490
 4075SOL    HW223862   4.270   2.892   2.177 -2.0966  0.7814 -0.6220
 4076SOL     OW23863   2.626   3.348   9.218  0.2082 -0.1493 -0.3647
 4076SOL    HW123864   2.536   3.318   9.206  0.8376 -1.5617 -1.5114
 4076SOL    HW223865   2.650   3.293   9.292 -0.5436 -0.6261 -0.4789
 4077SOL     OW23866   0.311   1.407   1.412 -0.1528 -0.2518 -0.6374
 4077SOL    HW123867   0.311   1.478   1.347  2.6426 -1.0308 -1.4821
 4077SOL    HW223868   0.224   1.368   1.402 -0.5792  0.1637  1.5193
 4078SOL     OW23869   4.546   0.491   3.813 -1.0785  0.1836  0.2439
 4078SOL    HW123870   4.529   0.547   3.737 -1.4898  0.1240  0.2939
 4078SOL    HW223871   4.627   0.445   3.788 -0.9649 -0.0080  0.9649
 4079SOL     OW23872   3.458   2.305   5.375 -0.0538 -0.3693 -0.5721
 4079SOL    HW123873   3.485   2.222   5.335  2.4424  0.1460  0.0384
 4079SOL    HW223874   3.397   2.267   5.438 -1.4202  1.0866 -1.0392
 4080SOL     OW23875   1.954   2.248   5.622 -0.2164 -0.5655  0.2691
 4080SOL    HW123876   1.903   2.177   5.582 -1.2627  0.9888 -1.1517
 4080SOL    HW223877   1.901   2.261   5.701 -1.0722  1.5523 -0.6576
 4081SOL     OW23878   3.844   2.890   4.379  0.2315 -0.2265 -0.4220
 4081SOL    HW123879   3.779   2.903   4.448  0.8358  1.1085 -0.1039
 4081SOL    HW223880   3.920   2.916   4.430  0.1187 -1.5313  0.3988
 4082SOL     OW23881   1.633   2.793   2.881  0.5417  0.7275 -0.5579
 4082SOL    HW123882   1.540   2.817   2.887  0.4192 -0.1271  1.0945
 4082SOL    HW223883   1.677   2.844   2.948 -0.2313  3.2049 -1.9315
 4083SOL     OW23884   4.514   0.826   4.109 -0.0365 -0.3585  0.0255
 4083SOL    HW123885   4.446   0.816   4.042  0.0239 -0.9184  0.0502
 4083SOL    HW223886   4.497   0.751   4.166 -0.2797 -0.1716  0.1936
 4084SOL     OW23887   0.968   2.643   3.715  0.8599  0.0514  0.3873
 4084SOL    HW123888   0.946   2.722   3.666  1.1028  0.2590  0.6120
 4084SOL    HW223889   1.014   2.672   3.794  1.2171 -0.8033  0.4927
 4085SOL     OW23890   4.359   0.054   7.674  0.0633 -0.4747  0.2900
 4085SOL    HW123891   4.361   0.050   7.578 -2.7998 -0.6090  0.2549
 4085SOL    HW223892   4.265   0.049   7.688  0.2024  0.2325  1.4422
 4086SOL     OW23893   0.017   4.553   7.134  0.2724  0.1834 -0.2927
 4086SOL    HW123894   0.090   4.601   7.173  1.4480 -1.3064 -0.6388
 4086SOL    HW223895   4.688   4.619   7.142 -1.6463 -1.8600  0.2231
 4087SOL     OW23896   4.477   1.264   2.520  0.0797 -0.6013 -0.4871
 4087SOL    HW123897   4.550   1.293   2.465  0.3101 -0.2936 -0.0271
 4087SOL    HW223898   4.525   1.196   2.568  1.0821 -0.2363 -0.9619
 4088SOL     OW23899   3.970   0.686   5.833 -0.5554  0.6854  0.1304
 4088SOL    HW123900   3.939   0.776   5.822  0.4865  0.9831 -0.3774
 4088SOL    HW223901   3.914   0.639   5.772  0.1598 -2.8038  2.1516
 4089SOL     OW23902   1.114   3.584   8.735 -0.3324 -0.2039 -0.2060
 4089SOL    HW123903   1.034   3.535   8.715 -0.2218  0.1826 -1.5587
 4089SOL    HW223904   1.109   3.571   8.830 -0.8317  1.2153 -0.0356
 4090SOL     OW23905   4.487   1.875   4.654 -0.0752  0.2360 -0.1308
 4090SOL    HW123906   4.399   1.868   4.617  0.7262 -0.5719 -1.9048
 4090SOL    HW223907   4.540   1.864   4.575  0.4890 -1.8169  0.5291
 4091SOL     OW23908   1.769   3.606  13.324  0.2609 -0.3747 -0.1700
 4091SOL    HW123909   1.776   3.697  13.352 -0.3034 -0.1072 -0.8812
 4091SOL    HW223910   1.711   3.609  13.248 -0.4773  0.8601  0.4340
 4092SOL     OW23911   4.013   3.493   5.301 -0.1357  0.0153 -0.3868
 4092SOL    HW123912   3.973   3.507   5.387 -1.6560  3.1229 -1.6053
 4092SOL    HW223913   4.009   3.397   5.299 -5.8265  0.2511  1.9086
 4093SOL     OW23914   1.131   1.416   0.552 -0.2526  0.2133 -0.0859
 4093SOL    HW123915   1.040   1.445   0.537 -0.1614  0.3663 -0.3466
 4093SOL    HW223916   1.118   1.359   0.628 -0.0857  1.8746  1.1590
 4094SOL     OW23917   4.623   2.268  13.869  0.5434  0.5043  0.0774
 4094SOL    HW123918   4.717   2.264  13.851  0.6213 -3.3191  1.2818
 4094SOL    HW223919   4.606   2.199  13.934  0.0761 -0.2517 -0.8359
 4095SOL     OW23920   0.191   0.842   5.687  0.1462 -0.5320  0.1593
 4095SOL    HW123921   0.102   0.827   5.717  0.0676 -0.7361 -0.1779
 4095SOL    HW223922   0.185   0.815   5.595  1.3135  0.6697 -0.2632
 4096SOL     OW23923   2.137   1.779   8.123  0.2735  0.0475  0.9877
 4096SOL    HW123924   2.175   1.801   8.038  0.8336  1.3416  1.5811
 4096SOL    HW223925   2.095   1.860   8.149  0.6181 -0.1774  2.2436
 4097SOL     OW23926   2.835   3.648   5.367 -0.2102 -0.2151  0.1527
 4097SOL    HW123927   2.796   3.627   5.283 -0.6245 -0.2434  0.3532
 4097SOL    HW223928   2.779   3.595   5.423 -0.2262 -0.4202 -0.0589
 4098SOL     OW23929   2.336   2.504   7.697 -0.4037 -0.0638  0.7476
 4098SOL    HW123930   2.378   2.432   7.650 -0.1136  1.3393 -1.1289
 4098SOL    HW223931   2.401   2.512   7.767  0.3079 -0.2773  0.1097
 4099SOL     OW23932   4.518   0.980   4.852 -0.1168  0.6215  0.2576
 4099SOL    HW123933   4.521   1.016   4.941  1.1420  1.8814 -0.2958
 4099SOL    HW223934   4.571   0.901   4.856 -2.1204 -0.7682 -0.6586
 4100SOL     OW23935   1.578   2.095  17.103 -0.0373  0.4916  0.6739
 4100SOL    HW123936   1.604   2.006  17.126  1.5771  0.6662 -0.4871
 4100SOL    HW223937   1.608   2.086  17.013  0.7004  2.3406  0.7380
 4101SOL     OW23938   2.362   1.767   6.892  0.3169  0.0864 -0.2799
 4101SOL    HW123939   2.374   1.786   6.799 -0.0799  0.2420 -0.2999
 4101SOL    HW223940   2.451   1.752   6.924  0.7205  0.1609 -1.3585
 4102SOL     OW23941   3.759   1.147  16.400 -0.7133  0.2033  0.1651
 4102SOL    HW123942   3.728   1.203  16.329  2.1448  2.6857  0.9112
 4102SOL    HW223943   3.809   1.086  16.345 -2.0299 -2.0736  1.4994
 4103SOL     OW23944   1.820   3.395   2.898  0.5353  0.0267  0.2886
 4103SOL    HW123945   1.874   3.446   2.838 -1.9228  0.3972 -1.6187
 4103SOL    HW223946   1.742   3.450   2.892  0.5656  0.2708  2.1688
 4104SOL     OW23947   1.386   3.344   4.988 -0.5677  0.3263  0.2201
 4104SOL    HW123948   1.451   3.413   4.976 -0.6583  0.4186  0.2566
 4104SOL    HW223949   1.312   3.405   4.993 -0.0724  1.0115 -0.9676
 4105SOL     OW23950   2.981   2.913   2.268  0.1805 -0.3507 -0.4972
 4105SOL    HW123951   2.989   3.007   2.253 -3.7927  0.2512  1.0865
 4105SOL    HW223952   2.990   2.900   2.362 -0.6422  1.8994 -0.1091
 4106SOL     OW23953   1.639   4.261   4.613  0.5039  0.6358 -0.2386
 4106SOL    HW123954   1.634   4.307   4.529 -3.6988  1.4774  0.4972
 4106SOL    HW223955   1.715   4.305   4.651 -0.2603  2.8968 -1.2706
 4107SOL     OW23956   1.584   4.423   4.998  0.0048 -0.6856 -0.0403
 4107SOL    HW123957   1.678   4.436   4.983 -0.6099 -0.8068 -3.7989
 4107SOL    HW223958   1.585   4.347   5.056 -1.9359  1.1598  2.4199
 4108SOL     OW23959   3.409   2.976   1.742  0.5771  0.4850  0.4339
 4108SOL    HW123960   3.367   2.899   1.702  0.0827 -0.1854  2.2561
 4108SOL    HW223961   3.499   2.946   1.752  0.3477 -0.1641  0.5879
 4109SOL     OW23962   0.848   0.380  17.536  0.6176 -0.1955 -0.0632
 4109SOL    HW123963   0.756   0.364  17.514  1.4716 -0.4825 -3.4142
 4109SOL    HW223964   0.893   0.359  17.454 -1.6914 -2.1449 -0.8423
 4110SOL     OW23965   4.676   4.223  16.117  0.3366 -0.3485 -0.2158
 4110SOL    HW123966   4.658   4.167  16.192 -0.3816  1.7327  1.1584
 4110SOL    HW223967   4.596   4.228  16.065  0.2525  1.4358  0.0799
 4111SOL     OW23968   1.291   4.038   7.722  0.2890 -0.4243  0.3367
 4111SOL    HW123969   1.322   3.999   7.803 -0.4420  0.6689  1.1475
 4111SOL    HW223970   1.197   4.032   7.736  0.1577 -2.6839 -1.6076
 4112SOL     OW23971   2.245   4.028  12.276 -0.3726 -0.2907 -0.1421
 4112SOL    HW123972   2.319   4.088  12.277  0.4290 -1.2551 -0.7993
 4112SOL    HW223973   2.262   3.955  12.335  0.4263  0.0979  0.1031
 4113SOL     OW23974   1.731   3.842   8.537 -0.2920 -0.6456  0.1156
 4113SOL    HW123975   1.715   3.929   8.500  1.1340 -0.8472 -0.9762
 4113SOL    HW223976   1.722   3.864   8.630  0.4175 -1.2806  0.3315
 4114SOL     OW23977   4.311   3.519  10.849 -0.2727 -0.2999 -0.8016
 4114SOL    HW123978   4.295   3.586  10.915  2.0119  0.0011 -0.5624
 4114SOL    HW223979   4.324   3.444  10.907 -0.0102  0.5116  0.1726
 4115SOL     OW23980   1.938   0.959   0.343  0.2389 -0.3383 -0.2991
 4115SOL    HW123981   1.915   0.870   0.313  0.4854 -0.4576 -0.1306
 4115SOL    HW223982   1.884   1.013   0.285  0.2382 -0.3400 -0.3002
 4116SOL     OW23983   0.372   4.056   2.926 -0.0056 -0.5992 -0.1014
 4116SOL    HW123984   0.293   4.105   2.903  0.9486 -1.1751 -4.6903
 4116SOL    HW223985   0.433   4.081   2.857 -2.5879  0.9866 -1.8312
 4117SOL     OW23986   0.302   2.396   8.780 -0.6437  0.1485 -0.2947
 4117SOL    HW123987   0.310   2.490   8.796  0.6726 -0.1180  0.5483
 4117SOL    HW223988   0.255   2.391   8.696 -0.9214 -0.5273 -0.0971
 4118SOL     OW23989   3.974   4.432  13.047 -0.1150  0.6147  0.4342
 4118SOL    HW123990   4.042   4.448  13.112  0.4920 -0.1665 -0.0055
 4118SOL    HW223991   3.915   4.504  13.071 -1.0938 -1.1370  3.2861
 4119SOL     OW23992   4.204   2.378   3.179  0.2319  0.0351  0.0351
 4119SOL    HW123993   4.211   2.374   3.274  2.6942 -1.2861 -0.2245
 4119SOL    HW223994   4.285   2.421   3.150  1.9906 -3.0808  0.3659
 4120SOL     OW23995   1.614   4.459   6.460  0.4791 -0.2220  0.0545
 4120SOL    HW123996   1.563   4.436   6.538 -0.9826 -2.4148 -1.5448
 4120SOL    HW223997   1.684   4.394   6.469  0.8871  0.1903 -0.1939
 4121SOL     OW23998   2.197   3.178   7.842 -0.1176 -0.4824 -0.4265
 4121SOL    HW123999   2.135   3.138   7.781 -1.1459  0.8516 -0.2460
 4121SOL    HW224000   2.274   3.197   7.787  0.6545 -0.8859  0.5178
 4122SOL     OW24001   0.063   2.114   6.384  0.1944  0.3978  0.0333
 4122SOL    HW124002   4.713   2.087   6.407  0.6749 -0.8956  0.3862
 4122SOL    HW224003   0.109   2.091   6.465 -1.3559 -1.2880  0.4334
 4123SOL     OW24004   3.009   0.496   9.218 -0.2450  0.0444 -0.2430
 4123SOL    HW124005   2.993   0.493   9.312  0.7005  0.0864 -0.0824
 4123SOL    HW224006   3.100   0.523   9.217 -0.4946  0.9223  0.8506
 4124SOL     OW24007   2.231   2.105   7.997  0.1034 -0.4747  0.0637
 4124SOL    HW124008   2.198   2.149   7.919  2.3622  1.7713  0.3843
 4124SOL    HW224009   2.300   2.156   8.039  0.4876 -0.3119 -0.7617
 4125SOL     OW24010   2.020   2.400  15.314 -0.3339 -0.1680 -0.6745
 4125SOL    HW124011   2.086   2.337  15.284  0.6802  0.0483  1.1149
 4125SOL    HW224012   1.969   2.343  15.371  3.1565  0.1453  2.7544
 4126SOL     OW24013   1.092   3.353   5.496  0.5326  0.5296 -0.6167
 4126SOL    HW124014   1.044   3.338   5.414  2.5753 -0.3801 -1.6393
 4126SOL    HW224015   1.168   3.400   5.462  0.0926  0.3117 -1.9279
 4127SOL     OW24016   0.219   4.070  14.648 -0.1934 -0.7489  0.1306
 4127SOL    HW124017   0.257   4.144  14.601  0.4439 -0.8733  0.4488
 4127SOL    HW224018   0.284   4.007  14.617  0.6804 -0.4724  1.4313
 4128SOL     OW24019   2.967   0.747   5.168 -0.3816  0.2108 -1.0172
 4128SOL    HW124020   2.906   0.807   5.125 -1.9913  0.1914  1.2321
 4128SOL    HW224021   2.960   0.675   5.105  0.2362 -0.1684 -0.6468
 4129SOL     OW24022   4.597   2.622   5.764 -0.4244 -0.5731  0.0192
 4129SOL    HW124023   4.525   2.578   5.808 -1.2945  3.3153  2.5192
 4129SOL    HW224024   4.553   2.704   5.741 -1.3561 -1.2265 -0.5233
 4130SOL     OW24025   0.319   2.360   2.682 -0.0060 -0.9465  0.2325
 4130SOL    HW124026   0.386   2.426   2.703 -0.3532  0.2690 -2.4618
 4130SOL    HW224027   0.280   2.390   2.600  1.9478  0.0970 -0.3212
 4131SOL     OW24028   2.949   2.066   3.882 -0.2787  0.1575 -0.5833
 4131SOL    HW124029   3.017   2.092   3.820  2.0950 -0.0857  1.9197
 4131SOL    HW224030   2.960   1.972   3.876 -2.6087 -0.0250 -2.1993
 4132SOL     OW24031   4.570   4.548   3.246  0.3640  0.4283  0.1745
 4132SOL    HW124032   4.625   4.524   3.172 -1.3397 -0.5429 -0.7624
 4132SOL    HW224033   4.535   4.463   3.272 -0.8429  1.6535  2.6332
 4133SOL     OW24034   0.711   4.527   9.045  0.4385 -0.4056  0.2604
 4133SOL    HW124035   0.706   4.476   8.964 -0.2881  0.9511 -0.5558
 4133SOL    HW224036   0.794   4.569   9.023  1.0098 -1.6472  0.0932
 4134SOL     OW24037   3.885   0.788   6.812  0.2323  0.3951  0.0002
 4134SOL    HW124038   3.891   0.719   6.879  0.6614  2.7400  2.3853
 4134SOL    HW224039   3.829   0.747   6.746 -0.5698  1.2347  0.1681
 4135SOL     OW24040   1.923   3.534   8.019 -0.5521  0.0891 -0.3221
 4135SOL    HW124041   1.904   3.527   7.926  1.1726  0.4489 -0.6965
 4135SOL    HW224042   1.995   3.471   8.024 -0.2883  0.5365  1.5821
 4136SOL     OW24043   2.881   1.448   9.140 -0.3022  0.2499  0.5133
 4136SOL    HW124044   2.898   1.419   9.230  2.4902 -1.4136 -0.5528
 4136SOL    HW224045   2.869   1.367   9.090  2.8623 -0.7146  1.3270
 4137SOL     OW24046   3.593   1.169   0.495 -0.7889  0.0599 -0.0164
 4137SOL    HW124047   3.537   1.093   0.477  0.0393 -0.1179 -1.8388
 4137SOL    HW224048   3.527   1.233   0.522 -0.2368  0.7958 -0.4036
 4138SOL     OW24049   4.177   0.227   5.776 -0.5219  0.2100  0.4339
 4138SOL    HW124050   4.160   0.180   5.858  0.7401  2.0088  1.7384
 4138SOL    HW224051   4.260   0.268   5.801 -0.7119  1.2706 -0.6989
 4139SOL     OW24052   2.886   4.026   6.438  0.1065 -0.5683 -0.2439
 4139SOL    HW124053   2.808   4.003   6.488  1.4528  0.6706  2.4053
 4139SOL    HW224054   2.955   3.967   6.469  0.0840 -0.9802 -0.9638
 4140SOL     OW24055   3.877   1.006  13.683  0.5698  0.0742 -0.5283
 4140SOL    HW124056   3.894   1.067  13.610  0.5088 -0.3597 -0.9079
 4140SOL    HW224057   3.789   1.041  13.696  0.0336 -1.4494 -0.1384
 4141SOL     OW24058   1.140   0.802   6.482 -0.7015 -0.0371  0.9303
 4141SOL    HW124059   1.161   0.742   6.554 -1.2814  0.4286  1.4908
 4141SOL    HW224060   1.179   0.884   6.514 -3.4248  0.7694  2.2084
 4142SOL     OW24061   1.384   0.291   5.769 -0.6252  0.2100  0.2735
 4142SOL    HW124062   1.376   0.203   5.805  1.5926 -0.5867 -1.1223
 4142SOL    HW224063   1.474   0.317   5.791  0.6303 -1.4894 -2.7337
 4143SOL     OW24064   2.088   4.424   7.637  0.0029  0.9231  0.2467
 4143SOL    HW124065   2.136   4.503   7.611  2.1197  0.0802  1.6251
 4143SOL    HW224066   2.087   4.436   7.732 -0.1368 -0.5336  0.4249
 4144SOL     OW24067   2.477   1.463   8.147 -0.3617  0.6494 -0.4653
 4144SOL    HW124068   2.513   1.374   8.150 -0.2862  0.7383  1.2548
 4144SOL    HW224069   2.549   1.518   8.116  0.5146  0.0779  0.5291
 4145SOL     OW24070   0.779   1.934   6.362 -0.5083  0.0165 -0.1811
 4145SOL    HW124071   0.705   1.978   6.321 -1.8957 -0.9764  1.2504
 4145SOL    HW224072   0.844   1.956   6.295  1.8947 -3.3148  1.0762
 4146SOL     OW24073   2.998   1.432   3.228 -0.6359 -0.5545  0.8108
 4146SOL    HW124074   2.955   1.412   3.311  1.1250 -0.0976  1.8232
 4146SOL    HW224075   3.056   1.504   3.252  0.0745 -0.2093 -1.9180
 4147SOL     OW24076   3.581   1.641  10.772  0.2523  0.4578  0.5218
 4147SOL    HW124077   3.532   1.582  10.830 -1.5993  1.5663  0.1138
 4147SOL    HW224078   3.663   1.661  10.817 -0.3097  2.5954  0.6145
 4148SOL     OW24079   1.136   2.596   7.790 -0.2579  0.2161 -0.6408
 4148SOL    HW124080   1.125   2.563   7.879 -2.7061 -0.4715 -1.2157
 4148SOL    HW224081   1.168   2.521   7.740 -0.6779 -0.2714 -0.1698
 4149SOL     OW24082   1.247   1.537   8.679  0.3539 -0.3989  0.6571
 4149SOL    HW124083   1.219   1.579   8.598 -0.9490 -1.2684  0.6682
 4149SOL    HW224084   1.187   1.574   8.744  1.6541 -1.2235  2.3456
 4150SOL     OW24085   2.463   4.320  13.982  0.2602 -0.2342  0.2336
 4150SOL    HW124086   2.411   4.324  13.902  0.7225  1.2848 -0.0005
 4150SOL    HW224087   2.440   4.235  14.017 -2.3914  0.4303  0.0613
 4151SOL     OW24088   4.089   4.555  15.082  0.0562  0.3033 -0.5187
 4151SOL    HW124089   4.138   4.637  15.072  0.6050 -0.1967 -1.9519
 4151SOL    HW224090   4.106   4.511  14.999  0.5804  2.2894 -1.4589
 4152SOL     OW24091   3.625   1.262   8.234 -0.3527  0.5379 -0.1581
 4152SOL    HW124092   3.658   1.291   8.319 -0.0890 -1.0263  0.2563
 4152SOL    HW224093   3.685   1.191   8.214 -1.0365 -0.0412 -0.1823
 4153SOL     OW24094   1.353   3.156   5.182  0.2059  0.2435 -0.0387
 4153SOL    HW124095   1.367   3.212   5.106  0.4515 -1.1431 -1.0227
 4153SOL    HW224096   1.432   3.182   5.228 -0.4461  0.0059  1.2210
 4154SOL     OW24097   0.097   4.271   7.221  0.0017  0.1046 -0.6037
 4154SOL    HW124098   0.041   4.349   7.218 -1.0709 -0.7134 -1.7034
 4154SOL    HW224099   0.115   4.269   7.315 -0.4747 -1.5168 -0.5541
 4155SOL     OW24100   3.680   0.276   2.105  0.8528 -0.0056 -0.7033
 4155SOL    HW124101   3.759   0.274   2.159 -0.3372 -1.1458  0.9924
 4155SOL    HW224102   3.697   0.347   2.043  1.3350 -1.4554 -2.2466
 4156SOL     OW24103   1.125   0.970   9.314  0.0363 -0.2886 -0.3689
 4156SOL    HW124104   1.206   0.933   9.279 -0.9210 -3.0546  0.3373
 4156SOL    HW224105   1.116   0.918   9.393 -1.3765 -0.1145 -0.4164
 4157SOL     OW24106   3.424   4.648   2.956 -0.0645  0.0563 -0.8363
 4157SOL    HW124107   3.370   4.707   3.009  0.3465  0.1488 -0.5186
 4157SOL    HW224108   3.412   4.559   2.989  2.6185 -0.2432 -0.6326
 4158SOL     OW24109   1.663   4.221   2.938  0.5249 -0.3591  0.1567
 4158SOL    HW124110   1.613   4.187   2.864 -0.7738  1.9717 -0.0474
 4158SOL    HW224111   1.657   4.317   2.932  0.9208 -0.5287 -2.9132
 4159SOL     OW24112   1.268   1.046  10.115  0.0158  0.7478  0.1228
 4159SOL    HW124113   1.306   1.104  10.181 -0.7069  3.0092 -1.4521
 4159SOL    HW224114   1.226   0.980  10.170  0.4553 -0.0974 -0.5562
 4160SOL     OW24115   1.207   1.606   8.401 -0.6142  0.0293  0.2415
 4160SOL    HW124116   1.141   1.536   8.400 -1.1287  0.5145  0.0984
 4160SOL    HW224117   1.144   1.674   8.377 -0.3981  0.4320  0.8018
 4161SOL     OW24118   1.860   0.445  11.980 -0.6218  0.2179  0.1423
 4161SOL    HW124119   1.844   0.473  12.070  2.0800 -2.2922  1.4214
 4161SOL    HW224120   1.775   0.451  11.938 -1.0610  0.1259  1.0313
 4162SOL     OW24121   0.972   3.077   3.746  0.4049 -0.0067  0.1759
 4162SOL    HW124122   1.005   3.145   3.805 -0.7708  0.4795  0.2815
 4162SOL    HW224123   0.892   3.115   3.710  0.9880  1.0315 -0.0425
 4163SOL     OW24124   0.251   3.541   5.540 -0.0339  0.4520  0.0338
 4163SOL    HW124125   0.194   3.562   5.467 -1.4498 -1.1086  0.6941
 4163SOL    HW224126   0.305   3.620   5.547  1.5129 -0.5571 -0.5662
 4164SOL     OW24127   2.139   2.721   2.718  0.6799  0.0985  0.2284
 4164SOL    HW124128   2.134   2.805   2.674  0.9514 -0.3056 -0.5715
 4164SOL    HW224129   2.234   2.707   2.722  0.6829 -0.4368 -1.6654
 4165SOL     OW24130   1.324   1.761   9.304 -0.0291 -0.3099  0.0645
 4165SOL    HW124131   1.259   1.824   9.334 -1.0120 -0.3346 -2.0769
 4165SOL    HW224132   1.306   1.687   9.362  2.7696  0.3529  1.8024
 4166SOL     OW24133   2.876   1.878   2.910 -0.0422 -0.0081  0.1793
 4166SOL    HW124134   2.783   1.886   2.890 -0.3615 -0.1666  1.6036
 4166SOL    HW224135   2.891   1.942   2.980 -2.5280  0.3817  0.3485
 4167SOL     OW24136   1.500   2.140   5.870 -0.0543  0.2438  0.4071
 4167SOL    HW124137   1.487   2.057   5.824 -0.0260  1.5405 -1.9436
 4167SOL    HW224138   1.543   2.180   5.794  1.2085  0.7323  1.3889
 4168SOL     OW24139   4.410   4.234   4.098  0.0061  0.1850  0.4574
 4168SOL    HW124140   4.476   4.204   4.035 -0.2638  1.2955 -0.3636
 4168SOL    HW224141   4.363   4.281   4.029 -1.0495 -1.3250  0.1311
 4169SOL     OW24142   1.806   2.226   2.133  0.2714  0.6033  0.0876
 4169SOL    HW124143   1.866   2.274   2.190 -1.6149  2.4962  0.4885
 4169SOL    HW224144   1.720   2.255   2.163  0.4267  0.6271  0.5084
 4170SOL     OW24145   3.117   0.609   3.551  0.2873  0.0955  0.3701
 4170SOL    HW124146   3.108   0.648   3.465  0.9783 -1.4569 -0.4114
 4170SOL    HW224147   3.060   0.660   3.607  0.7239  2.6817 -1.5698
 4171SOL     OW24148   2.692   0.687   6.560 -0.3159 -0.0388 -0.0569
 4171SOL    HW124149   2.601   0.714   6.567  0.7507  4.0272 -1.6608
 4171SOL    HW224150   2.731   0.770   6.588 -2.4494  0.8655  0.1930
 4172SOL     OW24151   3.289   2.331   5.605 -0.4753  0.2926 -0.8029
 4172SOL    HW124152   3.257   2.418   5.584  0.6857  0.8817 -0.0907
 4172SOL    HW224153   3.279   2.339   5.700  1.5979 -1.6917 -0.4234
 4173SOL     OW24154   2.212   2.588   9.851  0.0057 -0.2251 -0.4821
 4173SOL    HW124155   2.180   2.499   9.863  1.3780 -0.8596 -1.4471
 4173SOL    HW224156   2.175   2.613   9.766  1.6803 -0.3490 -1.2640
 4174SOL     OW24157   1.901   4.389   7.876 -0.3998  0.7561  0.3630
 4174SOL    HW124158   1.859   4.467   7.840 -3.2014 -0.1074  1.7914
 4174SOL    HW224159   1.918   4.341   7.795  0.3825 -0.2403  1.1203
 4175SOL     OW24160   4.008   4.013   1.836  0.4337 -0.0468  0.1065
 4175SOL    HW124161   4.044   3.939   1.786  0.6007  0.2597 -0.2234
 4175SOL    HW224162   3.941   3.966   1.886 -0.8533  1.3692 -0.2904
 4176SOL     OW24163   4.142   0.598   4.004 -0.2476 -0.1387  0.1320
 4176SOL    HW124164   4.187   0.537   3.945  1.4929 -1.4976  2.8186
 4176SOL    HW224165   4.156   0.557   4.090  1.4678  0.0628 -0.0483
 4177SOL     OW24166   2.156   0.116   5.488 -0.1027 -0.1287 -0.6277
 4177SOL    HW124167   2.189   0.100   5.577  0.3363 -2.8698 -1.2920
 4177SOL    HW224168   2.113   0.200   5.501  1.3608  0.4479  0.5125
 4178SOL     OW24169   0.639   4.650  17.637 -0.6687 -0.3658  0.5191
 4178SOL    HW124170   0.604   4.608  17.559 -1.4870  1.1801  0.0519
 4178SOL    HW224171   0.601   4.738  17.639 -1.1190 -0.4994 -1.9428
 4179SOL     OW24172   3.086   1.075   7.182  0.0256 -0.3089 -0.4709
 4179SOL    HW124173   3.052   1.129   7.254  1.8255  1.0231 -0.5952
 4179SOL    HW224174   3.157   1.129   7.148 -1.0391  2.3225  1.4518
 4180SOL     OW24175   2.539   4.143   1.374 -0.2116  0.2381  0.6595
 4180SOL    HW124176   2.450   4.167   1.399 -1.2369 -2.0026 -0.8900
 4180SOL    HW224177   2.585   4.223   1.348 -0.4729 -0.2561 -1.3055
 4181SOL     OW24178   0.215   3.983  10.474 -0.0157 -0.2343  0.0162
 4181SOL    HW124179   0.193   3.940  10.557 -0.9283 -1.7745 -1.0474
 4181SOL    HW224180   0.184   4.072  10.489 -0.3514 -0.3359 -0.0721
 4182SOL     OW24181   2.304   1.634  12.482 -0.5266 -0.3718 -0.6760
 4182SOL    HW124182   2.356   1.709  12.450 -1.6340  0.1451 -1.2662
 4182SOL    HW224183   2.370   1.565  12.480  1.0221  1.0605  0.7297
 4183SOL     OW24184   3.343   1.034   3.680 -0.3282 -0.4509 -0.1317
 4183SOL    HW124185   3.262   1.013   3.634 -0.2969 -3.2146  1.0654
 4183SOL    HW224186   3.312   1.015   3.769 -0.0586 -1.0366 -0.1573
 4184SOL     OW24187   0.144   2.569  12.630  0.1895 -0.1186  0.8068
 4184SOL    HW124188   0.229   2.603  12.658  0.2891  0.5412 -0.3211
 4184SOL    HW224189   0.085   2.645  12.632 -1.3581 -1.2907 -0.4712
 4185SOL     OW24190   1.336   1.163   9.860  0.4339  0.4049  0.9351
 4185SOL    HW124191   1.321   1.132   9.949  1.8860 -0.4757  0.8770
 4185SOL    HW224192   1.275   1.237   9.856  1.0920  0.9495  0.8396
 4186SOL     OW24193   2.867   3.089   4.840  0.0434  0.0939 -0.5919
 4186SOL    HW124194   2.905   3.002   4.852  1.5764  0.7974 -0.2534
 4186SOL    HW224195   2.944   3.145   4.854 -0.4741  0.9107 -0.9756
 4187SOL     OW24196   0.590   4.734   4.164  0.5159  0.0133 -0.4195
 4187SOL    HW124197   0.535   4.701   4.236 -0.0284  1.8299  0.0003
 4187SOL    HW224198   0.517   0.014   4.105 -0.1569  0.8465  0.6923
 4188SOL     OW24199   4.719   0.832   6.355  0.3544 -0.7582  0.3140
 4188SOL    HW124200   0.046   0.902   6.353  0.6746 -1.0330  1.1705
 4188SOL    HW224201   4.654   0.863   6.418  0.7796  1.5901 -0.4133
 4189SOL     OW24202   4.704   3.264  15.777  0.2121  0.4131  0.3619
 4189SOL    HW124203   4.669   3.332  15.834 -0.6660  0.2619 -0.0110
 4189SOL    HW224204   4.655   3.277  15.696  0.8588  0.7794  0.0252
 4190SOL     OW24205   3.303   0.132  12.247 -0.1017 -0.0485  0.1805
 4190SOL    HW124206   3.285   0.039  12.256 -2.1955  0.5407  2.1813
 4190SOL    HW224207   3.368   0.154  12.314 -0.2481 -0.8685  0.5912
 4191SOL     OW24208   3.702   0.077   3.609 -0.5721  0.2796 -0.6357
 4191SOL    HW124209   3.730   0.004   3.553 -1.0990 -1.4946  1.4038
 4191SOL    HW224210   3.787   0.114   3.634 -0.3243  0.9660 -2.4686
 4192SOL     OW24211   1.953   3.160   5.999  0.0060  0.0871  0.1079
 4192SOL    HW124212   1.889   3.102   6.039  0.1238  1.3968  2.1766
 4192SOL    HW224213   1.906   3.243   6.000 -1.1743 -0.5484 -2.1466
 4193SOL     OW24214   3.961   1.843   8.833 -0.1324 -0.6483  0.2150
 4193SOL    HW124215   3.995   1.930   8.854 -0.2397  0.1164 -2.7667
 4193SOL    HW224216   3.967   1.794   8.915 -0.1801  0.0874  0.6625
 4194SOL     OW24217   3.092   2.477   3.903 -0.2725  0.0259 -0.2027
 4194SOL    HW124218   3.133   2.562   3.920 -2.4815  1.4895 -2.2131
 4194SOL    HW224219   3.020   2.469   3.966  0.7913 -0.1009  0.9959
 4195SOL     OW24220   3.686   1.381  10.095  0.0185  0.5471 -0.4218
 4195SOL    HW124221   3.670   1.439  10.169  2.5497  1.7655 -0.8224
 4195SOL    HW224222   3.741   1.314  10.136  0.9545  2.6352  1.7408
 4196SOL     OW24223   0.018   3.302   8.376  0.3287  0.3418  0.2360
 4196SOL    HW124224   0.089   3.329   8.434 -0.4016  1.7295  0.4844
 4196SOL    HW224225   0.009   3.207   8.386 -0.4585  0.5101  1.0164
 4197SOL     OW24226   4.453   4.675   3.479  0.1135 -0.1143 -0.1482
 4197SOL    HW124227   4.450   4.642   3.389 -1.9295 -1.5964  0.4726
 4197SOL    HW224228   4.548   4.689   3.480  0.0808  0.0840  0.0785
 4198SOL     OW24229   3.886   1.479   2.538 -0.4488  0.0119 -0.2213
 4198SOL    HW124230   3.912   1.483   2.630  2.2589 -1.4620 -0.9209
 4198SOL    HW224231   3.847   1.392   2.541 -0.3802  0.0665  2.1992
 4199SOL     OW24232   1.852   0.929   8.123  0.7073  0.2992  0.3928
 4199SOL    HW124233   1.821   0.912   8.034 -0.4168 -0.1182  0.8678
 4199SOL    HW224234   1.785   0.888   8.178 -0.2962  0.6513 -0.5797
 4200SOL     OW24235   2.468   2.727   8.698  0.0462 -0.6661  0.2023
 4200SOL    HW124236   2.520   2.665   8.647  1.2189 -0.7603  1.5018
 4200SOL    HW224237   2.510   2.810   8.673 -0.3442 -0.0335  1.6433
 4201SOL     OW24238   3.748   3.294   2.756 -0.1843 -0.3800  0.3605
 4201SOL    HW124239   3.812   3.301   2.685  0.0032  0.8792  0.6542
 4201SOL    HW224240   3.698   3.214   2.742 -1.3290  0.0250  2.0728
 4202SOL     OW24241   2.332   0.977   5.899 -0.0524  0.2758 -0.0319
 4202SOL    HW124242   2.297   1.013   5.818 -0.9748 -0.4610  0.0271
 4202SOL    HW224243   2.264   0.914   5.924  0.3869 -0.2655 -0.2027
 4203SOL     OW24244   1.359   2.902   3.460 -0.9085  0.6674  0.4393
 4203SOL    HW124245   1.324   2.814   3.477 -0.5413  0.0696 -1.9381
 4203SOL    HW224246   1.303   2.962   3.510 -0.8144  1.9078 -0.9441
 4204SOL     OW24247   0.701   3.139   1.830 -0.1857  0.5646  0.1107
 4204SOL    HW124248   0.617   3.096   1.816 -0.2950  0.2698  1.7371
 4204SOL    HW224249   0.756   3.081   1.777  0.5575 -0.3372  1.8853
 4205SOL     OW24250   4.124   1.667   5.554  0.3102 -0.6148  0.1776
 4205SOL    HW124251   4.034   1.695   5.571  0.3295 -0.6287  0.3040
 4205SOL    HW224252   4.149   1.735   5.492  0.0641 -1.1634 -0.5163
 4206SOL     OW24253   2.140   0.112   8.684 -0.1824 -0.3029  0.3351
 4206SOL    HW124254   2.221   0.153   8.656 -0.1697 -1.2195 -0.9293
 4206SOL    HW224255   2.092   0.193   8.702 -0.0757 -0.4169  1.1584
 4207SOL     OW24256   4.102   1.417   7.847  0.1801 -0.0898  0.2546
 4207SOL    HW124257   4.049   1.417   7.927 -1.1531  1.5775 -0.6188
 4207SOL    HW224258   4.124   1.510   7.835 -1.6027  0.3232  0.1856
 4208SOL     OW24259   0.578   3.437   0.693 -0.2354 -0.3679  0.6854
 4208SOL    HW124260   0.530   3.355   0.701 -0.8006 -0.1141 -0.0637
 4208SOL    HW224261   0.631   3.423   0.772  1.1615 -0.8675 -0.3273
 4209SOL     OW24262   0.169   2.971   3.445  0.3536  0.4417  0.2397
 4209SOL    HW124263   0.205   3.059   3.452  0.3960  0.5649 -1.3261
 4209SOL    HW224264   0.148   2.959   3.537 -0.9454  0.3806 -0.0610
 4210SOL     OW24265   0.303   1.196  10.992  0.9351  0.0775 -0.0284
 4210SOL    HW124266   0.210   1.176  10.999  1.0665 -1.7016 -3.2992
 4210SOL    HW224267   0.333   1.133  11.058 -0.4858  0.1768  0.6930
 4211SOL     OW24268   2.567   2.515   5.296  0.2036  0.1770  0.5666
 4211SOL    HW124269   2.615   2.440   5.260  0.8718  0.7866  0.1598
 4211SOL    HW224270   2.643   2.568   5.319  0.7623 -0.9733  1.3584
 4212SOL     OW24271   2.270   1.936   4.029 -0.1256  0.2271 -0.0754
 4212SOL    HW124272   2.196   1.994   4.014 -0.9653 -1.0040 -0.7543
 4212SOL    HW224273   2.289   1.900   3.942 -1.4310 -1.9112  0.5021
 4213SOL     OW24274   2.663   4.735  13.304 -0.3882 -0.4833  0.3770
 4213SOL    HW124275   2.727   0.003  13.233  1.0498  0.7646  1.8013
 4213SOL    HW224276   2.584   4.717  13.253 -0.8060  0.4396  0.6993
 4214SOL     OW24277   0.985   1.857  12.414  0.2401  0.3927 -0.3369
 4214SOL    HW124278   1.020   1.775  12.450  1.3454  1.3108  0.7163
 4214SOL    HW224279   1.047   1.859  12.340  1.1407  1.8060  0.4559
 4215SOL     OW24280   1.481   3.793   1.926 -0.1088  0.0389  0.3179
 4215SOL    HW124281   1.476   3.816   1.833  0.6084 -0.2558  0.2048
 4215SOL    HW224282   1.471   3.698   1.921 -1.5288  0.2304 -0.4828
 4216SOL     OW24283   0.655   1.517   2.836 -0.5875  0.4315  0.5091
 4216SOL    HW124284   0.668   1.511   2.741 -0.6219 -0.4867  0.5644
 4216SOL    HW224285   0.564   1.547   2.836 -0.7732 -0.0995 -0.8822
 4217SOL     OW24286   0.939   3.175   4.099 -0.1271  0.1974  0.1439
 4217SOL    HW124287   1.012   3.206   4.153  1.3953 -0.6404 -1.4287
 4217SOL    HW224288   0.972   3.202   4.013 -0.4279  1.9649  0.5725
 4218SOL     OW24289   0.743   4.675  11.378 -0.1139  0.2273 -0.2240
 4218SOL    HW124290   0.785   4.715  11.301 -0.2543  0.7948 -0.0054
 4218SOL    HW224291   0.778   4.712  11.459  1.0528 -2.2609  0.4211
 4219SOL     OW24292   1.987   4.640   7.150 -0.3528 -0.3110  0.8758
 4219SOL    HW124293   1.914   4.619   7.208 -1.3024  0.9121  0.1141
 4219SOL    HW224294   2.063   4.608   7.198 -1.2315 -3.7992 -0.0099
 4220SOL     OW24295   0.956   1.325   5.520 -0.2664 -0.0404 -0.0619
 4220SOL    HW124296   0.954   1.305   5.426  2.5021  0.4911 -0.2476
 4220SOL    HW224297   0.875   1.287   5.555  0.1652  0.3072  1.3215
 4221SOL     OW24298   0.314   4.593  15.260  0.1700 -0.2346 -0.7679
 4221SOL    HW124299   0.231   4.634  15.235  0.0229 -0.5735 -0.8316
 4221SOL    HW224300   0.361   4.667  15.300 -0.8685 -0.4141  0.7839
 4222SOL     OW24301   2.947   3.382   5.700 -0.1484  0.5790  0.4093
 4222SOL    HW124302   2.883   3.337   5.755 -0.1567  0.3654  0.2249
 4222SOL    HW224303   2.945   3.464   5.750 -0.8091  0.1126  1.1561
 4223SOL     OW24304   0.050   3.211   7.065  0.3713  0.1899 -0.5671
 4223SOL    HW124305   0.092   3.274   7.123  0.0281  0.3299 -0.4714
 4223SOL    HW224306   0.110   3.139   7.087  0.8482  0.0137 -2.4408
 4224SOL     OW24307   2.826   0.777  13.394  0.5718 -0.3241 -0.6168
 4224SOL    HW124308   2.789   0.864  13.410 -1.0626 -0.9647 -0.8762
 4224SOL    HW224309   2.918   0.800  13.407  0.3685 -0.3485  0.8171
 4225SOL     OW24310   0.813   4.143   6.234  0.2794 -0.0921 -0.1924
 4225SOL    HW124311   0.794   4.124   6.142 -1.9029 -0.3098  0.3050
 4225SOL    HW224312   0.823   4.052   6.261  0.6408  0.2420  0.8207
 4226SOL     OW24313   1.603   3.463   7.218  0.1899 -0.3441  0.4066
 4226SOL    HW124314   1.567   3.552   7.225 -0.5403 -0.5091 -1.3200
 4226SOL    HW224315   1.522   3.414   7.216  0.2115 -0.4088  1.2904
 4227SOL     OW24316   0.551   0.621   7.914 -0.3187 -0.4378  0.3030
 4227SOL    HW124317   0.459   0.641   7.927  0.4779  1.1674  3.3416
 4227SOL    HW224318   0.566   0.653   7.825 -1.1498 -1.9678 -0.3942
 4228SOL     OW24319   0.738   3.615   6.279  0.1555 -0.2437  0.4421
 4228SOL    HW124320   0.702   3.550   6.339  0.1453  0.1285  0.8368
 4228SOL    HW224321   0.802   3.560   6.233 -0.1710 -0.3807  0.1484
 4229SOL     OW24322   3.486   2.268   2.986 -0.1853  0.1445 -0.3695
 4229SOL    HW124323   3.503   2.341   2.927  0.5768 -1.3820 -2.0492
 4229SOL    HW224324   3.550   2.271   3.058 -0.1894 -0.1829 -0.3526
 4230SOL     OW24325   3.457   0.543   5.875  0.4401  0.8413 -0.1362
 4230SOL    HW124326   3.536   0.509   5.917  0.3673  0.0286 -0.6542
 4230SOL    HW224327   3.487   0.601   5.805  3.0553  0.9632  1.0909
 4231SOL     OW24328   1.498   2.855   2.612  0.5392  0.4490 -0.7395
 4231SOL    HW124329   1.562   2.840   2.681  1.0729  0.6333 -1.1929
 4231SOL    HW224330   1.534   2.802   2.540 -0.0272  0.8265 -1.2985
 4232SOL     OW24331   2.622   3.673   5.994 -0.8746 -1.1203  0.2436
 4232SOL    HW124332   2.691   3.721   5.948 -0.6877  0.2579  1.9473
 4232SOL    HW224333   2.617   3.600   5.933  0.5224  0.7111 -2.0474
 4233SOL     OW24334   2.977   2.225   1.587  0.3372  0.1574  0.6035
 4233SOL    HW124335   2.977   2.311   1.545  0.5509 -0.2408 -0.1978
 4233SOL    HW224336   2.890   2.222   1.626  0.1050 -0.7282  0.0168
 4234SOL     OW24337   1.045   0.353  10.075 -0.1945 -0.1485  0.0602
 4234SOL    HW124338   1.074   0.385  10.160  0.8321  0.5898 -0.5594
 4234SOL    HW224339   1.129   0.314  10.049 -0.2793  0.1360 -0.6488
 4235SOL     OW24340   1.331   0.447   3.341  0.2419  0.0161 -0.0039
 4235SOL    HW124341   1.394   0.406   3.401 -1.1898 -0.5415  1.1134
 4235SOL    HW224342   1.321   0.371   3.284 -2.2076 -0.5025  1.1295
 4236SOL     OW24343   1.551   1.275   8.570 -0.1110  0.5513 -0.4065
 4236SOL    HW124344   1.510   1.267   8.656  0.0186 -3.0811 -0.7040
 4236SOL    HW224345   1.503   1.349   8.533 -0.0554  0.0955 -1.3663
 4237SOL     OW24346   3.145   3.539   1.429 -0.4818 -0.1897 -0.1566
 4237SOL    HW124347   3.153   3.453   1.388  1.5716  0.5992 -1.4381
 4237SOL    HW224348   3.203   3.528   1.505 -1.4198 -0.2392  0.5421
 4238SOL     OW24349   1.095   1.883   9.367 -0.1691 -0.1860  0.0946
 4238SOL    HW124350   1.102   1.976   9.344  0.4189 -0.0762  0.7325
 4238SOL    HW224351   1.012   1.862   9.324 -1.2757  0.4281  1.8951
 4239SOL     OW24352   0.983   4.562   7.549 -0.4146 -0.7157  0.3519
 4239SOL    HW124353   1.008   4.539   7.460  1.1334  0.9461  0.3469
 4239SOL    HW224354   0.898   4.520   7.542  0.5237 -2.7284  0.9215
 4240SOL     OW24355   0.782   0.217   2.963  0.2738 -0.6010  0.0914
 4240SOL    HW124356   0.694   0.194   2.931  0.1978 -0.7454  0.4054
 4240SOL    HW224357   0.821   0.131   2.981 -1.0228 -1.2968 -0.3761
 4241SOL     OW24358   4.649   0.964  12.357 -0.1038  0.2559 -0.2701
 4241SOL    HW124359   4.623   0.911  12.432  1.4618  0.3624  0.3355
 4241SOL    HW224360   4.566   0.980  12.311  0.3298  2.8888 -0.1370
 4242SOL     OW24361   4.100   1.429  16.466  0.1060 -0.5679  0.3901
 4242SOL    HW124362   4.073   1.487  16.394 -0.4693 -1.4230 -0.0861
 4242SOL    HW224363   4.186   1.468  16.477  0.2617 -0.7886 -0.0296
 4243SOL     OW24364   2.911   3.068   3.749 -0.2852 -0.2336 -0.2267
 4243SOL    HW124365   2.883   3.015   3.824 -1.8837 -1.3284 -1.6154
 4243SOL    HW224366   3.003   3.077   3.773 -0.4848 -0.6181  0.6937
 4244SOL     OW24367   0.842   0.207   2.518 -0.0822  0.5958 -0.1011
 4244SOL    HW124368   0.856   0.263   2.442 -0.3670 -2.1806 -2.1789
 4244SOL    HW224369   0.823   0.275   2.584  1.8185  0.1931  0.8423
 4245SOL     OW24370   4.207   0.723   5.719  0.2436 -0.0291 -0.2843
 4245SOL    HW124371   4.135   0.714   5.781 -0.7232  0.3184 -1.3599
 4245SOL    HW224372   4.224   0.818   5.715  1.5036 -0.2117  0.4653
 4246SOL     OW24373   4.048   4.217   6.147 -0.1863  0.5803 -0.1953
 4246SOL    HW124374   4.034   4.153   6.077  1.2300 -0.4735  0.4893
 4246SOL    HW224375   4.025   4.295   6.097 -0.0427  0.9488  0.3186
 4247SOL     OW24376   3.779   1.330   6.838  0.2775  0.1908  0.6060
 4247SOL    HW124377   3.755   1.242   6.809 -0.2529  0.3213  0.6626
 4247SOL    HW224378   3.873   1.320   6.856 -0.0143 -0.1320  1.9182
 4248SOL     OW24379   2.542   1.826  14.203  0.0659  0.3423 -0.2400
 4248SOL    HW124380   2.524   1.732  14.196 -1.1670  0.7428 -2.4509
 4248SOL    HW224381   2.511   1.847  14.291  0.2964 -2.2317  0.4392
 4249SOL     OW24382   1.041   4.055   2.537  0.3997 -0.4425 -0.1497
 4249SOL    HW124383   1.086   3.983   2.581 -3.8925 -3.3884 -0.5682
 4249SOL    HW224384   1.011   4.011   2.457 -6.1546  0.2484  1.9210
 4250SOL     OW24385   4.143   1.264   9.045  0.1886 -0.0039  0.0188
 4250SOL    HW124386   4.119   1.176   9.076  0.7594  0.1444  0.8921
 4250SOL    HW224387   4.234   1.251   9.016  0.0906 -0.9949  0.1553
 4251SOL     OW24388   3.729   1.666  10.526  0.0264 -0.5211 -0.7011
 4251SOL    HW124389   3.676   1.670  10.606  0.8514  1.9760 -0.2720
 4251SOL    HW224390   3.750   1.759  10.516 -2.7395 -0.1323 -2.7741
 4252SOL     OW24391   1.571   0.214   7.618 -0.3463 -0.3007 -0.7051
 4252SOL    HW124392   1.485   0.213   7.660  0.3260 -0.5010  0.6807
 4252SOL    HW224393   1.579   0.300   7.578 -2.1561  0.4251  0.4607
 4253SOL     OW24394   3.621   3.009   2.764  0.3717  0.0785  0.1536
 4253SOL    HW124395   3.551   2.987   2.703  1.0399 -1.9668  0.1352
 4253SOL    HW224396   3.635   2.919   2.794 -0.0740 -1.4017 -4.0259
 4254SOL     OW24397   1.506   2.858   5.938 -0.0989 -0.0580 -0.0580
 4254SOL    HW124398   1.544   2.942   5.913  0.6766 -0.4627 -0.2469
 4254SOL    HW224399   1.589   2.812   5.951  1.0646  2.1812  0.3745
 4255SOL     OW24400   2.219   1.475   4.022  0.0444 -0.0606  0.0208
 4255SOL    HW124401   2.311   1.500   4.035 -0.5483  0.8997  2.2814
 4255SOL    HW224402   2.183   1.513   4.102 -0.2153  1.8689 -1.0042
 4256SOL     OW24403   3.020   4.537   4.457  0.0594 -0.7323 -0.1385
 4256SOL    HW124404   3.098   4.561   4.508 -0.0563 -1.4488  0.3812
 4256SOL    HW224405   3.048   4.467   4.398  2.4892  1.2579 -1.3695
 4257SOL     OW24406   4.624   3.044  12.051 -0.0726 -0.1293 -0.2558
 4257SOL    HW124407   4.613   2.950  12.069  2.0206 -0.4490 -0.6359
 4257SOL    HW224408   4.717   3.044  12.030 -0.1542  1.1278 -0.6009
 4258SOL     OW24409   0.446   2.604   3.064 -0.0206  0.5834  0.1857
 4258SOL    HW124410   0.451   2.557   3.147  2.9805  0.2671 -0.1748
 4258SOL    HW224411   0.487   2.685   3.096  2.5888 -0.9924  0.8806
 4259SOL     OW24412   3.706   0.659   7.397 -0.4394 -0.2563 -0.5505
 4259SOL    HW124413   3.615   0.671   7.424 -0.2533  0.8796 -0.4230
 4259SOL    HW224414   3.745   0.642   7.482 -1.3014 -1.3662 -0.3822
 4260SOL     OW24415   2.454   3.118   3.028 -0.1439 -0.4315 -0.2682
 4260SOL    HW124416   2.479   3.195   3.079 -2.0039 -0.4550  0.7031
 4260SOL    HW224417   2.363   3.133   3.003 -0.8294 -2.1583  1.1710
 4261SOL     OW24418   0.288   1.435  10.239 -0.0625  0.0991  0.0788
 4261SOL    HW124419   0.204   1.424  10.195 -0.1840 -3.3248  1.1716
 4261SOL    HW224420   0.283   1.521  10.281  0.1668  1.6634 -3.1357
 4262SOL     OW24421   0.901   1.491   9.261 -0.3263 -0.3372  0.5419
 4262SOL    HW124422   0.863   1.527   9.341  0.0119  0.6945  0.2326
 4262SOL    HW224423   0.849   1.414   9.237  2.6371 -2.5783  1.3427
 4263SOL     OW24424   3.245   3.451   9.081  0.0481 -0.6932 -0.2194
 4263SOL    HW124425   3.276   3.525   9.133  2.0216 -0.4325 -1.7272
 4263SOL    HW224426   3.199   3.481   9.003 -0.0910 -1.0422 -0.2697
 4264SOL     OW24427   3.909   0.223   9.176  0.3233  0.2562  0.2044
 4264SOL    HW124428   3.880   0.187   9.259 -1.4324 -2.0288 -1.3884
 4264SOL    HW224429   3.967   0.157   9.138 -1.6394 -1.2125 -0.2351
 4265SOL     OW24430   4.347   4.611   5.190 -0.3395 -0.4922 -0.7228
 4265SOL    HW124431   4.374   4.621   5.281 -0.7461 -0.3236 -0.6206
 4265SOL    HW224432   4.252   4.607   5.204 -0.2340  0.6481  0.3329
 4266SOL     OW24433   3.444   0.699   2.461 -0.3593 -0.2885 -0.4759
 4266SOL    HW124434   3.439   0.785   2.419  1.8792  0.8525  1.6183
 4266SOL    HW224435   3.416   0.712   2.551  1.2380  0.7296 -0.1248
 4267SOL     OW24436   3.963   1.243  14.102  0.3181 -0.3267  0.0476
 4267SOL    HW124437   4.057   1.229  14.088  0.3989  2.1713 -1.7874
 4267SOL    HW224438   3.940   1.154  14.129  1.6828 -0.4772  0.6730
 4268SOL     OW24439   2.883   3.312   9.525  0.2499 -0.2271 -0.0593
 4268SOL    HW124440   2.939   3.361   9.465 -0.4754 -1.7310 -1.9629
 4268SOL    HW224441   2.948   3.281   9.587  0.8178 -1.4859 -1.2886
 4269SOL     OW24442   4.712   3.768   8.634 -0.0427  0.1580 -0.5058
 4269SOL    HW124443   4.673   3.732   8.554 -2.3779  0.3492  0.5641
 4269SOL    HW224444   4.659   3.724   8.699 -0.3255 -1.7533 -2.0359
 4270SOL     OW24445   3.013   1.088   3.996  0.2102 -0.3217 -1.0205
 4270SOL    HW124446   2.931   1.039   3.992  0.6272 -1.2092  1.2929
 4270SOL    HW224447   2.970   1.164   3.958  0.1904  0.5957  0.8617
 4271SOL     OW24448   1.007   4.326   6.220  0.2938 -0.4528 -0.0199
 4271SOL    HW124449   0.963   4.244   6.244  0.0764 -0.8468 -1.7936
 4271SOL    HW224450   1.096   4.303   6.247 -1.4181 -4.6499  2.0508
 4272SOL     OW24451   4.568   2.927   6.636 -0.2891 -0.0273 -0.4917
 4272SOL    HW124452   4.585   2.832   6.636 -0.5894 -0.0731 -4.5543
 4272SOL    HW224453   4.544   2.939   6.728  1.6169  0.6462 -0.1041
 4273SOL     OW24454   0.080   2.733   2.758 -0.2439  0.4371  0.2818
 4273SOL    HW124455   0.062   2.640   2.745 -1.2973  0.8964 -1.5411
 4273SOL    HW224456   0.115   2.740   2.847  0.8045  3.8248 -0.4021
 4274SOL     OW24457   4.191   0.513  12.404  0.1672  0.0937 -0.4726
 4274SOL    HW124458   4.109   0.474  12.433 -0.5052  1.5429 -0.3880
 4274SOL    HW224459   4.192   0.585  12.467 -1.2934  0.5925 -1.0281
 4275SOL     OW24460   3.776   3.612  15.151  0.1355  0.0245  0.2031
 4275SOL    HW124461   3.786   3.659  15.234 -1.2461  2.1588 -0.8444
 4275SOL    HW224462   3.685   3.635  15.132 -0.9636 -1.1201  3.9925
 4276SOL     OW24463   4.685   0.229  10.274 -0.1574 -0.2141 -0.5681
 4276SOL    HW124464   4.596   0.260  10.257  0.0375  0.1833 -0.8473
 4276SOL    HW224465   4.684   0.249  10.368 -1.2089 -1.3557 -0.3336
 4277SOL     OW24466   2.043   3.527   6.536  0.4253 -0.1341 -0.3707
 4277SOL    HW124467   2.055   3.589   6.608 -1.7224 -2.0071  1.5977
 4277SOL    HW224468   2.103   3.460   6.568 -0.9707 -0.3798  1.7660
 4278SOL     OW24469   1.416   1.128  11.480 -0.4603 -0.7060  0.1211
 4278SOL    HW124470   1.475   1.060  11.511  0.4093 -0.3569 -0.7735
 4278SOL    HW224471   1.332   1.085  11.465 -0.1696 -0.9091 -0.9442
 4279SOL     OW24472   0.086   0.035   5.191  0.1697 -0.2212 -0.6973
 4279SOL    HW124473   0.050   4.686   5.192 -2.0172  0.6932  0.8790
 4279SOL    HW224474   0.177   0.014   5.172  0.5977  1.6106 -0.6667
 4280SOL     OW24475   2.792   4.650   4.350 -0.6171 -0.0297  0.4164
 4280SOL    HW124476   2.882   4.625   4.372  0.4833  2.3875 -1.3896
 4280SOL    HW224477   2.802   4.710   4.276 -1.4301 -1.2070 -0.6486
 4281SOL     OW24478   1.181   1.134  12.724  0.4664  0.1234  0.2371
 4281SOL    HW124479   1.230   1.202  12.770  1.7615 -0.2096 -0.6348
 4281SOL    HW224480   1.203   1.160  12.635 -0.8224  2.1636  0.5189
 4282SOL     OW24481   1.091   4.433   2.958  0.0174  0.0690  0.1372
 4282SOL    HW124482   1.126   4.382   2.885 -0.2420 -1.0007  0.7602
 4282SOL    HW224483   1.160   4.497   2.975 -0.5304  0.6102  0.3443
 4283SOL     OW24484   1.802   2.903   0.435  0.2955 -0.0531  0.3110
 4283SOL    HW124485   1.846   2.979   0.474  0.8762 -0.5180  0.5578
 4283SOL    HW224486   1.752   2.933   0.359 -2.6339  0.0282  2.2585
 4284SOL     OW24487   3.658   1.352  14.427 -0.5319 -0.2013 -0.5506
 4284SOL    HW124488   3.623   1.267  14.400  1.5513 -1.4867  0.8680
 4284SOL    HW224489   3.580   1.391  14.467  0.2737  1.2205 -0.3516
 4285SOL     OW24490   2.300   4.292   4.124  0.4624  0.2437 -0.3844
 4285SOL    HW124491   2.392   4.317   4.139  0.8790 -1.5033 -0.0969
 4285SOL    HW224492   2.263   4.287   4.212 -1.5151  0.5210 -1.2086
 4286SOL     OW24493   3.314   0.641  16.452  0.6936  0.0015 -0.1172
 4286SOL    HW124494   3.295   0.735  16.450 -0.0900 -0.1240  1.8907
 4286SOL    HW224495   3.391   0.640  16.396 -0.3477 -0.6393 -1.5556
 4287SOL     OW24496   0.386   4.539   8.784  0.1640  0.0074 -0.1443
 4287SOL    HW124497   0.328   4.601   8.740  1.3890  1.1404 -0.1653
 4287SOL    HW224498   0.334   4.529   8.864 -1.1140  1.7276 -0.7625
 4288SOL     OW24499   0.689   4.465  14.750 -0.5110 -0.3606  0.1334
 4288SOL    HW124500   0.678   4.391  14.691  2.2264 -0.2484 -0.5084
 4288SOL    HW224501   0.608   4.516  14.743  0.3659  1.1643  1.1726
 4289SOL     OW24502   1.747   0.626   7.080  0.1117 -0.1779 -0.2292
 4289SOL    HW124503   1.765   0.720   7.082 -4.6282  0.7315  1.6834
 4289SOL    HW224504   1.825   0.599   7.128  1.4685  0.2883 -2.1630
 4290SOL     OW24505   1.995   2.580  17.181 -0.5220  0.2010 -0.1599
 4290SOL    HW124506   2.011   2.591  17.087 -0.7503 -1.3833 -0.3850
 4290SOL    HW224507   2.065   2.639  17.211 -0.9891  2.4115 -3.4300
 4291SOL     OW24508   3.906   4.585   1.464  0.1835  0.2385  0.3166
 4291SOL    HW124509   3.935   4.665   1.421 -1.6430 -0.0050 -1.3600
 4291SOL    HW224510   3.988   4.553   1.502  1.6887  1.3882 -1.9424
 4292SOL     OW24511   2.747   1.987   7.189 -0.2059  0.3622 -0.4348
 4292SOL    HW124512   2.765   1.980   7.095  0.6126 -1.7527 -0.1272
 4292SOL    HW224513   2.676   2.051   7.181 -0.9174 -0.4536 -0.7162
 4293SOL     OW24514   1.256   4.147   2.354 -0.2115 -0.0670 -0.1607
 4293SOL    HW124515   1.227   4.216   2.295 -0.6130  0.5537  0.7776
 4293SOL    HW224516   1.187   4.132   2.419  0.8791 -1.5635  0.6484
 4294SOL     OW24517   3.987   4.387   3.186  0.4128 -0.0891 -0.4329
 4294SOL    HW124518   4.054   4.435   3.137  0.1318  0.8739  0.1342
 4294SOL    HW224519   4.032   4.331   3.249 -0.6940  0.0631  0.4968
 4295SOL     OW24520   1.485   2.468   9.324 -0.5387  0.1520 -0.7788
 4295SOL    HW124521   1.484   2.385   9.277 -0.0477  0.0838 -0.6631
 4295SOL    HW224522   1.542   2.448   9.398 -0.3824  0.8270 -0.7205
 4296SOL     OW24523   3.021   1.834  12.495  0.3066 -0.4992 -0.4273
 4296SOL    HW124524   3.110   1.859  12.470  0.3290 -1.3097 -1.1786
 4296SOL    HW224525   2.994   1.776  12.424  0.4449 -1.2838  0.1581
 4297SOL     OW24526   1.685   3.810   2.427 -0.1452 -0.0116  0.2962
 4297SOL    HW124527   1.735   3.870   2.481 -0.5221 -2.1657  3.0163
 4297SOL    HW224528   1.610   3.807   2.486  0.9027 -0.0124  1.6347
 4298SOL     OW24529   0.418   4.125   1.871 -0.1249  0.6640 -0.0176
 4298SOL    HW124530   0.384   4.074   1.798  1.8431 -0.1161 -0.3981
 4298SOL    HW224531   0.333   4.149   1.907 -0.5609 -1.9433  0.6415
 4299SOL     OW24532   1.674   0.984   1.074  0.3855 -0.2518 -0.2193
 4299SOL    HW124533   1.755   0.962   1.121  1.5223  2.2833 -0.9879
 4299SOL    HW224534   1.641   1.056   1.128 -1.6838 -1.2003 -0.2206
 4300SOL     OW24535   3.749   0.832   2.414  0.1889 -0.2731 -0.1714
 4300SOL    HW124536   3.669   0.860   2.370  0.7645  0.7437 -0.5754
 4300SOL    HW224537   3.749   0.881   2.495 -1.2374  0.0058 -0.3410
 4301SOL     OW24538   3.900   3.240   7.223 -0.0046  0.0436 -0.0920
 4301SOL    HW124539   3.830   3.251   7.159 -0.0705 -1.5634 -0.3181
 4301SOL    HW224540   3.858   3.170   7.273 -1.7451  0.7064 -0.6544
 4302SOL     OW24541   0.999   1.181   5.287  0.0127  0.2399  0.8738
 4302SOL    HW124542   0.933   1.142   5.230  2.0432 -0.7746 -0.7678
 4302SOL    HW224543   1.020   1.104   5.340  0.4228  0.6584  1.3183
 4303SOL     OW24544   0.356   0.514  17.411 -0.3518  0.3319  0.2437
 4303SOL    HW124545   0.341   0.602  17.377 -0.6376 -0.6297 -2.1085
 4303SOL    HW224546   0.285   0.510  17.475 -0.4931 -1.0489  0.0109
 4304SOL     OW24547   2.509   0.485  11.272  0.0129  0.0985 -0.1791
 4304SOL    HW124548   2.530   0.431  11.348  0.7100  1.4042  0.5427
 4304SOL    HW224549   2.431   0.453  11.227 -1.6316  1.2184  1.8822
 4305SOL     OW24550   3.616   1.386   8.707 -0.1827  0.4009 -0.6269
 4305SOL    HW124551   3.619   1.374   8.802 -0.0122 -1.4279 -0.8596
 4305SOL    HW224552   3.524   1.413   8.699  0.1927  1.6684 -0.5757
 4306SOL     OW24553   1.584   2.247   8.966  0.0982 -0.3759  0.0132
 4306SOL    HW124554   1.564   2.228   9.058  1.4153 -1.1569  0.1532
 4306SOL    HW224555   1.680   2.252   8.975 -0.1352  0.7891  1.9282
 4307SOL     OW24556   3.878   3.442   7.415 -0.1363  0.2082  0.0822
 4307SOL    HW124557   3.893   3.369   7.474  1.0543 -0.0644 -0.5616
 4307SOL    HW224558   3.890   3.393   7.334 -2.4338  0.1053 -0.2146
 4308SOL     OW24559   0.357   4.710   8.282 -0.3286  0.1630 -0.1655
 4308SOL    HW124560   0.268   4.730   8.310 -0.7097  1.1800 -2.0629
 4308SOL    HW224561   0.413   0.015   8.346  0.4422 -0.6713 -0.2622
 4309SOL     OW24562   0.946   0.613   0.727  0.2554 -0.0112  0.5888
 4309SOL    HW124563   1.022   0.568   0.765 -0.7973 -0.7030  1.8422
 4309SOL    HW224564   0.974   0.672   0.657 -0.6707  0.3098  0.4932
 4310SOL     OW24565   0.451   1.316   5.077 -0.1212  0.3428  0.1168
 4310SOL    HW124566   0.416   1.265   5.004  4.5664 -1.7044 -0.7285
 4310SOL    HW224567   0.379   1.363   5.118 -0.3029 -1.7012  2.1601
 4311SOL     OW24568   1.631   0.105   4.525  0.0175 -0.2229  0.1675
 4311SOL    HW124569   1.685   0.038   4.568  1.2219 -0.0803 -1.1094
 4311SOL    HW224570   1.666   0.098   4.436  1.3535 -1.3383  0.7636
 4312SOL     OW24571   0.647   1.405   2.545  0.6497 -0.3145 -0.1974
 4312SOL    HW124572   0.600   1.473   2.498 -0.9375 -1.0308  0.3449
 4312SOL    HW224573   0.589   1.377   2.616  0.1674  0.4540 -0.2963
 4313SOL     OW24574   1.639   3.413   4.688  0.6375 -0.3887  0.3708
 4313SOL    HW124575   1.734   3.398   4.691  0.3913 -1.4875  3.2568
 4313SOL    HW224576   1.616   3.353   4.759  2.8380 -1.6458  0.0330
 4314SOL     OW24577   2.820   3.501  13.594  0.4544  0.0282 -0.3740
 4314SOL    HW124578   2.875   3.427  13.567 -0.0112 -0.9637  1.4029
 4314SOL    HW224579   2.803   3.556  13.518 -1.7548  0.2784  0.2960
 4315SOL     OW24580   3.583   3.367   4.040  0.0439 -0.7361 -0.6449
 4315SOL    HW124581   3.663   3.416   4.024 -0.3949  0.5672  1.0913
 4315SOL    HW224582   3.609   3.278   4.016  0.3270 -0.4575 -1.3824
 4316SOL     OW24583   2.203   2.294   8.529 -0.0024  0.0216 -0.2264
 4316SOL    HW124584   2.245   2.378   8.546  0.7182 -0.5344  0.7005
 4316SOL    HW224585   2.116   2.329   8.551  0.2244  1.1362 -1.1227
 4317SOL     OW24586   0.123   3.906   5.890  0.1201  0.1146  0.0593
 4317SOL    HW124587   0.122   3.901   5.986  1.9676 -2.1770 -0.0268
 4317SOL    HW224588   0.179   3.983   5.876 -0.4068  0.1814 -1.6943
 4318SOL     OW24589   1.876   1.141   4.881  0.0394 -0.0057  0.2696
 4318SOL    HW124590   1.891   1.132   4.975  0.4331  0.9727  0.2982
 4318SOL    HW224591   1.841   1.230   4.874  3.0325  1.3075  2.0444
 4319SOL     OW24592   2.946   0.711   6.228  0.3096  0.0406  0.2496
 4319SOL    HW124593   2.940   0.739   6.137  0.9376 -0.5540  0.0323
 4319SOL    HW224594   2.861   0.668   6.240 -1.8162  3.7431 -1.4582
 4320SOL     OW24595   4.127   1.129   7.703 -0.3982  0.0427 -0.0055
 4320SOL    HW124596   4.073   1.098   7.630 -0.4183  3.5254 -1.4635
 4320SOL    HW224597   4.061   1.137   7.772 -0.2037  0.1935  0.1633
 4321SOL     OW24598   4.090   4.638   8.360  0.2922 -0.4298 -0.3718
 4321SOL    HW124599   4.110   4.544   8.350  0.4601 -0.5522  1.0244
 4321SOL    HW224600   4.122   4.645   8.450 -0.3443  0.2683 -0.2060
 4322SOL     OW24601   3.118   2.406   3.657  0.5805 -0.1439  0.4888
 4322SOL    HW124602   3.082   2.414   3.745  0.9518  0.9196  0.5344
 4322SOL    HW224603   3.058   2.465   3.611  0.7668 -0.2256  0.1329
 4323SOL     OW24604   3.478   3.385   7.925  0.2491 -0.2229 -0.2225
 4323SOL    HW124605   3.547   3.358   7.865  1.8105  1.0457  1.0053
 4323SOL    HW224606   3.503   3.351   8.011 -1.4575 -1.7072 -0.3221
 4324SOL     OW24607   1.910   2.871  16.747 -0.7536  0.0390 -0.5688
 4324SOL    HW124608   1.854   2.949  16.739  0.4784  1.1151  1.2117
 4324SOL    HW224609   1.993   2.892  16.788 -0.6582 -1.8714  0.1889
 4325SOL     OW24610   4.416   0.381  10.196  0.3926  0.0261  0.3826
 4325SOL    HW124611   4.406   0.463  10.244 -1.6129 -0.8516  1.4365
 4325SOL    HW224612   4.339   0.384  10.139  0.0332  1.1734  0.9341
 4326SOL     OW24613   1.010   2.869  17.110  0.0177 -0.5380 -0.3029
 4326SOL    HW124614   0.953   2.853  17.185  0.3900 -1.5914 -0.2563
 4326SOL    HW224615   1.054   2.784  17.109  0.5863 -0.2472  0.0331
 4327SOL     OW24616   3.293   2.475  16.500  0.8017  0.1544  0.1352
 4327SOL    HW124617   3.375   2.449  16.459  1.5068  2.1865  0.2565
 4327SOL    HW224618   3.273   2.405  16.561 -1.8958 -0.3736 -1.3520
 4328SOL     OW24619   4.455   4.652   6.397 -0.1342  0.2793  0.5252
 4328SOL    HW124620   4.372   4.677   6.356 -0.2223  1.1376  1.2039
 4328SOL    HW224621   4.514   4.680   6.327 -1.6465  0.0342 -0.8381
 4329SOL     OW24622   4.175   2.166   1.983 -0.0489  0.0064  0.3740
 4329SOL    HW124623   4.084   2.197   1.985 -0.2651 -0.4922 -1.9542
 4329SOL    HW224624   4.206   2.201   1.900  2.1161  2.4446  2.2246
 4330SOL     OW24625   4.607   4.101   9.120 -0.4378  0.5228 -0.0151
 4330SOL    HW124626   4.569   4.087   9.034 -0.3974  0.9308 -0.1001
 4330SOL    HW224627   4.639   4.012   9.137  0.6403  1.0692  0.8962
 4331SOL     OW24628   2.334   2.750   2.032  0.2242  0.0840 -0.8785
 4331SOL    HW124629   2.392   2.738   2.107 -2.1462 -0.9015  0.7964
 4331SOL    HW224630   2.334   2.842   2.009  0.0229  0.5769  1.0656
 4332SOL     OW24631   2.049   4.671   4.432  0.4356 -0.4646 -0.3405
 4332SOL    HW124632   2.031   4.705   4.345  1.9022  0.6351 -0.2068
 4332SOL    HW224633   1.988   4.603   4.460 -0.0005 -0.8160 -2.1428
 4333SOL     OW24634   0.137   0.743   8.674  0.2678 -0.6838  0.0718
 4333SOL    HW124635   0.217   0.790   8.700 -0.7491  1.3896 -0.5779
 4333SOL    HW224636   0.156   0.649   8.682 -2.2363 -1.2200 -0.3668
 4334SOL     OW24637   0.241   4.704   1.945 -0.0140  0.4454 -0.1085
 4334SOL    HW124638   0.260   4.612   1.926 -2.2006  0.6151 -3.0469
 4334SOL    HW224639   0.190   4.697   2.026 -0.3202 -1.7193 -0.4807
 4335SOL     OW24640   0.548   4.574   7.833  0.0188 -0.0868  0.5739
 4335SOL    HW124641   0.548   4.633   7.758 -3.0411  0.9410  1.3766
 4335SOL    HW224642   0.640   4.572   7.857 -0.4430 -0.2381  2.3431
 4336SOL     OW24643   2.352   4.503   1.944  0.2846  0.1376  0.0362
 4336SOL    HW124644   2.430   4.556   1.925  0.3957  0.6853  2.0654
 4336SOL    HW224645   2.395   4.445   2.007  1.5405  0.2843 -0.6966
 4337SOL     OW24646   3.129   3.267   7.969 -0.0585 -0.0371  0.4556
 4337SOL    HW124647   3.139   3.294   7.878 -2.2349 -0.2924  0.1336
 4337SOL    HW224648   3.192   3.195   7.975  1.3763  1.3286  1.7546
 4338SOL     OW24649   3.810   4.656   3.406  0.2616 -0.2528  0.0160
 4338SOL    HW124650   3.897   4.685   3.377  1.7952 -2.1067  2.7108
 4338SOL    HW224651   3.759   4.714   3.350 -0.0723  0.4623  1.0542
 4339SOL     OW24652   1.266   0.069   9.109 -0.0880 -1.1488 -0.4135
 4339SOL    HW124653   1.194   0.065   9.047 -1.6737  2.0617  1.2212
 4339SOL    HW224654   1.263   0.160   9.139  2.0460 -1.7395  1.6639
 4340SOL     OW24655   0.299   2.207  15.925  0.0578 -0.2110 -0.2800
 4340SOL    HW124656   0.210   2.179  15.905  0.1587 -0.5101 -0.3204
 4340SOL    HW224657   0.283   2.221  16.018 -1.9789  1.1523 -0.8351
 4341SOL     OW24658   3.426   4.271   6.545  0.2014 -0.4533  0.2549
 4341SOL    HW124659   3.492   4.206   6.525 -1.1211 -1.9326  0.7351
 4341SOL    HW224660   3.485   4.337   6.582 -2.2519  2.2051 -0.5252
 4342SOL     OW24661   0.826   3.053   0.187  0.3455 -0.0205 -0.9958
 4342SOL    HW124662   0.818   3.144   0.214 -1.7320 -0.2621 -0.7591
 4342SOL    HW224663   0.778   3.061   0.105 -1.5151 -0.1937  0.0725
 4343SOL     OW24664   0.328   4.529   7.995  0.5046 -0.2303  0.0674
 4343SOL    HW124665   0.403   4.534   7.935  2.0168  0.8862  2.0489
 4343SOL    HW224666   0.366   4.508   8.080  0.8856 -0.6826 -0.2130
 4344SOL     OW24667   0.266   0.119   6.657  0.1523  0.5856  0.4588
 4344SOL    HW124668   0.218   0.200   6.669 -0.0162  1.1208 -3.6883
 4344SOL    HW224669   0.284   0.118   6.563 -0.3924  0.0170  0.3601
 4345SOL     OW24670   1.225   1.463   2.818  0.3093  0.3053 -0.2157
 4345SOL    HW124671   1.167   1.393   2.848 -0.1042 -0.8974 -3.7929
 4345SOL    HW224672   1.240   1.500   2.905 -1.5744  0.8226 -0.1087
 4346SOL     OW24673   2.249   1.451   7.737  0.0764 -0.0030  0.4532
 4346SOL    HW124674   2.227   1.388   7.805 -0.6085 -0.3207 -0.0587
 4346SOL    HW224675   2.308   1.504   7.790  0.3376 -0.6430  0.8043
 4347SOL     OW24676   0.492   2.919   1.931 -0.2323 -0.3913  0.4170
 4347SOL    HW124677   0.500   2.939   1.838 -1.8136 -0.2858  0.3060
 4347SOL    HW224678   0.582   2.889   1.943 -0.4458 -1.8202 -1.5646
 4348SOL     OW24679   3.633   1.087  13.828 -0.6095  0.4426 -0.1456
 4348SOL    HW124680   3.654   1.024  13.898  2.6124  1.3502 -0.3016
 4348SOL    HW224681   3.666   1.164  13.874  1.6242  0.0691 -1.1163
 4349SOL     OW24682   3.990   0.630   5.371 -0.0890 -0.4863 -1.1798
 4349SOL    HW124683   4.085   0.646   5.377 -0.1995 -0.0139 -0.6904
 4349SOL    HW224684   3.976   0.653   5.279 -1.5264 -0.5739 -0.9728
 4350SOL     OW24685   1.894   3.965   4.707 -0.0865  0.4610 -0.5230
 4350SOL    HW124686   1.835   3.895   4.679  0.0942  0.6880 -1.4920
 4350SOL    HW224687   1.965   3.951   4.643 -0.6306  0.7660 -1.1927
 4351SOL     OW24688   0.913   1.628   4.862  0.0198  0.3138  0.0595
 4351SOL    HW124689   0.846   1.568   4.893 -0.4714  0.5360 -0.5793
 4351SOL    HW224690   0.921   1.687   4.937 -2.4228 -1.5144  1.7379
 4352SOL     OW24691   1.809   2.829   9.376  0.0090 -0.4977  0.2844
 4352SOL    HW124692   1.720   2.865   9.368 -0.5939 -1.4393  2.5524
 4352SOL    HW224693   1.864   2.893   9.331 -1.4610  0.1463 -0.5978
 4353SOL     OW24694   1.347   4.663   7.476  0.5664  0.0810  0.3889
 4353SOL    HW124695   1.337   0.017   7.459 -0.8252  0.3633  2.8340
 4353SOL    HW224696   1.285   4.627   7.411  1.0836  2.5274 -1.4612
 4354SOL     OW24697   4.673   0.731   1.775 -0.1755 -0.1461 -0.4259
 4354SOL    HW124698   4.650   0.824   1.768 -1.6191 -0.3018  2.5218
 4354SOL    HW224699   0.026   0.729   1.799 -0.3093 -0.3538  0.0571
 4355SOL     OW24700   0.846   3.572  10.794  0.5120 -0.3125  0.1246
 4355SOL    HW124701   0.841   3.499  10.856 -0.6451 -1.1299 -0.9117
 4355SOL    HW224702   0.763   3.562  10.747  1.5054 -1.4456 -1.4172
 4356SOL     OW24703   0.053   3.343   4.233 -0.9318 -0.4558 -0.2345
 4356SOL    HW124704   4.724   3.397   4.273 -1.3026 -1.7061  0.8001
 4356SOL    HW224705   0.015   3.341   4.145  0.0719 -2.9623 -0.5914
 4357SOL     OW24706   4.402   1.767   1.004 -0.0007 -0.1729  0.3046
 4357SOL    HW124707   4.334   1.739   1.066 -0.0542 -0.7602 -0.0218
 4357SOL    HW224708   4.402   1.684   0.956  1.6297 -0.7509  1.2917
 4358SOL     OW24709   1.899   3.114   2.885  0.2634  0.1335  0.2996
 4358SOL    HW124710   1.810   3.083   2.867  0.7160 -0.0367 -1.7142
 4358SOL    HW224711   1.874   3.189   2.938  0.3873  0.1433  0.3434
 4359SOL     OW24712   0.200   3.872   6.162  0.2888  0.1449  0.2631
 4359SOL    HW124713   0.263   3.800   6.163 -0.5542 -0.6059 -1.2195
 4359SOL    HW224714   0.122   3.834   6.202  0.9216  0.2399  1.5926
 4360SOL     OW24715   4.528   4.446   7.324 -0.6609 -0.0589  0.3660
 4360SOL    HW124716   4.532   4.399   7.240  1.4928  0.7865 -0.0194
 4360SOL    HW224717   4.539   4.536   7.294 -0.9989 -0.7180 -1.7307
 4361SOL     OW24718   1.287   0.726   4.530 -0.5572  0.6181 -0.0335
 4361SOL    HW124719   1.260   0.634   4.537  1.7984 -0.0367  0.5315
 4361SOL    HW224720   1.280   0.737   4.435  1.3442  0.0266 -0.2499
 4362SOL     OW24721   2.113   3.025  14.308 -0.7235  0.1836 -0.5039
 4362SOL    HW124722   2.047   3.032  14.377 -0.3217 -3.7340  0.2601
 4362SOL    HW224723   2.139   2.936  14.331  2.5033  0.8510 -1.5854
 4363SOL     OW24724   4.658   0.894  11.955 -0.5986  0.0675  0.1641
 4363SOL    HW124725   4.575   0.846  11.959  0.5902 -1.9496  0.3397
 4363SOL    HW224726   4.621   0.982  11.953 -0.8535 -0.0424  0.0336
 4364SOL     OW24727   0.305   0.623  11.463  0.0327 -0.1703 -0.2018
 4364SOL    HW124728   0.356   0.589  11.536 -0.4905  1.1488  0.7837
 4364SOL    HW224729   0.343   0.582  11.385 -0.9355 -0.1146 -0.7034
 4365SOL     OW24730   3.456   0.836   8.487  0.0089  0.4019 -0.9814
 4365SOL    HW124731   3.436   0.830   8.581 -1.4805  0.5582 -1.2806
 4365SOL    HW224732   3.539   0.791   8.475 -0.4139 -0.5171 -0.4764
 4366SOL     OW24733   0.426   0.365   4.155 -0.0601  0.2693  0.0549
 4366SOL    HW124734   0.390   0.448   4.186 -0.3131  0.3981 -0.5816
 4366SOL    HW224735   0.361   0.310   4.198  1.7613 -1.8264  0.0999
 4367SOL     OW24736   2.035   4.471  11.652  0.3328 -0.6475 -0.2225
 4367SOL    HW124737   2.070   4.560  11.651 -0.6574 -0.2686 -1.9656
 4367SOL    HW224738   2.059   4.434  11.567 -0.9377  1.0180 -1.3039
 4368SOL     OW24739   0.050   1.192  11.242 -0.1864 -0.4928  0.0975
 4368SOL    HW124740   0.055   1.223  11.332 -0.3704 -1.0772  0.3140
 4368SOL    HW224741   4.708   1.231  11.211 -0.7998 -0.2119  2.1092
 4369SOL     OW24742   2.374   3.084   3.783  0.2905  0.1637  0.4513
 4369SOL    HW124743   2.469   3.078   3.780  0.4139  2.2364  0.5832
 4369SOL    HW224744   2.363   3.171   3.821  1.5174 -0.1002  1.3922
 4370SOL     OW24745   2.871   4.285   2.927  0.1259  0.5372 -0.1746
 4370SOL    HW124746   2.915   4.362   2.963  0.5628  1.0218 -1.7503
 4370SOL    HW224747   2.912   4.220   2.984  0.8824  2.4386  1.4758
 4371SOL     OW24748   4.262   2.994  15.978 -0.3635 -0.0993  0.2357
 4371SOL    HW124749   4.237   2.908  16.012  2.5638 -1.0305  0.0172
 4371SOL    HW224750   4.353   2.984  15.950 -0.4638 -0.4653  0.0376
 4372SOL     OW24751   0.030   4.706  10.284 -0.4456  0.3088 -0.4263
 4372SOL    HW124752   4.700   4.678  10.344  0.4215  1.3654  1.0802
 4372SOL    HW224753   0.004   0.058  10.271  0.6791  0.4483 -1.6245
 4373SOL     OW24754   3.337   1.753   1.389 -0.4394 -0.6433 -0.0284
 4373SOL    HW124755   3.249   1.741   1.426 -0.2395 -2.8861 -0.2738
 4373SOL    HW224756   3.353   1.847   1.390  0.2773 -0.7504 -0.7111
 4374SOL     OW24757   3.229   1.886   3.405  0.4226  0.1396 -0.5019
 4374SOL    HW124758   3.253   1.958   3.346  0.2698 -0.2153 -1.0026
 4374SOL    HW224759   3.148   1.917   3.445 -0.6066 -1.1451 -1.5867
 4375SOL     OW24760   0.669   1.101   6.188 -0.0739  0.8267 -0.3639
 4375SOL    HW124761   0.703   1.190   6.197 -0.1279  1.1016 -2.8828
 4375SOL    HW224762   0.723   1.064   6.119 -1.5282  0.3907 -1.2837
 4376SOL     OW24763   1.404   0.953   6.307  0.4448  0.0607 -0.3989
 4376SOL    HW124764   1.434   1.003   6.232 -1.4114  1.8825  0.0781
 4376SOL    HW224765   1.426   1.019   6.372  0.3624  1.8882 -2.2464
 4377SOL     OW24766   0.577   3.905   3.606 -0.2977  0.0800 -0.3426
 4377SOL    HW124767   0.505   3.948   3.650  0.0466 -0.5655  0.8585
 4377SOL    HW224768   0.532   3.866   3.531 -0.7099  1.3548 -0.7493
 4378SOL     OW24769   0.846   4.726   8.369  0.0669 -0.8540  0.1048
 4378SOL    HW124770   0.809   0.053   8.426  0.8309  0.4236 -0.8986
 4378SOL    HW224771   0.902   0.036   8.310 -1.0592 -2.6921 -2.5183
 4379SOL     OW24772   2.076   3.810  13.262 -0.2668  0.1298 -0.2659
 4379SOL    HW124773   2.162   3.779  13.291 -0.5385 -0.0772  0.3224
 4379SOL    HW224774   2.062   3.749  13.190  3.3261  0.8374 -1.5885
 4380SOL     OW24775   2.501   1.528   8.734 -0.7758 -0.3275  0.5191
 4380SOL    HW124776   2.449   1.560   8.660  0.7661 -2.1676 -1.3918
 4380SOL    HW224777   2.573   1.488   8.684 -1.2538 -1.1011  0.4471
 4381SOL     OW24778   1.626   3.107   8.788 -0.4316  0.8374 -0.4567
 4381SOL    HW124779   1.540   3.110   8.831  0.0485 -0.8734  0.6623
 4381SOL    HW224780   1.598   3.034   8.733  2.3153  0.4219 -1.3169
 4382SOL     OW24781   1.562   0.556   3.179 -0.0447  0.6742 -0.5155
 4382SOL    HW124782   1.492   0.550   3.244  0.7056  0.2489  0.2528
 4382SOL    HW224783   1.641   0.558   3.233  0.8360 -1.1397 -1.7317
 4383SOL     OW24784   4.464   3.151   2.169  0.2205  0.4909 -0.5068
 4383SOL    HW124785   4.390   3.099   2.200  1.5875 -0.6995  0.7892
 4383SOL    HW224786   4.494   3.183   2.254  1.8974  1.9193 -1.6260
 4384SOL     OW24787   1.392   4.406  17.574  0.0271 -0.0412  0.2573
 4384SOL    HW124788   1.326   4.475  17.572  0.9632  0.8342 -0.0254
 4384SOL    HW224789   1.464   4.428  17.515  0.5429  0.2066  0.9820
 4385SOL     OW24790   4.059   3.916  10.367 -0.0857 -0.3508 -0.1966
 4385SOL    HW124791   4.079   4.008  10.347  2.1211 -0.8068 -0.1023
 4385SOL    HW224792   4.008   3.924  10.448 -1.3215  1.5054 -1.1653
 4386SOL     OW24793   0.034   0.866   1.135 -0.2211  0.4549  0.2056
 4386SOL    HW124794   0.056   0.809   1.061 -0.1107  1.1198 -0.2742
 4386SOL    HW224795   4.706   0.917   1.090  0.4175  0.2815 -0.9573
 4387SOL     OW24796   4.567   1.902   8.811 -0.0120  0.2543 -0.0296
 4387SOL    HW124797   4.649   1.938   8.776  0.3880 -1.5210 -0.9348
 4387SOL    HW224798   4.520   1.985   8.818  0.0186  0.4151 -1.8636
 4388SOL     OW24799   0.988   3.398   7.415  0.2377 -0.0609  0.0729
 4388SOL    HW124800   1.004   3.492   7.404  0.3187 -0.0975 -0.1097
 4388SOL    HW224801   1.075   3.358   7.411  0.2463 -0.0918  0.5125
 4389SOL     OW24802   1.530   2.065   0.629  0.6064 -0.6602 -0.0942
 4389SOL    HW124803   1.470   2.041   0.700  0.8996  1.6304  0.9400
 4389SOL    HW224804   1.464   2.105   0.573 -1.5746 -0.4447  2.6030
 4390SOL     OW24805   1.858   0.465   4.861  0.3353 -0.1413 -1.2031
 4390SOL    HW124806   1.850   0.441   4.768 -1.5458 -1.3684 -0.7157
 4390SOL    HW224807   1.952   0.450   4.870  0.3183  1.8852  2.2955
 4391SOL     OW24808   4.488   1.182   7.006  0.7433 -0.8016  0.3892
 4391SOL    HW124809   4.416   1.243   6.994  0.2563 -0.8170  3.0654
 4391SOL    HW224810   4.560   1.243   6.991 -0.5367  0.4179 -0.7915
 4392SOL     OW24811   1.872   0.103  15.634 -0.0436 -0.6232 -0.2145
 4392SOL    HW124812   1.928   0.027  15.620  0.0709 -0.6217  0.2217
 4392SOL    HW224813   1.802   0.066  15.689  1.3610 -0.2730  1.8351
 4393SOL     OW24814   2.723   4.723  11.669  0.2897  0.4113  0.4404
 4393SOL    HW124815   2.772   0.065  11.659  1.2587 -0.1876  0.3488
 4393SOL    HW224816   2.660   0.015  11.733 -1.1748 -2.1272  0.2612
 4394SOL     OW24817   4.199   4.141   5.596  0.1857 -0.3260 -0.9571
 4394SOL    HW124818   4.196   4.166   5.504 -1.1759  0.9679 -0.5639
 4394SOL    HW224819   4.273   4.082   5.589 -0.1941 -0.5890 -2.6084
 4395SOL     OW24820   2.184   0.228  14.470  1.0626 -0.2439  0.3967
 4395SOL    HW124821   2.252   0.164  14.453 -0.7821 -1.9899 -0.4176
 4395SOL    HW224822   2.172   0.260  14.380 -1.5944 -1.2175  0.4041
 4396SOL     OW24823   0.848   0.426   2.680  0.0709  0.6052  0.5712
 4396SOL    HW124824   0.923   0.480   2.658  0.1014  0.9133  1.4652
 4396SOL    HW224825   0.860   0.406   2.772 -2.6020 -0.3876  0.7035
 4397SOL     OW24826   2.244   2.569   1.882  0.1189 -0.5279  0.3566
 4397SOL    HW124827   2.320   2.551   1.826 -0.1289 -3.9624  1.1053
 4397SOL    HW224828   2.283   2.638   1.936  1.3163  1.4168 -2.9972
 4398SOL     OW24829   0.084   0.597  14.951  0.1895  0.1025 -0.4528
 4398SOL    HW124830   0.101   0.691  14.959  2.9090 -0.6025  2.2156
 4398SOL    HW224831   0.174   0.569  14.969 -0.4120 -1.0766  0.7436
 4399SOL     OW24832   4.185   0.215  11.994 -0.0524  0.0730  0.0111
 4399SOL    HW124833   4.138   0.142  12.036 -1.7953 -0.4610 -2.8064
 4399SOL    HW224834   4.231   0.256  12.067  0.2630  2.1053 -1.3493
 4400SOL     OW24835   2.474   1.192  17.564  0.1076 -0.6935 -0.1330
 4400SOL    HW124836   2.551   1.223  17.516 -0.6973  0.5070 -0.6600
 4400SOL    HW224837   2.511   1.125  17.620 -0.3554  1.7004  3.0192
 4401SOL     OW24838   2.543   2.572   3.123  0.4855 -0.5351  0.1012
 4401SOL    HW124839   2.501   2.657   3.110 -0.3484 -1.1412 -1.1026
 4401SOL    HW224840   2.483   2.499   3.109 -1.4930  1.1361 -0.1814
 4402SOL     OW24841   0.746   2.159  14.802 -0.1206  0.5969  0.6522
 4402SOL    HW124842   0.821   2.112  14.839  0.8237  0.5540 -1.2777
 4402SOL    HW224843   0.698   2.091  14.756  0.3547  0.8071 -0.1602
 4403SOL     OW24844   0.538   2.271   3.349  0.3256  0.3876  0.3811
 4403SOL    HW124845   0.623   2.297   3.313 -0.1934  1.1470 -0.2995
 4403SOL    HW224846   0.499   2.355   3.373 -0.1568  0.2635  0.0299
 4404SOL     OW24847   1.699   4.525  10.084  0.1843  0.2311  0.2809
 4404SOL    HW124848   1.705   4.502  10.177  2.0330 -0.7787 -0.0801
 4404SOL    HW224849   1.679   4.436  10.056 -0.6306  0.7859 -0.8913
 4405SOL     OW24850   2.664   0.781   2.706 -0.1889  0.7735 -0.1830
 4405SOL    HW124851   2.680   0.778   2.612 -1.1944 -1.3307 -0.3045
 4405SOL    HW224852   2.723   0.714   2.742  0.8583  1.9054  0.1786
 4406SOL     OW24853   0.270   1.015  17.003 -0.1310  0.2725 -0.2070
 4406SOL    HW124854   0.245   1.019  17.095 -1.1487  0.9539 -0.5056
 4406SOL    HW224855   0.217   0.941  16.972 -1.0048  1.0664 -0.6098
 4407SOL     OW24856   1.219   3.137   3.518 -0.2568  0.3981 -0.1505
 4407SOL    HW124857   1.170   3.217   3.537 -2.1880 -0.5549 -1.0918
 4407SOL    HW224858   1.280   3.191   3.469 -0.4161  0.9539  0.2590
 4408SOL     OW24859   0.701   2.188   4.220 -0.7667  0.0304 -0.0333
 4408SOL    HW124860   0.684   2.269   4.268 -0.1704  1.7267 -2.6539
 4408SOL    HW224861   0.690   2.117   4.283  2.9101  0.8209  1.5056
 4409SOL     OW24862   2.120   0.813  15.136 -0.0701  0.0316 -0.2809
 4409SOL    HW124863   2.031   0.779  15.128  0.0733 -0.3964 -0.0532
 4409SOL    HW224864   2.123   0.865  15.056  3.5608  0.0933 -0.0747
 4410SOL     OW24865   3.678   2.586  13.330 -0.7335 -0.1960  0.3494
 4410SOL    HW124866   3.761   2.575  13.283 -1.1695 -2.1359  0.0201
 4410SOL    HW224867   3.694   2.533  13.408  1.9346 -1.8664 -1.3575
 4411SOL     OW24868   3.810   0.080   5.163 -0.2713  0.3780 -0.3292
 4411SOL    HW124869   3.824   0.092   5.257 -0.4759 -1.8465 -0.0021
 4411SOL    HW224870   3.881   0.127   5.121 -0.7786 -0.9524 -2.6994
 4412SOL     OW24871   0.406   3.886   7.666  0.1814 -0.1931  0.1538
 4412SOL    HW124872   0.417   3.800   7.704  2.8254 -0.2134 -0.6450
 4412SOL    HW224873   0.402   3.868   7.572 -1.6799  0.5522  0.0880
 4413SOL     OW24874   3.333   2.249   2.502  0.0923  0.8256 -0.1379
 4413SOL    HW124875   3.425   2.237   2.480 -0.6027  1.6679 -3.3832
 4413SOL    HW224876   3.293   2.167   2.473  1.2279  0.0427  0.4788
 4414SOL     OW24877   2.391   3.974   7.391 -0.3393 -0.2356 -0.1838
 4414SOL    HW124878   2.393   3.962   7.296  0.4540  1.5408 -0.3986
 4414SOL    HW224879   2.297   3.991   7.395 -0.8056 -2.9289 -0.1582
 4415SOL     OW24880   1.252   3.736  13.411 -0.2809 -0.1451  0.1660
 4415SOL    HW124881   1.201   3.707  13.486  0.3763  1.4812  1.2418
 4415SOL    HW224882   1.334   3.686  13.422  0.4078  1.2779  1.4933
 4416SOL     OW24883   1.005   0.006   5.833 -1.0674 -0.0353 -0.3768
 4416SOL    HW124884   0.986   4.672   5.891 -0.2936  0.4713  0.5099
 4416SOL    HW224885   1.061   4.704   5.766 -1.2791 -1.4930  0.3467
 4417SOL     OW24886   4.283   1.806   9.171  0.1081 -0.1176  0.0970
 4417SOL    HW124887   4.313   1.892   9.142  1.9870 -1.3127 -1.5137
 4417SOL    HW224888   4.224   1.789   9.097  0.9801  0.9460 -0.8406
 4418SOL     OW24889   2.045   0.679   5.307 -0.3417  0.3554 -0.5907
 4418SOL    HW124890   2.002   0.663   5.392  1.4889 -2.0221 -0.0958
 4418SOL    HW224891   1.990   0.727   5.245 -0.3403  1.7638  0.4949
 4419SOL     OW24892   0.282   2.554  15.084  0.1197 -0.0985  0.4496
 4419SOL    HW124893   0.237   2.633  15.114  0.5019 -1.2453  4.0260
 4419SOL    HW224894   0.228   2.498  15.139  1.1859 -1.3168  0.2526
 4420SOL     OW24895   0.643   1.819   9.324  0.5363 -0.2158  0.5582
 4420SOL    HW124896   0.570   1.794   9.267  1.1822  0.2425 -0.4611
 4420SOL    HW224897   0.691   1.889   9.279 -0.0496 -0.7481 -0.9127
 4421SOL     OW24898   2.716   3.074  12.650  0.1254 -1.0851  0.2777
 4421SOL    HW124899   2.632   3.075  12.696  0.1883 -0.2697  0.3814
 4421SOL    HW224900   2.749   3.159  12.681 -2.2893 -0.0079 -0.0732
 4422SOL     OW24901   3.324   2.896   0.207  0.3307  0.2895  0.0178
 4422SOL    HW124902   3.269   2.862   0.278 -2.7109  0.8967 -2.0524
 4422SOL    HW224903   3.272   2.963   0.162 -1.1446  0.6653  2.2869
 4423SOL     OW24904   0.542   3.036   6.032  0.0463 -0.3344  0.0504
 4423SOL    HW124905   0.557   3.021   5.938 -1.4750  0.4357 -0.3099
 4423SOL    HW224906   0.616   2.997   6.079  2.3705  0.6237 -2.7574
 4424SOL     OW24907   0.045   0.664  11.363  0.2995  0.1815 -0.3492
 4424SOL    HW124908   0.137   0.649  11.387  0.3170 -1.0310 -1.1491
 4424SOL    HW224909   0.043   0.756  11.339 -2.4970 -0.8401 -3.9712
 4425SOL     OW24910   3.248   0.195  15.390  0.2916  0.3854 -0.4992
 4425SOL    HW124911   3.164   0.149  15.398 -1.1344  3.5156  2.7252
 4425SOL    HW224912   3.220   0.272  15.439  1.3530 -1.0036  2.2823
 4426SOL     OW24913   1.124   1.113  11.909  0.1380  0.0909  0.1666
 4426SOL    HW124914   1.047   1.156  11.873  0.3189  1.1327  1.0309
 4426SOL    HW224915   1.183   1.137  11.837 -2.5512 -0.2975 -2.1875
 4427SOL     OW24916   3.811   4.386   4.447 -0.0388  0.4652 -0.1335
 4427SOL    HW124917   3.871   4.322   4.485  0.6549  1.4742  0.4739
 4427SOL    HW224918   3.751   4.413   4.516  1.4462 -0.4362  1.5140
 4428SOL     OW24919   2.955   3.193   1.471 -0.1885  0.3144  0.5748
 4428SOL    HW124920   2.960   3.100   1.495 -1.9521 -0.1191 -0.8055
 4428SOL    HW224921   2.861   3.208   1.472  0.0702  1.8815  0.1237
 4429SOL     OW24922   0.660   4.052   7.285 -0.2436  0.0178 -0.4712
 4429SOL    HW124923   0.723   3.994   7.243 -1.1031 -0.0908 -1.6134
 4429SOL    HW224924   0.646   4.122   7.221  1.2221  1.0133  0.3001
 4430SOL     OW24925   1.565   1.276  14.867 -0.2288  0.2010  0.3302
 4430SOL    HW124926   1.599   1.195  14.904  0.3867  0.7937  1.0521
 4430SOL    HW224927   1.474   1.267  14.892  0.4105 -1.7474  1.8557
 4431SOL     OW24928   2.831   0.662  12.275 -0.0772 -0.2187  0.1672
 4431SOL    HW124929   2.825   0.602  12.202 -0.6303  0.8090 -0.6306
 4431SOL    HW224930   2.835   0.602  12.350 -0.8247  1.3432  1.4681
 4432SOL     OW24931   4.102   2.174   0.009  0.8916 -0.1288  0.6098
 4432SOL    HW124932   4.052   2.254   0.027 -0.1839 -0.6654 -0.0300
 4432SOL    HW224933   4.109   2.164  17.670  0.2695 -1.1700  0.6708
 4433SOL     OW24934   4.303   2.379   0.383  0.1049 -0.2118  0.5110
 4433SOL    HW124935   4.297   2.284   0.372 -1.9488 -0.1007  0.6594
 4433SOL    HW224936   4.275   2.390   0.474 -0.8915 -1.8401  0.4128
 4434SOL     OW24937   3.470   3.542   6.959 -0.1916 -0.0174  0.0870
 4434SOL    HW124938   3.480   3.565   6.867  1.4998 -0.1212  0.2440
 4434SOL    HW224939   3.552   3.575   6.997 -0.0368 -2.0771  1.5665
 4435SOL     OW24940   2.834   2.403   5.549 -0.0784  0.2184  0.8393
 4435SOL    HW124941   2.927   2.409   5.571  0.0762 -0.4236  0.3516
 4435SOL    HW224942   2.820   2.478   5.491  0.9098 -0.1046  0.1888
 4436SOL     OW24943   2.577   2.220   3.109 -0.1089  0.2295 -0.4182
 4436SOL    HW124944   2.545   2.217   3.019 -0.6518  0.1073 -0.2163
 4436SOL    HW224945   2.519   2.291   3.137 -1.0187 -0.0342 -1.6724
 4437SOL     OW24946   4.595   3.071   2.752  0.1508  0.1251  0.5014
 4437SOL    HW124947   4.560   3.080   2.664 -0.9680  0.5682  0.9909
 4437SOL    HW224948   4.673   3.019   2.731 -0.4308 -0.8240  0.6697
 4438SOL     OW24949   3.566   3.834  14.584  0.7194  0.0557 -0.7042
 4438SOL    HW124950   3.518   3.755  14.608  1.0121  0.3390  0.8468
 4438SOL    HW224951   3.608   3.866  14.664 -1.1890  1.3580 -0.2112
 4439SOL     OW24952   3.468   3.717   4.157 -0.0159  0.2723 -1.4269
 4439SOL    HW124953   3.391   3.690   4.208 -0.2167  1.5260 -1.0602
 4439SOL    HW224954   3.500   3.796   4.200 -2.0481  0.4241 -0.1824
 4440SOL     OW24955   1.216   1.791   0.661  0.0019 -0.4255  0.0481
 4440SOL    HW124956   1.227   1.716   0.720  1.8798  1.2497  1.8128
 4440SOL    HW224957   1.266   1.856   0.711 -0.4322 -0.8615  1.0552
 4441SOL     OW24958   1.005   1.132   0.073  0.1059 -0.0032 -0.2084
 4441SOL    HW124959   0.954   1.178   0.140  3.1527  0.6735  1.6768
 4441SOL    HW224960   1.038   1.066   0.134 -0.8419 -0.7605 -0.5167
 4442SOL     OW24961   3.680   1.188   1.562  0.0587 -0.4319 -0.7319
 4442SOL    HW124962   3.735   1.155   1.492 -1.4337 -1.6336 -1.3520
 4442SOL    HW224963   3.675   1.277   1.528  1.2666  0.4210  1.3166
 4443SOL     OW24964   0.509   0.448   8.670  0.3174  1.0208  0.4787
 4443SOL    HW124965   0.528   0.511   8.739 -1.1936  1.0001  0.9004
 4443SOL    HW224966   0.524   0.361   8.706 -1.0746  0.5513 -0.0501
 4444SOL     OW24967   1.223   2.237   6.181 -1.1179 -0.1177  0.2121
 4444SOL    HW124968   1.210   2.184   6.102 -1.9656  1.4747 -0.7134
 4444SOL    HW224969   1.218   2.172   6.251 -0.3707  2.1939  2.4152
 4445SOL     OW24970   3.880   1.714   5.790  0.2091 -0.7140 -0.0055
 4445SOL    HW124971   3.799   1.710   5.740  0.9217  0.1828 -1.2225
 4445SOL    HW224972   3.934   1.766   5.731  1.5730 -0.1841  1.6962
 4446SOL     OW24973   0.661   3.903  13.456  0.0814 -0.4786 -0.3848
 4446SOL    HW124974   0.636   3.929  13.545  0.8949 -1.2630  0.0651
 4446SOL    HW224975   0.739   3.953  13.434  0.0514  0.2031  1.1142
 4447SOL     OW24976   4.709   3.147  17.492 -0.5238  0.4800  0.1116
 4447SOL    HW124977   4.642   3.198  17.537 -1.8569 -0.4543 -0.7984
 4447SOL    HW224978   4.680   3.140  17.401  0.8342  1.4627 -0.3935
 4448SOL     OW24979   4.739   3.131   3.708 -0.9663  0.1857 -0.5619
 4448SOL    HW124980   4.687   3.149   3.630 -0.5928  0.6254 -0.7068
 4448SOL    HW224981   4.710   3.041   3.726 -2.3359  0.7548  0.0476
 4449SOL     OW24982   1.708   1.586  17.286 -0.4230 -0.4372 -0.2366
 4449SOL    HW124983   1.692   1.594  17.381 -2.6624  0.5339 -0.6943
 4449SOL    HW224984   1.647   1.517  17.260 -1.9820  0.2954  1.4572
 4450SOL     OW24985   3.404   1.486   9.241 -0.2984 -0.3836  0.1409
 4450SOL    HW124986   3.370   1.573   9.261  0.4256  0.1435 -0.9290
 4450SOL    HW224987   3.460   1.469   9.316 -2.7528 -1.9312  1.6149
 4451SOL     OW24988   2.536   1.836   7.878  0.7890 -0.2026  0.0273
 4451SOL    HW124989   2.555   1.864   7.968  2.8753  1.1970 -0.8491
 4451SOL    HW224990   2.626   1.825   7.848  1.3040  0.2120  1.3842
 4452SOL     OW24991   2.895   0.923   0.217  0.3999  0.2184 -0.3484
 4452SOL    HW124992   2.922   0.940   0.127  2.5244  1.5619  0.5237
 4452SOL    HW224993   2.847   0.841   0.211 -0.8663  0.8833  0.6398
 4453SOL     OW24994   1.240   3.232   8.548 -0.4559 -0.6191 -0.2288
 4453SOL    HW124995   1.263   3.261   8.460 -1.3385 -1.5760 -0.7637
 4453SOL    HW224996   1.165   3.174   8.537  0.2747 -1.8945  1.5501
 4454SOL     OW24997   2.914   1.473   9.643 -0.3377  0.5364  0.9348
 4454SOL    HW124998   2.855   1.444   9.573  2.1867 -0.4132 -0.8116
 4454SOL    HW224999   2.970   1.397   9.657 -1.8529 -1.0768 -1.5890
 4455SOL     OW25000   2.501   3.408   4.133  0.1753 -0.1099  0.1804
 4455SOL    HW125001   2.436   3.350   4.093  0.2845 -2.2649  3.1249
 4455SOL    HW225002   2.578   3.353   4.148 -0.0994 -0.3751  0.5982
 4456SOL     OW25003   2.412   1.067   9.328  0.1995 -0.1728  0.0459
 4456SOL    HW125004   2.402   1.028   9.415  0.5959  0.6251  0.4478
 4456SOL    HW225005   2.327   1.109   9.319  0.3725  0.0117 -0.6948
 4457SOL     OW25006   0.326   1.157   2.186  0.6645 -0.5304 -0.5237
 4457SOL    HW125007   0.323   1.221   2.114  0.0085  0.2339  0.1772
 4457SOL    HW225008   0.305   1.211   2.262  0.3560 -0.2177 -0.8288
 4458SOL     OW25009   4.731   3.557   5.657  0.5207 -0.8356  0.6406
 4458SOL    HW125010   0.081   3.532   5.635 -0.7357 -2.3692 -2.5813
 4458SOL    HW225011   4.677   3.533   5.582  1.9496  0.5980 -0.8448
 4459SOL     OW25012   3.704   2.515   5.359 -0.3164 -0.0097 -0.3164
 4459SOL    HW125013   3.728   2.545   5.271 -1.0344  1.5435  0.0085
 4459SOL    HW225014   3.611   2.540   5.358 -0.7797 -1.6878  0.2093
 4460SOL     OW25015   0.323   2.855   8.527 -0.4694 -0.7476  0.0223
 4460SOL    HW125016   0.351   2.770   8.561  1.1766  0.0705  0.7072
 4460SOL    HW225017   0.309   2.835   8.434 -1.7178  0.6253 -0.0923
 4461SOL     OW25018   1.844   0.257   0.233  0.2442 -0.0690  0.1430
 4461SOL    HW125019   1.916   0.196   0.226  0.5443  0.5167 -1.8791
 4461SOL    HW225020   1.801   0.216   0.307 -1.0936  1.1476  0.0545
 4462SOL     OW25021   3.128   1.035   2.824  0.0298  0.3906  0.1969
 4462SOL    HW125022   3.099   1.037   2.733  0.5587 -1.4208 -0.0209
 4462SOL    HW225023   3.108   1.120   2.863 -0.7639 -0.2978  1.2775
 4463SOL     OW25024   2.853   1.290  11.660  0.7054 -0.7175 -0.0381
 4463SOL    HW125025   2.885   1.338  11.736  2.2321 -1.3066 -0.2951
 4463SOL    HW225026   2.937   1.258  11.626  1.3549  1.4275 -0.4119
 4464SOL     OW25027   1.561   2.449   5.874 -0.1593  0.2189 -0.0919
 4464SOL    HW125028   1.468   2.432   5.856  0.2367 -1.9285 -0.1721
 4464SOL    HW225029   1.563   2.499   5.956 -1.0449  0.7252 -0.3770
 4465SOL     OW25030   0.238   4.682   7.270  0.4037  0.3943 -0.3422
 4465SOL    HW125031   0.280   4.611   7.319  1.7710  1.4673  0.0423
 4465SOL    HW225032   0.258   0.015   7.329  2.2968 -1.0552  0.8228
 4466SOL     OW25033   2.763   2.008   4.346  0.5357 -0.5949  0.3106
 4466SOL    HW125034   2.758   1.913   4.338  3.7029 -0.9167  1.8658
 4466SOL    HW225035   2.806   2.038   4.266 -0.2622  0.1104  0.1416
 4467SOL     OW25036   2.288   4.677   9.093 -0.8509  0.1083 -0.2528
 4467SOL    HW125037   2.267   4.592   9.056 -0.6693  0.8025 -1.9444
 4467SOL    HW225038   2.382   4.691   9.081 -0.3093 -1.2127  2.3744
 4468SOL     OW25039   1.935   1.132   9.415  0.5047 -1.0884 -0.0146
 4468SOL    HW125040   1.942   1.204   9.478  0.0381 -0.3269 -0.8424
 4468SOL    HW225041   1.974   1.061   9.465  2.7471  0.8900  1.0492
 4469SOL     OW25042   4.279   0.670  15.938  0.0522  0.1589  0.4028
 4469SOL    HW125043   4.266   0.750  15.887 -1.6244 -1.2992 -1.4445
 4469SOL    HW225044   4.354   0.683  15.997  1.3604 -0.7448 -1.0631
 4470SOL     OW25045   1.313   3.166   8.801 -0.1023 -0.3258  0.4821
 4470SOL    HW125046   1.227   3.195   8.832 -0.6750  0.7071 -2.0303
 4470SOL    HW225047   1.305   3.177   8.706 -2.3135 -0.7482  0.6240
 4471SOL     OW25048   1.161   2.682   3.434  0.0240 -0.0147  0.3263
 4471SOL    HW125049   1.114   2.739   3.496  0.8986  0.1618  0.8246
 4471SOL    HW225050   1.151   2.599   3.481  0.5305  0.9478  2.1291
 4472SOL     OW25051   0.791   0.008   5.171 -0.1822 -0.0016 -0.5263
 4472SOL    HW125052   0.739   0.077   5.212  1.1971  0.7808 -0.0932
 4472SOL    HW225053   0.829   0.065   5.104 -0.2976 -2.1392 -2.3949
 4473SOL     OW25054   4.069   0.703  13.934  0.0650  0.4710 -0.2801
 4473SOL    HW125055   4.071   0.797  13.916  0.9491  0.4168 -0.4994
 4473SOL    HW225056   4.052   0.709  14.028 -1.2217 -0.7012 -0.4461
 4474SOL     OW25057   0.532   0.164   8.713 -0.3008 -0.4316 -0.3425
 4474SOL    HW125058   0.588   0.105   8.764  0.1943  0.7546  0.4770
 4474SOL    HW225059   0.524   0.113   8.632 -0.0236  0.3256 -0.8455
 4475SOL     OW25060   0.014   1.089  14.037  0.0429 -0.0249 -0.6962
 4475SOL    HW125061   0.023   0.994  14.029  0.7444 -0.1260  1.5492
 4475SOL    HW225062   0.030   1.120  13.947 -1.1961  0.3317 -0.7935
 4476SOL     OW25063   4.446   2.116  15.306  0.2789 -0.3803 -0.2904
 4476SOL    HW125064   4.463   2.036  15.357  0.3290 -1.2813 -1.7321
 4476SOL    HW225065   4.366   2.140  15.352 -0.7848  0.5218 -2.6757
 4477SOL     OW25066   3.148   1.183  14.262  0.7543 -0.0482  0.1284
 4477SOL    HW125067   3.139   1.278  14.262  0.7162 -0.0763 -3.1150
 4477SOL    HW225068   3.229   1.166  14.214  0.0716  1.2921 -1.4805
 4478SOL     OW25069   0.900   3.933   8.031 -0.3661 -0.3164 -0.0194
 4478SOL    HW125070   0.818   3.935   8.080 -0.6057 -3.7830 -0.3232
 4478SOL    HW225071   0.960   3.964   8.099  0.4898 -1.2804 -0.3349
 4479SOL     OW25072   2.666   0.656   6.306 -0.5243  0.4764 -0.0451
 4479SOL    HW125073   2.666   0.684   6.398 -2.4441  0.0231  0.0896
 4479SOL    HW225074   2.631   0.568   6.319  1.4285 -0.1895  0.6131
 4480SOL     OW25075   1.492   2.804   9.392  0.0200  0.1034  0.4497
 4480SOL    HW125076   1.421   2.751   9.357  2.2953 -0.9680 -2.4851
 4480SOL    HW225077   1.499   2.881   9.337 -1.6858  0.6384  0.9812
 4481SOL     OW25078   2.286   1.527  10.754  0.3231 -0.0010 -0.4415
 4481SOL    HW125079   2.374   1.519  10.718  0.8439 -1.1033  1.0685
 4481SOL    HW225080   2.244   1.441  10.750  0.1548  0.0164  1.0142
 4482SOL     OW25081   0.418   0.708   2.488 -0.3521  0.0646  0.5717
 4482SOL    HW125082   0.456   0.625   2.462 -1.4382  0.2644 -1.6635
 4482SOL    HW225083   0.345   0.714   2.427  0.3927  1.6054 -0.1617
 4483SOL     OW25084   4.366   4.456  15.868 -0.3145 -0.5061 -0.1620
 4483SOL    HW125085   4.332   4.407  15.943 -0.2004 -2.0645 -1.1180
 4483SOL    HW225086   4.430   4.400  15.823 -1.6914 -0.9790 -1.5383
 4484SOL     OW25087   4.122   2.914   7.887 -0.3783  0.6485 -0.8164
 4484SOL    HW125088   4.151   2.930   7.977  0.2445  1.4262 -1.1492
 4484SOL    HW225089   4.207   2.889   7.851 -1.3646 -2.3352 -1.0948
 4485SOL     OW25090   1.738   3.162   1.852 -0.7844  0.3493 -0.3774
 4485SOL    HW125091   1.811   3.216   1.882 -2.7128  2.2560  0.9090
 4485SOL    HW225092   1.759   3.177   1.760 -0.3945 -1.9195 -0.6642
 4486SOL     OW25093   2.307   2.032   5.319 -0.3748 -0.1966  0.1570
 4486SOL    HW125094   2.343   2.092   5.254  0.0639  0.2326  0.7923
 4486SOL    HW225095   2.382   1.988   5.357 -0.4780  0.5169  1.1854
 4487SOL     OW25096   2.857   1.799   4.992  0.2472  0.0138  0.8193
 4487SOL    HW125097   2.796   1.873   5.000  0.6821  0.3819  0.6806
 4487SOL    HW225098   2.938   1.840   4.963 -0.4156  0.3530 -0.5291
 4488SOL     OW25099   0.143   1.525   2.082  0.4456  0.1418 -0.1517
 4488SOL    HW125100   0.074   1.547   2.145 -0.3165 -1.6888 -0.3439
 4488SOL    HW225101   0.149   1.596   2.018  3.3401 -0.1718 -0.2172
 4489SOL     OW25102   3.101   3.888   6.549  0.0495  0.6124 -0.0556
 4489SOL    HW125103   3.139   3.954   6.606  0.2255 -0.0721  0.6092
 4489SOL    HW225104   3.176   3.841   6.511 -0.0991  0.0425  0.3607
 4490SOL     OW25105   0.258   1.722   6.789 -0.0804  0.5582 -0.2310
 4490SOL    HW125106   0.209   1.784   6.843 -1.6791 -1.1768  0.3408
 4490SOL    HW225107   0.343   1.763   6.777 -0.2578  0.4791 -1.8068
 4491SOL     OW25108   3.475   4.539  14.351  0.4501 -0.4644 -0.3934
 4491SOL    HW125109   3.395   4.527  14.300  0.9207 -1.5945 -0.8633
 4491SOL    HW225110   3.529   4.602  14.304  0.1938 -0.3335 -0.5089
 4492SOL     OW25111   3.091   0.810  13.414 -0.3756  0.4568  0.1762
 4492SOL    HW125112   3.114   0.889  13.364  0.5086 -0.3237 -0.6341
 4492SOL    HW225113   3.181   0.795  13.442 -0.2694 -1.3259 -1.1026
 4493SOL     OW25114   0.674   2.102   3.959  0.0478 -0.4939 -0.1857
 4493SOL    HW125115   0.681   2.115   4.054  0.3259 -1.2599 -0.1017
 4493SOL    HW225116   0.725   2.178   3.931  1.4445 -1.1405  0.6070
 4494SOL     OW25117   1.261   1.233   6.413  0.2907 -0.2037  0.1372
 4494SOL    HW125118   1.180   1.280   6.397  0.0968  0.3623  2.7897
 4494SOL    HW225119   1.275   1.180   6.334  2.9378 -1.6357  1.5523
 4495SOL     OW25120   2.875   3.973   2.603  0.2107 -0.4833 -0.1833
 4495SOL    HW125121   2.855   4.064   2.581  1.5561 -0.1124  0.1523
 4495SOL    HW225122   2.800   3.963   2.662 -2.0516  2.2764 -2.5749
 4496SOL     OW25123   3.927   3.533  14.592 -0.3643 -0.3009 -0.1763
 4496SOL    HW125124   3.891   3.583  14.666  0.6181 -2.3717  1.6867
 4496SOL    HW225125   3.888   3.583  14.520 -0.1672  0.0782 -0.0212
 4497SOL     OW25126   4.294   4.100   7.183  0.6381  0.2764  0.4627
 4497SOL    HW125127   4.360   4.119   7.116 -0.0414 -0.7393 -0.5049
 4497SOL    HW225128   4.260   4.186   7.205  0.5367  0.5395 -0.7191
 4498SOL     OW25129   4.636   2.954  13.140 -0.3286 -0.0662  0.2335
 4498SOL    HW125130   4.611   2.988  13.054  0.3811 -0.7835 -0.2435
 4498SOL    HW225131   4.569   2.891  13.168  0.3482 -1.2351 -0.8206
 4499SOL     OW25132   2.584   4.728   8.117  0.4440  0.1991  0.0560
 4499SOL    HW125133   2.580   4.687   8.031  1.6035  0.1908  0.0060
 4499SOL    HW225134   2.567   0.079   8.091 -1.6654 -0.2288 -0.0506
 4500SOL     OW25135   2.356   4.347   2.582  0.3180  0.2235 -0.0440
 4500SOL    HW125136   2.295   4.274   2.582 -1.0340  1.3453 -1.7633
 4500SOL    HW225137   2.340   4.383   2.495 -0.8199  0.6343  0.3450
 4501SOL     OW25138   2.364   3.669   6.307  0.0462 -0.2104  0.3123
 4501SOL    HW125139   2.458   3.687   6.310  0.5579 -2.7123 -1.0299
 4501SOL    HW225140   2.352   3.618   6.227 -2.7612  0.9123  0.0181
 4502SOL     OW25141   4.163   4.131   2.537  0.5895  0.5163  0.2000
 4502SOL    HW125142   4.255   4.123   2.565  0.4811  0.7169  0.6183
 4502SOL    HW225143   4.140   4.216   2.575 -0.5157 -0.7454  2.3780
 4503SOL     OW25144   1.716   0.293  15.814 -0.4304  0.5636  0.0001
 4503SOL    HW125145   1.791   0.269  15.760  1.6263 -1.3717  3.6370
 4503SOL    HW225146   1.644   0.279  15.753 -0.2045 -2.4970  0.4416
 4504SOL     OW25147   2.790   3.093   9.767 -0.3507  0.1940 -0.5909
 4504SOL    HW125148   2.843   3.013   9.762 -2.1160 -0.9132 -1.4950
 4504SOL    HW225149   2.850   3.162   9.740 -0.4078 -0.6070 -2.7513
 4505SOL     OW25150   3.519   2.034   2.768 -0.4592  0.0248  0.5013
 4505SOL    HW125151   3.469   2.106   2.805 -2.3597 -0.1855 -1.6727
 4505SOL    HW225152   3.520   1.984   2.849 -0.1385 -0.6286  0.0965
 4506SOL     OW25153   3.341   3.428   3.926 -0.0466 -0.8641 -0.3258
 4506SOL    HW125154   3.358   3.521   3.911  1.3924 -1.1553 -0.5296
 4506SOL    HW225155   3.415   3.409   3.983 -0.8640  0.7268  1.2506
 4507SOL     OW25156   3.536   3.765  15.042  0.3312 -0.0050  0.0700
 4507SOL    HW125157   3.450   3.782  15.005  0.7907  3.0518  0.4180
 4507SOL    HW225158   3.593   3.785  14.968 -0.7297 -1.4501 -1.1338
 4508SOL     OW25159   4.605   3.332   1.443 -0.7567  0.0374  0.1825
 4508SOL    HW125160   4.579   3.265   1.505  0.3782 -1.8475 -1.4047
 4508SOL    HW225161   4.540   3.314   1.375  0.7768 -3.7452 -0.2530
 4509SOL     OW25162   3.322   1.044   8.059  0.3014 -0.2954  0.1844
 4509SOL    HW125163   3.414   1.036   8.037  0.2635 -3.1678  1.0513
 4509SOL    HW225164   3.288   1.086   7.979  0.0074  0.9347  0.9603
 4510SOL     OW25165   1.130   1.345  11.526 -0.2687  0.1524 -0.7996
 4510SOL    HW125166   1.130   1.257  11.490  1.9980 -0.1781 -0.0087
 4510SOL    HW225167   1.041   1.370  11.552  0.6085  1.3967  1.0159
 4511SOL     OW25168   3.005   4.284   6.442 -0.6541  0.3320 -0.1338
 4511SOL    HW125169   2.980   4.198   6.408 -0.6237  0.6136 -0.8849
 4511SOL    HW225170   2.945   4.277   6.516 -1.0775  3.7009 -0.1737
 4512SOL     OW25171   3.340   1.843   2.001  0.5356 -0.0488 -0.4841
 4512SOL    HW125172   3.255   1.853   2.044  1.1881  0.1278  0.7880
 4512SOL    HW225173   3.390   1.918   2.032 -0.2532 -0.8741  2.8369
 4513SOL     OW25174   2.628   3.698   6.262  0.0797 -0.2780 -0.3286
 4513SOL    HW125175   2.613   3.728   6.173  1.9396  0.0939 -0.5079
 4513SOL    HW225176   2.707   3.645   6.256  1.7519  2.0523  1.1520
 4514SOL     OW25177   0.899   3.234  10.670 -0.1547 -0.4319  0.3325
 4514SOL    HW125178   0.948   3.154  10.652 -2.4107 -1.0929 -3.0943
 4514SOL    HW225179   0.964   3.299  10.695  0.6618 -1.4711  0.9085
 4515SOL     OW25180   2.997   1.719   9.039 -0.6311 -0.1940 -0.2381
 4515SOL    HW125181   3.011   1.636   9.084 -0.2837 -0.2665 -0.4822
 4515SOL    HW225182   2.942   1.760   9.106 -0.1655 -2.5507  1.6123
 4516SOL     OW25183   0.154   3.236   5.610  0.4260  0.0322 -0.2127
 4516SOL    HW125184   0.112   3.213   5.527  0.5753 -1.4421  0.1103
 4516SOL    HW225185   0.153   3.331   5.602  0.7206 -0.1457 -2.4695
 4517SOL     OW25186   1.133   4.713   6.747  0.3320  0.1368  0.1643
 4517SOL    HW125187   1.197   4.644   6.729  0.4352 -0.0640  1.3103
 4517SOL    HW225188   1.157   0.035   6.678 -0.3544  1.4546  1.0989
 4518SOL     OW25189   0.909   0.516   9.200 -0.2228  0.6641 -0.5346
 4518SOL    HW125190   0.933   0.606   9.177 -1.4264  0.8846 -0.9153
 4518SOL    HW225191   0.992   0.479   9.229 -0.5278  0.8420  0.5577
 4519SOL     OW25192   1.315   2.953  14.347 -0.4356  0.6105  0.3261
 4519SOL    HW125193   1.331   2.930  14.255  0.2042  0.6082  0.4406
 4519SOL    HW225194   1.242   3.013  14.330 -0.8802  0.3869  1.4719
 4520SOL     OW25195   0.235   2.247  11.320  0.6916  0.0762  0.4414
 4520SOL    HW125196   0.323   2.264  11.286  0.4948 -0.4107 -0.2980
 4520SOL    HW225197   0.186   2.277  11.244  3.0995 -0.9034 -1.5104
 4521SOL     OW25198   0.620   3.224   2.359  0.0264  0.4845 -0.2665
 4521SOL    HW125199   0.599   3.310   2.322  1.1664  0.5927 -0.6504
 4521SOL    HW225200   0.589   3.232   2.450 -1.4717 -0.2354 -0.6977
 4522SOL     OW25201   1.916   3.034   9.234  0.2305 -0.1370 -0.2933
 4522SOL    HW125202   1.970   2.979   9.177  2.7793  2.0155 -0.0008
 4522SOL    HW225203   1.912   3.107   9.172 -0.5153 -0.4259 -0.5788
 4523SOL     OW25204   3.097   3.100   6.609 -0.0520  0.3182  0.7632
 4523SOL    HW125205   3.178   3.049   6.602  0.1269  0.7307 -0.0735
 4523SOL    HW225206   3.056   3.056   6.684  0.9454  0.0504  1.1595
 4524SOL     OW25207   0.893   1.739   2.846 -0.2308 -0.2045 -0.2634
 4524SOL    HW125208   0.864   1.683   2.918  2.6200 -0.2104  0.8834
 4524SOL    HW225209   0.898   1.673   2.776  0.5649 -0.3704 -0.0480
 4525SOL     OW25210   1.977   3.967  17.682 -0.3649 -0.5867 -0.5486
 4525SOL    HW125211   1.962   3.903  17.613 -2.4627 -0.8851  0.1958
 4525SOL    HW225212   1.976   4.047  17.630  0.7953  1.7656  3.0414
 4526SOL     OW25213   3.015   3.978   5.383 -0.5813 -0.4767  0.1010
 4526SOL    HW125214   2.947   3.968   5.316 -2.0369 -0.1094  1.5190
 4526SOL    HW225215   3.095   3.997   5.334  0.9834 -2.3518  1.8890
 4527SOL     OW25216   3.281   4.085   5.586 -0.0925  0.0040  0.0002
 4527SOL    HW125217   3.304   4.020   5.653  0.7455 -1.1971 -1.4529
 4527SOL    HW225218   3.294   4.163   5.640  0.0694 -0.6853  0.9628
 4528SOL     OW25219   3.455   3.435   4.320  0.0469 -0.0966 -0.2594
 4528SOL    HW125220   3.385   3.429   4.255 -0.5621  0.2776  0.3632
 4528SOL    HW225221   3.529   3.391   4.278  0.2298 -0.0883  0.0547
 4529SOL     OW25222   4.372   0.959  16.254 -0.1388 -0.2326  0.2347
 4529SOL    HW125223   4.303   1.024  16.269 -0.6882 -1.0431  1.2436
 4529SOL    HW225224   4.374   0.954  16.159  2.9696 -1.6739  0.3736
 4530SOL     OW25225   2.461   1.297   1.908 -0.8783  0.3017  0.0740
 4530SOL    HW125226   2.447   1.266   1.818  2.0869 -1.6997  0.2990
 4530SOL    HW225227   2.480   1.211   1.944 -1.2605  0.5637  0.8838
 4531SOL     OW25228   1.474   0.267   3.471  1.2417 -0.0789 -0.7375
 4531SOL    HW125229   1.539   0.306   3.530  0.2095 -1.3658  1.2400
 4531SOL    HW225230   1.464   0.177   3.500  3.6462  0.2544  1.1746
 4532SOL     OW25231   0.523   1.384   7.644  0.2018  0.0407 -0.2255
 4532SOL    HW125232   0.567   1.321   7.700 -1.9782 -0.8953  0.4604
 4532SOL    HW225233   0.566   1.466   7.668 -1.2189  0.1477  2.0009
 4533SOL     OW25234   0.616   0.819   0.478 -0.5948  1.1608 -0.3658
 4533SOL    HW125235   0.547   0.807   0.544 -0.3213 -0.4900 -0.4036
 4533SOL    HW225236   0.565   0.788   0.403  2.8370  0.4162 -2.3890
 4534SOL     OW25237   1.936   3.211   8.481 -0.4349  0.9112 -0.0805
 4534SOL    HW125238   1.877   3.235   8.552 -3.1522 -0.5107 -1.8969
 4534SOL    HW225239   1.924   3.283   8.420  0.9162  1.1718 -0.0476
 4535SOL     OW25240   4.398   2.334  16.490 -0.0347  0.0067  0.3826
 4535SOL    HW125241   4.312   2.323  16.530  0.7575 -1.6780  1.6015
 4535SOL    HW225242   4.417   2.241  16.475 -0.5929  0.5427 -3.8315
 4536SOL     OW25243   2.862   1.784   8.101  0.1953 -0.2013 -0.7223
 4536SOL    HW125244   2.932   1.770   8.038 -0.1687  0.1304 -1.1962
 4536SOL    HW225245   2.909   1.761   8.181  0.8562  0.1444 -1.0207
 4537SOL     OW25246   3.137   3.364   7.223  0.2747  0.5408 -0.2626
 4537SOL    HW125247   3.048   3.381   7.192 -0.9175 -3.7945  0.6458
 4537SOL    HW225248   3.183   3.342   7.142  0.4028 -0.5848  0.1035
 4538SOL     OW25249   0.138   0.450   6.527  0.6460  0.1362  0.2698
 4538SOL    HW125250   0.083   0.435   6.451 -1.7755  2.7810  1.4959
 4538SOL    HW225251   0.069   0.448   6.593  0.8840  1.1199  0.5625
 4539SOL     OW25252   3.531   0.157   5.198 -0.3206  0.3518 -0.3264
 4539SOL    HW125253   3.482   0.079   5.171  0.0095 -0.4467  1.3809
 4539SOL    HW225254   3.621   0.144   5.169  0.2444  1.5640  0.8814
 4540SOL     OW25255   3.589   1.186   9.386 -0.8815  0.4364  0.4025
 4540SOL    HW125256   3.528   1.236   9.332  1.3119  0.4985 -2.0012
 4540SOL    HW225257   3.528   1.144   9.446  0.9883 -0.6384  1.5503
 4541SOL     OW25258   2.801   0.820  17.043  0.0993 -0.2565 -0.7590
 4541SOL    HW125259   2.799   0.829  16.947  0.1743 -0.4368 -0.7786
 4541SOL    HW225260   2.829   0.908  17.068  2.3789 -0.4211 -2.6554
 4542SOL     OW25261   2.706   3.865   7.929 -0.3527 -0.0106  0.3483
 4542SOL    HW125262   2.771   3.847   7.862 -0.7289 -0.1700  0.0289
 4542SOL    HW225263   2.728   3.793   7.988  1.0868 -0.3364 -0.5903
 4543SOL     OW25264   1.856   0.753   7.777  0.4004 -0.3574 -0.6979
 4543SOL    HW125265   1.878   0.713   7.861 -1.6747  2.9195  1.3832
 4543SOL    HW225266   1.778   0.798   7.809 -0.4615 -1.9433 -0.5696
 4544SOL     OW25267   3.962   0.627   8.445 -0.2717  0.2071  0.4753
 4544SOL    HW125268   3.975   0.712   8.487 -1.7114  0.5186  0.2969
 4544SOL    HW225269   3.957   0.577   8.527  1.7674 -0.6219  0.0902
 4545SOL     OW25270   4.488   1.537   1.348 -0.2680  0.0714  0.5900
 4545SOL    HW125271   4.523   1.542   1.436  0.7252 -1.0812  0.2590
 4545SOL    HW225272   4.395   1.551   1.363  0.0859  1.5097  1.4198
 4546SOL     OW25273   0.730   0.131   7.013 -0.4049  0.3386  0.4715
 4546SOL    HW125274   0.824   0.113   7.004 -0.6551 -0.8211  0.0839
 4546SOL    HW225275   0.702   0.170   6.931 -0.7970  0.2095  0.5426
 4547SOL     OW25276   0.659   2.727  11.652 -0.1059 -0.3598  0.3728
 4547SOL    HW125277   0.624   2.745  11.740 -1.1291  2.3172 -0.5812
 4547SOL    HW225278   0.717   2.651  11.658  0.0412 -0.3424 -0.8442
 4548SOL     OW25279   2.282   1.391  13.085  0.0629  0.1200 -0.6978
 4548SOL    HW125280   2.363   1.355  13.120 -0.2803 -0.5724 -0.6103
 4548SOL    HW225281   2.265   1.456  13.154 -0.2622 -1.3587  0.6216
 4549SOL     OW25282   1.664   3.471   2.564  0.3549 -0.4898 -0.5605
 4549SOL    HW125283   1.573   3.490   2.589  0.3269  0.4807 -1.4230
 4549SOL    HW225284   1.671   3.510   2.477  0.1440  3.9751  1.4683
 4550SOL     OW25285   3.792   4.604  13.140  0.3905  0.6839  0.1626
 4550SOL    HW125286   3.743   4.638  13.215  1.2212 -0.3791  1.1805
 4550SOL    HW225287   3.727   4.617  13.071  0.8267  0.9011 -0.2070
 4551SOL     OW25288   3.150   1.795   5.520  0.0531  0.1271 -0.3067
 4551SOL    HW125289   3.211   1.827   5.453  1.9633 -0.5196  1.1081
 4551SOL    HW225290   3.077   1.855   5.509  0.5073  1.1875  2.3596
 4552SOL     OW25291   0.686   2.182   8.424  0.1825 -0.2685  0.1333
 4552SOL    HW125292   0.617   2.138   8.473 -0.7036 -1.1347 -1.8944
 4552SOL    HW225293   0.740   2.209   8.498 -0.3193  0.4415  0.2412
 4553SOL     OW25294   3.770   0.603   8.271  0.2806 -0.0225  0.2010
 4553SOL    HW125295   3.853   0.602   8.319  0.8233 -2.6201 -0.7643
 4553SOL    HW225296   3.712   0.590   8.346  0.0145  2.9560  0.4878
 4554SOL     OW25297   0.605   1.646   2.424 -0.1873  0.4434 -0.1994
 4554SOL    HW125298   0.674   1.695   2.380 -1.3981  3.5197  1.2944
 4554SOL    HW225299   0.537   1.623   2.360  0.5044  0.4223 -0.9165
 4555SOL     OW25300   3.822   1.233  10.615  0.3970 -0.4244 -0.2174
 4555SOL    HW125301   3.731   1.260  10.624  0.5161  0.4539 -1.6102
 4555SOL    HW225302   3.867   1.317  10.605 -0.1798 -0.2399 -1.2839
 4556SOL     OW25303   0.810   2.467  16.322  0.2987 -0.2824  0.5400
 4556SOL    HW125304   0.739   2.531  16.331 -0.2533 -0.8930  0.4551
 4556SOL    HW225305   0.872   2.520  16.272  1.6474 -1.8270  0.5796
 4557SOL     OW25306   1.452   3.539  13.429  0.2482 -0.0573 -0.2648
 4557SOL    HW125307   1.467   3.456  13.474 -0.3587 -0.7419 -1.3248
 4557SOL    HW225308   1.510   3.539  13.354  1.6906  1.6471  0.8470
 4558SOL     OW25309   4.577   1.392   4.191 -0.0457  0.0564 -0.1487
 4558SOL    HW125310   4.508   1.457   4.173 -0.4828  0.0582  1.4783
 4558SOL    HW225311   4.605   1.381   4.100 -0.0682  0.2182 -0.1755
 4559SOL     OW25312   3.249   3.915  16.130  0.5806 -0.4532  0.1490
 4559SOL    HW125313   3.272   4.001  16.166  1.0775 -0.3792 -0.3403
 4559SOL    HW225314   3.203   3.874  16.203 -1.8693 -0.6020 -1.4971
 4560SOL     OW25315   4.075   0.041   7.643 -0.3931 -0.3179 -0.1568
 4560SOL    HW125316   3.989   0.003   7.660 -0.3428 -0.7357 -0.8700
 4560SOL    HW225317   4.093   0.002   7.558 -1.7325 -0.7880 -0.2262
 4561SOL     OW25318   1.248   4.130   1.014 -1.0452 -0.1792  0.3802
 4561SOL    HW125319   1.276   4.167   1.098 -2.4185  0.3349  0.6148
 4561SOL    HW225320   1.243   4.205   0.956  0.0013 -0.1333  0.3451
 4562SOL     OW25321   4.148   3.622   6.297  0.0647  0.0539  0.4207
 4562SOL    HW125322   4.125   3.535   6.329  0.3505 -0.1000  0.2063
 4562SOL    HW225323   4.242   3.611   6.285  0.1706  2.0753 -0.6902
 4563SOL     OW25324   0.556   1.215   7.420 -0.1587 -0.2721 -0.5960
 4563SOL    HW125325   0.641   1.172   7.436 -0.1031  0.0828  0.0472
 4563SOL    HW225326   0.538   1.265   7.499 -1.2886 -0.0482 -1.0031
 4564SOL     OW25327   0.991   3.381   4.825  0.4411  0.6174  0.2624
 4564SOL    HW125328   1.044   3.409   4.899  1.0931  3.2035 -1.1924
 4564SOL    HW225329   0.906   3.422   4.838 -0.3383 -1.0494  0.4250
 4565SOL     OW25330   0.748   0.692   3.632  0.7436 -0.0063  0.3147
 4565SOL    HW125331   0.704   0.681   3.717 -0.5493  2.2748 -0.0787
 4565SOL    HW225332   0.681   0.726   3.574  0.0410 -2.8727 -0.5788
 4566SOL     OW25333   3.499   3.700   6.713  0.6325 -0.0233 -0.4301
 4566SOL    HW125334   3.497   3.794   6.731 -2.2511 -0.4271  1.4589
 4566SOL    HW225335   3.447   3.694   6.632  1.0788  0.7944 -0.7699
 4567SOL     OW25336   2.671   2.796   7.114 -0.1470  0.4616  0.1005
 4567SOL    HW125337   2.653   2.873   7.168 -1.6852  0.3123 -0.2188
 4567SOL    HW225338   2.694   2.732   7.181 -0.1174 -0.6248 -0.9629
 4568SOL     OW25339   0.021   1.643  12.970  0.1543 -0.2166 -0.4799
 4568SOL    HW125340   4.666   1.655  12.958  0.4955  0.7399 -2.2024
 4568SOL    HW225341   0.035   1.693  13.051 -1.5515  1.7424 -1.3905
 4569SOL     OW25342   3.435   2.572   2.304 -0.1855 -0.4186  0.0381
 4569SOL    HW125343   3.378   2.496   2.297 -1.2131  0.3535 -0.0826
 4569SOL    HW225344   3.379   2.643   2.337 -0.1162 -1.0266  1.4891
 4570SOL     OW25345   3.122   2.922   0.422  0.1574 -0.2466  0.1906
 4570SOL    HW125346   3.050   2.868   0.456 -0.7275  1.0479  0.3478
 4570SOL    HW225347   3.154   2.957   0.505 -0.5771 -1.1464  0.8555
 4571SOL     OW25348   4.040   3.358   5.776 -0.2186 -0.2748  0.5476
 4571SOL    HW125349   3.991   3.277   5.767 -1.5964  0.9863 -3.2779
 4571SOL    HW225350   4.012   3.400   5.857 -1.5048 -1.6572  0.8194
 4572SOL     OW25351   1.874   4.388   4.067 -0.0522  0.4435  0.2169
 4572SOL    HW125352   1.963   4.418   4.049  0.1793 -0.3286  0.0662
 4572SOL    HW225353   1.888   4.310   4.121  1.1145  0.4121 -0.1402
 4573SOL     OW25354   3.046   4.356   6.005 -0.0426 -0.1367  0.1472
 4573SOL    HW125355   3.131   4.381   6.043 -0.6925  1.8655  0.2745
 4573SOL    HW225356   3.044   4.408   5.925  0.4734  1.2129  1.0043
 4574SOL     OW25357   0.482   2.480   7.892  1.1075  0.2604 -0.3284
 4574SOL    HW125358   0.448   2.470   7.803 -1.5037 -0.3401  0.7285
 4574SOL    HW225359   0.552   2.545   7.897  1.3339  0.0462 -0.7225
 4575SOL     OW25360   0.840   0.087   6.552 -0.1606  0.4751 -0.3428
 4575SOL    HW125361   0.805   0.010   6.508 -2.0027  0.9303  0.3219
 4575SOL    HW225362   0.821   0.063   6.643  0.3712 -0.6623 -0.5344
 4576SOL     OW25363   0.190   0.215   9.552  0.3958  0.1642 -0.2753
 4576SOL    HW125364   0.191   0.215   9.648  0.5853  1.8842 -0.2877
 4576SOL    HW225365   0.226   0.299   9.526  0.5881 -0.0657 -0.7485
 4577SOL     OW25366   2.755   4.268   1.117  0.0377  0.3577 -0.2567
 4577SOL    HW125367   2.832   4.213   1.130  1.0863  2.4092  2.2427
 4577SOL    HW225368   2.748   4.278   1.022 -1.4068  1.9229 -0.0024
 4578SOL     OW25369   0.403   4.432   9.624 -0.1689 -0.4961  0.2173
 4578SOL    HW125370   0.374   4.521   9.601  0.5529 -0.7644 -1.7229
 4578SOL    HW225371   0.410   4.442   9.719 -0.2481 -3.3902  0.5252
 4579SOL     OW25372   4.013   4.498   1.227  0.0209  0.4211 -0.2257
 4579SOL    HW125373   4.051   4.423   1.273 -1.9708  0.4997  1.5376
 4579SOL    HW225374   3.955   4.541   1.290 -2.0118  0.4223 -2.0769
 4580SOL     OW25375   2.899   4.080   2.292  0.4612  0.4433 -0.4155
 4580SOL    HW125376   2.924   4.164   2.254  1.9390  0.0342 -0.3764
 4580SOL    HW225377   2.988   4.046   2.305 -0.4545 -1.1085  1.8109
 4581SOL     OW25378   4.370   3.890   3.155  0.7620 -0.1156 -0.4213
 4581SOL    HW125379   4.277   3.898   3.178  0.8840 -1.1988  0.4953
 4581SOL    HW225380   4.359   3.886   3.060  0.3004 -0.8039 -0.3453
 4582SOL     OW25381   4.352   0.003   5.809  0.2521 -0.1909  0.4144
 4582SOL    HW125382   4.430   4.729   5.755  0.2921 -0.1427  0.4598
 4582SOL    HW225383   4.392   0.058   5.876  0.4388 -0.3940  0.4679
 4583SOL     OW25384   3.376   4.323   7.640 -0.4621 -0.7143 -0.3960
 4583SOL    HW125385   3.459   4.289   7.607  0.7710  0.9022  1.0340
 4583SOL    HW225386   3.404   4.414   7.652  1.2940 -1.5240  1.6207
 4584SOL     OW25387   2.856   2.029   1.064  0.3225  0.0705  0.0881
 4584SOL    HW125388   2.815   2.031   0.977  2.0932 -0.3563 -0.7468
 4584SOL    HW225389   2.949   2.043   1.046  0.1842  1.8807  0.7802
 4585SOL     OW25390   1.984   2.848   9.033 -0.1781 -0.0488  0.5410
 4585SOL    HW125391   1.919   2.796   8.986 -0.6415  1.2337 -0.2165
 4585SOL    HW225392   2.028   2.887   8.958  3.2963 -0.9312  2.1202
 4586SOL     OW25393   2.643   3.981   3.496  0.2184  0.4190  0.4966
 4586SOL    HW125394   2.639   4.075   3.508 -0.5606  0.4171  0.2481
 4586SOL    HW225395   2.717   3.963   3.438  0.2149  0.9158  0.3391
 4587SOL     OW25396   3.408   0.487  10.544  0.2596  0.3279  0.6968
 4587SOL    HW125397   3.465   0.418  10.509 -0.0353  0.2196  0.4321
 4587SOL    HW225398   3.326   0.462  10.502 -0.7448  3.8243  0.6025
 4588SOL     OW25399   2.204   0.068   5.739 -0.3530  0.2412 -0.2977
 4588SOL    HW125400   2.184   4.719   5.770 -0.3553  0.3745  0.0748
 4588SOL    HW225401   2.284   0.085   5.788 -2.1175  0.0302  2.6215
 4589SOL     OW25402   4.033   2.312   7.180 -0.5041  0.0655  0.0364
 4589SOL    HW125403   3.980   2.317   7.100 -1.7720 -0.5713  0.8400
 4589SOL    HW225404   4.005   2.396   7.217 -0.3383 -0.4265  1.2655
 4590SOL     OW25405   0.633   4.392   8.792 -0.0976  0.0428 -0.2454
 4590SOL    HW125406   0.556   4.437   8.826 -1.4779 -1.3220 -1.5596
 4590SOL    HW225407   0.618   4.417   8.700  0.8178 -0.8492 -0.6383
 4591SOL     OW25408   1.330   0.465  13.260  0.2252  0.6262  0.3005
 4591SOL    HW125409   1.420   0.433  13.267 -0.0663 -0.1623  0.5357
 4591SOL    HW225410   1.293   0.404  13.195 -1.0638 -1.5177  3.0211
 4592SOL     OW25411   0.261   0.351   4.550 -0.2004  0.5696  0.1318
 4592SOL    HW125412   0.335   0.362   4.611 -0.1377 -2.2344  0.5543
 4592SOL    HW225413   0.197   0.346   4.622 -0.3429 -0.5129 -0.0651
 4593SOL     OW25414   1.821   3.230   1.590  0.0259  0.1027 -0.2254
 4593SOL    HW125415   1.825   3.252   1.497 -0.4771  1.6728  0.1214
 4593SOL    HW225416   1.916   3.225   1.600  0.2826  3.8169 -0.4592
 4594SOL     OW25417   0.782   1.490  14.720 -0.2572  0.2574 -0.4626
 4594SOL    HW125418   0.750   1.401  14.735  0.8430 -0.2312 -1.0315
 4594SOL    HW225419   0.796   1.497  14.626 -2.4487  0.4398 -0.7592
 4595SOL     OW25420   3.381   3.225  12.148 -0.0166 -0.2838 -0.0942
 4595SOL    HW125421   3.295   3.185  12.158 -0.9298  1.5875 -0.4798
 4595SOL    HW225422   3.437   3.192  12.219  2.9800  0.8499 -1.9383
 4596SOL     OW25423   4.361   1.800   2.574 -0.1443  0.1333 -0.2412
 4596SOL    HW125424   4.284   1.765   2.618 -0.0972  1.0799  0.5945
 4596SOL    HW225425   4.398   1.855   2.643 -1.6305 -0.0382  0.6840
 4597SOL     OW25426   4.318   0.902   7.670  0.1497  0.0754 -0.0655
 4597SOL    HW125427   4.283   0.990   7.664 -0.5520 -0.0960  1.5730
 4597SOL    HW225428   4.236   0.852   7.672 -1.7961  3.3491  0.6941
 4598SOL     OW25429   3.854   3.212  16.526 -0.1088  0.8904 -0.1000
 4598SOL    HW125430   3.840   3.153  16.600  0.2087  1.8145  0.7028
 4598SOL    HW225431   3.920   3.164  16.477 -0.2505  0.0674  0.5233
 4599SOL     OW25432   2.421   0.545   2.730 -0.1600 -0.2604 -0.1668
 4599SOL    HW125433   2.503   0.581   2.765  0.6730 -1.9934 -0.3480
 4599SOL    HW225434   2.390   0.479   2.791  1.1156 -2.6767 -2.1183
 4600SOL     OW25435   4.719   1.535   8.295  0.2463  0.1985  0.3097
 4600SOL    HW125436   4.668   1.604   8.252  1.1034 -0.0104 -1.0294
 4600SOL    HW225437   4.663   1.457   8.286  1.7099 -0.8855  0.6741
 4601SOL     OW25438   0.409   2.072   3.025 -0.2555 -0.0564  0.5482
 4601SOL    HW125439   0.450   1.997   2.981  0.3643 -0.6911  2.2357
 4601SOL    HW225440   0.375   2.116   2.947 -0.7711 -1.6341 -0.1186
 4602SOL     OW25441   0.825   4.536   0.090  0.2984  0.8020  0.1129
 4602SOL    HW125442   0.868   4.500   0.012 -2.7383 -0.9931 -0.7582
 4602SOL    HW225443   0.757   4.579   0.037  1.1237 -0.5366 -2.0352
 4603SOL     OW25444   2.209   4.430   1.466  0.2864 -0.3583  0.1843
 4603SOL    HW125445   2.260   4.476   1.399 -0.1252 -0.3534 -0.1259
 4603SOL    HW225446   2.235   4.339   1.451  0.4642 -0.3118  0.2059
 4604SOL     OW25447   1.054   3.940   8.269  0.1415  0.1569  0.0159
 4604SOL    HW125448   1.007   3.958   8.350 -0.5282  1.3369 -0.6301
 4604SOL    HW225449   1.139   3.981   8.283 -0.0080  0.1280  0.9633
 4605SOL     OW25450   0.371   3.501   5.878 -0.1685  0.0140  0.7719
 4605SOL    HW125451   0.446   3.457   5.839 -0.4649  1.4002 -1.3395
 4605SOL    HW225452   0.364   3.451   5.959 -1.0150  0.3410  0.8998
 4606SOL     OW25453   1.029   3.856  13.259  0.0955  0.5210  0.5547
 4606SOL    HW125454   1.112   3.838  13.303 -0.4034  0.0310  1.3065
 4606SOL    HW225455   0.985   3.771  13.261 -0.7856  0.9863  0.9384
 4607SOL     OW25456   0.262   3.389   2.033  0.4597  0.0301  0.0117
 4607SOL    HW125457   0.300   3.353   1.953  1.8634 -0.1780  0.7795
 4607SOL    HW225458   0.169   3.366   2.033  0.5560 -0.3667 -0.1668
 4608SOL     OW25459   3.583   2.472   2.818 -0.3524  0.1060  0.1139
 4608SOL    HW125460   3.588   2.555   2.866  0.8600 -0.6351  1.2657
 4608SOL    HW225461   3.535   2.506   2.742 -0.1048  2.4171  1.0034
 4609SOL     OW25462   2.028   2.536   4.332 -0.0549 -0.9892 -0.3957
 4609SOL    HW125463   2.118   2.513   4.355  0.1556  2.0790  1.8784
 4609SOL    HW225464   2.028   2.626   4.300 -0.8757 -0.9942 -0.4228
 4610SOL     OW25465   2.442   3.952   4.140 -0.3053  0.2380 -0.4075
 4610SOL    HW125466   2.472   3.863   4.122 -1.3569 -0.2623  0.3152
 4610SOL    HW225467   2.418   3.943   4.232  2.5195  1.6791  0.4759
 4611SOL     OW25468   0.263   4.150   5.843  0.1833  0.2991 -0.8061
 4611SOL    HW125469   0.261   4.244   5.860  1.1937  0.1156  0.4035
 4611SOL    HW225470   0.350   4.130   5.879 -0.4503  0.4924  0.8554
 4612SOL     OW25471   2.519   4.657   3.061 -0.4042  0.1882 -0.2674
 4612SOL    HW125472   2.459   4.660   2.986  2.1199 -0.5725 -2.2944
 4612SOL    HW225473   2.546   4.565   3.064 -0.4281  0.2585  2.7009
 4613SOL     OW25474   3.640   0.190   6.825 -0.1101 -0.5908 -0.3980
 4613SOL    HW125475   3.681   0.154   6.904  2.2111  1.3450 -0.7511
 4613SOL    HW225476   3.546   0.191   6.842 -0.1390 -0.6382 -0.5533
 4614SOL     OW25477   0.819   0.815   7.426 -0.4650 -0.0128 -0.2376
 4614SOL    HW125478   0.874   0.870   7.370 -0.3203  0.2614  0.1815
 4614SOL    HW225479   0.879   0.743   7.446  0.2757  1.2264  2.0001
 4615SOL     OW25480   3.271   3.668   7.596  0.0125 -0.1597  0.4384
 4615SOL    HW125481   3.248   3.754   7.560  0.5223 -0.8405 -1.5079
 4615SOL    HW225482   3.201   3.662   7.661 -1.5954 -0.3883 -1.3010
 4616SOL     OW25483   0.514   2.704  16.563 -0.2475 -0.0131  0.4635
 4616SOL    HW125484   0.433   2.657  16.542  0.5274 -0.4347 -1.5511
 4616SOL    HW225485   0.494   2.703  16.656 -2.7979 -0.5196 -0.0953
 4617SOL     OW25486   2.034   3.467  15.203 -0.9251  0.3678 -0.3694
 4617SOL    HW125487   2.044   3.392  15.145 -1.8452  1.2096 -1.6150
 4617SOL    HW225488   1.947   3.498  15.176 -0.7294  0.9537 -0.3235
 4618SOL     OW25489   4.071   3.893   6.115 -0.5043 -0.1228 -0.4500
 4618SOL    HW125490   4.122   3.888   6.033 -0.6979  2.0088 -0.6927
 4618SOL    HW225491   4.026   3.809   6.121  0.1559 -0.5228 -0.9951
 4619SOL     OW25492   4.610   4.130   5.261 -0.1875 -0.5217 -0.2294
 4619SOL    HW125493   4.551   4.148   5.188  2.3800  1.8905 -1.7092
 4619SOL    HW225494   4.554   4.063   5.301 -2.7071  1.2933 -0.7521
 4620SOL     OW25495   1.961   3.983  14.164  0.4284 -0.1722  0.5613
 4620SOL    HW125496   1.986   3.958  14.075  0.6212  2.0992 -0.0338
 4620SOL    HW225497   2.033   4.043  14.188 -0.7645  1.9883 -1.2172
 4621SOL     OW25498   0.919   2.826  15.275 -0.2615  0.5108  0.0978
 4621SOL    HW125499   0.827   2.853  15.287 -0.7343 -1.6552  1.3393
 4621SOL    HW225500   0.898   2.733  15.267 -0.4367  0.6002 -0.4988
 4622SOL     OW25501   3.403   3.760  12.003  0.9248  0.0377  0.2310
 4622SOL    HW125502   3.432   3.669  12.017  0.7063  0.0004  0.4310
 4622SOL    HW225503   3.309   3.758  12.020  0.7833 -2.1607 -0.7249
 4623SOL     OW25504   4.613   1.550   6.347  0.1191  0.0408  0.0960
 4623SOL    HW125505   4.675   1.608   6.391  0.8427 -0.1144 -0.7341
 4623SOL    HW225506   4.658   1.466   6.358 -0.9763 -0.8584 -2.3205
 4624SOL     OW25507   4.184   2.878   1.168 -0.4011 -0.2220 -0.1759
 4624SOL    HW125508   4.213   2.899   1.079  0.8537  0.1493  0.3194
 4624SOL    HW225509   4.262   2.834   1.203 -0.8126  0.6167  1.7407
 4625SOL     OW25510   1.860   0.746   9.217 -0.0330 -0.4775 -1.1189
 4625SOL    HW125511   1.839   0.682   9.285  1.5935  0.5237  0.3214
 4625SOL    HW225512   1.955   0.742   9.221 -0.1284  0.0843  2.0762
 4626SOL     OW25513   1.030   2.064   6.949 -0.0990 -0.1049  0.2570
 4626SOL    HW125514   1.071   2.138   6.903  0.0563  0.8100  1.8983
 4626SOL    HW225515   1.072   1.981   6.924 -1.8128 -0.4256 -1.5382
 4627SOL     OW25516   3.823   0.010  10.486 -0.1566 -0.0771  0.6186
 4627SOL    HW125517   3.777   0.093  10.499 -0.1885 -0.1126  0.7275
 4627SOL    HW225518   3.745   4.694  10.491 -0.1055  0.0595  3.0103
 4628SOL     OW25519   3.994   3.968  15.923  0.5060  0.3989 -0.0899
 4628SOL    HW125520   4.085   3.975  15.898 -0.7153  4.6194 -3.4201
 4628SOL    HW225521   3.986   4.015  16.007 -2.1844 -1.4350  0.7067
 4629SOL     OW25522   3.103   0.088   7.217  0.1821 -0.1581 -0.2273
 4629SOL    HW125523   3.025   0.073   7.270 -0.4769  1.3973 -0.7520
 4629SOL    HW225524   3.051   0.062   7.141 -0.9406  0.9867  0.1418
 4630SOL     OW25525   2.251   4.460   8.926 -0.1247  0.1459 -0.4725
 4630SOL    HW125526   2.253   4.502   8.840  0.0013 -0.0725 -0.5774
 4630SOL    HW225527   2.322   4.397   8.912 -0.1194  0.5124 -2.1526
 4631SOL     OW25528   2.936   3.136   5.185  0.1362  0.4953  0.0890
 4631SOL    HW125529   2.934   3.123   5.280 -0.4113  0.2646  0.0445
 4631SOL    HW225530   3.000   3.071   5.158 -1.3742 -1.7547  1.9337
 4632SOL     OW25531   3.536   2.820   6.661  0.0160 -0.7281 -0.2626
 4632SOL    HW125532   3.599   2.853   6.597 -0.2699 -2.6902 -1.5755
 4632SOL    HW225533   3.588   2.807   6.740 -1.0235  0.8905  0.6802
 4633SOL     OW25534   1.992   2.502   3.497 -0.3342  0.6632  0.4539
 4633SOL    HW125535   1.907   2.459   3.504  0.5067 -0.7578  1.8027
 4633SOL    HW225536   1.964   2.591   3.518  1.6177  1.3823  0.0313
 4634SOL     OW25537   2.333   1.993   2.373  0.2437 -0.3773  0.0307
 4634SOL    HW125538   2.299   1.920   2.426 -1.7320 -0.7424 -1.7729
 4634SOL    HW225539   2.254   2.046   2.373  1.1355  0.9142 -3.1411
 4635SOL     OW25540   1.952   1.302   7.296 -0.1705 -0.1725  0.3552
 4635SOL    HW125541   1.934   1.395   7.311  0.6379 -0.3292  2.3727
 4635SOL    HW225542   2.048   1.300   7.290 -0.3147  1.8620 -2.3134
 4636SOL     OW25543   3.940   0.769   4.854 -0.1319  0.0213 -0.4620
 4636SOL    HW125544   3.966   0.778   4.763 -1.8735  1.7123 -0.7858
 4636SOL    HW225545   3.881   0.844   4.847 -2.6218 -1.7898  1.0760
 4637SOL     OW25546   4.026   3.801   5.109  0.1376 -0.3901 -0.1708
 4637SOL    HW125547   4.091   3.743   5.069 -0.0233 -0.2422 -0.6474
 4637SOL    HW225548   4.071   3.885   5.099 -0.2552 -0.4291 -2.3194
 4638SOL     OW25549   3.571   1.757   8.991 -0.0689  0.0026  0.4736
 4638SOL    HW125550   3.503   1.692   8.977  1.9684 -1.9918 -0.0765
 4638SOL    HW225551   3.642   1.709   8.949  0.3002  0.2812  0.7745
 4639SOL     OW25552   0.907   1.880  17.155 -0.5820  0.0863 -0.2126
 4639SOL    HW125553   0.965   1.817  17.197 -0.1468  0.6862  0.0813
 4639SOL    HW225554   0.935   1.952  17.211 -1.8140  0.0422  0.4760
 4640SOL     OW25555   0.814   3.996   6.740 -0.1501  0.3062  0.3997
 4640SOL    HW125556   0.804   3.925   6.676 -0.5379  0.4068  0.3487
 4640SOL    HW225557   0.740   4.050   6.714 -0.4145 -0.7059 -0.9539
 4641SOL     OW25558   1.656   0.891   8.846  0.0362 -0.0886 -0.1413
 4641SOL    HW125559   1.652   0.809   8.796  0.3332  1.4766 -2.7139
 4641SOL    HW225560   1.695   0.945   8.777 -1.3890 -0.1918 -1.0181
 4642SOL     OW25561   3.592   3.276   9.712  0.0920 -0.7670 -0.1134
 4642SOL    HW125562   3.593   3.185   9.683  2.6176 -0.7812 -0.0020
 4642SOL    HW225563   3.679   3.279   9.752 -0.1489  0.6618  0.2933
 4643SOL     OW25564   2.456   2.599   8.074 -0.2560  0.1631 -0.3238
 4643SOL    HW125565   2.360   2.605   8.079 -0.4142 -2.5503 -0.1402
 4643SOL    HW225566   2.488   2.676   8.122  1.9592  0.7330 -2.7181
 4644SOL     OW25567   4.374   0.837   2.280 -0.0690 -0.0198  0.2851
 4644SOL    HW125568   4.362   0.823   2.186 -1.5151 -0.7367  0.5797
 4644SOL    HW225569   4.300   0.794   2.323 -0.4615 -0.5455 -0.9378
 4645SOL     OW25570   3.142   1.437   6.969 -0.1062 -0.3414  0.8065
 4645SOL    HW125571   3.177   1.366   7.023  0.6078 -0.7241 -0.1573
 4645SOL    HW225572   3.074   1.467   7.029 -0.7499  0.2553 -0.2271
 4646SOL     OW25573   0.209   3.740   9.269  0.0746  0.2600  0.0459
 4646SOL    HW125574   0.280   3.676   9.266 -0.0515  0.0145  2.1142
 4646SOL    HW225575   0.147   3.702   9.207 -0.3979  2.1620 -0.6459
 4647SOL     OW25576   3.748   3.047  13.578  0.0100  0.0312  0.1315
 4647SOL    HW125577   3.751   2.990  13.501  1.6901  1.8082 -1.1093
 4647SOL    HW225578   3.838   3.029  13.608 -0.4917  1.2879  2.3661
 4648SOL     OW25579   0.593   1.115   2.843 -0.2890  0.2659 -0.5593
 4648SOL    HW125580   0.607   1.103   2.937 -0.7101 -1.8821 -0.7656
 4648SOL    HW225581   0.543   1.035   2.825  0.6679 -0.6212  0.6844
 4649SOL     OW25582   2.110   0.024  11.614 -0.2647 -0.1232  0.2099
 4649SOL    HW125583   2.197   0.059  11.593 -1.0120  1.4118 -0.2696
 4649SOL    HW225584   2.059   0.022  11.534  1.8705 -1.4101 -1.1246
 4650SOL     OW25585   2.609   4.312   0.108  0.1449 -0.0055  0.9867
 4650SOL    HW125586   2.621   4.310   0.013 -0.6151  0.0491  0.8907
 4650SOL    HW225587   2.540   4.374   0.130 -1.5781 -1.7891  0.6982
 4651SOL     OW25588   0.766   4.089   2.645 -0.4252  0.3772 -0.4748
 4651SOL    HW125589   0.760   3.994   2.651 -2.0767  0.6447  1.9400
 4651SOL    HW225590   0.773   4.116   2.736  2.5977  1.3829 -1.0079
 4652SOL     OW25591   4.368   0.630   1.987  0.2526  0.2631  0.0995
 4652SOL    HW125592   4.449   0.638   1.936 -1.3310  0.6576 -2.3529
 4652SOL    HW225593   4.318   0.707   1.961  0.4704  0.6094  0.7285
 4653SOL     OW25594   0.108   0.540   2.783 -0.5191 -0.2292 -0.5743
 4653SOL    HW125595   0.163   0.614   2.758  0.0042 -0.4857 -0.1883
 4653SOL    HW225596   0.165   0.470   2.753 -0.1944  0.1219 -0.7806
 4654SOL     OW25597   0.943   2.786   1.737 -0.2175  0.0374 -0.2318
 4654SOL    HW125598   0.970   2.875   1.761  2.7779 -0.6225 -1.2974
 4654SOL    HW225599   1.025   2.741   1.756  1.6764  3.6041  0.1261
 4655SOL     OW25600   2.458   1.135   1.050 -0.5826  0.3725  0.4861
 4655SOL    HW125601   2.397   1.062   1.047  3.2762 -2.7953 -1.8296
 4655SOL    HW225602   2.456   1.172   0.962 -0.9342  1.0713  0.7845
 4656SOL     OW25603   3.539   0.284   3.368 -0.1176 -0.0756 -0.2022
 4656SOL    HW125604   3.447   0.268   3.388  0.2638 -0.6745  1.0350
 4656SOL    HW225605   3.576   0.310   3.452  0.8370  2.2833 -1.3637
 4657SOL     OW25606   4.025   1.102   6.649  0.2777 -0.3271 -0.6220
 4657SOL    HW125607   3.939   1.063   6.668  0.2802  0.9069  1.9299
 4657SOL    HW225608   4.033   1.078   6.557 -1.2863  2.0835 -1.3643
 4658SOL     OW25609   2.873   0.120   3.169  0.5281  0.5451 -0.7548
 4658SOL    HW125610   2.884   0.030   3.138  4.5097 -0.3726  3.3342
 4658SOL    HW225611   2.950   0.139   3.223  0.3015 -2.2766  0.6034
 4659SOL     OW25612   1.691   2.320   4.805 -0.5270  0.5869 -0.1947
 4659SOL    HW125613   1.719   2.250   4.747 -2.3363 -0.2036 -0.0988
 4659SOL    HW225614   1.686   2.395   4.746  0.4098  0.7309 -0.0984
 4660SOL     OW25615   4.546   0.895   6.600  0.8922  0.0392  0.0914
 4660SOL    HW125616   4.463   0.849   6.590  2.5489 -2.6670 -1.1485
 4660SOL    HW225617   4.507   0.974   6.638 -2.1471 -1.1985 -0.4324
 4661SOL     OW25618   2.828   0.862   3.895 -0.3261  0.8002 -0.3219
 4661SOL    HW125619   2.893   0.814   3.843  0.0825  1.3528 -0.3313
 4661SOL    HW225620   2.774   0.907   3.831 -1.9771  0.3537  0.7602
 4662SOL     OW25621   1.077   0.276   3.898  0.0171  0.0212  0.2350
 4662SOL    HW125622   1.150   0.261   3.958  1.4192 -1.3429 -1.7925
 4662SOL    HW225623   1.118   0.308   3.817  0.6265 -0.8408  0.2069
 4663SOL     OW25624   0.439   4.062   9.047 -0.4400  0.4347 -0.0624
 4663SOL    HW125625   0.497   4.132   9.078 -0.4208  0.3733  0.0395
 4663SOL    HW225626   0.366   4.069   9.108 -1.8877 -0.3106 -1.7345
 4664SOL     OW25627   0.558   4.236  14.314 -0.3459  0.0376 -0.3502
 4664SOL    HW125628   0.589   4.153  14.280 -1.2579  0.2832 -1.7790
 4664SOL    HW225629   0.549   4.288  14.234 -2.6075  0.5935  0.2471
 4665SOL     OW25630   3.985   3.826   5.716  0.0483  0.3599  0.0225
 4665SOL    HW125631   3.999   3.781   5.633  0.6586  0.0297  0.3100
 4665SOL    HW225632   4.022   3.910   5.690 -1.6525  2.0228  2.9493
 4666SOL     OW25633   1.407   3.603   2.570 -0.1848 -0.4977 -0.1265
 4666SOL    HW125634   1.384   3.597   2.477  0.5982  0.5736 -0.3893
 4666SOL    HW225635   1.321   3.582   2.605  0.3043  0.0055  1.3688
 4667SOL     OW25636   4.592   4.025   8.576  0.5808  0.5155  0.4057
 4667SOL    HW125637   4.585   3.932   8.557  1.4236  0.6826 -0.6843
 4667SOL    HW225638   4.687   4.032   8.574  0.5161  1.2424 -0.3420
 4668SOL     OW25639   3.993   0.941   2.289 -0.0830  0.3687  0.0292
 4668SOL    HW125640   3.907   0.923   2.327  0.8624 -0.0458  1.9866
 4668SOL    HW225641   4.008   1.033   2.314 -0.0124  0.1681  0.7444
 4669SOL     OW25642   2.645   0.267   3.757 -0.0142  0.4083 -0.4324
 4669SOL    HW125643   2.591   0.339   3.727  0.0366  0.1695 -1.0902
 4669SOL    HW225644   2.730   0.306   3.779  0.2120  0.0154 -0.6049
 4670SOL     OW25645   2.867   3.306   5.406  0.0665  0.1802  0.3391
 4670SOL    HW125646   2.953   3.338   5.377 -0.7179  2.4124  0.5303
 4670SOL    HW225647   2.818   3.343   5.333  1.5360  1.3153 -0.0665
 4671SOL     OW25648   3.461   1.682   4.245 -0.8084 -1.1851 -0.5690
 4671SOL    HW125649   3.506   1.599   4.263  0.3062 -0.2350  1.0686
 4671SOL    HW225650   3.458   1.672   4.150  2.1670  3.0832 -1.0988
 4672SOL     OW25651   3.365   0.080  13.032  0.3440 -0.4411 -0.1717
 4672SOL    HW125652   3.387   0.132  13.109 -1.8473  1.5590 -0.8719
 4672SOL    HW225653   3.282   0.124  13.010  0.3322 -0.8233 -0.9083
 4673SOL     OW25654   0.673   3.628   7.862  0.2437  0.0297 -0.1013
 4673SOL    HW125655   0.588   3.643   7.820 -1.1283  0.1688  2.6855
 4673SOL    HW225656   0.684   3.534   7.850 -1.6528 -0.2268  0.1609
 4674SOL     OW25657   0.432   1.530   3.625 -0.5277 -0.2708 -0.0930
 4674SOL    HW125658   0.477   1.595   3.680 -0.2970  1.7584 -2.6767
 4674SOL    HW225659   0.504   1.467   3.618  1.6781  2.2190  0.0789
 4675SOL     OW25660   2.894   2.405   4.102 -0.4631  0.5638 -0.4202
 4675SOL    HW125661   2.817   2.383   4.049 -0.5885 -2.6419  1.0805
 4675SOL    HW225662   2.856   2.398   4.189  2.1824  1.0062  0.7489
 4676SOL     OW25663   3.291   1.133  12.750  0.0426  0.0207 -0.0433
 4676SOL    HW125664   3.383   1.109  12.734  0.4015  0.8256  0.8398
 4676SOL    HW225665   3.239   1.077  12.692  0.5471 -1.8413  1.3156
 4677SOL     OW25666   2.138   3.957   1.371 -0.0771 -0.5011  0.0920
 4677SOL    HW125667   2.084   3.879   1.382 -0.6573 -0.5328 -3.0064
 4677SOL    HW225668   2.115   3.979   1.281 -1.1027  0.0033  0.4802
 4678SOL     OW25669   0.709   4.271  16.634  0.9647 -0.0175 -0.1990
 4678SOL    HW125670   0.681   4.205  16.697  1.0220  1.6721  1.5871
 4678SOL    HW225671   0.647   4.258  16.562  0.1297 -0.9348  0.6977
 4679SOL     OW25672   2.771   0.757   8.109  0.3832  0.1755  0.8531
 4679SOL    HW125673   2.797   0.702   8.183  1.4388  0.3655  0.6194
 4679SOL    HW225674   2.824   0.719   8.039  0.9286 -1.0701  1.9338
 4680SOL     OW25675   2.779   2.881   3.008  0.1424  0.3489  0.2169
 4680SOL    HW125676   2.777   2.933   2.928 -0.4409 -0.9609 -0.6271
 4680SOL    HW225677   2.871   2.885   3.033 -0.0346 -0.7825  1.1004
 4681SOL     OW25678   1.492   2.287   7.027  0.4591  0.6756  0.0538
 4681SOL    HW125679   1.450   2.366   6.992  0.8815  0.6522 -0.4966
 4681SOL    HW225680   1.438   2.275   7.106 -2.0382  0.0412 -1.7470
 4682SOL     OW25681   3.134   0.816   1.269 -0.5575  0.0001  0.2638
 4682SOL    HW125682   3.079   0.757   1.319 -1.6585  2.8133  2.3691
 4682SOL    HW225683   3.171   0.872   1.337 -1.2007  0.4600  0.2445
 4683SOL     OW25684   2.951   3.708  15.638 -0.2159  0.6959  0.1166
 4683SOL    HW125685   3.030   3.714  15.692  0.3913  2.8732 -0.9907
 4683SOL    HW225686   2.982   3.759  15.563 -0.0152  0.3231 -0.0535
 4684SOL     OW25687   1.324   0.099   7.175 -0.2755  0.0045 -0.2546
 4684SOL    HW125688   1.293   0.120   7.262 -1.1113 -0.4651 -0.4422
 4684SOL    HW225689   1.301   0.175   7.121 -1.6635  0.8147  1.4885
 4685SOL     OW25690   3.752   0.531   2.060 -0.2777 -0.0994 -0.4025
 4685SOL    HW125691   3.699   0.555   2.136 -1.6113 -2.8326 -0.4843
 4685SOL    HW225692   3.837   0.527   2.105 -2.0673  0.9642  3.0407
 4686SOL     OW25693   0.199   0.470   3.240 -0.3769  0.4551  0.0315
 4686SOL    HW125694   0.232   0.478   3.150 -2.3666 -0.0912 -0.7419
 4686SOL    HW225695   0.128   0.406   3.237  1.1086 -1.1258 -1.5589
 4687SOL     OW25696   2.815   1.712  15.952  0.2936  0.1993  0.0743
 4687SOL    HW125697   2.758   1.640  15.928 -1.7764  1.7484  0.3562
 4687SOL    HW225698   2.844   1.696  16.042  0.7752 -0.4583 -0.2042
 4688SOL     OW25699   4.523   0.001  14.219  0.3905 -0.3223 -0.1067
 4688SOL    HW125700   4.497   0.021  14.309  0.5554 -1.1522  0.1279
 4688SOL    HW225701   4.489   0.076  14.171 -0.0766 -0.5247 -0.0928
 4689SOL     OW25702   0.610   0.333   7.329 -0.7121  0.2609 -0.4771
 4689SOL    HW125703   0.667   0.388   7.383 -0.5054  0.8248 -1.2740
 4689SOL    HW225704   0.591   0.386   7.252 -2.7462 -2.3748 -1.8109
 4690SOL     OW25705   4.479   0.202   8.633  0.4535  1.0576 -0.3951
 4690SOL    HW125706   4.542   0.216   8.704  0.7953  1.5845 -0.8077
 4690SOL    HW225707   4.420   0.136   8.671  0.8833  0.9885  0.1566
 4691SOL     OW25708   2.252   0.140  15.281 -0.3769 -0.3946  0.3612
 4691SOL    HW125709   2.315   0.208  15.259 -1.1880 -0.0503 -0.8715
 4691SOL    HW225710   2.212   0.174  15.361  2.3646  2.7259  0.3900
 4692SOL     OW25711   1.387   1.364   5.611  0.4337 -0.2961 -0.7963
 4692SOL    HW125712   1.332   1.323   5.678  1.2509  1.6749  1.0658
 4692SOL    HW225713   1.385   1.299   5.540  4.3180 -0.9804 -0.2898
 4693SOL     OW25714   3.141   2.328   6.953 -0.0821  0.7857 -0.3294
 4693SOL    HW125715   3.168   2.241   6.925 -0.0485  0.4148  0.8770
 4693SOL    HW225716   3.063   2.339   6.899 -1.3978  1.9380  1.8025
 4694SOL     OW25717   3.807   2.760   5.699  0.4099 -0.3324  0.8030
 4694SOL    HW125718   3.847   2.837   5.657 -1.1968 -0.0503 -0.2260
 4694SOL    HW225719   3.843   2.689   5.647 -2.5207 -0.8915 -0.4511
 4695SOL     OW25720   3.543   2.365  11.846 -0.5588  0.0136  0.0742
 4695SOL    HW125721   3.479   2.352  11.776  0.8686 -0.7691 -1.1003
 4695SOL    HW225722   3.573   2.453  11.826 -2.0345  0.0941 -1.8509
 4696SOL     OW25723   3.243   4.331  15.360  0.1068  0.2565  0.2435
 4696SOL    HW125724   3.245   4.426  15.348  1.4570  0.1641 -0.3632
 4696SOL    HW225725   3.297   4.300  15.286  1.5307 -0.1136  1.4243
 4697SOL     OW25726   1.738   0.948  11.603  0.7633  0.4159 -0.2648
 4697SOL    HW125727   1.690   0.990  11.674 -1.2760 -2.1288 -0.1788
 4697SOL    HW225728   1.802   0.902  11.657  0.6505  0.1652 -0.3453
 4698SOL     OW25729   2.886   0.382   3.812  0.3923 -0.3183 -0.2685
 4698SOL    HW125730   2.929   0.420   3.888 -0.0911 -1.9340  0.7978
 4698SOL    HW225731   2.954   0.399   3.746 -0.8184  0.9147 -1.2167
 4699SOL     OW25732   4.326   4.736   0.959 -0.1153  0.2428 -0.3404
 4699SOL    HW125733   4.282   4.727   1.043  0.0533  0.5904 -0.2141
 4699SOL    HW225734   4.390   0.067   0.963  1.3725 -1.1929  1.3614
 4700SOL     OW25735   4.480   3.020   3.012 -0.0780  0.3950 -0.1196
 4700SOL    HW125736   4.546   2.955   3.036 -0.0278 -0.4380 -2.4779
 4700SOL    HW225737   4.505   3.062   2.930 -0.3718  1.3928  0.3022
 4701SOL     OW25738   2.409   1.377  12.644  0.5892 -0.2785 -0.0427
 4701SOL    HW125739   2.345   1.409  12.707 -1.3950 -2.0740 -1.1514
 4701SOL    HW225740   2.371   1.291  12.631 -1.6138  0.6428  0.3084
 4702SOL     OW25741   3.207   2.700   2.425  0.5594  0.3066  0.0943
 4702SOL    HW125742   3.163   2.763   2.368 -1.1445 -1.2207 -0.2980
 4702SOL    HW225743   3.131   2.653   2.460  0.0387  2.9203  2.4486
 4703SOL     OW25744   1.904   3.073   2.397  0.0873 -0.2755  0.5925
 4703SOL    HW125745   1.847   3.043   2.467  1.7252 -3.2665  0.6678
 4703SOL    HW225746   1.990   3.072   2.440  1.3875 -1.4977 -1.9789
 4704SOL     OW25747   1.374   1.033   5.809  0.1567 -0.2970  0.5275
 4704SOL    HW125748   1.316   0.957   5.817 -0.9788  0.4988 -0.0709
 4704SOL    HW225749   1.311   1.093   5.768  0.5873 -1.5699 -1.9721
 4705SOL     OW25750   0.569   0.907   2.453  0.4031  1.0144 -0.1087
 4705SOL    HW125751   0.647   0.908   2.508 -0.7711  0.0040  1.5873
 4705SOL    HW225752   0.523   0.824   2.465 -0.5606  1.4352 -0.8381
 4706SOL     OW25753   0.299   1.249   7.902 -0.6374  0.5100 -0.2722
 4706SOL    HW125754   0.280   1.222   7.813 -1.1297  2.6466 -0.8129
 4706SOL    HW225755   0.242   1.187   7.948  0.2132  1.3074  1.8759
 4707SOL     OW25756   0.388   2.064  14.424  0.1811 -0.9001 -0.0265
 4707SOL    HW125757   0.472   2.036  14.388  0.7773  1.3194 -0.3810
 4707SOL    HW225758   0.370   1.980  14.467  0.9092 -0.5933  0.8858
 4708SOL     OW25759   3.441   3.889   7.406 -0.0487 -0.1440  0.1560
 4708SOL    HW125760   3.484   3.807   7.427 -0.5507 -0.2330  0.8193
 4708SOL    HW225761   3.412   3.912   7.494  1.4164 -2.3892  1.2195
 4709SOL     OW25762   0.602   0.270   8.180 -0.0408 -0.1218 -0.0190
 4709SOL    HW125763   0.567   0.203   8.122 -0.9506  0.2037  0.1514
 4709SOL    HW225764   0.583   0.235   8.267 -0.5258  0.0832 -0.0405
 4710SOL     OW25765   0.540   4.255   1.437 -0.2501 -0.0075 -0.7311
 4710SOL    HW125766   0.555   4.262   1.343 -1.2410  1.2446 -0.8000
 4710SOL    HW225767   0.627   4.233   1.471  0.2975  3.7955  0.3642
 4711SOL     OW25768   4.339   3.849   7.467 -0.1686 -0.2043 -0.8596
 4711SOL    HW125769   4.263   3.837   7.411 -0.4149  0.5570 -0.6861
 4711SOL    HW225770   4.397   3.906   7.417  1.9121 -1.7721 -0.2734
 4712SOL     OW25771   3.021   3.524   9.798  0.1468 -0.4806  0.2880
 4712SOL    HW125772   3.090   3.464   9.827 -0.1080 -0.4937  0.8602
 4712SOL    HW225773   2.971   3.565   9.868  0.7839 -2.7483  2.0729
 4713SOL     OW25774   0.468   1.393   3.904  0.1573  0.1820  0.1387
 4713SOL    HW125775   0.549   1.399   3.854 -0.0246 -0.5929 -0.2549
 4713SOL    HW225776   0.476   1.318   3.964 -1.4167  1.8206  2.4103
 4714SOL     OW25777   2.247   1.865   7.853 -0.5565  0.9415  0.1817
 4714SOL    HW125778   2.340   1.859   7.830 -1.0459 -1.9536 -1.0634
 4714SOL    HW225779   2.245   1.947   7.902 -1.1298  0.8247  0.3536
 4715SOL     OW25780   4.283   3.083   6.479  0.1296 -0.3603  0.3744
 4715SOL    HW125781   4.274   3.062   6.572 -1.2669 -0.9705  0.0992
 4715SOL    HW225782   4.316   3.173   6.490 -2.1898  0.5413 -0.1163
 4716SOL     OW25783   4.617   1.718   7.666  0.4170  0.0054  0.1771
 4716SOL    HW125784   4.531   1.705   7.626 -0.0774  1.5222  0.7418
 4716SOL    HW225785   4.635   1.638   7.715  1.9067  1.2214  1.6043
 4717SOL     OW25786   0.862   2.022   8.689 -0.3259  0.1432 -0.0294
 4717SOL    HW125787   0.848   1.931   8.716  3.1347 -1.4011 -3.3659
 4717SOL    HW225788   0.812   2.072   8.753 -1.6286 -0.8180 -0.3103
 4718SOL     OW25789   0.623   0.128  11.619  0.4313  0.0085 -0.2253
 4718SOL    HW125790   0.716   0.140  11.599  0.7639 -0.7639  0.8748
 4718SOL    HW225791   0.636   0.045  11.664  1.7273 -0.0141 -0.6164
 4719SOL     OW25792   0.696   2.706  17.532  0.2797  0.0876 -0.1259
 4719SOL    HW125793   0.603   2.686  17.538  0.0549  1.0270 -0.6466
 4719SOL    HW225794   0.707   2.799  17.548  1.2404 -0.3521  1.8784
 4720SOL     OW25795   3.256   3.140  11.382  0.0978 -0.1815  0.2267
 4720SOL    HW125796   3.182   3.142  11.442 -0.0547 -0.9882  0.0656
 4720SOL    HW225797   3.296   3.225  11.402 -1.8426  0.3094  1.9790
 4721SOL     OW25798   1.897   4.333   7.480 -0.0560  0.2639  0.1793
 4721SOL    HW125799   1.847   4.414   7.469 -1.0569 -0.2480  0.9435
 4721SOL    HW225800   1.977   4.366   7.520 -0.4994 -1.3804  2.3847
 4722SOL     OW25801   3.344   4.251   5.348  0.0432  0.4470 -0.1197
 4722SOL    HW125802   3.428   4.280   5.384 -1.4256  1.9624  2.0792
 4722SOL    HW225803   3.328   4.172   5.399 -0.0509  0.0356 -0.7922
 4723SOL     OW25804   3.381   4.201  11.828 -0.5393  0.4062  0.2045
 4723SOL    HW125805   3.337   4.119  11.807 -0.6088  0.4986 -0.0081
 4723SOL    HW225806   3.353   4.265  11.763  0.2752 -0.1185 -0.6620
 4724SOL     OW25807   3.151   2.711   6.867 -0.0213  0.3678 -0.0050
 4724SOL    HW125808   3.241   2.743   6.868 -0.9357  2.8445  1.5349
 4724SOL    HW225809   3.155   2.639   6.930 -1.8425  0.7212  0.4930
 4725SOL     OW25810   4.295   0.377   7.098 -0.3611 -0.2115 -0.3852
 4725SOL    HW125811   4.325   0.451   7.150  0.5820  0.8043 -2.4225
 4725SOL    HW225812   4.374   0.324   7.090 -0.4148 -0.4878  0.9510
 4726SOL     OW25813   0.578   1.573  15.177 -0.1001  0.0692  0.9486
 4726SOL    HW125814   0.598   1.479  15.177 -1.2547 -0.1794 -1.8207
 4726SOL    HW225815   0.589   1.591  15.083 -0.9328  0.5962  0.9529
 4727SOL     OW25816   4.120   2.305   8.327  0.2357 -0.5271 -0.4227
 4727SOL    HW125817   4.146   2.222   8.366 -1.4987 -0.4866  0.7751
 4727SOL    HW225818   4.128   2.290   8.232 -0.5221 -1.9650 -0.2516
 4728SOL     OW25819   0.766   2.356   8.194  0.1343  0.0350 -0.2312
 4728SOL    HW125820   0.813   2.363   8.277 -0.0661 -1.9485  0.0271
 4728SOL    HW225821   0.835   2.315   8.142  1.4184 -0.3744  1.7995
 4729SOL     OW25822   1.993   4.026  14.943 -0.6377 -0.0421 -0.4276
 4729SOL    HW125823   1.929   4.097  14.947  0.7766  1.1437  1.0205
 4729SOL    HW225824   2.065   4.072  14.986 -0.8183 -0.1392 -0.0195
 4730SOL     OW25825   1.128   1.624   1.803 -0.0857  0.1313 -0.2007
 4730SOL    HW125826   1.164   1.703   1.843  2.4720 -0.7100 -0.8469
 4730SOL    HW225827   1.044   1.625   1.850 -1.1892  1.1692 -2.1884
 4731SOL     OW25828   2.152   1.558   6.923  0.3480 -0.1336 -0.2529
 4731SOL    HW125829   2.232   1.593   6.884 -1.0134  2.0492 -1.1011
 4731SOL    HW225830   2.176   1.466   6.915  3.2156  0.3056  3.3439
 4732SOL     OW25831   0.629   4.392   5.313 -0.0702 -0.5063  0.2439
 4732SOL    HW125832   0.719   4.408   5.286 -0.6397 -0.8389 -1.8988
 4732SOL    HW225833   0.623   4.297   5.309 -2.0214 -0.4833  2.8264
 4733SOL     OW25834   1.585   4.181   2.211 -0.2802  0.5111  0.1547
 4733SOL    HW125835   1.609   4.271   2.190  1.0269  0.3532  0.9580
 4733SOL    HW225836   1.503   4.181   2.259 -0.1730  0.9696  0.3316
 4734SOL     OW25837   4.255   2.077   4.215 -0.2474 -0.1421 -0.4569
 4734SOL    HW125838   4.240   2.144   4.148 -1.9697 -0.0861 -0.0375
 4734SOL    HW225839   4.167   2.043   4.231  0.7187 -2.7024 -0.6514
 4735SOL     OW25840   4.073   2.075   8.938 -0.0634  0.2250 -0.2094
 4735SOL    HW125841   4.167   2.064   8.951 -0.2606 -2.8444 -1.5737
 4735SOL    HW225842   4.054   2.127   9.017 -0.3684  0.7413 -0.6199
 4736SOL     OW25843   0.301   4.321  16.527 -0.5326  0.5125  0.0512
 4736SOL    HW125844   0.232   4.329  16.461  0.2022  0.9932 -0.6680
 4736SOL    HW225845   0.313   4.405  16.572  1.1687 -0.6417  1.7725
 4737SOL     OW25846   1.928   4.253  13.527  0.7022 -0.2139 -0.0136
 4737SOL    HW125847   1.980   4.212  13.457  0.5754 -0.1146 -0.1634
 4737SOL    HW225848   1.936   4.174  13.580 -0.5416 -0.0720  0.3616
 4738SOL     OW25849   3.512   0.362   3.098  0.6500  0.3292 -0.1184
 4738SOL    HW125850   3.541   0.361   3.189 -1.1432 -0.0334  0.4516
 4738SOL    HW225851   3.574   0.296   3.065 -0.3359 -1.0782  0.8303
 4739SOL     OW25852   3.488   0.537  15.271 -0.2469 -0.5642  0.3970
 4739SOL    HW125853   3.436   0.468  15.313 -0.1601 -1.0522 -0.3085
 4739SOL    HW225854   3.569   0.547  15.322  0.0896 -1.8902  0.1164
 4740SOL     OW25855   1.852   4.409   1.325 -0.0694 -0.2307 -0.0769
 4740SOL    HW125856   1.897   4.342   1.273  1.4295  1.3841 -0.8552
 4740SOL    HW225857   1.855   4.376   1.415 -1.0156 -1.0582 -0.3490
 4741SOL     OW25858   0.460   0.558   8.452 -0.1619 -0.1031 -0.1694
 4741SOL    HW125859   0.371   0.528   8.432  0.3005 -1.1092 -0.7083
 4741SOL    HW225860   0.474   0.504   8.530  0.5996  1.2087  0.5918
 4742SOL     OW25861   0.030   1.721  12.245 -0.1255  0.1910  0.2427
 4742SOL    HW125862   4.723   1.802  12.266 -0.3121  0.0743  0.2755
 4742SOL    HW225863   0.015   1.720  12.150 -1.0682 -0.1682  0.4004
 4743SOL     OW25864   1.801   1.630   7.058  0.3993 -0.1853 -0.0912
 4743SOL    HW125865   1.715   1.614   7.097 -0.5929 -1.4251 -2.7953
 4743SOL    HW225866   1.837   1.698   7.115 -3.4093  1.9026 -0.1797
 4744SOL     OW25867   4.675   4.099   0.354  0.2502 -0.6335  0.2958
 4744SOL    HW125868   0.031   4.088   0.356  0.1382 -1.4104  1.5789
 4744SOL    HW225869   4.664   4.146   0.271 -1.4851 -1.2961  0.1407
 4745SOL     OW25870   3.983   1.174   2.391 -0.0184  0.4083 -0.3266
 4745SOL    HW125871   3.979   1.190   2.486 -2.4896  0.2115 -0.3843
 4745SOL    HW225872   3.890   1.176   2.370 -0.7794  0.0171  3.0252
 4746SOL     OW25873   3.831   0.578   5.618  0.0608 -0.2796 -0.1144
 4746SOL    HW125874   3.752   0.629   5.635 -0.9234 -0.8102 -3.1711
 4746SOL    HW225875   3.842   0.571   5.523  1.5188  0.9889 -0.0420
 4747SOL     OW25876   2.581   4.698   5.077 -0.3312 -0.1228  0.1372
 4747SOL    HW125877   2.649   0.025   5.075 -1.6383  1.1590 -1.3762
 4747SOL    HW225878   2.497   0.005   5.071  0.4552  1.4861  1.9620
 4748SOL     OW25879   0.741   0.438  17.216 -0.3042 -0.2579 -0.1605
 4748SOL    HW125880   0.742   0.355  17.168  0.8517 -1.4194  1.8693
 4748SOL    HW225881   0.834   0.459  17.222 -0.9209  2.1780  1.0814
 4749SOL     OW25882   3.263   2.085   8.083  0.4419  0.3745  0.0764
 4749SOL    HW125883   3.180   2.115   8.120  0.2646 -0.3236  0.2394
 4749SOL    HW225884   3.293   2.006   8.128 -2.0211  0.4305  1.7642
 4750SOL     OW25885   0.281   4.381  11.346  0.8756 -0.0322  0.1651
 4750SOL    HW125886   0.335   4.458  11.365  1.0654 -0.3721  0.9823
 4750SOL    HW225887   0.295   4.372  11.251  0.9674 -0.4307  0.2156
 4751SOL     OW25888   2.336   1.507   8.531  0.3184 -0.5034  0.0507
 4751SOL    HW125889   2.279   1.440   8.567  2.1736 -1.6820  0.8150
 4751SOL    HW225890   2.327   1.512   8.436 -1.3451 -1.6605  0.1471
 4752SOL     OW25891   1.511   3.121   3.716 -0.1455 -0.0832 -0.2963
 4752SOL    HW125892   1.605   3.115   3.698  0.3584 -0.0059  2.3068
 4752SOL    HW225893   1.465   3.058   3.661 -1.9479  0.7324  0.2462
 4753SOL     OW25894   3.871   3.157   4.686  0.6612  0.5338  0.4287
 4753SOL    HW125895   3.961   3.164   4.718  0.0487  0.4134  2.1770
 4753SOL    HW225896   3.829   3.139   4.770 -0.1918 -1.5002 -0.4306
 4754SOL     OW25897   2.542   4.061   1.022 -0.1431 -0.5607  0.3298
 4754SOL    HW125898   2.582   4.047   0.935 -0.4839 -2.6369  0.5073
 4754SOL    HW225899   2.621   4.090   1.068 -1.3013 -0.6368  2.3225
 4755SOL     OW25900   4.542   2.657  13.366 -0.5521  0.0439  0.0542
 4755SOL    HW125901   4.551   2.567  13.333 -0.8529  0.3970 -0.9936
 4755SOL    HW225902   4.470   2.699  13.320  2.6555  1.8813 -3.3159
 4756SOL     OW25903   2.035   2.942   6.997  0.2315 -0.2925 -0.3810
 4756SOL    HW125904   2.071   3.025   7.030  2.5781 -1.4016 -0.1164
 4756SOL    HW225905   1.958   2.931   7.053  0.7135  2.1413  0.7929
 4757SOL     OW25906   1.254   2.309   9.027  0.3172  0.3071  1.2545
 4757SOL    HW125907   1.217   2.269   8.948  1.7436 -0.3489  0.9270
 4757SOL    HW225908   1.294   2.381   8.978  0.8136 -3.5692 -3.9589
 4758SOL     OW25909   4.594   2.706   7.820  0.4836  0.2053 -0.4500
 4758SOL    HW125910   4.602   2.614   7.847  0.0369 -0.1060 -1.3755
 4758SOL    HW225911   4.673   2.704   7.767 -0.1372 -0.3545 -1.3559
 4759SOL     OW25912   4.010   2.612   3.368  0.1034 -0.1135 -0.0287
 4759SOL    HW125913   3.989   2.525   3.333  0.3039  0.3385 -1.2545
 4759SOL    HW225914   4.038   2.653   3.286  0.0387 -0.0600 -0.0244
 4760SOL     OW25915   1.366   1.611  12.459 -0.2306  0.3882  0.4682
 4760SOL    HW125916   1.364   1.539  12.396 -3.2131  0.4167  0.5399
 4760SOL    HW225917   1.272   1.631  12.460 -0.4273 -0.5206  0.2283
 4761SOL     OW25918   4.261   1.602   1.840 -0.6555 -0.3347  0.8213
 4761SOL    HW125919   4.283   1.545   1.915  2.0454 -0.4263 -0.0379
 4761SOL    HW225920   4.168   1.625   1.840 -0.1836  1.5754  0.4807
 4762SOL     OW25921   3.064   4.462   9.488  0.2872 -0.6143  0.3121
 4762SOL    HW125922   2.973   4.482   9.468  0.1822 -1.7757 -0.3478
 4762SOL    HW225923   3.104   4.493   9.407 -0.4375 -0.8367 -0.1239
 4763SOL     OW25924   3.369   3.774   1.255  0.1984 -0.0369  0.2647
 4763SOL    HW125925   3.420   3.731   1.324  2.4210  1.0848 -0.6833
 4763SOL    HW225926   3.396   3.715   1.185  1.1832 -0.0851  0.6836
 4764SOL     OW25927   0.962   0.734   3.975 -0.4328 -0.2627  0.2041
 4764SOL    HW125928   0.952   0.673   3.901 -0.0701  0.2535 -0.2691
 4764SOL    HW225929   1.029   0.683   4.021  0.6412  0.9118 -0.0668
 4765SOL     OW25930   0.389   3.770   5.586  0.0117 -0.0246 -0.1662
 4765SOL    HW125931   0.383   3.858   5.548  0.3896  1.4937  3.3048
 4765SOL    HW225932   0.395   3.775   5.681 -1.8878  3.0388 -0.2145
 4766SOL     OW25933   4.536   4.477  14.153  0.4936 -0.5952  0.0582
 4766SOL    HW125934   4.449   4.462  14.190  0.5768  3.7059  2.0012
 4766SOL    HW225935   4.547   4.572  14.158 -1.2498 -0.4917  1.8903
 4767SOL     OW25936   4.724   1.503   0.261  0.0122  0.0075  0.0544
 4767SOL    HW125937   0.068   1.510   0.216 -0.5814 -1.8662 -1.3332
 4767SOL    HW225938   0.011   1.526   0.350 -0.5286  1.4802 -0.1562
 4768SOL     OW25939   2.792   1.156   5.060  0.4111  0.2119  0.5273
 4768SOL    HW125940   2.770   1.244   5.093 -1.1662 -0.2512  0.7319
 4768SOL    HW225941   2.727   1.155   4.990  2.7628 -0.2393 -1.6463
 4769SOL     OW25942   3.255   0.958   3.924  0.1085 -0.1954 -0.5224
 4769SOL    HW125943   3.165   0.986   3.940  1.0112  2.8871 -0.8302
 4769SOL    HW225944   3.268   0.882   3.981 -0.9725 -0.1241 -0.1794
 4770SOL     OW25945   0.741   0.492   7.505  0.1374 -0.0344  0.0796
 4770SOL    HW125946   0.776   0.475   7.593 -1.4565 -3.3973  0.0804
 4770SOL    HW225947   0.820   0.485   7.453  1.0289  0.2658  1.3942
 4771SOL     OW25948   0.475   0.273  17.126 -0.0380 -1.1312  0.2542
 4771SOL    HW125949   0.484   0.339  17.058 -1.5253 -0.5561  0.6075
 4771SOL    HW225950   0.563   0.237  17.115  0.5584 -0.2413  2.1736
 4772SOL     OW25951   3.290   3.194  14.888  0.6434 -0.0109  0.2513
 4772SOL    HW125952   3.313   3.181  14.980 -1.7614  0.0245  0.8598
 4772SOL    HW225953   3.255   3.108  14.869 -1.1532  0.2435  2.4524
 4773SOL     OW25954   0.715   2.824   7.420 -0.1298  0.4650  0.0313
 4773SOL    HW125955   0.722   2.817   7.515  1.8439 -1.0631 -0.2270
 4773SOL    HW225956   0.778   2.891   7.395  0.1133  0.2825  0.1503
 4774SOL     OW25957   2.656   0.735   7.734 -0.7057  0.7241 -0.3768
 4774SOL    HW125958   2.584   0.690   7.778 -0.7898 -0.3553 -1.6317
 4774SOL    HW225959   2.672   0.804   7.798  0.1589  0.7565 -0.6364
 4775SOL     OW25960   1.515   4.034   9.940  1.2208 -0.2439  0.2841
 4775SOL    HW125961   1.449   4.065   9.878 -0.2217 -0.8678  1.5039
 4775SOL    HW225962   1.458   4.009  10.012  0.6475  0.1130 -0.0410
 4776SOL     OW25963   2.951   3.922  13.320 -0.4269 -0.2371 -0.3780
 4776SOL    HW125964   2.967   3.936  13.227 -2.3344  0.0916 -0.6529
 4776SOL    HW225965   2.948   4.011  13.355  0.6263  0.6110 -2.4520
 4777SOL     OW25966   4.431   0.087  10.350 -0.1841  0.2936 -0.0388
 4777SOL    HW125967   4.418   0.179  10.325  1.4868  0.3820 -0.6018
 4777SOL    HW225968   4.394   0.086  10.438 -2.3805 -3.8413 -1.0174
 4778SOL     OW25969   2.667   3.115   6.824 -0.2672 -0.1274 -0.2371
 4778SOL    HW125970   2.620   3.119   6.741  0.4953 -0.8577 -0.7022
 4778SOL    HW225971   2.673   3.021   6.840 -0.3517  0.1468  1.4549
 4779SOL     OW25972   1.037   4.320   9.195  0.2522 -0.0707 -0.0583
 4779SOL    HW125973   0.994   4.382   9.254  4.5068  0.1264  2.7610
 4779SOL    HW225974   1.108   4.286   9.249  0.0652  0.4676  0.5203
 4780SOL     OW25975   2.844   0.057  13.106 -0.7087  0.4937 -0.0416
 4780SOL    HW125976   2.836   0.152  13.115  2.2997  0.5068  2.3743
 4780SOL    HW225977   2.877   0.047  13.016 -0.1799  0.0517  0.2014
 4781SOL     OW25978   1.279   0.346  11.656  0.0107  0.2235 -0.1007
 4781SOL    HW125979   1.214   0.334  11.726  0.6164 -1.9778  0.0894
 4781SOL    HW225980   1.322   0.261  11.647  2.0196  1.3353 -0.9474
 4782SOL     OW25981   0.580   2.563   3.514  0.1077  0.1789 -0.0184
 4782SOL    HW125982   0.599   2.554   3.421  0.4479 -0.3061  0.0993
 4782SOL    HW225983   0.602   2.656   3.521  0.7745  0.0529 -0.4005
 4783SOL     OW25984   2.211   3.342   3.825 -0.0525 -0.4085 -0.1265
 4783SOL    HW125985   2.264   3.421   3.828 -1.8334  0.7804 -0.0397
 4783SOL    HW225986   2.153   3.359   3.899 -0.4275  0.8742 -0.7174
 4784SOL     OW25987   3.133   4.476   6.693  0.1873 -0.5158  0.5641
 4784SOL    HW125988   3.222   4.479   6.727  0.1836 -0.0920  0.5381
 4784SOL    HW225989   3.129   4.558   6.643  0.5149 -0.9307 -0.1355
 4785SOL     OW25990   2.059   2.444   4.952 -0.7838 -0.4305  0.2717
 4785SOL    HW125991   2.092   2.512   4.893 -1.7399  0.0836  0.3354
 4785SOL    HW225992   2.094   2.370   4.902  3.0980  0.5606  1.4789
 4786SOL     OW25993   3.041   1.607   7.169  0.2637  0.1936 -0.8450
 4786SOL    HW125994   2.980   1.660   7.219  1.0658  1.2858 -1.0196
 4786SOL    HW225995   3.118   1.664   7.177  0.4508 -0.3456  1.3006
 4787SOL     OW25996   0.297   2.112   2.774  0.4238  0.3762  0.0437
 4787SOL    HW125997   0.354   2.074   2.708 -0.7482 -3.5014  1.2642
 4787SOL    HW225998   0.306   2.205   2.754 -0.6669  0.5907  0.5641
 4788SOL     OW25999   1.270   4.684   2.352 -0.0867 -0.1187 -0.1822
 4788SOL    HW126000   1.287   0.002   2.278 -0.5967  0.0972 -0.1310
 4788SOL    HW226001   1.322   4.728   2.419  0.3393 -0.4826 -0.2669
 4789SOL     OW26002   3.463   4.404   2.155 -0.0144  0.0854  0.5142
 4789SOL    HW126003   3.502   4.355   2.228  0.4517 -0.4103 -0.0697
 4789SOL    HW226004   3.538   4.420   2.098  1.5366  0.5022  2.7033
 4790SOL     OW26005   1.537   2.110   6.135 -0.0485  0.6489  0.1171
 4790SOL    HW126006   1.446   2.138   6.143  0.0877  0.9895  0.4882
 4790SOL    HW226007   1.532   2.117   6.039  0.8123 -0.9820 -0.0474
 4791SOL     OW26008   4.031   1.719   7.352 -0.1832 -0.3337 -0.6425
 4791SOL    HW126009   3.963   1.667   7.396  0.2698 -0.0756  0.3635
 4791SOL    HW226010   4.010   1.811   7.364 -1.3486 -0.8939  1.6287
 4792SOL     OW26011   3.045   0.791  11.038 -0.3230 -0.7129 -0.0307
 4792SOL    HW126012   2.979   0.843  11.085 -0.2748 -1.8064  1.2719
 4792SOL    HW226013   3.035   0.703  11.075  0.6436 -1.8180 -2.4018
 4793SOL     OW26014   0.802   1.265  15.708 -0.2304 -0.3418 -0.2351
 4793SOL    HW126015   0.769   1.177  15.691 -0.7846  0.1176 -1.5137
 4793SOL    HW226016   0.810   1.305  15.621 -1.7957 -1.7153 -1.0096
 4794SOL     OW26017   4.286   0.843   6.517 -0.2602  0.6108  0.3324
 4794SOL    HW126018   4.246   0.873   6.598 -0.8988  0.9195 -0.0883
 4794SOL    HW226019   4.221   0.884   6.459 -0.9681  1.8349  1.9960
 4795SOL     OW26020   3.575   4.157   2.577  0.1564  0.1265  0.4549
 4795SOL    HW126021   3.654   4.103   2.573 -0.1703 -0.1495 -2.0828
 4795SOL    HW226022   3.510   4.092   2.602  1.4970 -0.9572  1.1470
 4796SOL     OW26023   2.965   0.409  14.419  0.2395 -0.7290 -0.0148
 4796SOL    HW126024   2.954   0.315  14.404  1.7477 -0.7969 -0.6737
 4796SOL    HW226025   2.944   0.431  14.329 -0.3768  0.4711  0.4321
 4797SOL     OW26026   0.563   1.199  16.751 -0.0222  0.1179  0.1357
 4797SOL    HW126027   0.613   1.250  16.688 -0.0302 -0.5587 -0.4197
 4797SOL    HW226028   0.512   1.152  16.685  2.1897 -0.8594 -0.8691
 4798SOL     OW26029   2.900   0.909   4.389  0.0526 -0.2728  0.2069
 4798SOL    HW126030   2.895   0.848   4.315 -0.8228 -1.5591  1.3360
 4798SOL    HW226031   2.989   0.892   4.420 -0.0733 -0.6360  0.3680
 4799SOL     OW26032   2.700   3.892   7.130 -0.5902  0.0238 -0.2187
 4799SOL    HW126033   2.759   3.965   7.112 -2.0551  0.5510 -2.7857
 4799SOL    HW226034   2.757   3.830   7.176 -1.9799 -0.6820  0.5266
 4800SOL     OW26035   2.434   1.302   5.780 -0.1619  0.2137  0.2759
 4800SOL    HW126036   2.384   1.247   5.720 -0.1961 -0.2366  0.7207
 4800SOL    HW226037   2.379   1.381   5.780 -0.7866 -0.2394 -1.7719
 4801SOL     OW26038   0.195   2.715   7.974  0.3290 -0.7434  0.4376
 4801SOL    HW126039   0.289   2.728   7.983  0.5252 -1.4008 -0.6827
 4801SOL    HW226040   0.170   2.801   7.941  1.2816 -0.3525  0.7299
 4802SOL     OW26041   2.573   0.767   9.779  0.1977  0.0618 -0.2121
 4802SOL    HW126042   2.524   0.715   9.715  0.8826  1.0433 -1.5410
 4802SOL    HW226043   2.522   0.747   9.857  1.9861  1.5518  1.3470
 4803SOL     OW26044   1.934   0.879   4.437  0.3649  0.4981  0.1764
 4803SOL    HW126045   1.934   0.801   4.491  0.3734 -0.3949 -1.1099
 4803SOL    HW226046   2.022   0.915   4.444  0.7861 -0.4066 -0.4679
 4804SOL     OW26047   2.568   1.588   9.343  0.0871 -0.2170 -0.0956
 4804SOL    HW126048   2.496   1.545   9.297 -0.4439  1.1872 -0.5729
 4804SOL    HW226049   2.524   1.670   9.365  0.5114 -0.1818  0.6370
 4805SOL     OW26050   0.956   0.583   9.888 -0.3197  0.0317  0.1610
 4805SOL    HW126051   1.002   0.664   9.910 -0.8981  0.9907 -2.1500
 4805SOL    HW226052   0.966   0.508   9.946 -0.9269  0.9934  1.4976
 4806SOL     OW26053   4.041   1.415   8.181 -0.2873  0.5130  0.1229
 4806SOL    HW126054   3.979   1.429   8.253 -1.3598 -2.3517 -0.2147
 4806SOL    HW226055   4.118   1.402   8.236 -0.2337  0.5254  0.0501
 4807SOL     OW26056   2.836   3.472   2.841  0.1358  0.0512 -0.0217
 4807SOL    HW126057   2.819   3.510   2.755  1.3689 -0.0986 -0.3332
 4807SOL    HW226058   2.753   3.490   2.885  0.0563 -1.0102  0.2584
 4808SOL     OW26059   0.611   1.462  16.957 -0.2730 -0.4218 -0.4104
 4808SOL    HW126060   0.583   1.371  16.955 -1.1916 -0.1214 -1.2037
 4808SOL    HW226061   0.698   1.443  16.921 -0.7720 -0.1638 -1.7556
 4809SOL     OW26062   3.609   1.303   7.515  0.0435  0.0087  0.1585
 4809SOL    HW126063   3.517   1.317   7.494  0.5073  3.1454  0.1214
 4809SOL    HW226064   3.626   1.222   7.467 -0.3086 -0.9223  1.6328
 4810SOL     OW26065   0.697   0.700  15.270 -0.6102  0.9548 -0.3084
 4810SOL    HW126066   0.741   0.660  15.345 -1.1684  0.8494 -0.0308
 4810SOL    HW226067   0.607   0.699  15.304 -0.2303  0.8786  0.7035
 4811SOL     OW26068   2.730   0.510   9.197  0.4145  0.2099 -0.1392
 4811SOL    HW126069   2.734   0.569   9.121  0.8156 -1.0478 -1.0861
 4811SOL    HW226070   2.822   0.497   9.217  0.2918  0.0725  0.3392
 4812SOL     OW26071   3.069   3.544  16.707  0.4298 -0.5182  0.3514
 4812SOL    HW126072   2.983   3.536  16.746  0.2887  0.5012  0.2660
 4812SOL    HW226073   3.050   3.632  16.674  0.7058 -0.6228 -0.1022
 4813SOL     OW26074   4.068   1.860   2.649 -0.7210  0.1125 -0.8571
 4813SOL    HW126075   4.011   1.931   2.619  0.8531  1.2310 -1.2023
 4813SOL    HW226076   4.011   1.790   2.615  0.6160 -0.4958 -1.8514
 4814SOL     OW26077   4.531   3.205   0.136  0.6308 -0.9677 -0.1008
 4814SOL    HW126078   4.547   3.200   0.042  1.3559 -2.3455  0.0942
 4814SOL    HW226079   4.620   3.191   0.168  0.0329 -1.5170  1.3194
 4815SOL     OW26080   1.394   2.801  11.538  0.0000  0.0316 -0.2747
 4815SOL    HW126081   1.403   2.750  11.458 -1.7423  0.7281 -0.9080
 4815SOL    HW226082   1.315   2.851  11.520 -1.2353 -1.6483  0.4832
 4816SOL     OW26083   0.782   0.403  11.560 -0.3030  0.4112 -0.4988
 4816SOL    HW126084   0.821   0.317  11.546 -2.3467 -0.9468  2.0818
 4816SOL    HW226085   0.848   0.441  11.618 -0.8180 -0.7480  0.8635
 4817SOL     OW26086   2.948   2.960   1.585  0.1082  0.5212  0.0492
 4817SOL    HW126087   2.856   2.941   1.607  0.4378 -1.2172 -0.0767
 4817SOL    HW226088   2.968   3.009   1.665  2.2720 -1.8821  0.9756
 4818SOL     OW26089   4.223   1.424  17.584  0.6721  0.7899  0.9928
 4818SOL    HW126090   4.285   1.372  17.636  0.3903 -0.9481 -0.4318
 4818SOL    HW226091   4.151   1.364  17.564  2.5273 -1.2145  0.2836
 4819SOL     OW26092   0.220   1.760   7.637  0.0152  0.2810  0.4802
 4819SOL    HW126093   0.150   1.771   7.573  0.4994  1.3720  0.1369
 4819SOL    HW226094   0.237   1.666   7.637  1.4360  0.5379  0.3053
 4820SOL     OW26095   1.130   1.584  11.082 -0.3185 -0.0761  0.8736
 4820SOL    HW126096   1.118   1.563  11.174 -1.0479  0.1097  0.8247
 4820SOL    HW226097   1.089   1.502  11.053 -0.9865  2.2369 -4.8771
 4821SOL     OW26098   1.461   4.731   4.727 -0.1040 -0.1105  0.2622
 4821SOL    HW126099   1.401   0.058   4.693  0.5637  0.2197 -0.2647
 4821SOL    HW226100   1.537   0.013   4.673 -1.0864  2.3350 -0.1647
 4822SOL     OW26101   1.775   0.496   1.309  0.3799  0.7413 -0.5486
 4822SOL    HW126102   1.720   0.569   1.283 -1.9993 -0.8143  0.1293
 4822SOL    HW226103   1.714   0.444   1.362  0.9762  1.4408  0.8167
 4823SOL     OW26104   2.917   0.357   4.511 -0.1570  0.1469  0.3523
 4823SOL    HW126105   2.891   0.265   4.510 -0.3675  0.1998  1.0223
 4823SOL    HW226106   2.843   0.392   4.461  1.0056  2.9030  0.5711
 4824SOL     OW26107   2.251   1.210  14.868 -0.4809 -0.0991 -0.4391
 4824SOL    HW126108   2.201   1.289  14.885 -0.8207 -0.5448  0.6072
 4824SOL    HW226109   2.331   1.228  14.917 -1.2641  0.9111  0.4628
 4825SOL     OW26110   3.715   1.221   3.492  0.3925  0.0969  0.0323
 4825SOL    HW126111   3.688   1.307   3.525 -0.5465 -0.3910  0.5322
 4825SOL    HW226112   3.694   1.164   3.566  2.0581 -0.9277 -0.2877
 4826SOL     OW26113   0.812   2.365   0.159 -0.3351  0.4427 -0.1760
 4826SOL    HW126114   0.748   2.415   0.108 -1.3113 -1.3147 -0.6364
 4826SOL    HW226115   0.856   2.441   0.198  0.3026 -1.4998  2.9046
 4827SOL     OW26116   0.729   1.205   7.778 -0.1166 -0.0218 -0.0720
 4827SOL    HW126117   0.734   1.114   7.747  0.8146  0.1487 -0.4279
 4827SOL    HW226118   0.793   1.207   7.850 -0.0313 -1.4596 -0.1092
 4828SOL     OW26119   1.813   4.700   4.697 -0.1905  0.2026  0.0053
 4828SOL    HW126120   1.897   4.681   4.739 -0.6163  1.4716  1.4224
 4828SOL    HW226121   1.815   4.641   4.621 -2.1082 -0.0733  0.1747
 4829SOL     OW26122   2.859   3.157   0.763  0.2869 -0.4355 -0.5960
 4829SOL    HW126123   2.839   3.116   0.847 -0.3616 -0.1093 -0.5924
 4829SOL    HW226124   2.937   3.207   0.786 -0.7241 -0.4404  2.8256
 4830SOL     OW26125   0.359   1.992   3.568 -0.2185  0.2571 -0.4267
 4830SOL    HW126126   0.449   2.000   3.537  0.0942  0.1026  0.4404
 4830SOL    HW226127   0.368   2.032   3.655  0.2821  2.0532 -1.2970
 4831SOL     OW26128   4.242   3.534   1.657 -0.8899  0.0366  0.0227
 4831SOL    HW126129   4.148   3.519   1.649 -0.7419  1.0031 -3.3501
 4831SOL    HW226130   4.261   3.449   1.698  1.4395  0.3910 -0.3601
 4832SOL     OW26131   0.119   3.849   7.415 -0.3580  0.2030 -0.1417
 4832SOL    HW126132   0.209   3.873   7.438  0.2666 -2.0981 -0.1571
 4832SOL    HW226133   0.099   3.909   7.343 -0.3923  1.4628  0.9291
 4833SOL     OW26134   2.558   1.347   6.870 -0.1173 -0.2533  0.2093
 4833SOL    HW126135   2.550   1.423   6.928  2.7840 -0.4778  0.8926
 4833SOL    HW226136   2.468   1.323   6.892 -0.5002  2.1696  1.3234
 4834SOL     OW26137   0.118   3.863  14.343  0.0852  0.1695  0.4703
 4834SOL    HW126138   0.165   3.940  14.309 -0.0541  0.7467  1.5685
 4834SOL    HW226139   0.188   3.798  14.352 -0.3279 -0.2130  0.9005
 4835SOL     OW26140   4.019   0.370   2.411  0.9316 -0.5779  0.0711
 4835SOL    HW126141   4.067   0.309   2.357 -0.5505 -0.3130 -1.5455
 4835SOL    HW226142   4.004   0.435   2.343  2.0954 -0.8541 -0.4346
 4836SOL     OW26143   2.881   0.696   7.176  0.0808 -0.4235  0.4042
 4836SOL    HW126144   2.806   0.751   7.153  1.0546  0.8481  0.2192
 4836SOL    HW226145   2.840   0.611   7.185 -2.8495  1.1713  2.1385
 4837SOL     OW26146   2.152   3.656   3.246  0.0570  0.3254 -0.0563
 4837SOL    HW126147   2.238   3.663   3.205 -0.0549 -1.9450 -0.6707
 4837SOL    HW226148   2.141   3.740   3.292 -1.2862 -0.4033  0.9807
 4838SOL     OW26149   0.187   3.536  10.558  0.1209  0.2662 -0.3394
 4838SOL    HW126150   0.124   3.563  10.625 -0.0185  0.8369 -0.6998
 4838SOL    HW226151   0.143   3.569  10.479 -3.0764  2.0240  2.1652
 4839SOL     OW26152   0.658   3.130   4.863  0.4237 -0.3087  0.1467
 4839SOL    HW126153   0.683   3.044   4.829  1.8303  0.0840  0.1550
 4839SOL    HW226154   0.731   3.144   4.924 -0.9004  0.2371  1.6023
 4840SOL     OW26155   2.592   2.864   1.851 -0.4500 -0.0067  0.3614
 4840SOL    HW126156   2.617   2.954   1.828 -0.1212  0.0609  0.9735
 4840SOL    HW226157   2.530   2.888   1.920  0.3114  1.5187  0.5219
 4841SOL     OW26158   1.063   3.861   4.422 -0.1155 -0.2610  0.0351
 4841SOL    HW126159   1.096   3.898   4.503  0.2478 -1.5389  0.4725
 4841SOL    HW226160   1.045   3.769   4.443 -2.0623  0.2538  0.6040
 4842SOL     OW26161   1.318   2.227   7.239 -0.3819 -0.7031  0.5026
 4842SOL    HW126162   1.388   2.179   7.282  0.4311 -0.2064 -0.2591
 4842SOL    HW226163   1.266   2.259   7.313  1.7925 -1.0664  2.1698
 4843SOL     OW26164   1.058   4.002   5.381  0.4079 -0.0558 -0.5392
 4843SOL    HW126165   1.005   3.996   5.301  1.7847 -0.3363 -1.4145
 4843SOL    HW226166   1.038   3.924   5.432 -0.5997 -0.3481 -1.3638
 4844SOL     OW26167   1.018   3.958  16.375  0.1901  0.3591  0.0327
 4844SOL    HW126168   1.043   4.036  16.425 -1.8035  0.5569  0.7186
 4844SOL    HW226169   0.924   3.961  16.359  0.1201  3.7025  1.0582
 4845SOL     OW26170   0.366   2.900  16.294 -1.1752  0.0304 -0.5740
 4845SOL    HW126171   0.297   2.898  16.228 -3.1344  1.8177  1.4446
 4845SOL    HW226172   0.438   2.940  16.245 -1.7517  0.2561 -1.2262
 4846SOL     OW26173   0.565   0.036   6.092  0.1569  0.2716 -0.5851
 4846SOL    HW126174   0.605   0.087   6.022  1.4615  2.1758  1.5605
 4846SOL    HW226175   0.588   0.086   6.169  1.3794 -0.8236 -0.2356
 4847SOL     OW26176   4.105   1.872   5.064 -0.6057 -0.3193 -0.7159
 4847SOL    HW126177   4.107   1.950   5.119 -2.2161 -2.4983  2.4242
 4847SOL    HW226178   4.193   1.872   5.026  0.2954  1.1734  1.4264
 4848SOL     OW26179   1.899   3.567  16.054 -0.1028 -0.1937  0.0121
 4848SOL    HW126180   1.874   3.492  16.108  2.1164 -1.1793 -0.2898
 4848SOL    HW226181   1.826   3.624  16.076 -0.5891  0.4110 -3.1133
 4849SOL     OW26182   2.676   0.387   7.893 -0.1433  0.2955 -0.5493
 4849SOL    HW126183   2.642   0.337   7.819 -0.9440  2.2439 -1.4965
 4849SOL    HW226184   2.642   0.476   7.884 -0.6171  0.0751 -0.9023
 4850SOL     OW26185   4.281   1.915   8.689 -0.1833 -0.2118 -0.5920
 4850SOL    HW126186   4.284   1.874   8.603  0.3972  0.8521 -1.0755
 4850SOL    HW226187   4.364   1.962   8.697  1.2119 -3.0489  1.5588
 4851SOL     OW26188   3.013   2.790   5.587  0.5777 -0.3581  0.3037
 4851SOL    HW126189   2.980   2.848   5.655  0.5761 -0.4049  0.3429
 4851SOL    HW226190   2.941   2.727   5.589 -0.2133  0.5269 -0.0433
 4852SOL     OW26191   1.879   0.185   6.362  0.0701 -0.1188  0.2620
 4852SOL    HW126192   1.907   0.256   6.421 -0.0231 -0.9160  1.2598
 4852SOL    HW226193   1.853   0.117   6.423 -2.4343  0.2672 -0.3813
 4853SOL     OW26194   0.117   4.520   7.823 -0.5124  0.3131 -0.0087
 4853SOL    HW126195   0.087   4.431   7.842 -2.4135  0.8333 -0.6630
 4853SOL    HW226196   0.187   4.518   7.889  0.4053 -0.1648 -0.9832
 4854SOL     OW26197   0.618   2.345   5.731  0.2638  0.1540 -0.1213
 4854SOL    HW126198   0.706   2.355   5.768  0.9386 -1.5284 -1.2687
 4854SOL    HW226199   0.580   2.432   5.742 -0.2875 -0.3663  1.9862
 4855SOL     OW26200   0.973   3.801   3.374 -0.2341  0.6720  0.2755
 4855SOL    HW126201   0.965   3.813   3.279 -1.3279 -2.3932 -0.0294
 4855SOL    HW226202   0.929   3.879   3.408 -1.7770 -0.0832  0.0128
 4856SOL     OW26203   0.532   1.676  13.773  0.2622 -0.0234  0.2257
 4856SOL    HW126204   0.615   1.653  13.815  1.4419  0.0979 -2.0380
 4856SOL    HW226205   0.537   1.771  13.768 -0.1223 -0.1017 -1.8462
 4857SOL     OW26206   4.123   1.430  13.220 -0.0927  0.5380  0.2734
 4857SOL    HW126207   4.061   1.412  13.290  2.1464 -2.8126  1.3959
 4857SOL    HW226208   4.207   1.409  13.261  0.5711 -0.3202 -1.5037
 4858SOL     OW26209   1.541   2.475   4.595 -0.0651 -0.0489 -0.1114
 4858SOL    HW126210   1.487   2.517   4.662  0.7859 -1.1656  1.3047
 4858SOL    HW226211   1.584   2.545   4.546 -0.4551  0.2412 -0.0414
 4859SOL     OW26212   3.931   0.955   5.798 -0.0083 -0.3737 -0.5375
 4859SOL    HW126213   3.974   1.038   5.776  2.9611 -0.9223  3.1481
 4859SOL    HW226214   3.895   0.968   5.886 -0.8236  0.6462 -1.0145
 4860SOL     OW26215   0.869   1.692   6.854  0.5615 -0.0052  0.5846
 4860SOL    HW126216   0.827   1.738   6.926 -2.9515 -1.1890 -0.7149
 4860SOL    HW226217   0.959   1.722   6.867  0.3978 -0.2154  2.2875
 4861SOL     OW26218   1.275   2.431   1.219 -0.1745  0.0680  0.2778
 4861SOL    HW126219   1.278   2.518   1.259 -0.2344  0.0905  0.2332
 4861SOL    HW226220   1.362   2.395   1.239 -0.6617 -0.6854  1.0795
 4862SOL     OW26221   3.394   0.297   6.207  0.2307 -0.1022 -0.1702
 4862SOL    HW126222   3.471   0.244   6.224  0.5736  0.4322 -0.0361
 4862SOL    HW226223   3.432   0.381   6.233 -1.6282  0.7245 -0.1451
 4863SOL     OW26224   0.482   1.021  17.640  0.6822  0.3772  0.2941
 4863SOL    HW126225   0.537   0.948  17.611 -0.9773 -0.6115 -0.3992
 4863SOL    HW226226   0.512   1.100  17.595  0.5588  0.1969 -0.1091
 4864SOL     OW26227   0.831   1.295  11.462  0.0541 -0.3657  0.1421
 4864SOL    HW126228   0.782   1.261  11.537 -1.6326 -0.1171 -0.8526
 4864SOL    HW226229   0.838   1.213  11.413  0.2957 -0.0454 -0.3664
 4865SOL     OW26230   0.854   0.878  17.402  0.1985 -0.2293  0.2149
 4865SOL    HW126231   0.844   0.921  17.487 -2.6193 -0.8651  0.1899
 4865SOL    HW226232   0.850   0.786  17.428 -0.4140 -0.0426  0.7753
 4866SOL     OW26233   2.129   2.709   6.612  0.3736 -0.2537  0.6203
 4866SOL    HW126234   2.051   2.685   6.562 -0.2693  1.6103  0.7291
 4866SOL    HW226235   2.198   2.671   6.558  0.1323 -1.9011  1.4743
 4867SOL     OW26236   0.520   4.012   6.211  0.1954 -0.4919  0.0810
 4867SOL    HW126237   0.613   3.996   6.228  0.4539  1.4335  0.4871
 4867SOL    HW226238   0.485   3.924   6.195 -0.1718 -0.1175 -1.1593
 4868SOL     OW26239   0.470   2.078   8.549 -0.4330  0.4646  0.0889
 4868SOL    HW126240   0.410   2.004   8.541 -1.3470  1.0664  1.3105
 4868SOL    HW226241   0.447   2.114   8.634 -0.4324 -1.8535  1.0775
 4869SOL     OW26242   1.223   4.042   6.593 -0.0999 -0.5308  0.0939
 4869SOL    HW126243   1.210   4.006   6.505  0.1712 -0.8173  0.1671
 4869SOL    HW226244   1.207   3.968   6.652  2.4241 -1.0412  0.1746
 4870SOL     OW26245   0.429   4.714   2.498 -0.3964  0.0617 -0.9309
 4870SOL    HW126246   0.403   0.054   2.452 -1.6725  0.6394  0.7755
 4870SOL    HW226247   0.523   4.712   2.483 -0.1713  2.0144  0.2269
 4871SOL     OW26248   1.138   1.830   6.887  0.0171  0.2099 -0.0945
 4871SOL    HW126249   1.229   1.842   6.911  0.3209  1.4862 -1.8495
 4871SOL    HW226250   1.148   1.764   6.818  0.0986 -0.1194  0.2320
 4872SOL     OW26251   0.358   2.536   5.938  0.4683  0.4877 -0.6549
 4872SOL    HW126252   0.318   2.621   5.922 -2.0145 -0.7827 -1.3509
 4872SOL    HW226253   0.436   2.527   5.884  2.3606  2.2163  1.8360
 4873SOL     OW26254   2.598   3.431   6.947 -0.2707  1.1659 -0.3513
 4873SOL    HW126255   2.594   3.435   6.851 -1.2756 -0.8682 -0.3812
 4873SOL    HW226256   2.506   3.405   6.953  0.6095 -1.3583  2.2447
 4874SOL     OW26257   2.469   4.501   7.333  0.0848  0.3316  0.7349
 4874SOL    HW126258   2.558   4.514   7.300 -0.0966  1.0783  0.5417
 4874SOL    HW226259   2.445   4.429   7.275  1.0905 -1.0847  2.1094
 4875SOL     OW26260   2.278   0.123  17.087 -0.1050 -0.1112 -0.2687
 4875SOL    HW126261   2.197   0.171  17.105  0.0145 -1.0684  2.8787
 4875SOL    HW226262   2.237   0.044  17.052 -0.3930  0.3934 -1.0826
 4876SOL     OW26263   0.440   3.431   8.385  0.2463 -0.3116  0.3266
 4876SOL    HW126264   0.518   3.477   8.415  0.9708 -3.8089  3.7896
 4876SOL    HW226265   0.397   3.415   8.469 -1.1304  1.8544  0.0418
 4877SOL     OW26266   0.486   3.239   0.472  0.0706 -0.1167 -0.1883
 4877SOL    HW126267   0.518   3.151   0.494 -0.8312  0.0223  1.7258
 4877SOL    HW226268   0.552   3.298   0.507 -0.8198 -0.0374  1.3926
 4878SOL     OW26269   3.720   0.785   8.603 -0.2758 -0.5894  0.1487
 4878SOL    HW126270   3.698   0.705   8.555 -1.7639 -0.9416  1.4167
 4878SOL    HW226271   3.668   0.769   8.681 -1.2171  2.9922  0.2643
 4879SOL     OW26272   1.299   3.596   6.362 -0.1162 -0.2838 -0.2919
 4879SOL    HW126273   1.338   3.682   6.378  1.1810 -1.2319  1.7253
 4879SOL    HW226274   1.207   3.614   6.381  0.1509  0.7588  0.0131
 4880SOL     OW26275   2.774   4.436   3.999  0.2710  0.2088 -0.2641
 4880SOL    HW126276   2.833   4.500   3.959  0.9543  0.5584  1.2851
 4880SOL    HW226277   2.703   4.438   3.936  0.6911 -1.6002 -0.7767
 4881SOL     OW26278   4.332   2.768   8.914 -0.0748 -0.2889  0.1298
 4881SOL    HW126279   4.255   2.743   8.863  0.3175 -0.0657 -0.5692
 4881SOL    HW226280   4.397   2.792   8.848  2.5299  0.4871  2.9855
 4882SOL     OW26281   4.602   3.184   4.995 -0.8359  0.4254 -0.2656
 4882SOL    HW126282   4.630   3.111   4.939  0.8077 -0.4674  1.7458
 4882SOL    HW226283   4.683   3.212   5.036 -1.2290 -0.4237  1.0953
 4883SOL     OW26284   3.068   2.120   7.838 -0.6681 -0.1722 -0.6131
 4883SOL    HW126285   3.094   2.150   7.751  1.3842 -0.8501 -0.2381
 4883SOL    HW226286   3.105   2.193   7.888  0.4538 -1.1663  0.0251
 4884SOL     OW26287   2.405   2.811   7.856 -0.7206  0.3101  0.3758
 4884SOL    HW126288   2.365   2.850   7.779 -0.7229 -2.9249 -1.2265
 4884SOL    HW226289   2.324   2.779   7.896 -0.9799  0.8556  0.2878
 4885SOL     OW26290   3.399   1.751  13.563  0.1088  0.2951  0.2373
 4885SOL    HW126291   3.481   1.706  13.544 -0.1265 -0.3433  0.7338
 4885SOL    HW226292   3.403   1.748  13.658  0.2443 -1.3444  0.1827
 4886SOL     OW26293   1.790   2.184   2.929  0.1438  0.2005 -0.1852
 4886SOL    HW126294   1.856   2.196   2.861  1.9952 -1.4704  1.3136
 4886SOL    HW226295   1.827   2.111   2.979  0.0846 -2.6073 -4.1790
 4887SOL     OW26296   0.093   0.906  15.145 -0.1903  0.3949  0.0241
 4887SOL    HW126297   0.107   0.827  15.198 -3.2515 -1.6087 -2.1439
 4887SOL    HW226298   0.185   0.929  15.131 -0.0068  0.2378  0.9860
 4888SOL     OW26299   3.143   1.795   9.651 -0.8199 -0.2453  0.3080
 4888SOL    HW126300   3.171   1.719   9.600  2.8379  0.8579  0.6917
 4888SOL    HW226301   3.226   1.843   9.652  0.0281 -1.7641  1.0826
 4889SOL     OW26302   2.237   0.985   5.262  0.5739  0.7792  0.0543
 4889SOL    HW126303   2.160   0.983   5.205  1.4761  0.8858 -1.1738
 4889SOL    HW226304   2.190   0.977   5.345 -0.4617  0.9892 -0.5120
 4890SOL     OW26305   0.826   4.481  12.639 -0.4779 -0.6780 -0.0811
 4890SOL    HW126306   0.801   4.444  12.723 -0.6064  1.1253  0.6812
 4890SOL    HW226307   0.753   4.536  12.609 -0.4040 -0.7339 -0.3676
 4891SOL     OW26308   0.261   2.815  15.389  0.0237  0.4292 -0.4133
 4891SOL    HW126309   0.222   2.901  15.377  1.1636  0.8300 -1.2567
 4891SOL    HW226310   0.254   2.785  15.298 -2.5826 -1.4770  0.4380
 4892SOL     OW26311   2.108   1.570   4.733  0.5505  0.1641 -0.1397
 4892SOL    HW126312   2.055   1.614   4.799  1.3924  0.4863  0.3242
 4892SOL    HW226313   2.147   1.508   4.794  1.4309 -1.0389 -1.9092
 4893SOL     OW26314   2.813   3.385   2.342  0.4669 -0.8045  0.2742
 4893SOL    HW126315   2.743   3.364   2.280  0.5863  2.3990 -0.9460
 4893SOL    HW226316   2.870   3.443   2.290  0.2398 -2.1624 -1.4899
 4894SOL     OW26317   1.327   3.119  11.300  0.1673 -0.1704  0.1408
 4894SOL    HW126318   1.410   3.165  11.310  0.1953  0.1702 -1.6369
 4894SOL    HW226319   1.270   3.186  11.261  0.3961 -0.6173 -0.9513
 4895SOL     OW26320   1.448   0.478  11.261 -0.3939  0.4688  0.3170
 4895SOL    HW126321   1.537   0.511  11.277  0.3533 -0.2973 -2.2850
 4895SOL    HW226322   1.448   0.471  11.166 -0.7298  0.3095  0.3287
 4896SOL     OW26323   3.176   4.134  12.981  0.1579 -0.0469 -0.0135
 4896SOL    HW126324   3.191   4.216  12.933 -0.7982 -0.4383 -1.0023
 4896SOL    HW226325   3.237   4.076  12.935 -1.2603 -1.0824 -0.5904
 4897SOL     OW26326   1.367   3.878   3.659 -0.3205  0.2609  1.0392
 4897SOL    HW126327   1.366   3.902   3.566  0.3277  0.2178  1.0233
 4897SOL    HW226328   1.453   3.836   3.666 -1.1068 -1.5117  0.0259
 4898SOL     OW26329   0.705   2.111   4.858 -0.2656  0.0065  0.1613
 4898SOL    HW126330   0.615   2.078   4.852 -0.7271  1.4370 -0.9470
 4898SOL    HW226331   0.736   2.045   4.921  0.2920  1.4796  1.4329
 4899SOL     OW26332   4.584   4.677  12.950  0.4486 -0.1463 -0.0888
 4899SOL    HW126333   4.657   4.700  13.007 -1.3904  1.1323  1.8033
 4899SOL    HW226334   4.627   4.613  12.894 -0.1333 -0.7393  0.1443
 4900SOL     OW26335   4.465   1.183   4.669 -0.3611 -0.1871  0.2664
 4900SOL    HW126336   4.556   1.205   4.650 -0.4499  0.4218  0.5476
 4900SOL    HW226337   4.483   1.119   4.737  1.8200  0.0694 -0.0701
 4901SOL     OW26338   4.146   4.507   9.191 -0.1296 -0.0246  0.5021
 4901SOL    HW126339   4.185   4.427   9.157  0.7047 -0.7618  3.1649
 4901SOL    HW226340   4.082   4.472   9.254 -1.9284  1.0658 -0.7118
 4902SOL     OW26341   3.442   4.603   8.516  0.1324 -0.2361 -0.1746
 4902SOL    HW126342   3.349   4.614   8.535 -0.4630 -1.1115 -2.5710
 4902SOL    HW226343   3.452   4.538   8.446 -2.0093 -1.1859  0.3813
 4903SOL     OW26344   1.682   2.688   5.198  0.0243  0.0214 -0.2455
 4903SOL    HW126345   1.651   2.706   5.109 -1.7515  0.5566  0.4890
 4903SOL    HW226346   1.624   2.615   5.220 -1.0906  1.0237  0.1400
 4904SOL     OW26347   4.345   0.076   7.399 -0.3621 -0.0450  0.2216
 4904SOL    HW126348   4.387   0.024   7.331  1.2813  0.7528  0.6152
 4904SOL    HW226349   4.408   0.147   7.411  0.1126 -0.7315  1.8100
 4905SOL     OW26350   1.093   4.197   5.750  0.1629 -0.1498  0.1989
 4905SOL    HW126351   1.187   4.198   5.734 -0.0297 -1.4408 -1.0946
 4905SOL    HW226352   1.064   4.219   5.661  0.0813 -0.4231  0.1563
 4906SOL     OW26353   3.491   0.943   2.337 -0.1605 -0.2511  0.7510
 4906SOL    HW126354   3.542   0.973   2.262  0.0682 -2.2624  0.1055
 4906SOL    HW226355   3.443   1.023   2.361 -1.3098 -0.6318 -0.2365
 4907SOL     OW26356   3.153   2.948  12.983 -0.4454  0.1698  0.0146
 4907SOL    HW126357   3.210   2.899  13.043 -0.2159 -1.1697 -1.2921
 4907SOL    HW226358   3.201   2.940  12.901 -0.4414 -0.0310  0.0355
 4908SOL     OW26359   3.611   2.779  13.744  0.1247  0.2569  0.4650
 4908SOL    HW126360   3.555   2.759  13.670  1.0620 -0.7253  0.0160
 4908SOL    HW226361   3.687   2.825  13.707  0.3554 -0.2456  0.3109
 4909SOL     OW26362   0.840   2.419   5.305 -0.3205  0.4525 -0.3075
 4909SOL    HW126363   0.802   2.461   5.228  2.3376  1.5540 -1.0253
 4909SOL    HW226364   0.819   2.328   5.289 -1.0380  0.7596 -1.1005
 4910SOL     OW26365   1.713   0.639   5.005  0.2095  0.2641 -0.0114
 4910SOL    HW126366   1.749   0.583   4.936 -0.5255  2.2267 -2.0004
 4910SOL    HW226367   1.617   0.634   5.001  0.2283  0.5503 -0.9214
 4911SOL     OW26368   3.183   2.627   2.975  0.1197 -0.4071  0.1139
 4911SOL    HW126369   3.184   2.575   2.894  2.1146  0.4405 -0.4169
 4911SOL    HW226370   3.165   2.554   3.034  2.5141  0.1825  1.5386
 4912SOL     OW26371   1.080   2.117   3.108  0.2184  0.1746  0.4220
 4912SOL    HW126372   1.072   2.187   3.173  2.6429  1.2171 -0.4267
 4912SOL    HW226373   1.164   2.138   3.067 -0.5228  0.1102 -1.1437
 4913SOL     OW26374   2.691   1.581   1.640  0.1406  0.0230 -0.9549
 4913SOL    HW126375   2.645   1.547   1.564 -1.3901  2.0677 -0.9161
 4913SOL    HW226376   2.629   1.646   1.672 -1.3597 -0.0881 -3.7141
 4914SOL     OW26377   1.888   1.469   2.246  0.0753 -0.1224  0.1472
 4914SOL    HW126378   1.971   1.472   2.293  0.5196  0.7572 -0.6939
 4914SOL    HW226379   1.836   1.396   2.280 -0.5617  0.6332  0.7799
 4915SOL     OW26380   4.231   1.581   5.946 -0.4758  0.2447  0.1313
 4915SOL    HW126381   4.175   1.512   5.911  2.3628 -1.7046 -0.6090
 4915SOL    HW226382   4.317   1.544   5.927  0.3855  2.1497  0.2615
 4916SOL     OW26383   3.342   2.818  11.623  0.1610  0.1425  0.2355
 4916SOL    HW126384   3.381   2.780  11.702  1.1977  0.1205 -0.2835
 4916SOL    HW226385   3.254   2.779  11.617  0.6275 -0.2630 -4.2714
 4917SOL     OW26386   0.004   3.660  13.190 -0.0585  0.4338  0.0407
 4917SOL    HW126387   0.091   3.646  13.229 -0.9847 -1.0075  1.5723
 4917SOL    HW226388   4.700   3.703  13.263  2.2472  2.5842  0.1545
 4918SOL     OW26389   0.854   2.260  13.418  0.0042 -0.0419 -0.2740
 4918SOL    HW126390   0.917   2.314  13.466  0.7440  0.2013 -1.5327
 4918SOL    HW226391   0.882   2.172  13.442 -0.1359 -0.2158 -0.7526
 4919SOL     OW26392   0.473   0.054   8.055  0.8783  0.6850 -0.1121
 4919SOL    HW126393   0.428   4.738   7.991  0.4093  1.4489 -0.4474
 4919SOL    HW226394   0.423   0.032   8.134 -0.1547 -1.0493 -1.2541
 4920SOL     OW26395   1.586   4.622   9.705  0.3209 -0.0778  0.3809
 4920SOL    HW126396   1.521   4.688   9.681 -0.7995 -1.5250 -0.5349
 4920SOL    HW226397   1.529   4.552   9.736  0.0121 -0.5812 -1.3384
 4921SOL     OW26398   4.122   1.768   9.771  0.3621 -0.2295 -0.5972
 4921SOL    HW126399   4.110   1.845   9.826  0.2984 -2.0557  1.9685
 4921SOL    HW226400   4.034   1.731   9.776  1.0629 -1.5139  2.0705
 4922SOL     OW26401   3.274   1.555  15.966  0.6420  0.1176 -0.1040
 4922SOL    HW126402   3.294   1.466  15.936  2.3316  0.5676 -0.3211
 4922SOL    HW226403   3.212   1.599  15.907  1.2186  1.5365  0.3400
 4923SOL     OW26404   0.427   3.664   8.764 -0.4799 -0.2914  0.0527
 4923SOL    HW126405   0.494   3.665   8.833  1.0209 -0.1406 -1.4268
 4923SOL    HW226406   0.476   3.687   8.685  2.4886 -1.2949  1.5921
 4924SOL     OW26407   1.126   1.825   6.551 -0.2773  0.0103  0.6006
 4924SOL    HW126408   1.205   1.861   6.509 -0.1567  1.6867  2.2455
 4924SOL    HW226409   1.157   1.742   6.586 -0.7266  0.9403  3.2040
 4925SOL     OW26410   1.828   2.807  12.008  0.0165  0.0407  0.2312
 4925SOL    HW126411   1.789   2.720  11.998 -0.3915  0.3800 -1.0980
 4925SOL    HW226412   1.749   2.859  11.994  1.5082  1.6727 -1.9465
 4926SOL     OW26413   2.313   1.561   5.391 -0.2209  0.2925 -0.2407
 4926SOL    HW126414   2.295   1.620   5.464  0.4872  1.4158 -0.9736
 4926SOL    HW226415   2.404   1.536   5.403 -0.3709  0.4620  1.1533
 4927SOL     OW26416   3.264   3.864   6.914 -0.0277 -0.0197 -0.1208
 4927SOL    HW126417   3.339   3.898   6.866  0.0378 -2.5385 -1.8096
 4927SOL    HW226418   3.247   3.783   6.867  1.0598  0.2121 -0.9224
 4928SOL     OW26419   1.560   0.337  13.252 -0.1704 -0.2356 -0.0679
 4928SOL    HW126420   1.569   0.251  13.211  0.0173  0.4287 -1.4332
 4928SOL    HW226421   1.580   0.313  13.342  0.1803  0.7593  0.1138
 4929SOL     OW26422   4.529   0.705  15.713  0.0056  0.1205  0.0620
 4929SOL    HW126423   4.616   0.742  15.699  0.3748  0.3962  3.0804
 4929SOL    HW226424   4.501   0.731  15.800 -0.4838 -1.7506  0.4663
 4930SOL     OW26425   2.178   1.609   5.152 -0.3355 -0.4144 -0.0883
 4930SOL    HW126426   2.224   1.615   5.236  0.6740 -0.5816 -0.6379
 4930SOL    HW226427   2.087   1.605   5.184 -1.3547  1.7214 -2.7043
 4931SOL     OW26428   3.275   0.207   7.529 -0.4465 -0.7945 -0.0146
 4931SOL    HW126429   3.227   0.289   7.518  0.1651 -0.3732  0.4248
 4931SOL    HW226430   3.353   0.220   7.583 -0.7256 -0.5715  0.3340
 4932SOL     OW26431   1.985   4.491   6.650 -0.0486 -0.4705 -0.1803
 4932SOL    HW126432   1.931   4.413   6.638 -1.3244  0.5180 -0.8719
 4932SOL    HW226433   2.034   4.499   6.569 -1.4097 -0.2124 -0.9880
 4933SOL     OW26434   2.785   4.629  15.632  0.1227 -1.2452 -0.5882
 4933SOL    HW126435   2.763   4.547  15.677 -1.2651  0.0735  1.1715
 4933SOL    HW226436   2.737   4.615  15.551  0.2104 -0.9008 -0.7009
 4934SOL     OW26437   2.540   1.172   2.690 -0.3122 -0.6374 -0.4754
 4934SOL    HW126438   2.582   1.258   2.687 -2.2154  0.3264  0.9588
 4934SOL    HW226439   2.620   1.122   2.673  2.0394  3.8498 -2.7322
 4935SOL     OW26440   3.585   4.606  10.513  0.2769 -0.3745 -0.3003
 4935SOL    HW126441   3.516   4.643  10.567  2.3559 -0.1495  2.1862
 4935SOL    HW226442   3.622   4.538  10.569  0.4558 -1.5994 -1.9209
 4936SOL     OW26443   3.668   3.575   7.287 -0.4440 -0.6694  0.2366
 4936SOL    HW126444   3.737   3.525   7.331  2.4456  3.6174  0.6252
 4936SOL    HW226445   3.601   3.588   7.354  2.4513 -2.1117  3.4348
 4937SOL     OW26446   1.177   0.894   2.428 -0.0612  0.1739  0.5066
 4937SOL    HW126447   1.232   0.905   2.350 -2.6788  3.2100 -0.9142
 4937SOL    HW226448   1.131   0.977   2.438  0.6884  0.5480  0.8665
 4938SOL     OW26449   4.338   4.409   6.266  0.0555  0.6294  0.3524
 4938SOL    HW126450   4.405   4.341   6.269  0.3288  0.8541 -0.5425
 4938SOL    HW226451   4.378   4.491   6.295 -0.2101  0.7881  0.2756
 4939SOL     OW26452   4.735   0.454  11.700 -0.0678  0.7160 -0.0593
 4939SOL    HW126453   0.058   0.397  11.744 -0.4772 -0.8503 -1.4932
 4939SOL    HW226454   4.739   0.539  11.742  0.0612  2.6339 -3.9005
 4940SOL     OW26455   2.915   4.640   8.421  0.0505 -0.2434  0.5042
 4940SOL    HW126456   2.936   4.596   8.504  0.4324  0.9247  1.0316
 4940SOL    HW226457   2.823   4.617   8.429 -0.6138  1.8118 -1.3902
 4941SOL     OW26458   1.991   0.150   8.997 -0.2971  0.2399  0.1794
 4941SOL    HW126459   2.077   0.192   8.996  0.2795 -0.9416  2.0170
 4941SOL    HW226460   2.001   0.075   9.055  1.8590 -0.4839 -1.1501
 4942SOL     OW26461   4.639   1.953   3.390  0.0488  0.2564 -1.1279
 4942SOL    HW126462   4.669   1.883   3.332  0.4394 -1.9369  1.7449
 4942SOL    HW226463   4.727   1.981   3.415 -0.7575  1.3394  0.5091
 4943SOL     OW26464   0.213   0.446   7.576  0.2839  0.1006  0.4817
 4943SOL    HW126465   0.302   0.432   7.608  0.8838  0.6891 -0.9412
 4943SOL    HW226466   0.235   0.458   7.484 -1.5737 -1.6772 -0.2143
 4944SOL     OW26467   4.587   4.629   5.701 -0.0879  0.3015 -0.1052
 4944SOL    HW126468   4.626   4.685   5.769 -0.0876  0.6478 -0.3898
 4944SOL    HW226469   4.569   4.551   5.754  0.8194  1.2777  1.6515
 4945SOL     OW26470   4.164   4.282  15.695 -0.9697  0.3534  0.0506
 4945SOL    HW126471   4.088   4.232  15.726  0.4170  0.5726  3.7450
 4945SOL    HW226472   4.185   4.316  15.782  0.0353  0.1968 -0.1282
 4946SOL     OW26473   1.096   3.166  17.703 -0.2591 -0.4538  0.1333
 4946SOL    HW126474   1.168   3.122  17.658  0.9433  1.2226  0.4174
 4946SOL    HW226475   1.137   3.249  17.730 -1.0147  0.7000 -2.2716
 4947SOL     OW26476   2.789   3.618  13.338 -0.2969 -0.2108 -0.2058
 4947SOL    HW126477   2.713   3.590  13.288  1.0511  1.9096 -3.4258
 4947SOL    HW226478   2.851   3.646  13.271 -0.4376  0.4039 -0.0814
 4948SOL     OW26479   4.381   2.870   5.679  0.2023 -0.0474  0.1961
 4948SOL    HW126480   4.336   2.855   5.596  1.2740 -1.0700 -0.1987
 4948SOL    HW226481   4.310   2.846   5.739 -0.4801 -0.6812 -0.8619
 4949SOL     OW26482   0.062   4.194   9.485 -0.3898 -0.1757  0.2005
 4949SOL    HW126483   0.062   4.100   9.506 -2.2216 -0.3604 -0.6682
 4949SOL    HW226484   4.712   4.219   9.505 -0.3526 -0.9915  1.4108
 4950SOL     OW26485   3.137   2.548   5.578 -0.4081 -0.8090 -0.0961
 4950SOL    HW126486   3.181   2.548   5.663 -0.2268 -0.1039 -0.1945
 4950SOL    HW226487   3.113   2.641   5.578 -0.2191 -0.7627  0.2398
 4951SOL     OW26488   1.066   0.816  15.334  0.1579 -0.2795 -0.1840
 4951SOL    HW126489   1.070   0.788  15.243  1.8756  0.8659 -0.4516
 4951SOL    HW226490   1.040   0.736  15.380  1.6300 -0.5515  0.1711
 4952SOL     OW26491   2.996   1.337  12.422  0.1637  0.0586  0.0866
 4952SOL    HW126492   2.954   1.363  12.503 -0.4206 -1.3312  0.2359
 4952SOL    HW226493   3.049   1.414  12.406 -0.3468  0.6671  1.4162
 4953SOL     OW26494   3.953   3.253  11.537  0.0166 -0.0845  0.2165
 4953SOL    HW126495   3.895   3.326  11.514  1.2521  1.0869  0.7528
 4953SOL    HW226496   3.889   3.189  11.567 -0.3074  0.3290  0.4059
 4954SOL     OW26497   3.176   3.275   3.381  0.1900  0.1824 -0.0786
 4954SOL    HW126498   3.103   3.229   3.339  0.1248 -0.5073  0.7918
 4954SOL    HW226499   3.209   3.200   3.430 -0.8704  0.2357  0.7168
 4955SOL     OW26500   2.755   4.567  12.693  0.2254  0.0795 -0.3323
 4955SOL    HW126501   2.731   4.550  12.602 -0.7201 -1.5853  0.2407
 4955SOL    HW226502   2.677   4.616  12.718 -0.6191 -0.8159 -1.2448
 4956SOL     OW26503   3.560   2.289   2.174 -0.0386 -0.3304 -0.3880
 4956SOL    HW126504   3.467   2.307   2.187 -0.0102 -0.3466 -0.1590
 4956SOL    HW226505   3.595   2.365   2.128 -1.3765 -1.7005 -3.6407
 4957SOL     OW26506   2.861   3.453  15.690 -0.0469  0.1239  0.1344
 4957SOL    HW126507   2.853   3.540  15.650 -1.1732 -0.4835 -0.9811
 4957SOL    HW226508   2.825   3.472  15.777 -0.9635  0.2674 -0.2685
 4958SOL     OW26509   3.080   1.523  10.053  0.3055  0.3269  0.1257
 4958SOL    HW126510   3.132   1.459  10.005 -0.0138  0.0517  0.1445
 4958SOL    HW226511   3.076   1.593   9.988 -2.8992  0.2246  0.1896
 4959SOL     OW26512   2.468   0.100   3.893  0.4428 -0.0660 -0.0661
 4959SOL    HW126513   2.408   0.048   3.840  0.1336 -0.3058  0.5244
 4959SOL    HW226514   2.520   0.150   3.830 -0.5197  0.2755 -0.5860
 4960SOL     OW26515   2.201   0.730   7.456  0.1101  0.0121 -0.0406
 4960SOL    HW126516   2.187   0.777   7.538 -0.8054  0.4038 -0.4196
 4960SOL    HW226517   2.297   0.726   7.458  0.1809  0.7472 -2.0438
 4961SOL     OW26518   0.107   0.054   5.517  0.2933  0.0856  0.9830
 4961SOL    HW126519   0.189   0.094   5.490  0.5004 -0.2244  1.1492
 4961SOL    HW226520   0.082   0.020   5.431 -2.6187  0.5962  1.6080
 4962SOL     OW26521   2.150   2.629   0.552 -0.2514  0.2282 -0.1180
 4962SOL    HW126522   2.081   2.639   0.486  0.1376 -2.1339 -0.8799
 4962SOL    HW226523   2.229   2.645   0.500  0.6003 -2.1250  0.4333
 4963SOL     OW26524   3.953   2.485   7.682  0.3839  0.1390 -0.0071
 4963SOL    HW126525   4.029   2.426   7.677  0.3811  0.1381 -0.0395
 4963SOL    HW226526   3.955   2.532   7.599 -2.8313  1.3039  0.5743
 4964SOL     OW26527   3.622   2.401   6.089 -0.1161 -0.1824  0.3366
 4964SOL    HW126528   3.529   2.421   6.094  0.3334  1.0818  3.3017
 4964SOL    HW226529   3.650   2.434   6.003 -0.3698  0.3372  0.4533
 4965SOL     OW26530   2.961   3.774   5.584 -0.4315 -0.1400  0.8556
 4965SOL    HW126531   3.002   3.810   5.505 -1.0817  0.1842  0.6666
 4965SOL    HW226532   2.881   3.743   5.541 -1.1589 -0.9709  2.8148
 4966SOL     OW26533   0.172   3.992   4.201 -0.0739 -0.0938  0.0075
 4966SOL    HW126534   0.119   3.922   4.238 -0.9811  0.7694  0.3086
 4966SOL    HW226535   0.106   4.059   4.183 -1.7622 -2.0825 -1.0910
 4967SOL     OW26536   4.524   4.480   6.605  0.0069  0.3362  0.3289
 4967SOL    HW126537   4.540   4.538   6.530 -1.3065  0.7237  0.3592
 4967SOL    HW226538   4.524   4.394   6.563  0.0503 -0.4246  1.8816
 4968SOL     OW26539   1.255   3.640   7.385  0.0279 -0.4173  0.2408
 4968SOL    HW126540   1.311   3.653   7.461  0.3634 -0.6812  0.0382
 4968SOL    HW226541   1.308   3.682   7.318  1.2414 -0.5220  1.1484
 4969SOL     OW26542   2.622   2.081   6.502 -0.1744 -0.3669  0.7617
 4969SOL    HW126543   2.553   2.034   6.456  0.1261  3.0101 -3.1962
 4969SOL    HW226544   2.571   2.113   6.577 -1.8819 -1.5134  0.0877
 4970SOL     OW26545   3.852   4.319  13.742 -0.2669  0.1947  0.2757
 4970SOL    HW126546   3.772   4.365  13.718  0.0127  0.1036 -0.8210
 4970SOL    HW226547   3.850   4.336  13.837 -2.4208  0.4233  0.1829
 4971SOL     OW26548   2.533   4.717  12.746  0.1680 -0.5872  0.1548
 4971SOL    HW126549   2.488   4.694  12.664 -1.5007  3.3290 -0.0115
 4971SOL    HW226550   2.528   0.071  12.725 -1.2393  0.1526  3.9168
 4972SOL     OW26551   2.616   2.965   2.409 -0.0157 -0.5280  0.1938
 4972SOL    HW126552   2.711   2.958   2.401  0.1368  0.8488  0.8064
 4972SOL    HW226553   2.605   2.987   2.501 -0.3503  3.4426 -0.7888
 4973SOL     OW26554   1.094   0.944   0.262 -0.1636  0.0315  0.1595
 4973SOL    HW126555   1.126   0.988   0.341 -0.4205  1.5601 -0.5951
 4973SOL    HW226556   1.150   0.867   0.265 -0.4767 -0.1688  0.9276
 4974SOL     OW26557   0.545   1.041  11.317 -0.4272 -0.1013 -0.0699
 4974SOL    HW126558   0.602   1.102  11.364 -0.6368  0.4056 -0.4802
 4974SOL    HW226559   0.495   1.006  11.391 -0.0383 -0.9971 -0.2404
 4975SOL     OW26560   1.683   3.683   5.164 -0.0675 -0.2058  0.4095
 4975SOL    HW126561   1.689   3.770   5.124 -0.3638 -0.3833 -0.0146
 4975SOL    HW226562   1.770   3.649   5.141  0.4574  1.9688 -0.7854
 4976SOL     OW26563   3.453   4.631   4.356 -0.1710  0.3835  0.3173
 4976SOL    HW126564   3.425   4.658   4.269 -0.0751  0.5281  0.3299
 4976SOL    HW226565   3.489   4.544   4.342 -1.1632 -0.2212  1.5106
 4977SOL     OW26566   1.936   1.112   4.201 -0.1195 -0.3868 -0.1551
 4977SOL    HW126567   1.900   1.113   4.289 -1.3168 -0.8803 -0.6398
 4977SOL    HW226568   1.970   1.200   4.184 -1.4466  0.0093 -0.7046
 4978SOL     OW26569   3.413   3.103  17.651 -0.4681 -0.7930  0.5887
 4978SOL    HW126570   3.337   3.058  17.613 -1.7994  1.1353  0.9765
 4978SOL    HW226571   3.454   3.136  17.571  0.3930 -0.6289  1.1064
 4979SOL     OW26572   3.967   1.696   9.107 -0.1428  0.4926  0.4896
 4979SOL    HW126573   4.024   1.624   9.134  0.1494  0.2107 -0.9081
 4979SOL    HW226574   3.932   1.732   9.189 -1.2597  0.0058  0.2230
 4980SOL     OW26575   0.281   0.688   7.858  0.1800 -0.1397  0.2462
 4980SOL    HW126576   0.219   0.759   7.839 -0.6228 -1.8980 -3.8487
 4980SOL    HW226577   0.299   0.666   7.766 -2.6066  1.0709 -0.5994
 4981SOL     OW26578   4.622   3.056   4.618 -0.7708 -0.5355  0.3535
 4981SOL    HW126579   4.625   3.065   4.523 -1.4139 -2.5772  0.1358
 4981SOL    HW226580   4.696   2.997   4.632  0.7851  1.0050 -1.4631
 4982SOL     OW26581   4.717   0.855   2.742  0.2195 -0.6420 -0.0706
 4982SOL    HW126582   0.066   0.878   2.771  0.7506 -0.3910 -1.9041
 4982SOL    HW226583   4.712   0.774   2.793 -0.2577  1.3556  3.0812
 4983SOL     OW26584   0.102   2.944   5.214 -0.1364 -0.0638  0.0139
 4983SOL    HW126585   0.091   2.945   5.119 -0.9573  1.2154  0.1316
 4983SOL    HW226586   0.160   2.869   5.231  1.4092  0.9773 -0.6202
 4984SOL     OW26587   0.441   4.146   4.176  0.3279  0.1854  0.2736
 4984SOL    HW126588   0.369   4.085   4.193  0.0042  0.2943 -0.6809
 4984SOL    HW226589   0.402   4.202   4.109  0.6952 -3.1240 -2.6909
 4985SOL     OW26590   3.733   3.305   7.813  0.0005  0.5599 -0.6088
 4985SOL    HW126591   3.798   3.242   7.784  0.5076  1.6814 -1.9081
 4985SOL    HW226592   3.768   3.387   7.778  3.7690 -0.4012  0.9390
 4986SOL     OW26593   3.014   1.855   5.831  0.5275  0.0072  0.4509
 4986SOL    HW126594   3.094   1.881   5.786  0.0114 -0.0998 -0.5244
 4986SOL    HW226595   2.998   1.765   5.802  1.7460  0.0223 -0.2657
 4987SOL     OW26596   0.358   3.346   7.776 -0.0930  0.5507 -0.1124
 4987SOL    HW126597   0.371   3.321   7.685  2.0499  2.3330 -0.2843
 4987SOL    HW226598   0.428   3.301   7.824 -1.0589 -0.4771  0.3377
 4988SOL     OW26599   1.436   0.513   7.252 -0.0047 -0.1519  0.0298
 4988SOL    HW126600   1.510   0.555   7.208 -1.1841  2.3032  0.3862
 4988SOL    HW226601   1.482   0.483   7.330  1.3657 -0.4832 -0.9091
 4989SOL     OW26602   2.804   0.184   4.217 -0.3139  0.4307 -0.3162
 4989SOL    HW126603   2.756   0.261   4.249 -0.5420 -0.1502  0.7170
 4989SOL    HW226604   2.733   0.133   4.178 -0.6857 -0.3049  1.3279
 4990SOL     OW26605   0.459   1.467   7.943  0.0685  0.6218  0.0524
 4990SOL    HW126606   0.386   1.526   7.923 -0.7461  0.0010  1.2187
 4990SOL    HW226607   0.407   1.389   7.927 -1.2084  1.4809  0.0183
 4991SOL     OW26608   4.429   1.283  16.920  0.1274  0.3335 -0.1541
 4991SOL    HW126609   4.345   1.298  16.876 -0.9849 -1.0218  1.5022
 4991SOL    HW226610   4.467   1.366  16.949  0.4317  1.3695 -3.5381
 4992SOL     OW26611   2.526   3.419  14.010  0.1997  0.1384  0.3924
 4992SOL    HW126612   2.584   3.466  13.950 -2.7612 -1.5372 -3.7259
 4992SOL    HW226613   2.480   3.369  13.942  1.4521 -0.4158 -0.0357
 4993SOL     OW26614   2.577   4.540  16.829  0.5112  0.3771  0.0685
 4993SOL    HW126615   2.574   4.613  16.891 -0.9880 -0.6242  1.1713
 4993SOL    HW226616   2.579   4.579  16.742  1.0800 -2.0283 -0.9858
 4994SOL     OW26617   0.028   2.363   8.946 -0.4843 -0.0456 -0.0107
 4994SOL    HW126618   0.082   2.440   8.964  3.7431 -2.2724 -3.2480
 4994SOL    HW226619   0.097   2.301   8.970  0.3736  1.2019  0.7571
 4995SOL     OW26620   1.486   3.421   7.472  0.3918  0.0141  0.2778
 4995SOL    HW126621   1.458   3.512   7.487  2.1221  0.6090 -0.1687
 4995SOL    HW226622   1.579   3.421   7.493  0.8788  2.5858 -1.7825
 4996SOL     OW26623   4.209   2.068   2.298  0.3749  0.4972 -0.3154
 4996SOL    HW126624   4.205   2.151   2.250 -0.5354 -0.4175 -1.8256
 4996SOL    HW226625   4.193   2.014   2.221 -0.9378 -0.0476  0.3283
 4997SOL     OW26626   4.561   2.417  17.161  0.2891  0.2303  0.1826
 4997SOL    HW126627   4.633   2.479  17.175 -1.5324  2.2959  0.4781
 4997SOL    HW226628   4.604   2.332  17.156 -1.1800 -0.4888 -0.3181
 4998SOL     OW26629   1.009   0.636   8.375 -0.2499  0.4825  0.0971
 4998SOL    HW126630   0.943   0.652   8.442 -0.4785 -0.5603  0.1229
 4998SOL    HW226631   1.067   0.711   8.392 -0.4795  0.6388  0.1901
 4999SOL     OW26632   0.999   3.870   5.620  0.1652 -0.3174 -0.1123
 4999SOL    HW126633   1.030   3.955   5.654  0.2973 -0.2129 -0.4930
 4999SOL    HW226634   1.070   3.811   5.646  0.5853 -0.2035 -1.0266
 5000SOL     OW26635   2.358   3.805   8.919 -0.5531  0.2761 -0.0620
 5000SOL    HW126636   2.346   3.717   8.956 -0.4101 -0.6504 -2.2285
 5000SOL    HW226637   2.307   3.853   8.985  0.0333  0.1881  0.4515
 5001SOL     OW26638   2.524   3.117   7.119 -0.0303  0.3593 -0.3864
 5001SOL    HW126639   2.552   3.145   7.032 -0.1016  0.1816 -0.4667
 5001SOL    HW226640   2.609   3.101   7.161  0.0775  0.7116 -0.4676
 5002SOL     OW26641   3.003   3.757   2.493  0.2077  0.2871  0.8988
 5002SOL    HW126642   3.075   3.809   2.456 -1.2877  2.6765  1.3266
 5002SOL    HW226643   2.956   3.819   2.549  0.8633 -0.7643  2.6125
 5003SOL     OW26644   4.425   0.202   3.635 -0.2133 -0.1266 -0.4350
 5003SOL    HW126645   4.351   0.257   3.661  0.4937  0.5735  0.1014
 5003SOL    HW226646   4.401   0.179   3.546 -0.4523  1.8314 -0.8723
 5004SOL     OW26647   0.627   3.858   1.308  0.5303 -0.1661  0.4837
 5004SOL    HW126648   0.701   3.909   1.275  1.3873 -2.0128 -0.4456
 5004SOL    HW226649   0.665   3.777   1.341 -2.9034 -0.7771  2.8631
 5005SOL     OW26650   2.378   3.298   2.734  0.3229  0.2096  0.1882
 5005SOL    HW126651   2.296   3.301   2.784  0.4692  0.4351  0.4162
 5005SOL    HW226652   2.362   3.375   2.680 -0.9424 -0.8127 -0.8857
 5006SOL     OW26653   0.495   0.906   8.526  0.2875  0.6618 -0.2630
 5006SOL    HW126654   0.436   0.958   8.471 -2.5618 -0.2068  2.0193
 5006SOL    HW226655   0.533   0.864   8.448 -1.3579  2.3393 -1.9808
 5007SOL     OW26656   3.527   2.369   9.291 -0.6465  0.3508 -0.1365
 5007SOL    HW126657   3.573   2.322   9.221 -0.2697 -0.3768  0.6106
 5007SOL    HW226658   3.588   2.355   9.363 -1.5885  0.3096  0.6549
 5008SOL     OW26659   0.257   1.671   0.941 -0.1067 -0.1541 -0.6017
 5008SOL    HW126660   0.276   1.630   0.856  0.0174  0.9798 -1.1200
 5008SOL    HW226661   0.168   1.704   0.930 -0.4434 -0.1408  2.2456
 5009SOL     OW26662   0.260   3.773   7.120  0.3657  0.0355 -0.0019
 5009SOL    HW126663   0.241   3.862   7.149 -0.8785  0.4970 -2.2456
 5009SOL    HW226664   0.172   3.739   7.134  0.3586 -0.4680 -1.3082
 5010SOL     OW26665   4.561   2.999   1.950 -0.4385 -0.4013 -0.2978
 5010SOL    HW126666   4.656   3.001   1.957 -0.4375  1.1191 -0.7767
 5010SOL    HW226667   4.542   3.059   2.022 -0.3908 -0.2085 -0.4459
 5011SOL     OW26668   0.707   0.255   4.207  0.5314 -0.4924 -0.5854
 5011SOL    HW126669   0.635   0.312   4.179 -1.7585 -1.8539  2.4994
 5011SOL    HW226670   0.677   0.168   4.182  0.3339 -0.7871  0.6800
 5012SOL     OW26671   2.039   2.820   0.261  0.2478  0.5256 -0.2251
 5012SOL    HW126672   2.101   2.890   0.241  2.0914 -0.3621  2.4868
 5012SOL    HW226673   1.974   2.862   0.318  0.6165  0.8475 -0.0452
 5013SOL     OW26674   0.169   2.278   3.783  0.2602 -0.7871  0.0611
 5013SOL    HW126675   0.201   2.338   3.715 -0.6451  1.3319  1.5081
 5013SOL    HW226676   0.093   2.234   3.747 -0.7978  1.2407 -0.2005
 5014SOL     OW26677   0.827   2.091   5.557  0.1512  0.3769 -0.2158
 5014SOL    HW126678   0.915   2.113   5.529 -0.2908  1.0959 -1.0561
 5014SOL    HW226679   0.806   2.012   5.508  0.3142  0.5554 -0.5705
 5015SOL     OW26680   2.887   0.938   8.260  0.0040  0.4695 -0.0589
 5015SOL    HW126681   2.971   0.920   8.218 -0.3881  0.5235 -0.8794
 5015SOL    HW226682   2.830   0.895   8.196  1.8020 -1.9895 -0.0050
 5016SOL     OW26683   0.428   3.472   3.041  0.0127  0.2766 -0.3414
 5016SOL    HW126684   0.354   3.529   3.020 -1.2706 -0.8231  1.2316
 5016SOL    HW226685   0.471   3.530   3.104  0.6643 -0.0025 -0.5212
 5017SOL     OW26686   4.621   0.297   9.618  0.4891 -0.0021  0.0558
 5017SOL    HW126687   4.599   0.237   9.547 -1.0232  0.2554  0.3094
 5017SOL    HW226688   4.715   0.280   9.626  0.3747 -1.5338 -1.9226
 5018SOL     OW26689   3.592   1.072   7.392  0.3238 -0.3990  0.3132
 5018SOL    HW126690   3.515   1.016   7.390 -0.5125  0.7890 -0.6417
 5018SOL    HW226691   3.658   1.010   7.360  1.6824  0.2415  1.8652
 5019SOL     OW26692   0.080   3.848   3.134 -0.4440 -0.1141 -0.0395
 5019SOL    HW126693   0.025   3.795   3.076 -0.6335 -0.2556  0.2683
 5019SOL    HW226694   0.047   3.937   3.124  0.8773  0.2483 -1.2874
 5020SOL     OW26695   0.806   4.610   4.090  0.1029  0.0225  0.4492
 5020SOL    HW126696   0.720   4.649   4.108 -0.5457 -1.4007  0.4747
 5020SOL    HW226697   0.840   4.681   4.036 -1.5281  0.4617  0.0015
 5021SOL     OW26698   3.608   0.124   3.963  0.0639  0.9856  0.5936
 5021SOL    HW126699   3.684   0.080   3.925  0.0456  0.5419  1.0733
 5021SOL    HW226700   3.541   0.121   3.894  1.1531  0.2257 -0.4378
 5022SOL     OW26701   3.728   2.424   3.907 -0.0049  0.1390 -0.3159
 5022SOL    HW126702   3.760   2.409   3.996  1.3978 -1.8368 -1.1425
 5022SOL    HW226703   3.638   2.452   3.925  0.7035  1.1570  1.5055
 5023SOL     OW26704   3.317   0.258   9.177 -0.6701 -0.4219 -0.6703
 5023SOL    HW126705   3.362   0.312   9.242  1.1916 -1.6267 -0.9558
 5023SOL    HW226706   3.314   0.171   9.217 -0.5173 -0.4338 -0.6862
 5024SOL     OW26707   0.219   4.597   6.280  0.4506 -0.0367  0.3092
 5024SOL    HW126708   0.265   4.631   6.203  0.3687 -1.0796 -0.2014
 5024SOL    HW226709   0.252   4.507   6.272  1.6964  0.6735 -2.5249
 5025SOL     OW26710   2.296   2.443   4.345  0.2315 -0.3834 -0.3147
 5025SOL    HW126711   2.375   2.429   4.397 -0.9885  2.0991  2.2037
 5025SOL    HW226712   2.298   2.538   4.332 -0.3872 -0.4357 -0.7913
 5026SOL     OW26713   2.760   2.876   0.013  0.0679 -0.2609  0.4901
 5026SOL    HW126714   2.817   2.896   0.088  1.0986 -2.4960  0.3083
 5026SOL    HW226715   2.673   2.907   0.039 -0.3121 -1.8425  1.0955
 5027SOL     OW26716   0.752   1.596  13.880 -0.3867  0.2346  0.5182
 5027SOL    HW126717   0.810   1.649  13.935  0.2429  0.2714 -0.1947
 5027SOL    HW226718   0.821   1.579  13.816  0.3068  0.3115  1.2489
 5028SOL     OW26719   0.473   1.424   4.587  0.3460  0.0612 -0.5263
 5028SOL    HW126720   0.392   1.454   4.544 -0.7784  0.1798  1.6673
 5028SOL    HW226721   0.507   1.354   4.532  1.1431  2.0581 -2.6098
 5029SOL     OW26722   3.872   1.347  16.558  0.2241 -0.2865 -0.6107
 5029SOL    HW126723   3.955   1.379  16.522  0.9957 -0.9529  0.5841
 5029SOL    HW226724   3.848   1.271  16.505  1.1070 -0.5707 -0.5981
 5030SOL     OW26725   2.771   1.198   6.632 -0.0097 -0.0043  0.1464
 5030SOL    HW126726   2.848   1.241   6.669 -0.6085  0.5964  0.6826
 5030SOL    HW226727   2.721   1.277   6.611 -1.2166 -0.1103  2.6999
 5031SOL     OW26728   2.705   3.906   1.827  0.1660 -0.3400 -0.4215
 5031SOL    HW126729   2.650   3.948   1.761 -1.5987 -0.1151  1.1743
 5031SOL    HW226730   2.671   3.817   1.825  1.2062 -0.7541  0.0952
 5032SOL     OW26731   4.228   3.155   1.867 -0.3361  0.1706 -0.7670
 5032SOL    HW126732   4.140   3.143   1.904 -0.0962  0.6195 -0.0663
 5032SOL    HW226733   4.277   3.074   1.882  0.3827  0.7676  0.0797
 5033SOL     OW26734   0.528   1.259   3.161 -0.1708 -0.1863 -0.3808
 5033SOL    HW126735   0.529   1.254   3.256 -2.1391 -0.7762 -0.3952
 5033SOL    HW226736   0.565   1.344   3.136 -0.0102 -0.1150  0.1138
 5034SOL     OW26737   1.981   2.447   3.931 -0.0436 -0.7246  0.0096
 5034SOL    HW126738   1.938   2.521   3.888  0.1780 -1.7869 -2.0055
 5034SOL    HW226739   2.045   2.491   3.988 -1.5771  1.8064 -0.2141
 5035SOL     OW26740   1.565   3.179   7.531  0.0840 -0.5669 -0.0243
 5035SOL    HW126741   1.552   3.165   7.437 -0.8258  0.0748  0.0048
 5035SOL    HW226742   1.516   3.261   7.543 -0.7258 -1.2548  1.3409
 5036SOL     OW26743   1.969   4.705   4.164 -0.1547  0.4454  0.6929
 5036SOL    HW126744   2.059   4.703   4.130 -1.5681  0.9912 -3.0015
 5036SOL    HW226745   1.912   4.699   4.088  1.7429  0.0834 -0.7112
 5037SOL     OW26746   1.324   2.542   6.958 -0.2959 -0.1859  0.4583
 5037SOL    HW126747   1.278   2.552   7.042 -0.2290  0.0264  0.4716
 5037SOL    HW226748   1.371   2.624   6.943 -0.5733 -0.1271 -0.0634
 5038SOL     OW26749   0.822   0.602   5.716  0.3767 -0.3217  0.4236
 5038SOL    HW126750   0.884   0.530   5.708 -1.4410 -1.7085 -1.2952
 5038SOL    HW226751   0.740   0.553   5.721  0.1789 -0.0518 -0.1513
 5039SOL     OW26752   3.316   0.249   5.935 -0.7085 -0.1150  0.0343
 5039SOL    HW126753   3.317   0.285   6.023  2.3107  1.8946 -0.8235
 5039SOL    HW226754   3.406   0.267   5.907 -0.1119 -2.3053  0.5231
 5040SOL     OW26755   3.484   0.292   7.704  0.1156 -0.1185 -0.1599
 5040SOL    HW126756   3.576   0.314   7.716 -1.0720  5.0401 -0.4552
 5040SOL    HW226757   3.454   0.349   7.775 -0.6426  0.5853 -1.0465
 5041SOL     OW26758   1.203   0.868  12.300  0.4087 -0.3892 -0.3755
 5041SOL    HW126759   1.158   0.784  12.293  0.1150 -0.2502 -0.1627
 5041SOL    HW226760   1.283   0.849  12.251  1.8987  1.1193  1.4798
 5042SOL     OW26761   3.462   1.174   1.722  0.0525 -0.4255  0.3074
 5042SOL    HW126762   3.419   1.256   1.696  1.2218  0.8391  2.4367
 5042SOL    HW226763   3.549   1.186   1.684  0.6203 -1.6604  1.2332
 5043SOL     OW26764   2.308   0.300   5.888  0.2002 -0.3617 -0.1049
 5043SOL    HW126765   2.319   0.348   5.970  0.5909 -2.1639  0.9216
 5043SOL    HW226766   2.216   0.276   5.876 -0.2520  0.6297  1.3482
 5044SOL     OW26767   3.526   1.368   8.982 -0.1838 -0.0277  0.2946
 5044SOL    HW126768   3.477   1.297   9.023  0.4707 -1.0853 -0.7684
 5044SOL    HW226769   3.468   1.444   8.982 -1.1087 -0.7299  0.1386
 5045SOL     OW26770   2.922   3.063   7.850 -0.4409  0.2282 -0.0230
 5045SOL    HW126771   2.855   3.067   7.781 -0.0398  2.1848 -0.3133
 5045SOL    HW226772   2.869   3.057   7.929 -0.0089  0.5275  0.2864
 5046SOL     OW26773   3.948   1.147   1.002  0.1250 -0.1456  0.0833
 5046SOL    HW126774   3.882   1.200   0.958 -0.9057 -1.2013  0.3544
 5046SOL    HW226775   4.021   1.207   1.019 -0.3224  0.3299  0.3204
 5047SOL     OW26776   2.721   3.562  10.563  0.0420 -0.2755  0.2142
 5047SOL    HW126777   2.697   3.589  10.652  0.2266 -1.1963  0.5484
 5047SOL    HW226778   2.655   3.495  10.548 -0.1839 -0.1451  0.6278
 5048SOL     OW26779   1.469   0.071   5.955 -0.3466 -0.1481 -0.0164
 5048SOL    HW126780   1.522   0.001   5.992 -1.6322 -1.0715  0.0709
 5048SOL    HW226781   1.395   0.014   5.936  0.5845 -0.5666 -2.4621
 5049SOL     OW26782   3.902   3.272   3.776 -0.2243  0.4087 -0.1499
 5049SOL    HW126783   3.848   3.278   3.697  0.7619  0.8360 -0.7991
 5049SOL    HW226784   3.844   3.232   3.840  0.3087  0.8668  0.6249
 5050SOL     OW26785   3.439   3.783   9.577 -0.6933  0.1782 -0.0293
 5050SOL    HW126786   3.399   3.821   9.655 -0.8134  0.1106 -0.0595
 5050SOL    HW226787   3.402   3.696   9.588 -0.4279  0.2833  1.6616
 5051SOL     OW26788   2.953   1.075   9.250  0.1616  0.0045 -0.5172
 5051SOL    HW126789   3.018   1.005   9.255  0.4355  0.2862 -0.1483
 5051SOL    HW226790   2.908   1.070   9.334 -0.6044 -1.4718 -1.0160
 5052SOL     OW26791   4.162   3.242   7.983 -0.5505 -0.2863 -0.1640
 5052SOL    HW126792   4.119   3.246   7.898 -0.2030 -2.0168 -0.4194
 5052SOL    HW226793   4.131   3.156   8.010 -2.5084  0.1288 -1.1512
 5053SOL     OW26794   2.557   0.770   9.417  0.3339 -0.1169  0.1438
 5053SOL    HW126795   2.593   0.685   9.443  0.3461 -0.9274 -2.6182
 5053SOL    HW226796   2.468   0.759   9.453 -0.3334  0.6701 -1.2790
 5054SOL     OW26797   2.620   1.245   9.226 -0.1169 -0.0012  0.2683
 5054SOL    HW126798   2.561   1.171   9.211 -0.6317 -0.0088  2.3678
 5054SOL    HW226799   2.681   1.222   9.157 -0.1258  0.9144 -0.0498
 5055SOL     OW26800   1.099   3.686  10.394 -0.9098 -0.2819  0.2814
 5055SOL    HW126801   1.046   3.609  10.376 -1.1128 -0.2649  0.8081
 5055SOL    HW226802   1.037   3.742  10.441 -1.0187  0.4469 -0.7230
 5056SOL     OW26803   1.031   2.506   1.995  0.0371  0.2920 -0.2639
 5056SOL    HW126804   0.960   2.559   2.030  0.3680  1.0554 -0.7365
 5056SOL    HW226805   1.094   2.576   1.978  0.4887 -0.1741 -0.5098
 5057SOL     OW26806   2.816   0.995   3.386  0.0698  0.0611  0.4659
 5057SOL    HW126807   2.760   0.982   3.309  0.3297  2.6160 -0.1646
 5057SOL    HW226808   2.902   1.012   3.346 -0.5039 -0.1042 -0.8397
 5058SOL     OW26809   3.924   0.463   7.869 -0.6060  0.0803 -0.6509
 5058SOL    HW126810   3.941   0.371   7.890 -0.2458  0.7090  1.8537
 5058SOL    HW226811   3.855   0.486   7.930  0.3031 -1.6582  1.0523
 5059SOL     OW26812   2.675   3.670   4.899 -0.7127  0.3621  0.0253
 5059SOL    HW126813   2.640   3.641   4.815 -1.5693 -0.6608  0.7493
 5059SOL    HW226814   2.745   3.729   4.869 -1.3943  0.0796 -2.0694
 5060SOL     OW26815   4.448   4.535  14.555 -0.4598 -0.5252 -0.4712
 5060SOL    HW126816   4.412   4.496  14.475  0.2503 -3.3413  0.5934
 5060SOL    HW226817   4.527   4.583  14.533 -0.5177  0.2621  1.0565
 5061SOL     OW26818   3.216   1.869   8.985 -0.6326  0.1167  0.3605
 5061SOL    HW126819   3.143   1.851   9.044  1.5428 -1.2915  2.6191
 5061SOL    HW226820   3.246   1.779   8.968 -1.5452 -0.1787  0.3098
 5062SOL     OW26821   1.120   3.654  14.248  0.3075  0.1585 -0.2421
 5062SOL    HW126822   1.079   3.715  14.309  0.2078 -1.7672  1.6145
 5062SOL    HW226823   1.076   3.569  14.258  3.7818 -1.5571  0.2168
 5063SOL     OW26824   3.877   0.414   4.952  0.0506 -0.0623  0.1699
 5063SOL    HW126825   3.872   0.425   4.857 -1.2604 -0.7411  0.1614
 5063SOL    HW226826   3.785   0.404   4.975 -0.0475  1.2102  0.3273
 5064SOL     OW26827   3.513   4.435   7.246 -0.9290 -0.5393  0.5466
 5064SOL    HW126828   3.543   4.418   7.336  0.8824 -0.1848  0.0141
 5064SOL    HW226829   3.427   4.463   7.278 -0.0780 -1.2361  3.4625
 5065SOL     OW26830   2.843   0.909   5.618  0.4253 -0.0410  0.5563
 5065SOL    HW126831   2.908   0.978   5.630 -0.5587  1.3033 -1.9090
 5065SOL    HW226832   2.766   0.956   5.588 -0.8147 -0.5429  2.9717
 5066SOL     OW26833   0.153   4.664  11.051 -0.2159  0.0903  0.0273
 5066SOL    HW126834   0.199   4.682  11.132  1.1505 -1.2619 -0.4435
 5066SOL    HW226835   0.087   4.733  11.058 -0.2123  0.2870 -1.8792
 5067SOL     OW26836   4.475   1.634   5.522 -0.0682 -0.1206 -0.2940
 5067SOL    HW126837   4.473   1.725   5.551 -0.4684 -0.1611 -0.1839
 5067SOL    HW226838   4.413   1.626   5.449  0.3811  2.0168 -0.8927
 5068SOL     OW26839   2.830   2.754   5.099  0.1081 -0.3193  0.7345
 5068SOL    HW126840   2.780   2.809   5.160  1.0309  2.3071 -0.8556
 5068SOL    HW226841   2.766   2.741   5.030  0.1251 -1.9884  1.0363
 5069SOL     OW26842   2.789   2.488   3.733 -0.1555 -0.4876 -0.1573
 5069SOL    HW126843   2.718   2.445   3.780  0.1126 -1.6277 -0.8113
 5069SOL    HW226844   2.751   2.575   3.723  0.3681  0.0291  2.1466
 5070SOL     OW26845   1.041   0.015  15.693 -0.0908 -0.0960  0.0554
 5070SOL    HW126846   0.994   4.674  15.671  1.0286 -0.9668  0.8289
 5070SOL    HW226847   0.965   0.062  15.725 -0.5210 -1.5414  1.1291
 5071SOL     OW26848   4.310   1.290  11.104 -0.0551 -0.6913  0.9951
 5071SOL    HW126849   4.332   1.321  11.016  0.2284 -1.3150  0.8422
 5071SOL    HW226850   4.262   1.210  11.084  0.6287 -0.8991  0.2109
 5072SOL     OW26851   3.883   0.811  12.743  0.3564  0.1679  0.3103
 5072SOL    HW126852   3.815   0.839  12.682  1.1125  1.4926  0.0633
 5072SOL    HW226853   3.950   0.870  12.707  1.1745 -1.4372 -0.7720
 5073SOL     OW26854   2.886   3.483   4.973 -0.0658  0.1399  0.0166
 5073SOL    HW126855   2.829   3.550   4.935  0.1222  0.9273  1.0992
 5073SOL    HW226856   2.959   3.482   4.911  0.2970 -0.7467  0.4634
 5074SOL     OW26857   2.144   4.436   3.961  0.2748 -0.0148  0.1560
 5074SOL    HW126858   2.181   4.373   4.023  0.8283 -0.4016 -0.5730
 5074SOL    HW226859   2.187   4.413   3.879 -1.0749  0.0690 -0.5706
 5075SOL     OW26860   3.644   3.178   9.324 -0.5612  0.6097 -0.1704
 5075SOL    HW126861   3.587   3.253   9.342 -1.1013 -0.0564  0.9279
 5075SOL    HW226862   3.726   3.214   9.357  1.4137 -2.1517 -2.0568
 5076SOL     OW26863   2.228   1.799   3.243  0.2197  0.2065 -0.4821
 5076SOL    HW126864   2.224   1.768   3.334 -0.9343  0.4356 -0.4549
 5076SOL    HW226865   2.178   1.881   3.246 -0.7902 -0.4436  0.3756
 5077SOL     OW26866   0.982   4.090   2.937 -0.2566  0.0553  0.0889
 5077SOL    HW126867   0.930   4.043   2.872 -0.5689 -0.5303  0.7699
 5077SOL    HW226868   0.924   4.166   2.932  2.0484  1.8235  0.2675
 5078SOL     OW26869   1.086   1.518  14.698 -0.2433 -0.0339 -0.5827
 5078SOL    HW126870   1.062   1.443  14.751 -0.7177 -1.8332 -3.3152
 5078SOL    HW226871   1.129   1.467  14.629 -2.5278 -1.0845 -1.2441
 5079SOL     OW26872   2.649   2.167  11.528 -0.9123 -0.2371 -0.0714
 5079SOL    HW126873   2.741   2.194  11.524 -1.0308  0.5253  2.7198
 5079SOL    HW226874   2.606   2.224  11.464 -0.4492  0.1249 -0.0602
 5080SOL     OW26875   2.636   1.902   5.842  0.1538  0.0829  0.3346
 5080SOL    HW126876   2.705   1.954   5.883 -0.0447 -0.5055  1.4050
 5080SOL    HW226877   2.679   1.818   5.861  3.9425  1.4799 -2.1253
 5081SOL     OW26878   1.790   0.152   2.388 -0.3034  1.1123  0.3269
 5081SOL    HW126879   1.757   0.179   2.473  2.7054  2.2728  1.1328
 5081SOL    HW226880   1.733   0.198   2.327 -0.6973 -0.6293 -0.6256
 5082SOL     OW26881   3.401   3.763   4.885 -0.5087 -0.0549 -0.4257
 5082SOL    HW126882   3.344   3.713   4.944  0.5925 -1.3878 -0.4974
 5082SOL    HW226883   3.390   3.710   4.807  0.6450  0.3596 -0.8705
 5083SOL     OW26884   0.274   0.748  17.318  0.0269 -0.3572 -0.0575
 5083SOL    HW126885   0.271   0.843  17.306  2.6382 -0.1342  1.0525
 5083SOL    HW226886   0.191   0.736  17.363  0.4018  0.4369  0.8311
 5084SOL     OW26887   1.323   1.050  17.209 -0.4203 -0.1368  0.2337
 5084SOL    HW126888   1.231   1.031  17.231 -0.8962  0.6812 -1.0307
 5084SOL    HW226889   1.361   1.051  17.296  0.6374  0.0517 -0.2374
 5085SOL     OW26890   3.655   1.533  17.368 -0.1143 -0.0255  0.9849
 5085SOL    HW126891   3.751   1.540  17.367 -0.1979  1.1676  0.4921
 5085SOL    HW226892   3.632   1.443  17.345 -0.7782  0.0460  1.3537
 5086SOL     OW26893   3.680   0.581   2.307  0.4218  0.0866  0.1389
 5086SOL    HW126894   3.697   0.528   2.385  0.7746  0.8180  0.5562
 5086SOL    HW226895   3.694   0.667   2.348 -1.8686 -0.3807  1.8887
 5087SOL     OW26896   2.326   0.299   3.644 -0.1952  0.6066  0.4094
 5087SOL    HW126897   2.252   0.286   3.585 -0.4785 -1.3183  1.1974
 5087SOL    HW226898   2.402   0.288   3.586  0.0659  2.6878  0.3583
 5088SOL     OW26899   1.945   2.553   2.709  0.1366  0.5180  0.4516
 5088SOL    HW126900   1.891   2.572   2.786 -0.7031 -0.6523  0.1496
 5088SOL    HW226901   2.013   2.621   2.712 -0.9489  1.6250 -0.0775
 5089SOL     OW26902   4.629   3.526   5.114 -0.5691  0.6234 -0.2737
 5089SOL    HW126903   4.691   3.586   5.073  3.2756 -1.9755  1.7626
 5089SOL    HW226904   4.617   3.463   5.043  1.4846 -2.1053  1.8211
 5090SOL     OW26905   0.907   2.960  17.648  0.0863  0.3978  0.0699
 5090SOL    HW126906   0.941   3.045  17.675 -0.6089  0.4892  0.6394
 5090SOL    HW226907   0.815   2.976  17.627  0.5062  1.8802 -0.6345
 5091SOL     OW26908   2.624   2.039   5.608 -0.3459  0.0219 -0.4256
 5091SOL    HW126909   2.646   2.119   5.656 -0.7338 -1.5158  2.3059
 5091SOL    HW226910   2.640   1.971   5.673 -0.1898  0.5548  0.0892
 5092SOL     OW26911   0.132   1.326   8.138  0.2125 -0.0580  0.1283
 5092SOL    HW126912   0.041   1.349   8.157  0.6569 -1.1253  3.4874
 5092SOL    HW226913   0.126   1.232   8.120  0.2734 -0.2340  1.0226
 5093SOL     OW26914   0.529   0.456   5.828 -0.9181 -0.3840  0.1862
 5093SOL    HW126915   0.504   0.384   5.769  0.0047  1.6610 -2.6985
 5093SOL    HW226916   0.466   0.522   5.799 -1.8614 -1.7534 -0.9269
 5094SOL     OW26917   0.551   3.343  14.673 -0.4993  0.1317 -0.4717
 5094SOL    HW126918   0.549   3.433  14.641 -1.6032 -0.4778 -2.1343
 5094SOL    HW226919   0.530   3.296  14.592 -2.3385  1.1260 -0.5714
 5095SOL     OW26920   1.255   1.345  10.814  0.3501 -0.0751 -0.7025
 5095SOL    HW126921   1.340   1.383  10.838  0.3538 -1.1200  0.9140
 5095SOL    HW226922   1.283   1.288  10.742  2.6721 -1.2409  1.1193
 5096SOL     OW26923   2.583   3.261   7.567  0.1076 -0.5322 -0.3132
 5096SOL    HW126924   2.584   3.280   7.473  0.0898  0.7762 -0.0413
 5096SOL    HW226925   2.491   3.259   7.593 -0.6215  0.5572 -2.7475
 5097SOL     OW26926   3.332   1.159   2.193 -0.4722  0.0349 -0.0963
 5097SOL    HW126927   3.388   1.116   2.128  1.4644 -0.4778  1.9438
 5097SOL    HW226928   3.397   1.219   2.230 -0.6608  0.1200  0.0955
 5098SOL     OW26929   4.383   4.211  16.053  0.4411 -0.3055 -0.0405
 5098SOL    HW126930   4.372   4.147  16.123  0.9960  0.0697  0.3799
 5098SOL    HW226931   4.294   4.222  16.019  0.1626  0.0342  0.7962
 5099SOL     OW26932   2.435   4.033   7.674  0.0531  0.1375  0.6785
 5099SOL    HW126933   2.375   4.106   7.689 -0.3759 -0.1477  0.3045
 5099SOL    HW226934   2.422   4.017   7.581  1.8230  3.4450 -0.1589
 5100SOL     OW26935   2.212   0.471   3.877  0.0645 -0.2382  0.0607
 5100SOL    HW126936   2.120   0.495   3.885  0.2228  0.1337  0.7008
 5100SOL    HW226937   2.220   0.470   3.781  0.7856  1.3718  0.1091
 5101SOL     OW26938   2.694   1.903   3.575 -0.2526 -0.4924  0.5772
 5101SOL    HW126939   2.667   1.954   3.498 -1.0056  0.9227  1.7776
 5101SOL    HW226940   2.785   1.934   3.582 -0.5857  0.1818  1.8394
 5102SOL     OW26941   4.114   0.722   2.369 -0.1974 -0.1344  0.3244
 5102SOL    HW126942   4.043   0.669   2.332  0.7745 -1.0995 -0.1834
 5102SOL    HW226943   4.095   0.811   2.340  0.2288  0.0996  0.7598
 5103SOL     OW26944   4.225   1.141   3.678  0.4086  0.5957 -0.1394
 5103SOL    HW126945   4.138   1.110   3.703  1.1811 -2.9077 -1.7988
 5103SOL    HW226946   4.265   1.054   3.670 -0.5703  0.2550 -1.3282
 5104SOL     OW26947   3.284   1.309   2.781  0.3068  0.1766 -0.0460
 5104SOL    HW126948   3.340   1.242   2.742 -2.3042 -2.4922  0.7969
 5104SOL    HW226949   3.299   1.379   2.718 -2.1606 -0.0825 -0.9287
 5105SOL     OW26950   1.191   1.014   4.974  0.3540  0.5046  0.6496
 5105SOL    HW126951   1.218   0.926   4.997 -1.1909 -0.1692 -0.1038
 5105SOL    HW226952   1.231   1.020   4.888  0.7234  0.9552  0.8522
 5106SOL     OW26953   1.832   1.073  14.823  0.5009 -0.0725 -0.2272
 5106SOL    HW126954   1.916   1.063  14.869 -1.3893 -1.9148  2.8047
 5106SOL    HW226955   1.859   1.054  14.733  0.7794  0.7031 -0.3104
 5107SOL     OW26956   3.144   1.199   8.185 -0.1821 -0.1487  0.0862
 5107SOL    HW126957   3.175   1.289   8.171 -0.3387  0.1711  1.8118
 5107SOL    HW226958   3.213   1.140   8.155  1.2061  1.0505  0.9319
 5108SOL     OW26959   2.469   1.016  12.425 -0.2167  0.3540  0.5373
 5108SOL    HW126960   2.490   1.065  12.345 -2.3383  0.5991  0.1232
 5108SOL    HW226961   2.435   1.086  12.482 -2.5244 -0.5773  0.2867
 5109SOL     OW26962   1.058   0.937  10.300  0.0163  1.0084 -0.6666
 5109SOL    HW126963   0.999   0.895  10.363  1.9729 -0.2298  0.3627
 5109SOL    HW226964   1.034   1.025  10.328  0.2265  0.4271  1.2881
 5110SOL     OW26965   0.802   2.665   3.344 -0.3708  0.9567 -0.1071
 5110SOL    HW126966   0.817   2.666   3.438 -1.2278  2.7182  0.0227
 5110SOL    HW226967   0.846   2.582   3.328  1.0844  1.4295  1.4521
 5111SOL     OW26968   0.504   0.324   3.795 -0.3304 -0.1151  0.8521
 5111SOL    HW126969   0.489   0.318   3.890 -1.7268  0.3524  0.6542
 5111SOL    HW226970   0.598   0.340   3.796 -0.7231  2.1466  1.9611
 5112SOL     OW26971   0.520   3.176  14.454  0.5813  0.0620  0.2373
 5112SOL    HW126972   0.477   3.206  14.375  0.3366 -0.6050  0.1160
 5112SOL    HW226973   0.471   3.097  14.479  0.8861  0.4113  1.9212
 5113SOL     OW26974   3.111   4.461   7.808  0.1171  0.1086  0.0658
 5113SOL    HW126975   3.073   4.386   7.761  2.5539 -0.7756 -0.4603
 5113SOL    HW226976   3.145   4.516   7.737  1.1657 -0.3509  0.2194
 5114SOL     OW26977   2.202   1.865   2.878 -0.1735  0.6096 -0.2446
 5114SOL    HW126978   2.220   1.779   2.915 -3.6953  0.1937  0.5340
 5114SOL    HW226979   2.131   1.836   2.819 -2.6672  2.2557  1.9769
 5115SOL     OW26980   4.526   1.279  11.249  0.0091 -0.5049 -0.0640
 5115SOL    HW126981   4.494   1.321  11.329  1.4689  0.6041 -0.0631
 5115SOL    HW226982   4.449   1.302  11.197 -0.1827  0.3458  0.5992
 5116SOL     OW26983   3.545   1.994   3.277 -0.3756 -0.4381 -0.1177
 5116SOL    HW126984   3.484   2.065   3.255  0.9791  0.5161 -0.7431
 5116SOL    HW226985   3.587   2.028   3.356  0.5255 -1.0961 -0.3139
 5117SOL     OW26986   3.386   2.823   5.144 -0.9741 -0.7560 -0.0204
 5117SOL    HW126987   3.451   2.789   5.083  0.4190  0.0775  0.9869
 5117SOL    HW226988   3.315   2.760   5.138 -1.2565 -0.6592  2.5343
 5118SOL     OW26989   3.652   3.849   4.867 -0.0896  0.6662 -0.6818
 5118SOL    HW126990   3.563   3.820   4.849  0.6189 -0.9858 -1.5055
 5118SOL    HW226991   3.691   3.763   4.878 -0.3449  0.5177 -0.9327
 5119SOL     OW26992   2.148   0.131   3.795  0.0078 -0.1480 -0.1731
 5119SOL    HW126993   2.196   0.211   3.771  1.5443 -1.0956 -0.2872
 5119SOL    HW226994   2.173   0.080   3.718 -0.3026  2.1358 -1.7941
 5120SOL     OW26995   2.440   3.819   6.594  0.2128 -0.3269  0.4113
 5120SOL    HW126996   2.409   3.767   6.520  2.3200  0.7211 -1.1958
 5120SOL    HW226997   2.506   3.760   6.631 -1.3895 -2.2052  0.2777
 5121SOL     OW26998   4.570   0.719   0.677  0.0628 -0.8236  0.0211
 5121SOL    HW126999   4.513   0.774   0.623 -1.4548 -0.4099  2.0284
 5121SOL    HW227000   4.635   0.686   0.615 -1.0031 -1.3561 -0.8073
 5122SOL     OW27001   1.269   3.185   6.875  0.2416  0.2920 -0.5255
 5122SOL    HW127002   1.358   3.166   6.903 -0.4830 -2.6802 -0.2230
 5122SOL    HW227003   1.247   3.241   6.949 -0.0800  1.5797 -1.5922
 5123SOL     OW27004   0.882   0.432  12.224  0.1005  0.6115 -0.5281
 5123SOL    HW127005   0.945   0.364  12.198 -0.0750  0.8181 -1.5103
 5123SOL    HW227006   0.884   0.433  12.320  2.9274 -1.9762 -0.5634
 5124SOL     OW27007   4.435   1.494   4.509 -0.5017  0.5070 -0.3790
 5124SOL    HW127008   4.364   1.535   4.460 -0.8195 -2.7707 -2.6429
 5124SOL    HW227009   4.519   1.525   4.475 -0.2062 -0.4043 -0.4833
 5125SOL     OW27010   3.696   0.698   6.643  0.5203  0.0804  0.1325
 5125SOL    HW127011   3.673   0.605   6.643  1.8892 -0.2617 -0.5814
 5125SOL    HW227012   3.616   0.743   6.670  0.3523 -0.3227  0.3113
 5126SOL     OW27013   0.605   4.154   8.018 -0.1734  0.0487  0.1446
 5126SOL    HW127014   0.617   4.069   8.060 -1.0980 -0.9420 -1.5608
 5126SOL    HW227015   0.687   4.199   8.033  0.3027 -0.9818  0.6417
 5127SOL     OW27016   2.168   0.719   8.724 -0.2363 -0.0844  0.0335
 5127SOL    HW127017   2.197   0.686   8.809 -0.8262  1.5963  0.8866
 5127SOL    HW227018   2.119   0.796   8.752 -0.8786 -1.4360  2.6671
 5128SOL     OW27019   0.761   0.341  15.990  0.4375 -0.0094 -0.4862
 5128SOL    HW127020   0.789   0.385  16.070  1.9418 -0.0212 -1.0152
 5128SOL    HW227021   0.704   0.271  16.021  0.3596  0.6491  0.8425
 5129SOL     OW27022   2.217   3.749   3.954  0.2936  0.8008 -0.1523
 5129SOL    HW127023   2.163   3.760   3.876 -1.6081  2.9027  1.4604
 5129SOL    HW227024   2.156   3.723   4.023  0.0336  0.1040 -0.6377
 5130SOL     OW27025   1.692   2.882   3.762 -0.4463 -0.4466  0.2941
 5130SOL    HW127026   1.649   2.889   3.676  0.3363  2.0937  0.0888
 5130SOL    HW227027   1.767   2.942   3.755 -1.6765  1.0943  0.1611
 5131SOL     OW27028   3.069   3.223   7.570 -0.4381 -0.1595 -0.0342
 5131SOL    HW127029   3.025   3.299   7.609  0.5804  0.3537  0.1120
 5131SOL    HW227030   3.142   3.217   7.631  0.1741  0.1538 -0.7330
 5132SOL     OW27031   1.724   0.750   5.665 -0.0846  0.7058 -0.0486
 5132SOL    HW127032   1.642   0.702   5.665  2.4234 -3.5833  1.6240
 5132SOL    HW227033   1.734   0.756   5.760 -0.4977  1.3429 -0.0467
 5133SOL     OW27034   0.187   3.057   8.604  0.2077  0.5315  0.3479
 5133SOL    HW127035   0.106   3.009   8.619  0.9189 -0.9063 -0.4903
 5133SOL    HW227036   0.241   2.987   8.568 -3.1448 -2.1333  0.4838
 5134SOL     OW27037   1.075   0.923   2.024 -0.5159 -0.3194  0.3481
 5134SOL    HW127038   1.042   0.844   1.982  0.8424  0.3570 -2.0406
 5134SOL    HW227039   1.001   0.968   2.064 -1.6800 -1.7229 -0.2464
 5135SOL     OW27040   1.426   0.170   7.949 -0.8308  0.0296 -0.1261
 5135SOL    HW127041   1.422   0.075   7.966  0.1176  0.5986  3.3867
 5135SOL    HW227042   1.362   0.170   7.878  0.0856 -0.1566 -0.9507
 5136SOL     OW27043   0.230   1.442   5.195  0.1082 -0.4771  0.1401
 5136SOL    HW127044   0.240   1.535   5.216  1.5137 -0.4173 -0.8452
 5136SOL    HW227045   0.220   1.396   5.278 -1.5524 -0.2523  0.0638
 5137SOL     OW27046   3.069   3.009   3.370 -0.0207  0.3632  0.6391
 5137SOL    HW127047   2.991   2.958   3.392 -0.7426  0.4206 -1.8003
 5137SOL    HW227048   3.125   2.965   3.433  0.4240  1.5212  1.0539
 5138SOL     OW27049   1.472   2.526   2.613  0.2555 -0.1758  0.2720
 5138SOL    HW127050   1.473   2.581   2.692 -0.5046 -0.4531  0.4747
 5138SOL    HW227051   1.399   2.475   2.648 -0.5383  1.1306  0.5058
 5139SOL     OW27052   2.544   3.533  13.236 -0.1282  0.2035  0.0211
 5139SOL    HW127053   2.533   3.482  13.155  0.4152 -2.9592  1.9118
 5139SOL    HW227054   2.511   3.481  13.309 -1.5706  1.4324  0.2393
 5140SOL     OW27055   3.685   4.737   2.139  0.4382 -0.6429  0.5020
 5140SOL    HW127056   3.646   0.084   2.130 -1.9212 -1.6745  0.9260
 5140SOL    HW227057   3.635   4.693   2.208  1.1189  0.4615  1.6892
 5141SOL     OW27058   1.506   3.049  16.876 -0.5752 -0.1669  0.4339
 5141SOL    HW127059   1.529   3.136  16.844 -1.8708  1.6866  4.5210
 5141SOL    HW227060   1.483   3.073  16.966  1.9796  2.3202  0.4077
 5142SOL     OW27061   1.107   3.867   9.090 -0.6331  0.1617 -0.2453
 5142SOL    HW127062   1.022   3.848   9.051 -1.2076 -0.1237  1.1372
 5142SOL    HW227063   1.171   3.850   9.020 -0.7078 -1.4725  0.0819
 5143SOL     OW27064   2.983   2.048  17.502 -0.2262 -0.6366  0.1269
 5143SOL    HW127065   3.032   1.994  17.565 -1.2673 -1.6445  0.0674
 5143SOL    HW227066   2.903   2.036  17.552  0.0034  0.7381  0.8338
 5144SOL     OW27067   1.842   2.543   6.210  0.2588 -0.0209 -0.2707
 5144SOL    HW127068   1.775   2.487   6.249 -0.7993 -1.9568 -4.9572
 5144SOL    HW227069   1.863   2.486   6.136  1.1182 -1.2013  0.8702
 5145SOL     OW27070   2.523   4.658   5.849 -0.2738 -0.0468  0.1888
 5145SOL    HW127071   2.545   4.725   5.913 -0.8681 -0.4028  0.7611
 5145SOL    HW227072   2.611   4.633   5.821 -0.6826 -1.8897  0.5153
 5146SOL     OW27073   1.317   4.440   8.624 -0.1421  0.6292 -0.0173
 5146SOL    HW127074   1.253   4.415   8.691  0.1081  0.1748  0.0563
 5146SOL    HW227075   1.382   4.373   8.645 -2.0483 -0.9044  1.0239
 5147SOL     OW27076   0.983   2.013   6.205  0.0303 -0.5441  0.2480
 5147SOL    HW127077   1.056   1.988   6.262 -0.6911 -1.8912  0.5829
 5147SOL    HW227078   1.023   1.995   6.120  0.3037 -1.4696  0.5682
 5148SOL     OW27079   2.868   2.727   8.211  0.0654  0.0943  0.2309
 5148SOL    HW127080   2.815   2.759   8.283 -1.4067  0.7121 -1.1093
 5148SOL    HW227081   2.858   2.797   8.146  0.3503 -0.9726 -0.9650
 5149SOL     OW27082   2.546   2.461   3.489 -0.3888  0.1598 -0.4209
 5149SOL    HW127083   2.479   2.527   3.508  1.7966  2.2410  0.1917
 5149SOL    HW227084   2.512   2.406   3.559  1.4876  0.7906  1.0219
 5150SOL     OW27085   4.133   3.129   4.736 -0.1164  1.0046 -0.1022
 5150SOL    HW127086   4.122   3.038   4.763  1.5437  1.6006  2.5174
 5150SOL    HW227087   4.227   3.138   4.750  0.2450 -0.9107 -1.2607
 5151SOL     OW27088   3.056   2.901   5.114  0.2789  0.0992  0.3677
 5151SOL    HW127089   2.978   2.846   5.121  0.2372  0.0221 -0.6817
 5151SOL    HW227090   3.094   2.903   5.202  0.7249  3.4275  0.1259
 5152SOL     OW27091   3.754   4.395  10.145 -0.0178  0.1661  0.0168
 5152SOL    HW127092   3.681   4.371  10.201 -0.3113  0.9165 -0.0517
 5152SOL    HW227093   3.776   4.484  10.172  2.0544 -0.3187 -0.0581
 5153SOL     OW27094   1.607   4.462   6.927  0.2868  0.2663  0.3464
 5153SOL    HW127095   1.578   4.446   7.017  1.3698  0.6900  0.7647
 5153SOL    HW227096   1.701   4.473   6.942  0.4235  3.0443 -2.3823
 5154SOL     OW27097   2.847   4.542   9.105  0.3178 -0.1188  0.0993
 5154SOL    HW127098   2.790   4.573   9.035 -0.5853 -1.6620  0.1640
 5154SOL    HW227099   2.934   4.551   9.065 -0.0533  0.4392 -0.5873
 5155SOL     OW27100   4.228   0.679   9.820  0.4185  0.0403 -0.2232
 5155SOL    HW127101   4.174   0.740   9.871 -1.2786 -0.5989 -1.2669
 5155SOL    HW227102   4.160   0.638   9.766  0.2576  2.3329 -1.7680
 5156SOL     OW27103   0.253   0.390   1.820  0.3828  0.0472  0.2227
 5156SOL    HW127104   0.261   0.459   1.754 -1.2577 -0.7204 -0.7826
 5156SOL    HW227105   0.343   0.373   1.847  0.9721 -1.3804 -2.6636
 5157SOL     OW27106   3.676   3.429   1.103 -0.8013  0.1422  0.4279
 5157SOL    HW127107   3.641   3.501   1.051 -1.1676 -0.5621 -0.2997
 5157SOL    HW227108   3.601   3.431   1.162 -1.7496 -1.4373 -0.7327
 5158SOL     OW27109   0.977   1.563   7.344  0.1021 -0.3812 -0.5911
 5158SOL    HW127110   0.980   1.538   7.252  1.2348  0.5726 -0.8110
 5158SOL    HW227111   0.883   1.548   7.357 -0.1643  1.8824  0.1504
 5159SOL     OW27112   2.969   1.213   9.555 -0.1346 -0.2431 -0.5119
 5159SOL    HW127113   3.032   1.141   9.544  1.5003  1.0789  0.2681
 5159SOL    HW227114   2.889   1.164   9.574  0.6314 -0.1754  2.9837
 5160SOL     OW27115   0.016   2.456   2.709 -0.4640  0.3908  0.0285
 5160SOL    HW127116   4.680   2.428   2.761  0.4897 -1.2900  0.5144
 5160SOL    HW227117   4.715   2.438   2.625  1.4645 -0.3012 -0.7570
 5161SOL     OW27118   0.608   2.304   6.586  0.4578  0.0867  0.0211
 5161SOL    HW127119   0.588   2.301   6.680  1.7907 -0.3477  0.2972
 5161SOL    HW227120   0.557   2.231   6.551 -1.5058  1.0183  0.9701
 5162SOL     OW27121   2.104   3.327   4.486  0.3665 -0.8090  0.3502
 5162SOL    HW127122   2.151   3.303   4.565  0.9907  1.1415  0.5857
 5162SOL    HW227123   2.072   3.240   4.462  0.7564 -1.9472  4.0339
 5163SOL     OW27124   3.744   1.169   0.746 -0.4896 -0.4083 -0.1972
 5163SOL    HW127125   3.698   1.182   0.663  2.0574 -1.1643 -1.7639
 5163SOL    HW227126   3.777   1.080   0.732  0.8077 -0.4863  3.3615
 5164SOL     OW27127   4.498   0.881   1.219  0.3211 -0.0904  0.0050
 5164SOL    HW127128   4.462   0.793   1.208 -0.1199  0.2646 -1.3732
 5164SOL    HW227129   4.415   0.926   1.204  0.4842  0.7790  1.6885
 5165SOL     OW27130   4.464   2.516  12.113 -0.2727  0.1098  0.0974
 5165SOL    HW127131   4.501   2.440  12.069 -0.5056 -0.1430  0.3395
 5165SOL    HW227132   4.414   2.475  12.184  0.7168 -1.6351 -0.2225
 5166SOL     OW27133   3.057   3.271   8.829 -0.0310  0.7586 -0.6617
 5166SOL    HW127134   2.984   3.330   8.846 -0.0449  0.5461 -0.0090
 5166SOL    HW227135   3.042   3.212   8.902 -0.2265  0.6668 -0.7761
 5167SOL     OW27136   0.703   3.224  11.192  0.5128  0.1356  0.4158
 5167SOL    HW127137   0.621   3.175  11.195  0.6145 -0.0573  0.0252
 5167SOL    HW227138   0.775   3.163  11.210  1.6461  1.2698 -0.3174
 5168SOL     OW27139   1.244   0.441   4.501  0.0321  0.4160 -0.5863
 5168SOL    HW127140   1.240   0.375   4.431 -0.5279  1.7784 -1.8381
 5168SOL    HW227141   1.278   0.392   4.576  0.6389 -1.2465 -1.9479
 5169SOL     OW27142   3.767   4.213   6.260  0.6700  0.4887  0.5049
 5169SOL    HW127143   3.739   4.255   6.179 -2.9400 -2.7031  0.0824
 5169SOL    HW227144   3.858   4.186   6.246  0.9346  1.4924  0.2914
 5170SOL     OW27145   0.598   1.577  17.427  0.2963  0.3154 -0.0054
 5170SOL    HW127146   0.673   1.537  17.384 -0.1941 -0.0158 -0.5595
 5170SOL    HW227147   0.628   1.607  17.513 -1.4308 -1.0059  1.0544
 5171SOL     OW27148   0.278   4.733  11.733  0.0344  0.6373  0.4414
 5171SOL    HW127149   0.294   0.017  11.825  0.5195 -2.8658  1.2619
 5171SOL    HW227150   0.186   4.708  11.736  0.1582 -0.2110 -3.6068
 5172SOL     OW27151   4.528   4.556  11.180  0.0940  0.3421  0.4931
 5172SOL    HW127152   4.567   4.469  11.192  0.3522  0.4269  0.2500
 5172SOL    HW227153   4.511   4.550  11.086 -1.0791 -0.1591  0.7321
 5173SOL     OW27154   3.384   2.598   6.591 -0.5252 -0.1323  0.0209
 5173SOL    HW127155   3.471   2.637   6.602  0.4271 -2.3962  0.5864
 5173SOL    HW227156   3.387   2.535   6.663  1.0748 -2.0745 -1.7728
 5174SOL     OW27157   2.444   2.297   9.265 -0.0079  0.2000  0.1409
 5174SOL    HW127158   2.442   2.321   9.173  0.4740 -0.2234  0.0217
 5174SOL    HW227159   2.529   2.253   9.270 -1.8284 -3.2687  0.9637
 5175SOL     OW27160   2.936   0.900  11.925 -0.0736 -0.1734  0.7240
 5175SOL    HW127161   2.852   0.860  11.946 -0.0915  0.7544  2.3647
 5175SOL    HW227162   2.941   0.888  11.830 -3.2158 -0.8831  0.6351
 5176SOL     OW27163   2.319   0.077   5.267  0.3677 -0.8484  0.8289
 5176SOL    HW127164   2.280   0.090   5.354 -3.0837 -0.0421 -0.8716
 5176SOL    HW227165   2.350   0.167   5.257  3.2640 -1.8917  0.4079
 5177SOL     OW27166   2.165   3.720  15.201  0.8653 -0.0790  0.8522
 5177SOL    HW127167   2.106   3.645  15.197  0.0288  0.6748 -0.9186
 5177SOL    HW227168   2.244   3.665  15.207  0.1625 -1.3125 -1.0078
 5178SOL     OW27169   4.651   2.978  14.741 -0.7427 -0.2852 -0.3835
 5178SOL    HW127170   4.729   3.034  14.744 -0.1964 -0.9207 -2.7186
 5178SOL    HW227171   4.610   3.000  14.657 -0.5455  0.4935 -0.2737
 5179SOL     OW27172   4.734   1.074  10.952  0.0268 -0.4391  0.0447
 5179SOL    HW127173   4.679   1.094  10.876  2.7201  0.4996 -1.6545
 5179SOL    HW227174   4.668   1.063  11.019  0.4722 -1.6708  0.2769
 5180SOL     OW27175   2.154   3.359  15.739 -0.2125  0.8159  0.0802
 5180SOL    HW127176   2.106   3.278  15.757 -1.0247  0.8852 -1.8771
 5180SOL    HW227177   2.135   3.369  15.646 -1.5723 -1.6621  0.0978
 5181SOL     OW27178   3.994   3.361   3.347  0.8418  0.2015  0.1267
 5181SOL    HW127179   3.949   3.346   3.430  0.3140  2.0235  0.1739
 5181SOL    HW227180   3.927   3.409   3.298  0.8657  0.7976  0.6861
 5182SOL     OW27181   0.155   2.631   4.738  0.1203  0.2972  0.1371
 5182SOL    HW127182   0.167   2.596   4.650 -1.4230 -0.3714  0.1989
 5182SOL    HW227183   0.100   2.566   4.781 -0.4025  1.0443  0.6176
 5183SOL     OW27184   3.872   2.992   8.484  0.1531  0.5290 -0.3349
 5183SOL    HW127185   3.853   3.021   8.395  1.6611  0.4566 -0.6837
 5183SOL    HW227186   3.792   2.956   8.523 -0.4007  2.0426 -0.0580
 5184SOL     OW27187   0.490   0.464  16.938  0.1636  0.6642  0.8541
 5184SOL    HW127188   0.425   0.429  16.877  1.8416 -1.1088  0.0949
 5184SOL    HW227189   0.455   0.552  16.953  0.3233  0.7762  0.5647
 5185SOL     OW27190   2.496   2.395   0.729 -0.3422 -0.0215 -0.1042
 5185SOL    HW127191   2.511   2.488   0.713  0.3774  0.1939  1.8704
 5185SOL    HW227192   2.508   2.397   0.824 -0.1136 -1.4208 -0.1025
 5186SOL     OW27193   1.643   4.028  12.832 -0.0117  0.1617  0.0922
 5186SOL    HW127194   1.663   3.950  12.884 -0.0623  1.3941  1.9300
 5186SOL    HW227195   1.548   4.020  12.829  0.0268  0.1338 -1.1326
 5187SOL     OW27196   4.529   0.300   0.058  0.5219 -0.3222  0.0132
 5187SOL    HW127197   4.477   0.228   0.094  1.8364 -1.4597 -0.3378
 5187SOL    HW227198   4.600   0.297   0.122 -0.1254 -1.9045  0.6604
 5188SOL     OW27199   2.549   3.051   4.303  0.8771  0.5510  0.0148
 5188SOL    HW127200   2.547   2.998   4.223  1.9067  1.1005 -0.3721
 5188SOL    HW227201   2.461   3.039   4.340  0.4574  3.3324 -0.0784
 5189SOL     OW27202   2.054   2.229   4.780  0.3112  0.6342 -0.3146
 5189SOL    HW127203   1.989   2.158   4.786  1.5967 -0.5861 -0.9767
 5189SOL    HW227204   2.020   2.285   4.710 -1.5560  0.0688  0.1201
 5190SOL     OW27205   2.846   2.797  11.570  0.4153 -0.0987  0.1242
 5190SOL    HW127206   2.792   2.859  11.521  1.0121 -0.3882 -0.9024
 5190SOL    HW227207   2.904   2.769  11.499  2.1096  1.3880  0.9175
 5191SOL     OW27208   3.055   3.745   1.116  0.1063  0.2825  0.3488
 5191SOL    HW127209   2.997   3.670   1.127  1.6390 -0.8507  0.5158
 5191SOL    HW227210   3.141   3.710   1.137  0.7108  0.3351 -2.0178
 5192SOL     OW27211   2.115   3.382  16.771  0.3719 -0.3145 -0.7100
 5192SOL    HW127212   2.061   3.359  16.847 -0.1905 -0.3871 -1.1373
 5192SOL    HW227213   2.144   3.472  16.786 -1.8162  0.3796 -0.7475
 5193SOL     OW27214   2.633   3.152   4.714 -0.1888 -0.2224 -0.3745
 5193SOL    HW127215   2.716   3.126   4.754  0.2657 -0.9206 -1.7825
 5193SOL    HW227216   2.640   3.120   4.624 -0.2172 -0.3265 -0.3400
 5194SOL     OW27217   4.445   0.365  17.182  0.1116  0.0175 -0.2920
 5194SOL    HW127218   4.483   0.332  17.100 -1.3642  1.0214 -1.3812
 5194SOL    HW227219   4.356   0.385  17.151  0.2501 -1.4783 -1.6887
 5195SOL     OW27220   2.965   3.383   3.084 -0.3720 -1.0464  0.2314
 5195SOL    HW127221   2.989   3.290   3.083  0.6161 -0.8323  2.7113
 5195SOL    HW227222   2.922   3.393   3.000 -0.9293 -0.5651  0.5748
 5196SOL     OW27223   0.974   4.700  10.953 -0.0085  0.2650 -0.4274
 5196SOL    HW127224   1.057   4.653  10.952 -1.3072 -2.0378 -2.5631
 5196SOL    HW227225   0.957   4.712  10.859 -1.0696  1.3901 -0.0941
 5197SOL     OW27226   1.924   2.287   3.275 -0.0464  0.3258 -0.8439
 5197SOL    HW127227   1.844   2.281   3.223 -0.1168 -4.0058 -0.2269
 5197SOL    HW227228   1.984   2.322   3.209 -2.5038  0.4735 -2.9998
 5198SOL     OW27229   4.246   1.235   3.148  0.1633 -0.1478  0.0871
 5198SOL    HW127230   4.239   1.167   3.081  1.4797 -2.3333  2.1817
 5198SOL    HW227231   4.336   1.230   3.181  1.5645 -1.6490 -3.9510
 5199SOL     OW27232   0.680   4.594  12.214 -0.4006  0.5353 -0.5147
 5199SOL    HW127233   0.775   4.609  12.215 -0.4056  0.3965  1.6793
 5199SOL    HW227234   0.635   4.678  12.203  1.4780  1.4573 -1.1842
 5200SOL     OW27235   4.720   4.327   2.717 -0.1615 -0.0153  0.1302
 5200SOL    HW127236   4.713   4.340   2.622  1.0869  0.9452  0.1800
 5200SOL    HW227237   0.076   4.322   2.726 -0.3764 -1.8419  1.4674
 5201SOL     OW27238   0.255   1.923   8.079 -0.7757  0.2642 -0.2114
 5201SOL    HW127239   0.281   1.872   8.003 -0.3090  0.0793  0.0718
 5201SOL    HW227240   0.291   1.873   8.152 -0.8569  0.4027 -0.0743
 5202SOL     OW27241   3.278   4.035   3.371  0.5421 -0.1234 -0.2490
 5202SOL    HW127242   3.352   3.986   3.407  0.5774 -1.2564 -1.8541
 5202SOL    HW227243   3.256   3.975   3.299 -0.6116  0.4925 -0.4142
 5203SOL     OW27244   1.048   1.928   3.337  0.3591 -0.3734 -0.1443
 5203SOL    HW127245   0.964   1.910   3.379  0.5637 -2.3197 -0.5458
 5203SOL    HW227246   1.019   1.967   3.255 -1.5656  0.2091  0.8098
 5204SOL     OW27247   3.687   3.586   4.822  0.1958 -0.5559 -0.3693
 5204SOL    HW127248   3.629   3.546   4.886 -0.6810  0.8936 -0.2629
 5204SOL    HW227249   3.696   3.506   4.770 -0.9807  0.2075 -1.7542
 5205SOL     OW27250   0.190   4.098  12.075 -0.0770  0.7613  0.1570
 5205SOL    HW127251   0.187   4.017  12.126  0.0056  0.5165 -0.2335
 5205SOL    HW227252   0.097   4.110  12.054  0.0569  1.5788  0.0147
 5206SOL     OW27253   3.236   1.016   1.604  0.1673  0.3261  0.0868
 5206SOL    HW127254   3.267   1.083   1.665  1.1505  0.8739 -1.0107
 5206SOL    HW227255   3.301   0.946   1.605  0.2421  0.3751 -0.9937
 5207SOL     OW27256   0.330   4.439   1.889 -0.1858 -0.2954 -0.1656
 5207SOL    HW127257   0.415   4.398   1.870 -0.4756 -0.8915 -0.1480
 5207SOL    HW227258   0.269   4.396   1.829 -0.7551  0.5839 -0.2227
 5208SOL     OW27259   4.502   0.088   5.129  0.1354  0.0056 -0.2560
 5208SOL    HW127260   4.554   0.062   5.204  0.1765 -0.5446 -0.4766
 5208SOL    HW227261   4.449   0.008   5.126  0.9656 -0.5746  0.7071
 5209SOL     OW27262   0.739   0.427   6.008 -0.1048  0.1838 -0.2637
 5209SOL    HW127263   0.769   0.356   5.951 -0.5308 -1.2323  1.2483
 5209SOL    HW227264   0.661   0.462   5.966 -0.8311 -1.4406 -0.2791
 5210SOL     OW27265   1.903   4.021  13.134  0.2968 -0.4147  0.6429
 5210SOL    HW127266   1.825   4.057  13.178 -1.7763 -0.6989 -2.7714
 5210SOL    HW227267   1.939   3.958  13.196 -1.8521 -0.6975  1.6316
 5211SOL     OW27268   3.229   2.590   5.039  0.6585  0.6441 -0.3386
 5211SOL    HW127269   3.303   2.530   5.041  0.9970  1.0274 -1.3171
 5211SOL    HW227270   3.198   2.580   4.949  2.3926 -0.3822 -0.8100
 5212SOL     OW27271   2.798   0.544  12.017  0.1999 -0.1373 -0.4613
 5212SOL    HW127272   2.888   0.556  11.987 -0.2957  1.2119 -1.4104
 5212SOL    HW227273   2.758   0.611  11.962  2.0255  0.5594 -0.9375
 5213SOL     OW27274   1.818   2.000   5.570  0.2448 -0.2488 -0.4324
 5213SOL    HW127275   1.885   2.000   5.502  0.2624 -0.3502 -0.4150
 5213SOL    HW227276   1.810   1.910   5.602 -2.9567  0.5328  1.0250
 5214SOL     OW27277   4.349   2.815   7.766 -0.1921 -0.6046 -0.5186
 5214SOL    HW127278   4.379   2.889   7.713  0.6784 -1.0678 -0.6870
 5214SOL    HW227279   4.433   2.771   7.777 -0.8865 -1.5667  0.9641
 5215SOL     OW27280   2.145   3.455   3.060 -0.0125  0.1551 -0.0510
 5215SOL    HW127281   2.129   3.392   3.130  2.1721  1.1084  1.2936
 5215SOL    HW227282   2.140   3.536   3.111 -0.8742 -0.0076  0.1189
 5216SOL     OW27283   2.595   1.397   6.084  0.0269  0.4725  0.7389
 5216SOL    HW127284   2.576   1.306   6.061 -1.0993  0.1206  3.0863
 5216SOL    HW227285   2.626   1.389   6.174  2.0339 -1.1697 -0.0638
 5217SOL     OW27286   4.263   0.247   4.414  0.3918 -0.8789 -0.1267
 5217SOL    HW127287   4.346   0.239   4.460  0.0453 -0.5844  0.5461
 5217SOL    HW227288   4.244   0.159   4.381 -1.0896 -0.9504  0.9540
 5218SOL     OW27289   1.752   2.753   6.045 -0.3661 -0.7871 -0.4984
 5218SOL    HW127290   1.794   2.833   6.077 -0.4280 -0.6282 -0.8186
 5218SOL    HW227291   1.802   2.684   6.090 -1.3739 -1.0725  0.1812
 5219SOL     OW27292   3.479   0.302  13.200  0.0239 -0.0244 -0.2536
 5219SOL    HW127293   3.558   0.250  13.215  0.0219  0.5360  1.6318
 5219SOL    HW227294   3.509   0.393  13.189  0.8691 -0.0402  1.9999
 5220SOL     OW27295   2.398   1.804   9.393  0.1185  0.1557  0.5210
 5220SOL    HW127296   2.323   1.744   9.384 -0.4386  0.9394  0.0076
 5220SOL    HW227297   2.358   1.883   9.358  0.2786  0.8258  1.8900
 5221SOL     OW27298   3.659   0.681  14.346  0.1531  0.2115 -0.6629
 5221SOL    HW127299   3.606   0.665  14.423  1.1540  0.2750  0.0365
 5221SOL    HW227300   3.610   0.746  14.295  1.3663  0.1861 -1.8535
 5222SOL     OW27301   1.126   0.074   8.870 -0.0258  0.4374 -0.3367
 5222SOL    HW127302   1.206   0.035   8.835  1.2543  1.0975  1.8185
 5222SOL    HW227303   1.059   0.006   8.875  1.6323 -1.1898 -0.2447
 5223SOL     OW27304   3.762   4.348   8.566  0.6204  0.2155  0.2520
 5223SOL    HW127305   3.726   4.419   8.618 -0.7775 -0.5450  0.3411
 5223SOL    HW227306   3.856   4.353   8.584  1.3193 -1.1866 -3.0533
 5224SOL     OW27307   2.453   2.348  10.620 -0.0674 -0.3125 -0.2578
 5224SOL    HW127308   2.406   2.279  10.573 -1.6284  1.9100 -1.9713
 5224SOL    HW227309   2.453   2.426  10.564  0.6382  0.8766  1.3967
 5225SOL     OW27310   0.867   2.528   3.066  0.2313  0.1955  0.5541
 5225SOL    HW127311   0.913   2.608   3.040  1.5524 -0.7209  0.0707
 5225SOL    HW227312   0.844   2.489   2.981  0.5902 -0.6186  0.8332
 5226SOL     OW27313   4.521   4.712   7.118  0.1999  0.1927 -0.0851
 5226SOL    HW127314   4.501   0.064   7.098 -0.8718  0.1510  0.8117
 5226SOL    HW227315   4.474   4.668   7.047 -1.1983 -1.0774  1.6346
 5227SOL     OW27316   4.054   1.903   2.934  0.3525 -0.2277 -0.2022
 5227SOL    HW127317   3.984   1.959   2.901  0.3909  1.0430  1.9156
 5227SOL    HW227318   4.093   1.861   2.857  0.7818 -1.4041  0.6636
 5228SOL     OW27319   1.563   0.145   3.211  0.0580  0.6382 -0.5196
 5228SOL    HW127320   1.555   0.212   3.143  0.8297  1.5114  0.2485
 5228SOL    HW227321   1.510   0.182   3.281  0.8531  1.8464 -0.5514
 5229SOL     OW27322   2.158   4.130  11.548 -0.3597 -0.0573  0.1468
 5229SOL    HW127323   2.252   4.137  11.564 -0.2104  0.5530 -0.9533
 5229SOL    HW227324   2.148   4.199  11.482  0.7583 -0.6060 -0.6058
 5230SOL     OW27325   0.496   3.425   4.538  0.4438 -0.1309  0.0595
 5230SOL    HW127326   0.530   3.483   4.606  0.0505  0.3218 -0.1332
 5230SOL    HW227327   0.420   3.474   4.509 -0.1783  0.1547  2.1649
 5231SOL     OW27328   0.382   0.708   3.849  1.0062 -0.1188  0.0813
 5231SOL    HW127329   0.335   0.655   3.785 -1.1694  2.3248 -0.3194
 5231SOL    HW227330   0.462   0.656   3.861  1.8459  0.4927 -3.0556
 5232SOL     OW27331   2.412   0.704   8.411  0.0071  0.2357  0.1447
 5232SOL    HW127332   2.411   0.790   8.452  0.5392  0.4570 -0.2972
 5232SOL    HW227333   2.503   0.677   8.422 -0.6942 -2.0410  0.3676
 5233SOL     OW27334   0.406   1.134   6.935  0.2781  0.3383 -0.1994
 5233SOL    HW127335   0.445   1.119   7.021  0.6869 -0.0575 -0.4529
 5233SOL    HW227336   0.358   1.215   6.950 -0.3247 -0.0352 -0.1046
 5234SOL     OW27337   2.474   2.766   2.298 -0.2115 -0.8044 -0.6248
 5234SOL    HW127338   2.525   2.832   2.346 -0.7058 -0.2966 -0.7974
 5234SOL    HW227339   2.512   2.687   2.336 -0.2079  0.1536  1.3759
 5235SOL     OW27340   2.518   0.247   8.072  0.1972  0.0726 -0.0480
 5235SOL    HW127341   2.490   0.322   8.125 -0.2506 -1.1767  1.5020
 5235SOL    HW227342   2.565   0.296   8.005  1.2133 -0.2234  0.4573
 5236SOL     OW27343   3.075   2.360   1.794  0.1541  0.6907 -0.1715
 5236SOL    HW127344   3.058   2.311   1.714  0.9118 -1.3106  0.9072
 5236SOL    HW227345   2.994   2.342   1.841  0.9333 -3.1059 -0.3082
 5237SOL     OW27346   2.806   2.161   8.383  0.2423 -0.1154 -0.2939
 5237SOL    HW127347   2.881   2.185   8.328 -0.2876 -0.3396 -1.1125
 5237SOL    HW227348   2.841   2.121   8.463 -0.4815 -1.4491 -0.6451
 5238SOL     OW27349   3.288   3.795   7.171 -0.6527 -0.0272  0.2056
 5238SOL    HW127350   3.344   3.817   7.097  2.1553 -0.3359  2.2602
 5238SOL    HW227351   3.337   3.834   7.243  0.9223  0.7069 -1.2573
 5239SOL     OW27352   4.403   2.365   4.097  0.4924 -0.0987 -0.0581
 5239SOL    HW127353   4.366   2.387   4.183 -0.3699  2.6835 -1.1257
 5239SOL    HW227354   4.496   2.386   4.101  0.0886  1.4953  1.3721
 5240SOL     OW27355   4.657   3.255   3.113 -0.8636 -0.0398  0.3578
 5240SOL    HW127356   0.001   3.300   3.097 -0.9399  0.2295  0.7263
 5240SOL    HW227357   4.678   3.161   3.107 -2.0537 -0.3487  1.1159
 5241SOL     OW27358   3.966   1.705   3.574 -0.4088 -0.1916  0.3998
 5241SOL    HW127359   3.933   1.757   3.500  1.9783 -1.0790 -1.3001
 5241SOL    HW227360   3.912   1.629   3.557 -0.4322  0.0416 -0.5913
 5242SOL     OW27361   3.457   2.728   7.122 -0.0670  0.1626  0.5195
 5242SOL    HW127362   3.438   2.797   7.186 -0.2033  0.9412 -0.3451
 5242SOL    HW227363   3.372   2.683   7.125  1.6900 -2.9607  3.0151
 5243SOL     OW27364   1.638   2.116   5.250 -0.2467 -0.6231 -0.2998
 5243SOL    HW127365   1.638   2.189   5.187  3.2850 -0.3376  0.0449
 5243SOL    HW227366   1.621   2.153   5.336 -0.7325  0.6752 -0.9531
 5244SOL     OW27367   0.618   2.900   5.781  0.5392 -0.4367 -0.7449
 5244SOL    HW127368   0.712   2.883   5.789  0.7704  0.0290 -2.4614
 5244SOL    HW227369   0.623   2.973   5.720 -0.0073 -0.7965 -1.2167
 5245SOL     OW27370   1.590   1.777   1.868  0.1069  0.3599  0.2475
 5245SOL    HW127371   1.554   1.831   1.938  2.0617 -0.4685  1.9027
 5245SOL    HW227372   1.663   1.732   1.909  0.6938  1.1953  0.1306
 5246SOL     OW27373   0.810   0.721   8.809  0.4755 -0.1642  0.5135
 5246SOL    HW127374   0.841   0.653   8.869  1.1789 -0.7592 -0.5223
 5246SOL    HW227375   0.725   0.745   8.846  1.7030  0.6762  2.8121
 5247SOL     OW27376   1.943   3.034   3.820  0.2242 -0.2806 -0.1970
 5247SOL    HW127377   2.038   3.047   3.810  0.7851 -3.4545  0.8711
 5247SOL    HW227378   1.947   3.010   3.913 -1.1103  1.6278  0.3488
 5248SOL     OW27379   0.794   3.893   4.516  0.0554  0.1738  0.2017
 5248SOL    HW127380   0.880   3.914   4.479 -0.0024 -0.9768 -0.5700
 5248SOL    HW227381   0.746   3.912   4.436 -0.0403  0.2597  0.2783
 5249SOL     OW27382   0.342   3.177   5.135  0.0621  0.4468 -0.1147
 5249SOL    HW127383   0.370   3.097   5.181  2.0652  0.6814 -0.9220
 5249SOL    HW227384   0.353   3.250   5.196 -0.6094 -0.8929  1.6159
 5250SOL     OW27385   3.701   1.568  12.176  0.4405  0.2106 -0.2037
 5250SOL    HW127386   3.789   1.536  12.197  0.1145 -0.7334 -0.2611
 5250SOL    HW227387   3.730   1.650  12.136  1.5799 -0.4485 -0.7199
 5251SOL     OW27388   2.340   4.613   3.761 -0.0430  0.1816  0.0985
 5251SOL    HW127389   2.306   4.525   3.741  0.4718  0.0335 -0.1230
 5251SOL    HW227390   2.333   4.657   3.676  0.4625 -0.9968 -0.5622
 5252SOL     OW27391   1.781   0.760   3.973 -0.7165  0.0845  0.0338
 5252SOL    HW127392   1.798   0.724   4.060  1.6643 -1.1151 -0.9414
 5252SOL    HW227393   1.747   0.846   3.996 -0.9429  0.1913 -0.6804
 5253SOL     OW27394   0.736   2.957   6.596  0.1461  0.1805  0.0458
 5253SOL    HW127395   0.643   2.978   6.583  0.0647 -1.5131 -2.1295
 5253SOL    HW227396   0.739   2.887   6.530 -1.6950  1.2216 -1.1391
 5254SOL     OW27397   2.060   3.902  11.481  0.3494 -0.5655  0.0147
 5254SOL    HW127398   1.974   3.922  11.444  1.6690 -0.1153 -2.8278
 5254SOL    HW227399   2.092   3.991  11.498 -2.5456  0.4163  0.3286
 5255SOL     OW27400   1.203   0.915   3.520  0.2505  0.5317  0.5359
 5255SOL    HW127401   1.128   0.866   3.553  0.8951 -0.5954  0.3273
 5255SOL    HW227402   1.197   0.875   3.433  0.7707 -0.9894  1.2086
 5256SOL     OW27403   4.193   1.401   3.549 -0.1489  0.2490  0.1057
 5256SOL    HW127404   4.196   1.320   3.600  0.3073  1.0643  1.3896
 5256SOL    HW227405   4.256   1.462   3.588  1.9965 -1.8467 -0.0585
 5257SOL     OW27406   0.639   2.486  11.868 -0.1625  0.0759 -0.6234
 5257SOL    HW127407   0.634   2.489  11.964  1.4274 -1.1624 -0.5134
 5257SOL    HW227408   0.734   2.489  11.861  0.0321 -1.3903  1.4425
 5258SOL     OW27409   3.075   0.960  12.158 -0.0882  0.7795  0.3304
 5258SOL    HW127410   2.997   0.942  12.212 -1.3308  0.3110 -1.6271
 5258SOL    HW227411   3.032   0.959  12.073 -0.0298  1.9496  0.2831
 5259SOL     OW27412   2.445   4.278  13.028 -0.1201 -0.6895 -0.2779
 5259SOL    HW127413   2.525   4.238  12.994  0.5502  0.9488 -0.6345
 5259SOL    HW227414   2.478   4.361  13.063 -0.3246 -1.5513  1.9813
 5260SOL     OW27415   1.383   0.448   8.501 -0.0303 -0.4219  0.3280
 5260SOL    HW127416   1.328   0.409   8.432 -1.5046  1.7228  0.2756
 5260SOL    HW227417   1.447   0.378   8.512  0.1569 -0.4966 -1.1730
 5261SOL     OW27418   0.600   0.834   4.837 -0.6513  0.5628  0.4612
 5261SOL    HW127419   0.660   0.874   4.775 -0.6925  0.4065  0.3211
 5261SOL    HW227420   0.535   0.797   4.777 -0.4163 -0.0176  0.5693
 5262SOL     OW27421   4.509   3.043   3.959 -0.5163 -0.4205  0.1817
 5262SOL    HW127422   4.538   2.962   4.000  2.5072 -0.0605 -1.2445
 5262SOL    HW227423   4.477   3.002   3.879 -0.4715  0.6003 -0.3604
 5263SOL     OW27424   1.438   0.462   3.978  0.1462  0.0733 -0.2362
 5263SOL    HW127425   1.467   0.533   3.922 -1.3318  3.7519  3.7009
 5263SOL    HW227426   1.470   0.493   4.063 -2.7709 -0.1190  0.9503
 5264SOL     OW27427   4.615   4.488  10.467 -0.7274 -0.1575  0.0275
 5264SOL    HW127428   4.694   4.531  10.502 -0.5918 -0.2087 -0.2157
 5264SOL    HW227429   4.615   4.409  10.521 -0.3369 -0.2906 -0.1689
 5265SOL     OW27430   2.650   3.095  14.526 -0.4939 -0.4735  0.2475
 5265SOL    HW127431   2.575   3.153  14.514  1.0746  1.0556 -2.2811
 5265SOL    HW227432   2.678   3.095  14.435 -2.0701  1.3615 -0.2443
 5266SOL     OW27433   3.406   4.147   4.662  0.1594  0.3376 -0.2126
 5266SOL    HW127434   3.394   4.202   4.739 -1.4898  0.3370 -0.4836
 5266SOL    HW227435   3.502   4.143   4.664  0.0702 -2.1354 -0.1359
 5267SOL     OW27436   1.819   0.019   9.969 -0.5711 -0.7608 -0.0612
 5267SOL    HW127437   1.768   4.690  10.011  0.2307 -0.1594  1.8756
 5267SOL    HW227438   1.907   4.726   9.990 -0.2080  0.2788  0.0726
 5268SOL     OW27439   2.093   1.157  12.299 -0.2425 -0.3405 -0.2961
 5268SOL    HW127440   2.153   1.232  12.301  0.8543 -1.2610  1.5615
 5268SOL    HW227441   2.024   1.185  12.359 -1.0994  0.3260 -1.6054
 5269SOL     OW27442   0.467   1.401   6.514  0.0049  0.4335 -0.3405
 5269SOL    HW127443   0.471   1.322   6.569 -0.1945 -0.5306 -1.7135
 5269SOL    HW227444   0.420   1.370   6.436  0.1477 -0.0785 -0.2263
 5270SOL     OW27445   2.693   2.357   4.700 -0.3767  0.0251  0.0899
 5270SOL    HW127446   2.784   2.385   4.714 -0.7774  1.8409 -0.9173
 5270SOL    HW227447   2.646   2.416   4.758 -0.8993 -1.8651  1.5810
 5271SOL     OW27448   1.323   3.937   5.616  0.1387  0.2216  0.2338
 5271SOL    HW127449   1.302   3.880   5.542  0.4891 -0.0048  0.3113
 5271SOL    HW227450   1.299   3.878   5.687  3.0821  0.3607  1.3302
 5272SOL     OW27451   1.645   2.369   6.300  0.3426 -0.1448  0.1678
 5272SOL    HW127452   1.653   2.353   6.394 -3.1686  0.1212  0.5075
 5272SOL    HW227453   1.662   2.291   6.248  2.0110  1.0551 -1.0712
 5273SOL     OW27454   2.122   2.317  13.221  0.5808  0.6980 -0.2265
 5273SOL    HW127455   2.141   2.244  13.280  0.7539  0.6125 -0.3881
 5273SOL    HW227456   2.027   2.327  13.227  0.5164 -0.4888  0.7109
 5274SOL     OW27457   2.767   0.142   5.063  0.3132  0.3961 -0.3293
 5274SOL    HW127458   2.848   0.192   5.075  0.7911 -0.0510 -1.7034
 5274SOL    HW227459   2.717   0.205   5.011 -1.0301 -1.2209 -1.0001
 5275SOL     OW27460   4.402   0.131  12.319 -0.1475  0.4388  0.2471
 5275SOL    HW127461   4.324   0.083  12.347 -0.6289  1.7217  1.1152
 5275SOL    HW227462   4.360   0.210  12.286 -1.9236 -0.0467  1.2902
 5276SOL     OW27463   2.219   4.535  16.639  0.0790  0.2751 -0.4403
 5276SOL    HW127464   2.297   4.557  16.587  0.6266 -2.0080 -0.5896
 5276SOL    HW227465   2.180   4.622  16.645 -0.7259 -0.2151  1.4993
 5277SOL     OW27466   1.312   2.893   9.186 -0.3717  0.6281  0.0043
 5277SOL    HW127467   1.238   2.918   9.132  0.0564 -0.1688 -0.9478
 5277SOL    HW227468   1.286   2.808   9.220  2.4801 -0.5392 -0.7329
 5278SOL     OW27469   2.721   0.744   2.441  0.6083  0.8761  0.2835
 5278SOL    HW127470   2.791   0.753   2.377  0.4219 -0.0890 -0.0490
 5278SOL    HW227471   2.709   0.649   2.444 -0.3050  1.0105  0.9322
 5279SOL     OW27472   0.823   1.068   0.918 -0.1908  0.5501  0.5508
 5279SOL    HW127473   0.820   1.059   1.013 -2.5511 -0.1513  0.3880
 5279SOL    HW227474   0.833   0.975   0.895  0.8126  1.2970 -2.0309
 5280SOL     OW27475   3.971   0.313  13.251 -0.7425 -0.3758 -0.1924
 5280SOL    HW127476   4.032   0.373  13.208 -0.4535  0.1503  0.9444
 5280SOL    HW227477   4.009   0.315  13.338  1.1138  2.2200 -1.0843
 5281SOL     OW27478   2.023   3.735   2.440 -0.3594  0.2040 -0.2781
 5281SOL    HW127479   2.057   3.654   2.401  0.5546  0.2675  0.3755
 5281SOL    HW227480   1.962   3.774   2.378  0.0500 -1.9101 -2.0015
 5282SOL     OW27481   2.889   2.483   6.841  0.2692 -0.5756  0.1968
 5282SOL    HW127482   2.822   2.453   6.780  1.1293 -0.9102 -0.5933
 5282SOL    HW227483   2.950   2.520   6.777 -1.6379 -0.7297 -1.7257
 5283SOL     OW27484   3.910   2.841   1.289 -0.1161 -0.0700  0.2227
 5283SOL    HW127485   3.973   2.884   1.231 -0.8742  1.7433  0.7432
 5283SOL    HW227486   3.967   2.806   1.357 -0.2919  0.2240  0.5213
 5284SOL     OW27487   2.234   3.253   1.411 -0.2780 -0.0185  0.3062
 5284SOL    HW127488   2.188   3.188   1.463 -0.4882  1.0834  1.4765
 5284SOL    HW227489   2.188   3.231   1.329 -0.7009  1.5462  0.1317
 5285SOL     OW27490   3.142   2.532   1.536 -0.0911  0.8742  0.4256
 5285SOL    HW127491   3.162   2.605   1.594  2.7346  1.3866 -1.2596
 5285SOL    HW227492   3.053   2.555   1.507  0.2875  2.2356  0.3964
 5286SOL     OW27493   2.400   2.067   7.588  0.1789 -0.2549 -0.1424
 5286SOL    HW127494   2.427   2.158   7.598 -2.6557  0.5478  0.2759
 5286SOL    HW227495   2.480   2.020   7.564  0.7785  0.8618 -0.3127
 5287SOL     OW27496   2.771   0.501   1.157  0.0424  0.2159 -0.1601
 5287SOL    HW127497   2.803   0.413   1.177  2.0617  0.9118 -0.4261
 5287SOL    HW227498   2.827   0.563   1.202 -0.6300  1.5649 -1.1798
 5288SOL     OW27499   3.155   4.462  13.586 -0.0345 -0.4553  0.1670
 5288SOL    HW127500   3.215   4.488  13.656  0.5367  0.2829 -0.6075
 5288SOL    HW227501   3.214   4.428  13.519  1.1128 -0.1060  0.9920
 5289SOL     OW27502   4.514   1.051   7.504  0.3033 -0.0203 -0.1820
 5289SOL    HW127503   4.572   1.080   7.433 -1.3663 -0.0792 -1.5825
 5289SOL    HW227504   4.580   1.004   7.554 -1.6836 -0.5686  1.9574
 5290SOL     OW27505   0.128   0.228   8.330  0.2195 -0.0279 -0.5701
 5290SOL    HW127506   0.034   0.220   8.348  0.7088 -2.0955  1.0702
 5290SOL    HW227507   0.161   0.147   8.369 -0.1295  0.4562  0.7443
 5291SOL     OW27508   3.198   1.811  14.877 -0.4538 -0.0401 -0.1090
 5291SOL    HW127509   3.276   1.866  14.877 -0.8231  0.4690 -1.5845
 5291SOL    HW227510   3.211   1.741  14.941  1.1897  0.7732  0.4466
 5292SOL     OW27511   0.992   0.040  17.258 -0.4024 -0.6839 -0.3111
 5292SOL    HW127512   1.028   0.054  17.170 -0.3848 -0.4883 -0.2729
 5292SOL    HW227513   1.057   0.088  17.309  0.4088  0.0948 -2.0908
 5293SOL     OW27514   1.852   2.390   5.288 -0.3566  0.3254 -0.7376
 5293SOL    HW127515   1.917   2.337   5.241 -0.2315  0.5436 -0.8082
 5293SOL    HW227516   1.784   2.389   5.220 -0.7631 -0.5369 -0.3263
 5294SOL     OW27517   4.214   2.944  11.232 -0.8167 -0.1397 -0.3205
 5294SOL    HW127518   4.296   2.975  11.194  0.0773 -2.3178 -0.1217
 5294SOL    HW227519   4.198   3.009  11.301 -1.4647  1.3021 -1.8019
 5295SOL     OW27520   0.349   2.104   2.082  0.5630  0.1679 -0.3130
 5295SOL    HW127521   0.325   2.167   2.150  2.5413 -0.5295  1.0319
 5295SOL    HW227522   0.433   2.066   2.107  0.4647 -0.6298 -1.2197
 5296SOL     OW27523   4.683   1.798   2.910  0.8246  0.7532  0.4337
 5296SOL    HW127524   4.592   1.789   2.938  1.0245  2.6364  1.7000
 5296SOL    HW227525   4.684   1.889   2.880  1.3006  1.5858  3.0480
 5297SOL     OW27526   2.216   0.948   9.118 -0.1726 -0.0518  0.2529
 5297SOL    HW127527   2.215   1.042   9.136  0.0011 -0.0143  0.0709
 5297SOL    HW227528   2.155   0.928   9.189  0.5239  0.2421  0.9256
 5298SOL     OW27529   0.249   2.245   7.568 -0.1079 -0.2238 -0.2090
 5298SOL    HW127530   0.296   2.164   7.550 -2.6930 -2.0411  1.3985
 5298SOL    HW227531   0.226   2.227   7.659  1.6885 -0.6081  0.1742
 5299SOL     OW27532   1.433   1.141   2.988 -0.1649  0.4029  0.3124
 5299SOL    HW127533   1.350   1.105   2.956 -0.7528  0.7883  1.4288
 5299SOL    HW227534   1.421   1.236   2.993 -0.5137  0.3466  0.5230
 5300SOL     OW27535   4.070   4.180   5.094 -0.1449  0.4307 -0.2612
 5300SOL    HW127536   4.143   4.119   5.081 -0.0829  0.1188  1.5513
 5300SOL    HW227537   3.997   4.125   5.065 -1.5833  0.8232  2.6069
 5301SOL     OW27538   0.460   3.777  11.569 -0.4773  0.0000  0.2827
 5301SOL    HW127539   0.547   3.790  11.531  0.0494  2.7995  2.4582
 5301SOL    HW227540   0.490   3.776  11.660  2.3616  0.0233 -0.6325
 5302SOL     OW27541   2.219   2.773  14.309 -0.4293 -0.2471  0.2770
 5302SOL    HW127542   2.300   2.769  14.360 -1.0956  1.0640  1.4219
 5302SOL    HW227543   2.217   2.679  14.289  1.5353  0.0411 -1.2947
 5303SOL     OW27544   3.652   1.908  12.059  0.2964 -0.4386  0.0753
 5303SOL    HW127545   3.611   1.864  11.985  2.5631 -1.5669 -0.5250
 5303SOL    HW227546   3.678   1.989  12.014 -0.9652  0.1474  0.4038
 5304SOL     OW27547   0.485   3.073   6.560  0.1687  0.0617 -0.8833
 5304SOL    HW127548   0.474   3.137   6.490  2.5546 -0.1239 -1.4519
 5304SOL    HW227549   0.404   3.093   6.607  0.9622  2.1979 -0.4047
 5305SOL     OW27550   0.860   0.304   2.080  0.3402 -0.0067  0.0685
 5305SOL    HW127551   0.899   0.217   2.087  0.8433  0.4307  2.4567
 5305SOL    HW227552   0.827   0.292   1.991  1.0310  0.1636 -0.2126
 5306SOL     OW27553   0.687   3.402   6.454 -0.5052 -0.1643  0.0763
 5306SOL    HW127554   0.616   3.338   6.448 -0.3789 -0.5228  2.4617
 5306SOL    HW227555   0.755   3.353   6.500 -0.5069 -1.9219 -1.8170
 5307SOL     OW27556   2.037   0.726   0.496  0.4011 -0.1752  0.1457
 5307SOL    HW127557   1.982   0.666   0.445  1.5978 -0.9341 -0.2419
 5307SOL    HW227558   1.981   0.778   0.554 -2.1054 -1.8103 -0.8173
 5308SOL     OW27559   2.421   4.213   1.878  0.1949 -0.1296 -0.0783
 5308SOL    HW127560   2.496   4.208   1.819  0.5624 -3.7367  0.7047
 5308SOL    HW227561   2.458   4.258   1.954 -2.3704  0.3484  0.8824
 5309SOL     OW27562   4.354   3.481   7.137 -0.0933  0.6095  0.5431
 5309SOL    HW127563   4.289   3.425   7.095 -0.6391  0.2698  1.8276
 5309SOL    HW227564   4.308   3.495   7.220  1.9981  2.0791  1.4504
 5310SOL     OW27565   1.291   1.240  14.881  0.2519 -0.7374  0.2506
 5310SOL    HW127566   1.307   1.172  14.815 -0.3184  0.6540 -1.3049
 5310SOL    HW227567   1.196   1.233  14.883  0.1182  1.2957  0.3960
 5311SOL     OW27568   1.375   3.808  12.683  0.1719 -0.3213 -0.0888
 5311SOL    HW127569   1.357   3.804  12.589  0.4172 -1.0201 -0.1025
 5311SOL    HW227570   1.391   3.715  12.696  1.9598 -0.3589 -2.5763
 5312SOL     OW27571   4.021   0.596   6.075  0.2255 -0.1509 -0.0571
 5312SOL    HW127572   4.005   0.617   5.983  1.1459  0.1526 -0.1550
 5312SOL    HW227573   3.957   0.658   6.110 -0.3614 -0.4907 -0.5464
 5313SOL     OW27574   2.155   0.810   6.822 -0.3727  0.1281 -0.3087
 5313SOL    HW127575   2.085   0.802   6.757 -1.8626 -0.2666  1.3586
 5313SOL    HW227576   2.142   0.728   6.869  1.9703 -0.4181 -0.6246
 5314SOL     OW27577   2.842   2.138   2.726  0.0276  0.4698  0.2709
 5314SOL    HW127578   2.820   2.227   2.754  0.1818  0.7075 -0.3571
 5314SOL    HW227579   2.873   2.101   2.809 -0.0732  0.6070  0.3703
 5315SOL     OW27580   2.038   1.627   7.380  0.3881  0.2885  0.1051
 5315SOL    HW127581   2.075   1.661   7.298 -0.1972  0.4431 -0.0896
 5315SOL    HW227582   2.108   1.652   7.440  0.9442 -0.0902 -0.3814
 5316SOL     OW27583   0.692   1.128   0.414  0.9029  0.3743 -0.6279
 5316SOL    HW127584   0.656   1.040   0.402 -0.3767  0.8781 -0.5037
 5316SOL    HW227585   0.722   1.107   0.503  2.2037 -0.1844 -1.1935
 5317SOL     OW27586   2.791   1.587   9.898 -0.0356  0.0614  0.0904
 5317SOL    HW127587   2.858   1.564   9.834  0.6136 -0.0262  0.8029
 5317SOL    HW227588   2.817   1.677   9.916 -2.7013  1.0549 -0.9783
 5318SOL     OW27589   3.456   0.985   8.788  0.0774 -0.4354 -0.0302
 5318SOL    HW127590   3.378   1.008   8.839 -1.6283 -0.3902 -2.6688
 5318SOL    HW227591   3.489   0.924   8.853  1.9308  1.1679  0.5304
 5319SOL     OW27592   0.104   2.404   2.038 -0.9111  0.1613  0.1775
 5319SOL    HW127593   0.156   2.464   2.092 -0.3563 -1.5806  1.5803
 5319SOL    HW227594   0.053   2.365   2.108  0.6600 -1.3994  0.4548
 5320SOL     OW27595   3.996   3.960   4.378 -0.7841 -0.4865  0.0727
 5320SOL    HW127596   3.933   3.950   4.307  0.6286 -1.9906 -0.9663
 5320SOL    HW227597   4.078   3.972   4.330  0.0142  0.7296  1.7281
 5321SOL     OW27598   3.224   1.219   7.882 -0.1564  0.1659  0.2256
 5321SOL    HW127599   3.256   1.301   7.922  0.9341  0.7599 -1.8635
 5321SOL    HW227600   3.208   1.241   7.791 -0.5507 -3.5475 -0.5625
 5322SOL     OW27601   0.690   3.227   4.042 -1.3876 -0.2477 -0.3424
 5322SOL    HW127602   0.709   3.304   3.989 -0.2200 -1.2690 -1.4111
 5322SOL    HW227603   0.775   3.217   4.083 -1.4698  3.7231  0.7640
 5323SOL     OW27604   0.365   4.329  14.630  0.1882  0.1358 -0.4570
 5323SOL    HW127605   0.386   4.409  14.679 -0.2870 -0.3178  0.4911
 5323SOL    HW227606   0.275   4.317  14.661  0.5959 -0.8173  0.3767
 5324SOL     OW27607   0.495   0.117   7.429  0.6902  0.1090 -0.1948
 5324SOL    HW127608   0.546   0.195   7.408  1.1596 -0.4216 -0.9985
 5324SOL    HW227609   0.407   0.153   7.416  0.3181  0.3788  2.9689
 5325SOL     OW27610   3.376   4.595  12.468 -0.1463 -0.7176 -0.2144
 5325SOL    HW127611   3.384   4.591  12.564 -1.1520 -1.1238 -0.1551
 5325SOL    HW227612   3.395   4.689  12.460 -0.9236 -0.7284 -2.2315
 5326SOL     OW27613   4.254   3.097   2.840  0.6307 -0.0904 -0.6591
 5326SOL    HW127614   4.312   3.100   2.916  0.9198 -0.5471 -0.8603
 5326SOL    HW227615   4.178   3.051   2.875  0.8531 -0.3033 -0.4561
 5327SOL     OW27616   4.348   0.324   9.243 -0.5234  0.5939  0.1757
 5327SOL    HW127617   4.393   0.409   9.242  2.8001 -1.1773 -0.7164
 5327SOL    HW227618   4.277   0.340   9.305 -0.9272 -1.5249  0.2546
 5328SOL     OW27619   1.716   2.046   3.307 -0.4694 -0.4712  0.0697
 5328SOL    HW127620   1.679   1.958   3.303 -2.1989  0.1480  2.4118
 5328SOL    HW227621   1.697   2.080   3.220 -0.9331  0.4647  0.5368
 5329SOL     OW27622   1.767   4.478  13.513  0.1142 -0.0868  0.1982
 5329SOL    HW127623   1.820   4.513  13.441  1.4966 -1.7229  0.4138
 5329SOL    HW227624   1.814   4.396  13.529  0.6270  0.1920  0.1236
 5330SOL     OW27625   0.866   1.802   2.339 -0.2019 -0.1456  0.5963
 5330SOL    HW127626   0.925   1.773   2.408  0.6698 -1.1204 -0.5681
 5330SOL    HW227627   0.928   1.827   2.271 -0.3802 -2.4549 -0.3918
 5331SOL     OW27628   3.194   3.247   8.447 -0.3556 -0.3681 -0.1163
 5331SOL    HW127629   3.238   3.302   8.382  0.0440  1.7307  1.9277
 5331SOL    HW227630   3.186   3.165   8.399 -0.5891 -1.4810  1.8292
 5332SOL     OW27631   2.153   4.737   0.693  0.4048  0.3329 -0.4116
 5332SOL    HW127632   2.097   0.057   0.643  0.7830 -0.0298 -1.2781
 5332SOL    HW227633   2.098   4.700   0.762 -0.8395  2.6117 -0.2151
 5333SOL     OW27634   4.564   4.237   6.506 -0.0990  0.1231  0.1662
 5333SOL    HW127635   4.628   4.233   6.435 -0.2722 -1.3266  0.0990
 5333SOL    HW227636   4.499   4.169   6.492  1.2988 -1.2698  0.4915
 5334SOL     OW27637   4.721   1.608   3.764 -0.7342 -0.1262 -0.0934
 5334SOL    HW127638   4.695   1.689   3.720  2.2541  0.9911  0.1980
 5334SOL    HW227639   4.637   1.562   3.761 -0.2967 -0.8144 -2.1096
 5335SOL     OW27640   3.108   3.449   2.841  0.5055  0.0278  0.1483
 5335SOL    HW127641   3.025   3.493   2.860  0.8107  0.4272  0.5789
 5335SOL    HW227642   3.140   3.508   2.774  2.3641 -0.5458  0.5403
 5336SOL     OW27643   0.543   4.394  10.410  0.3304 -0.0334  0.5254
 5336SOL    HW127644   0.454   4.422  10.388  0.6302  0.6221  0.1533
 5336SOL    HW227645   0.531   4.301  10.432 -0.6693  0.0972  0.5663
 5337SOL     OW27646   2.165   4.275   6.506 -0.3174 -0.4443  0.0722
 5337SOL    HW127647   2.193   4.317   6.587 -1.0567  1.0827 -0.4678
 5337SOL    HW227648   2.151   4.344   6.441  0.5585  0.3089  0.6706
 5338SOL     OW27649   3.069   0.743   9.579 -0.5308 -0.1302 -0.2805
 5338SOL    HW127650   3.124   0.665   9.582  2.9981  2.3850  1.3492
 5338SOL    HW227651   2.981   0.726   9.615 -0.9899  0.7203 -1.0124
 5339SOL     OW27652   1.685   1.102   1.988 -0.1867  0.2168  0.0800
 5339SOL    HW127653   1.731   1.098   2.072  1.5496 -1.7287 -0.9437
 5339SOL    HW227654   1.602   1.058   2.008 -1.5035  1.6925 -2.1394
 5340SOL     OW27655   0.107   3.648  11.283  0.1590 -0.8253  0.4122
 5340SOL    HW127656   0.179   3.590  11.308  0.3075 -0.4979  0.7425
 5340SOL    HW227657   0.072   3.587  11.218 -2.4380 -0.7406  1.7233
 5341SOL     OW27658   3.704   1.824  14.097  0.0636  0.5827 -0.6769
 5341SOL    HW127659   3.791   1.799  14.066 -0.3839 -0.6003 -0.9936
 5341SOL    HW227660   3.687   1.768  14.173 -1.5141  0.3890 -1.1810
 5342SOL     OW27661   2.347   1.060   2.428  0.3971 -0.0903  0.1099
 5342SOL    HW127662   2.418   1.085   2.487  0.9892 -2.8780  0.5632
 5342SOL    HW227663   2.388   0.995   2.372 -2.0594 -0.1014 -1.6574
 5343SOL     OW27664   3.331   1.871  10.978 -0.1628 -0.0409  0.6067
 5343SOL    HW127665   3.379   1.953  10.983  1.7651 -1.1012 -0.6325
 5343SOL    HW227666   3.390   1.813  11.025 -0.5745 -1.3691 -0.5153
 5344SOL     OW27667   2.972   2.339   2.207  0.5972  0.0023 -0.0032
 5344SOL    HW127668   2.908   2.271   2.186  1.8707 -0.4938 -2.1771
 5344SOL    HW227669   2.978   2.333   2.303 -4.3262 -1.4717  0.2283
 5345SOL     OW27670   0.355   2.532   3.323 -0.1715 -0.2472 -0.1438
 5345SOL    HW127671   0.294   2.606   3.324  0.1976  0.0844 -1.5838
 5345SOL    HW227672   0.293   2.459   3.329  0.0108 -0.2619  1.3487
 5346SOL     OW27673   2.074   4.288   5.243 -0.0142 -0.2772  0.5151
 5346SOL    HW127674   2.129   4.294   5.320 -0.8039  1.3601  0.9524
 5346SOL    HW227675   1.997   4.340   5.268  0.3900  1.6586 -2.2914
 5347SOL     OW27676   4.279   2.237  16.818  0.0237  0.5753  0.2074
 5347SOL    HW127677   4.253   2.281  16.738 -1.0365 -0.0581  0.2100
 5347SOL    HW227678   4.309   2.314  16.867 -0.8344  1.3917 -0.5503
 5348SOL     OW27679   3.946   0.064   6.214 -0.2203  0.2423  0.1486
 5348SOL    HW127680   3.906   4.727   6.174 -0.1318  0.5922 -0.6160
 5348SOL    HW227681   3.937   0.037   6.305  1.1755 -1.6904 -0.2984
 5349SOL     OW27682   3.694   2.291   9.490 -0.2223 -0.1848  0.3005
 5349SOL    HW127683   3.726   2.251   9.409  1.4529  1.8612 -0.0231
 5349SOL    HW227684   3.758   2.361   9.498  0.7469 -1.1153  0.5963
 5350SOL     OW27685   1.310   2.304   5.075  0.0880  0.3204  0.4362
 5350SOL    HW127686   1.349   2.295   4.988  0.9497  1.5492  0.6965
 5350SOL    HW227687   1.271   2.392   5.071 -0.2484  0.1276 -0.6584
 5351SOL     OW27688   1.077   3.260   3.903  0.8115  0.0996  0.9799
 5351SOL    HW127689   1.068   3.351   3.875  0.4091 -0.6014 -1.1512
 5351SOL    HW227690   1.172   3.259   3.894  0.7317  1.0805  0.0561
 5352SOL     OW27691   1.309   4.668   3.180  0.1295 -0.2542  0.6343
 5352SOL    HW127692   1.250   4.596   3.202 -1.9182  1.8187  1.9165
 5352SOL    HW227693   1.285   4.673   3.087 -1.7462  0.2813  1.1407
 5353SOL     OW27694   2.919   1.769   1.719 -0.3433 -0.5920  0.3162
 5353SOL    HW127695   2.981   1.718   1.770  1.5708 -0.8579 -2.2790
 5353SOL    HW227696   2.856   1.704   1.688  0.5048 -1.6191  0.7791
 5354SOL     OW27697   0.099   2.218   6.857 -0.0228  0.1421  0.4545
 5354SOL    HW127698   0.037   2.209   6.929 -0.1581 -0.1768  0.2988
 5354SOL    HW227699   0.058   2.283   6.800  1.7707  0.7898 -0.0699
 5355SOL     OW27700   0.630   1.348   5.967  0.5274  0.3350 -0.5813
 5355SOL    HW127701   0.547   1.304   5.985  1.2090 -0.4748  0.5964
 5355SOL    HW227702   0.642   1.405   6.043 -0.9205 -0.3599  0.1672
 5356SOL     OW27703   0.528   3.433   6.722  0.1864  0.8184  0.5241
 5356SOL    HW127704   0.434   3.420   6.709  0.2578 -0.1646  0.9667
 5356SOL    HW227705   0.564   3.465   6.639  1.0533  2.6756  1.6274
 5357SOL     OW27706   4.071   2.792   1.877  0.2049  0.2614 -0.4101
 5357SOL    HW127707   4.078   2.862   1.942 -2.3293 -2.1304  2.4457
 5357SOL    HW227708   4.160   2.798   1.843 -0.0632  3.1976 -0.5960
 5358SOL     OW27709   4.044   3.293   2.858 -0.6483  0.3579  0.4638
 5358SOL    HW127710   4.131   3.255   2.847 -0.8080  0.6617 -1.7612
 5358SOL    HW227711   3.992   3.254   2.788 -0.8206  2.0037 -0.3235
 5359SOL     OW27712   4.631   0.311  14.436 -0.0695  0.6875 -0.4739
 5359SOL    HW127713   4.666   0.370  14.502  2.3957 -0.9016 -0.3596
 5359SOL    HW227714   4.709   0.301  14.381 -0.5649  0.5968 -1.1647
 5360SOL     OW27715   0.441   1.385  14.477 -0.3126 -0.5427 -0.3378
 5360SOL    HW127716   0.351   1.377  14.447 -1.0275 -1.9832  2.2128
 5360SOL    HW227717   0.460   1.473  14.444  0.5694  0.0204  1.6865
 5361SOL     OW27718   0.232   2.337   8.144 -0.3213  0.1696  0.0214
 5361SOL    HW127719   0.213   2.275   8.215 -0.0132  0.5205  0.4104
 5361SOL    HW227720   0.311   2.292   8.114 -1.0025 -1.0334  0.0347
 5362SOL     OW27721   0.229   1.729   3.551 -0.6079 -0.1021 -0.2694
 5362SOL    HW127722   0.294   1.659   3.559  0.3318  0.9991  1.6572
 5362SOL    HW227723   0.292   1.801   3.554 -0.6185 -0.2319  2.6840
 5363SOL     OW27724   3.799   4.232   9.271  0.4179  0.2546 -0.0275
 5363SOL    HW127725   3.852   4.153   9.262  1.9764  1.2279  0.7342
 5363SOL    HW227726   3.721   4.207   9.221  0.9964  0.9929 -1.2872
 5364SOL     OW27727   2.802   4.582  13.514  0.1426 -0.2720  0.0194
 5364SOL    HW127728   2.885   4.590  13.468 -0.6914  1.7210 -1.1199
 5364SOL    HW227729   2.757   4.638  13.450  1.1415  2.2199  1.5106
 5365SOL     OW27730   3.634   4.474   1.230 -0.2053 -0.1325  0.3678
 5365SOL    HW127731   3.560   4.477   1.291  0.0588  0.4828  0.6595
 5365SOL    HW227732   3.656   4.567   1.233 -1.5601  0.2411 -1.1327
 5366SOL     OW27733   1.017   4.067   1.616  0.0622 -0.0273 -0.3510
 5366SOL    HW127734   0.973   4.005   1.673 -0.2688  2.7894  2.4567
 5366SOL    HW227735   1.103   4.066   1.657 -1.2888  0.2461  2.4413
 5367SOL     OW27736   4.454   3.740   2.682  0.5569  0.7778  0.1958
 5367SOL    HW127737   4.546   3.768   2.680  0.4862  1.0133  0.3046
 5367SOL    HW227738   4.420   3.787   2.606  0.1213 -0.6301 -0.4757
 5368SOL     OW27739   4.144   2.636   2.261 -0.9487 -0.3203 -0.2403
 5368SOL    HW127740   4.113   2.687   2.335  1.5398  0.3506  0.3247
 5368SOL    HW227741   4.065   2.583   2.248 -0.3747 -1.1929 -0.2433
 5369SOL     OW27742   0.194   1.222   1.871  0.0577  0.4206 -0.8352
 5369SOL    HW127743   0.170   1.211   1.780  0.2828  0.4771 -0.9025
 5369SOL    HW227744   0.136   1.162   1.918  1.0510  0.5441  0.5541
 5370SOL     OW27745   1.263   0.761   7.513  0.1309 -0.6645 -0.2702
 5370SOL    HW127746   1.313   0.783   7.435  0.3589 -0.6775 -0.1283
 5370SOL    HW227747   1.219   0.841   7.541  0.8923  0.3656 -2.0431
 5371SOL     OW27748   3.758   0.641   9.957 -0.1857 -0.6155 -0.3548
 5371SOL    HW127749   3.832   0.670  10.011  2.2443 -3.7062 -2.0055
 5371SOL    HW227750   3.679   0.652  10.009 -1.0162 -3.1147 -1.0759
 5372SOL     OW27751   0.496   4.266   3.452  0.2361  0.2225  0.0878
 5372SOL    HW127752   0.565   4.268   3.519  0.4459 -2.1300 -0.0707
 5372SOL    HW227753   0.467   4.358   3.454  1.0352  0.5041 -2.1810
 5373SOL     OW27754   2.575   2.564   8.496  0.1955  0.4056  0.3269
 5373SOL    HW127755   2.483   2.561   8.471 -0.0856 -0.3144  1.4843
 5373SOL    HW227756   2.612   2.492   8.445 -0.0281 -0.3996  1.3128
 5374SOL     OW27757   0.538   1.824  14.571  0.3375  0.2656 -0.1105
 5374SOL    HW127758   0.555   1.847  14.663 -0.6011  0.4369  0.0215
 5374SOL    HW227759   0.595   1.889  14.530 -0.0033 -0.0880 -1.1254
 5375SOL     OW27760   0.922   2.299  13.149 -0.0324 -0.1498  0.0517
 5375SOL    HW127761   0.831   2.271  13.158  0.1289 -0.5409  0.4485
 5375SOL    HW227762   0.946   2.310  13.241 -0.9692 -2.0520  0.5251
 5376SOL     OW27763   0.058   2.527   6.415  0.2034 -0.0030  0.3295
 5376SOL    HW127764   0.152   2.532   6.434  0.4852 -1.2256 -0.6904
 5376SOL    HW227765   0.050   2.554   6.324 -1.0228  1.0255  0.7405
 5377SOL     OW27766   0.215   0.477   7.058 -0.5191  0.2282 -0.4884
 5377SOL    HW127767   0.148   0.521   7.007 -1.1095 -0.9200 -0.7007
 5377SOL    HW227768   0.279   0.459   6.989  1.5704  1.2434  1.1597
 5378SOL     OW27769   0.152   1.204   0.297  0.0006 -0.2610  0.4536
 5378SOL    HW127770   0.087   1.178   0.362 -0.8596  0.6438 -0.0480
 5378SOL    HW227771   0.233   1.200   0.347 -0.8023 -1.3241  1.6810
 5379SOL     OW27772   2.656   1.092   2.345  0.2752 -0.0033 -0.4762
 5379SOL    HW127773   2.639   0.998   2.352 -2.4311  0.4948 -0.2564
 5379SOL    HW227774   2.632   1.105   2.253  0.9925 -0.1963 -0.6942
 5380SOL     OW27775   0.885   3.891   5.154  0.3157  0.3235 -0.1135
 5380SOL    HW127776   0.793   3.884   5.130  0.5526  0.6453 -1.1065
 5380SOL    HW227777   0.937   3.898   5.074 -1.7833 -1.8318 -1.6709
 5381SOL     OW27778   4.563   2.357  13.264 -0.2823  0.5344  0.2368
 5381SOL    HW127779   4.577   2.294  13.193  2.3987  0.9683  0.3612
 5381SOL    HW227780   4.651   2.392  13.277  0.9702 -1.6581 -2.3885
 5382SOL     OW27781   3.609   0.130  13.481 -0.3042 -0.4826  0.1640
 5382SOL    HW127782   3.654   0.048  13.501 -2.3271 -1.2811  1.4344
 5382SOL    HW227783   3.664   0.153  13.407 -1.2850 -2.9458 -1.3251
 5383SOL     OW27784   2.878   4.410   6.230  0.0004  0.0884  0.3516
 5383SOL    HW127785   2.940   4.395   6.159  0.9617 -1.2229  1.4737
 5383SOL    HW227786   2.925   4.371   6.304  1.4174  2.5830  0.7943
 5384SOL     OW27787   1.889   2.197   6.269  0.2850 -0.0667  0.4656
 5384SOL    HW127788   1.851   2.109   6.263  1.1274 -0.5273  1.7441
 5384SOL    HW227789   1.907   2.200   6.363 -0.3603  0.0332  0.5870
 5385SOL     OW27790   3.699   1.002   6.321  0.2431 -0.2326 -0.0705
 5385SOL    HW127791   3.621   1.025   6.271  0.2526  1.4617  0.6931
 5385SOL    HW227792   3.755   1.079   6.323  0.0860 -0.1378  0.9084
 5386SOL     OW27793   0.892   3.372   6.201 -0.1736 -0.6185 -0.2925
 5386SOL    HW127794   0.874   3.283   6.230  1.1461 -1.4929 -2.1974
 5386SOL    HW227795   0.988   3.380   6.207 -0.0032 -1.1625 -2.3277
 5387SOL     OW27796   4.416   3.929  14.034 -0.0983  0.0209 -0.4482
 5387SOL    HW127797   4.341   3.896  14.083 -0.6326  0.8170 -0.7231
 5387SOL    HW227798   4.489   3.890  14.082 -2.2007 -0.0082  2.7493
 5388SOL     OW27799   0.661   1.021   3.892  0.2733 -0.0301  0.3513
 5388SOL    HW127800   0.665   0.938   3.939 -1.6835  1.0871  2.4737
 5388SOL    HW227801   0.754   1.045   3.894  0.0248  0.8948  0.6299
 5389SOL     OW27802   3.489   2.447  16.050  0.3022  1.0147 -0.1612
 5389SOL    HW127803   3.410   2.502  16.051 -0.2262  0.2888 -1.9413
 5389SOL    HW227804   3.472   2.385  15.979 -0.1709  1.5939 -0.5586
 5390SOL     OW27805   2.453   4.716  12.476 -0.5240 -0.1549 -0.2560
 5390SOL    HW127806   2.372   4.678  12.510 -1.0026 -0.2849 -1.5413
 5390SOL    HW227807   2.414   0.037  12.413 -0.6580  0.8522  0.7785
 5391SOL     OW27808   2.979   2.905   2.534 -0.1650  0.8934  0.3450
 5391SOL    HW127809   2.967   2.833   2.597 -0.3859 -0.2397 -0.9734
 5391SOL    HW227810   3.040   2.954   2.589 -0.5792  1.5598  0.2011
 5392SOL     OW27811   0.163   2.951   1.312 -0.1335 -0.4258 -0.3163
 5392SOL    HW127812   0.118   2.869   1.291 -0.5541 -0.0328 -0.9446
 5392SOL    HW227813   0.240   2.929   1.258 -0.0138 -1.4126  0.2378
 5393SOL     OW27814   2.830   1.766  11.871  0.4424 -0.0303 -0.5493
 5393SOL    HW127815   2.919   1.800  11.858  0.3499  0.9366  1.3193
 5393SOL    HW227816   2.826   1.710  11.793  0.7396 -0.6103 -0.1466
 5394SOL     OW27817   2.550   4.299   7.159 -0.2691 -0.0922  0.4741
 5394SOL    HW127818   2.633   4.305   7.112  1.3398 -1.1477  3.1727
 5394SOL    HW227819   2.489   4.251   7.103 -1.8402  0.7472  1.4473
 5395SOL     OW27820   0.131   2.432  10.274 -0.1849 -0.5580 -0.2194
 5395SOL    HW127821   0.153   2.446  10.366 -0.1369 -0.1556 -0.2916
 5395SOL    HW227822   0.140   2.337  10.262  1.4348 -0.3124 -0.8630
 5396SOL     OW27823   4.529   0.663   1.553  0.1875  0.0830  0.0658
 5396SOL    HW127824   4.561   0.686   1.640 -1.8636  0.7730  0.6356
 5396SOL    HW227825   4.602   0.704   1.508  1.2864 -1.4816  0.4191
 5397SOL     OW27826   4.140   3.879  16.318 -0.2125 -0.4751  0.0621
 5397SOL    HW127827   4.128   3.812  16.386 -0.8215 -0.5052 -0.0823
 5397SOL    HW227828   4.191   3.932  16.380  0.8896 -0.6856 -0.6517
 5398SOL     OW27829   2.661   0.193  11.183 -0.5520  0.0930  0.6083
 5398SOL    HW127830   2.575   0.184  11.143 -1.0014  1.3702  1.2976
 5398SOL    HW227831   2.709   0.125  11.136  1.2235  1.5275  0.3255
 5399SOL     OW27832   3.517   2.639  16.997  0.5147  0.0317  0.5685
 5399SOL    HW127833   3.425   2.663  16.997  0.7228  0.8112 -3.6198
 5399SOL    HW227834   3.519   2.596  17.083 -0.4252  2.3432  1.7210
 5400SOL     OW27835   4.057   2.984   5.921  0.4255 -0.0692 -0.4008
 5400SOL    HW127836   4.034   2.982   6.014  2.9454 -0.9531  0.1872
 5400SOL    HW227837   3.995   3.050   5.890 -1.5745 -2.0322 -0.6251
 5401SOL     OW27838   4.703   1.938  17.583 -0.6195 -0.3406 -0.0205
 5401SOL    HW127839   4.705   1.862  17.642 -2.8400 -0.8637 -0.5973
 5401SOL    HW227840   4.608   1.950  17.584 -0.3679  1.5152  1.2293
 5402SOL     OW27841   4.050   1.343   6.925 -0.4524 -0.0814  0.6545
 5402SOL    HW127842   4.062   1.437   6.942 -0.5123 -0.2407  1.5474
 5402SOL    HW227843   4.029   1.307   7.011 -1.2022  0.1181  0.5550
 5403SOL     OW27844   2.193   1.206   9.258 -0.2290 -0.1539  0.0889
 5403SOL    HW127845   2.126   1.222   9.324 -0.6585 -1.7217  0.0288
 5403SOL    HW227846   2.150   1.246   9.183 -1.1677 -1.0404  0.1586
 5404SOL     OW27847   3.618   4.453   6.633 -0.0132 -0.0229  0.3223
 5404SOL    HW127848   3.702   4.436   6.590 -0.6377 -1.3178 -0.3750
 5404SOL    HW227849   3.648   4.485   6.718 -2.4451 -1.4451  1.6967
 5405SOL     OW27850   0.263   2.463   4.552 -0.6295 -0.1535  0.4740
 5405SOL    HW127851   0.196   2.395   4.555 -1.5519  0.8841  3.0998
 5405SOL    HW227852   0.260   2.494   4.461 -1.8060  0.9707  0.9050
 5406SOL     OW27853   2.511   2.702   6.688 -0.4318 -0.0922  0.0916
 5406SOL    HW127854   2.485   2.646   6.615  0.3126  0.3088 -0.4813
 5406SOL    HW227855   2.427   2.695   6.733  0.2005 -3.2547  0.7887
 5407SOL     OW27856   0.913   4.493   8.495 -0.8488  0.0606  0.4609
 5407SOL    HW127857   0.994   4.470   8.449 -1.0803  0.7119 -0.2742
 5407SOL    HW227858   0.894   4.568   8.439  0.7342 -0.6111 -1.0001
 5408SOL     OW27859   0.016   2.511   7.985  0.4298 -0.5045 -0.1226
 5408SOL    HW127860   0.050   2.592   7.946 -0.4181  0.0532  0.2922
 5408SOL    HW227861   0.092   2.492   8.039  1.0246  0.5754 -0.5756
 5409SOL     OW27862   2.600   2.020   3.296 -0.2172  0.2430  0.1175
 5409SOL    HW127863   2.594   2.091   3.232 -0.9759 -0.8116 -0.9974
 5409SOL    HW227864   2.586   1.938   3.249  0.1943 -1.2232  2.5786
 5410SOL     OW27865   4.250   1.026  10.098  0.2577 -0.1387  0.7265
 5410SOL    HW127866   4.248   1.101  10.158 -1.2585  1.6232 -1.5183
 5410SOL    HW227867   4.274   1.056  10.010  0.5590  1.2954  1.2969
 5411SOL     OW27868   3.718   3.387   2.117  0.1042 -0.5311  0.1449
 5411SOL    HW127869   3.717   3.326   2.044 -1.3659 -0.1351 -0.1727
 5411SOL    HW227870   3.811   3.406   2.126  0.0693 -0.4143  0.2574
 5412SOL     OW27871   1.569   4.680   6.290  0.2005 -0.7784  0.1030
 5412SOL    HW127872   1.651   4.701   6.334  1.0541 -1.5029 -1.1226
 5412SOL    HW227873   1.546   4.601   6.339  1.6964 -1.3069 -0.0596
 5413SOL     OW27874   1.375   0.302   2.133 -0.2584 -0.2090  0.3820
 5413SOL    HW127875   1.322   0.369   2.175 -0.5488  0.2870 -0.7866
 5413SOL    HW227876   1.325   0.220   2.139 -0.5277 -0.1189 -0.6302
 5414SOL     OW27877   4.484   0.860   5.888  0.3267  0.1571  0.0453
 5414SOL    HW127878   4.400   0.897   5.861  0.8243  2.1060  1.2019
 5414SOL    HW227879   4.450   0.781   5.931 -1.7645  0.1055 -1.6883
 5415SOL     OW27880   3.675   0.950   5.663 -0.5341  0.0357  0.2013
 5415SOL    HW127881   3.766   0.964   5.686  0.1626 -3.5053 -0.4492
 5415SOL    HW227882   3.677   0.997   5.580 -1.6079 -0.1669  0.0540
 5416SOL     OW27883   3.506   4.660   9.179 -0.0043 -1.1269  0.1861
 5416SOL    HW127884   3.461   4.668   9.263  1.3008  1.7207  0.6121
 5416SOL    HW227885   3.477   4.576   9.145  0.9028 -1.2991 -0.1719
 5417SOL     OW27886   4.237   4.162   6.812 -0.0037 -0.3407 -0.2249
 5417SOL    HW127887   4.180   4.090   6.784  0.9799 -1.4995  0.7269
 5417SOL    HW227888   4.197   4.236   6.766  0.2875 -0.6156 -0.9350
 5418SOL     OW27889   1.351   2.952   1.968 -0.0493  0.2732  0.4182
 5418SOL    HW127890   1.403   2.884   1.927  0.7431  1.3203 -0.3246
 5418SOL    HW227891   1.268   2.954   1.920  1.0905  1.2122 -1.4961
 5419SOL     OW27892   0.689   1.912   4.329 -0.2441  0.2158  0.0345
 5419SOL    HW127893   0.658   1.883   4.415  1.0515  0.9950  0.7585
 5419SOL    HW227894   0.639   1.859   4.268 -1.8502  1.9075 -0.1389
 5420SOL     OW27895   1.566   1.029   6.581  0.4509  0.2336 -0.0849
 5420SOL    HW127896   1.556   0.953   6.639  2.1800  0.7117  0.8379
 5420SOL    HW227897   1.660   1.018   6.565  0.2445  1.5413 -2.1692
 5421SOL     OW27898   3.521   0.522  15.885  0.4755  0.0483  0.2615
 5421SOL    HW127899   3.477   0.452  15.838 -0.2199  1.0656 -0.5992
 5421SOL    HW227900   3.602   0.526  15.834 -0.2425 -2.0378 -1.0371
 5422SOL     OW27901   2.343   4.322   5.804  0.0743 -0.2617 -0.0090
 5422SOL    HW127902   2.405   4.360   5.741  0.9808  0.8620  1.5426
 5422SOL    HW227903   2.348   4.227   5.796  1.0393 -0.4301  2.4924
 5423SOL     OW27904   1.572   3.722   5.516  0.0857  0.5475 -0.4051
 5423SOL    HW127905   1.508   3.743   5.448 -2.5317  0.6256  2.0755
 5423SOL    HW227906   1.653   3.754   5.477  1.5898 -0.4974  1.8613
 5424SOL     OW27907   0.095   2.173   8.431 -0.3186  0.4557  0.7554
 5424SOL    HW127908   0.058   2.101   8.380 -0.2678  1.1889 -0.3269
 5424SOL    HW227909   0.186   2.160   8.404 -1.2388 -0.7284 -1.7605
 5425SOL     OW27910   2.278   1.527   5.761  0.3775  0.0787  0.2797
 5425SOL    HW127911   2.310   1.598   5.705  1.0337 -1.1151 -0.8756
 5425SOL    HW227912   2.183   1.531   5.752  0.4763  1.0696 -0.3234
 5426SOL     OW27913   4.547   3.962   2.456  0.2699  0.1950  1.0258
 5426SOL    HW127914   4.541   3.926   2.368 -2.2022  1.2204  0.7761
 5426SOL    HW227915   4.637   3.938   2.477  0.4151 -1.0982 -1.0532
 5427SOL     OW27916   0.639   2.864  15.372 -0.0658 -0.2578  0.0950
 5427SOL    HW127917   0.583   2.923  15.323  1.3075  1.6706  0.8557
 5427SOL    HW227918   0.661   2.915  15.450  0.4547 -2.5243  1.4228
 5428SOL     OW27919   2.189   2.224   1.900 -0.4873  0.0404 -0.2627
 5428SOL    HW127920   2.131   2.153   1.929 -1.5858  1.3484  0.7719
 5428SOL    HW227921   2.162   2.253   1.813 -2.1135  0.2809  0.3192
 5429SOL     OW27922   3.192   2.479   4.786 -0.1468  0.3178  0.5291
 5429SOL    HW127923   3.286   2.462   4.786 -0.3619 -0.9069  1.3159
 5429SOL    HW227924   3.161   2.408   4.728  2.3541 -0.2955 -0.0620
 5430SOL     OW27925   3.047   4.045   8.169 -0.2506 -0.5234 -1.2345
 5430SOL    HW127926   3.076   4.042   8.260  1.9277  0.7431 -1.8691
 5430SOL    HW227927   3.085   4.130   8.145  0.6305 -0.6350 -0.2547
 5431SOL     OW27928   3.163   0.945   7.703  0.0801  0.4397 -0.1671
 5431SOL    HW127929   3.131   0.952   7.792  0.3377  1.5389 -0.1576
 5431SOL    HW227930   3.105   1.004   7.654 -0.3623  1.1565  1.2300
 5432SOL     OW27931   1.608   3.173   4.868  0.0933 -0.6132  0.2519
 5432SOL    HW127932   1.579   3.196   4.956  0.5448  0.7752  0.0346
 5432SOL    HW227933   1.597   3.078   4.868  0.4953 -0.6486  2.9226
 5433SOL     OW27934   4.667   2.078  13.112  0.2748  0.1932 -0.1670
 5433SOL    HW127935   4.629   2.012  13.170 -0.0449 -0.0773 -0.6761
 5433SOL    HW227936   4.592   2.110  13.061  0.3333  1.8076  0.7512
 5434SOL     OW27937   3.623   4.121   6.481  1.0684 -0.0427  0.5368
 5434SOL    HW127938   3.711   4.112   6.517  0.7784 -0.7876  1.0382
 5434SOL    HW227939   3.647   4.147   6.391 -0.3382 -1.6021 -0.2749
 5435SOL     OW27940   1.368   0.126   5.163 -0.5275 -0.5990  0.1407
 5435SOL    HW127941   1.448   0.145   5.211  0.0943  0.8090 -1.4729
 5435SOL    HW227942   1.388   0.035   5.138  0.3209 -0.6655  1.0660
 5436SOL     OW27943   2.367   0.764  15.860  0.5587  0.5179 -0.0014
 5436SOL    HW127944   2.429   0.793  15.926  0.3110  0.1040  0.4094
 5436SOL    HW227945   2.420   0.761  15.781  0.3188  1.5017 -0.2071
 5437SOL     OW27946   2.046   1.107   8.041  0.0752 -0.3993 -0.3089
 5437SOL    HW127947   1.972   1.046   8.046  0.3036 -0.4226  2.8911
 5437SOL    HW227948   2.050   1.150   8.126  2.3408 -0.1083 -0.5629
 5438SOL     OW27949   2.635   4.262   6.463  0.9351 -0.1980  0.1545
 5438SOL    HW127950   2.628   4.296   6.374 -1.8809  0.8618  0.7692
 5438SOL    HW227951   2.552   4.215   6.470  1.4873 -1.1553  0.1216
 5439SOL     OW27952   0.968   0.707  11.405 -0.4600 -0.1647 -0.2805
 5439SOL    HW127953   0.936   0.753  11.328  1.4564  0.3233 -0.7694
 5439SOL    HW227954   1.017   0.644  11.352 -3.4040 -2.0135 -0.8198
 5440SOL     OW27955   3.816   1.325   5.384 -0.1286  0.2820  0.2973
 5440SOL    HW127956   3.816   1.399   5.323 -0.1328 -0.1652 -0.2387
 5440SOL    HW227957   3.905   1.290   5.389 -0.0481  0.2048 -2.0346
 5441SOL     OW27958   3.118   4.436   4.168 -0.0372  0.2254  0.3951
 5441SOL    HW127959   3.120   4.525   4.132  2.6223  1.7847  4.4351
 5441SOL    HW227960   3.206   4.424   4.131 -0.5454  1.2108 -1.1480
 5442SOL     OW27961   4.613   0.948   6.933  0.4894  0.3642 -0.3196
 5442SOL    HW127962   4.553   1.023   6.933 -0.4565 -0.3831  2.0395
 5442SOL    HW227963   4.694   0.981   6.973 -1.1935  1.1685  2.3939
 5443SOL     OW27964   4.545   0.545   6.175 -1.0423  0.1819 -0.1095
 5443SOL    HW127965   4.611   0.598   6.130  1.1870 -2.4199  0.0998
 5443SOL    HW227966   4.461   0.560   6.133 -0.7478  0.1711 -0.6983
 5444SOL     OW27967   1.218   0.517   5.753  0.3726  0.0589  0.0460
 5444SOL    HW127968   1.275   0.446   5.782  1.7133 -0.7435 -4.5383
 5444SOL    HW227969   1.158   0.511   5.827 -0.0170 -1.8443 -0.4369
 5445SOL     OW27970   1.622   0.771   7.979  0.6987 -0.1898 -0.0049
 5445SOL    HW127971   1.534   0.757   7.946  0.2195  0.9053  0.8009
 5445SOL    HW227972   1.637   0.722   8.060 -1.0643  0.0812  0.4783
 5446SOL     OW27973   1.767   0.664   5.975  0.0046  0.0802  0.3418
 5446SOL    HW127974   1.792   0.636   6.063  0.1871 -2.5041 -0.5518
 5446SOL    HW227975   1.673   0.682   5.973  0.0067  0.0586  0.1155
 5447SOL     OW27976   0.385   4.732   3.225  0.2663 -0.0730  0.4197
 5447SOL    HW127977   0.435   0.073   3.233 -1.2259  0.7692  1.1595
 5447SOL    HW227978   0.367   4.731   3.131 -1.7184  2.4292  0.7880
 5448SOL     OW27979   4.419   1.269   9.027 -0.4986 -0.1863 -0.7450
 5448SOL    HW127980   4.413   1.348   8.974 -0.3803  1.0572  1.0651
 5448SOL    HW227981   4.459   1.303   9.107 -2.3627 -1.5500  0.7829
 5449SOL     OW27982   0.829   3.659   8.670  0.0906 -1.1688  0.2270
 5449SOL    HW127983   0.867   3.744   8.689  0.3772 -1.1490 -0.4231
 5449SOL    HW227984   0.828   3.675   8.576 -1.5233 -2.7921 -0.0368
 5450SOL     OW27985   0.179   3.119  15.893  0.2365 -0.6074 -0.0014
 5450SOL    HW127986   0.202   3.205  15.929 -1.7001 -0.0514 -0.1230
 5450SOL    HW227987   0.097   3.140  15.848  1.2114 -1.8489 -2.4049
 5451SOL     OW27988   3.066   4.722  13.519 -0.5412 -0.0464 -0.4273
 5451SOL    HW127989   3.161   4.725  13.505 -0.5910  0.9563 -0.5367
 5451SOL    HW227990   3.057   4.645  13.575 -1.0269  0.2213 -0.1324
 5452SOL     OW27991   4.490   4.333   0.360  0.7818 -0.4360  0.5422
 5452SOL    HW127992   4.536   4.351   0.442  2.2788  1.4356 -0.6965
 5452SOL    HW227993   4.505   4.241   0.340  1.5757 -0.5246  1.4955
 5453SOL     OW27994   3.604   4.283   7.035 -0.0114  0.0876  0.1348
 5453SOL    HW127995   3.531   4.342   7.016  0.3689  0.4149 -0.3153
 5453SOL    HW227996   3.592   4.255   7.125  1.5892 -0.7265  0.0911
 5454SOL     OW27997   2.674   4.288  16.758  0.3994  0.2262  0.0447
 5454SOL    HW127998   2.761   4.284  16.799  0.3066 -0.0684  0.2165
 5454SOL    HW227999   2.651   4.373  16.794 -3.6856 -0.9752  0.2153
 5455SOL     OW28000   4.349   1.847   8.428 -0.4868  0.1436 -0.2476
 5455SOL    HW128001   4.262   1.824   8.396  0.1601 -2.9069  0.1416
 5455SOL    HW228002   4.407   1.775   8.402 -0.4487  0.0997 -0.0415
 5456SOL     OW28003   2.367   1.754   4.625  0.0039 -0.2019 -0.4156
 5456SOL    HW128004   2.332   1.667   4.607  0.8054 -0.3753 -1.0958
 5456SOL    HW228005   2.457   1.728   4.643  0.8726  2.1271 -1.3731
 5457SOL     OW28006   1.577   3.534   4.967  0.3035 -0.5809  0.3629
 5457SOL    HW128007   1.580   3.602   5.034  1.1740  1.5262 -1.8113
 5457SOL    HW228008   1.670   3.521   4.948  0.3554  0.6470 -0.2352
 5458SOL     OW28009   2.149   1.292   8.590  0.3973 -0.3865  0.0389
 5458SOL    HW128010   2.114   1.228   8.529 -0.6705 -0.2367  0.5061
 5458SOL    HW228011   2.083   1.359   8.604  0.6541 -0.2612  0.6542
 5459SOL     OW28012   2.527   1.182   3.985  0.3039  0.1455  0.5573
 5459SOL    HW128013   2.473   1.256   4.013 -2.8637 -1.8653 -0.2450
 5459SOL    HW228014   2.509   1.125   4.059  1.1542 -0.8361  0.0054
 5460SOL     OW28015   1.255   1.262  15.194  0.2753 -0.0734 -0.8455
 5460SOL    HW128016   1.161   1.252  15.204  0.4369 -1.3278 -0.4996
 5460SOL    HW228017   1.259   1.249  15.100 -3.0326 -0.2094 -0.9601
 5461SOL     OW28018   0.639   4.071   8.481  0.0649 -0.3659  0.0922
 5461SOL    HW128019   0.637   3.990   8.532 -1.6626  0.0706  0.7036
 5461SOL    HW228020   0.546   4.091   8.482 -0.1270 -1.1661 -2.3290
 5462SOL     OW28021   3.525   1.336   8.017 -0.3854  0.6130  0.1570
 5462SOL    HW128022   3.550   1.262   7.961 -0.9872  0.4128  0.1526
 5462SOL    HW228023   3.567   1.319   8.101 -0.2725  1.7119  0.3226
 5463SOL     OW28024   0.788   0.301   1.096 -0.3119  0.0738  0.0285
 5463SOL    HW128025   0.726   0.239   1.133 -0.1046 -0.3510 -0.3325
 5463SOL    HW228026   0.719   0.366   1.080 -0.7805  0.1873  2.4952
 5464SOL     OW28027   3.251   4.587  17.041 -0.0720  0.1768  0.2858
 5464SOL    HW128028   3.346   4.583  17.037 -0.1080  0.2676 -0.5882
 5464SOL    HW228029   3.239   4.613  17.133 -0.4735 -1.9957  0.8422
 5465SOL     OW28030   1.397   4.013  13.085 -0.3436  0.5029 -0.1099
 5465SOL    HW128031   1.375   4.035  12.995 -2.3881  0.7428  0.4451
 5465SOL    HW228032   1.393   3.919  13.097  0.0329  0.2807 -1.7540
 5466SOL     OW28033   3.568   2.927   2.140 -0.1910 -0.0645 -0.1430
 5466SOL    HW128034   3.590   2.944   2.232  1.2431  0.5277 -0.6018
 5466SOL    HW228035   3.624   2.854   2.115 -0.5903 -0.5091  0.2533
 5467SOL     OW28036   2.572   2.086   4.027 -0.3435  0.0714  0.5852
 5467SOL    HW128037   2.663   2.094   4.055  0.5437 -1.2757 -1.9068
 5467SOL    HW228038   2.550   1.995   4.047 -0.5793 -0.1748 -0.7923
 5468SOL     OW28039   0.523   1.763   4.173  0.0592  0.2840 -0.0039
 5468SOL    HW128040   0.479   1.682   4.145  0.1812  0.1066  0.3205
 5468SOL    HW228041   0.449   1.806   4.216 -0.2390  0.4010 -0.6395
 5469SOL     OW28042   0.963   2.728   4.665 -0.4670 -0.7177  0.0377
 5469SOL    HW128043   0.953   2.668   4.739 -0.3828 -0.3122  0.3732
 5469SOL    HW228044   0.961   2.680   4.582  1.8706  1.3912 -1.2306
 5470SOL     OW28045   3.016   0.286   8.712  0.3528  0.0589 -0.8438
 5470SOL    HW128046   3.023   0.381   8.707 -2.4303  0.3603  1.1055
 5470SOL    HW228047   3.109   0.268   8.703  0.4129 -0.2682  0.5786
 5471SOL     OW28048   4.403   1.036   6.315  0.3790  0.3921 -0.5873
 5471SOL    HW128049   4.424   0.943   6.326 -0.4342  0.1357 -1.2152
 5471SOL    HW228050   4.478   1.068   6.266 -0.6403  1.3954 -1.4770
 5472SOL     OW28051   4.342   0.112   2.037  0.1596  0.0152 -1.0496
 5472SOL    HW128052   4.382   0.190   1.997 -2.0945  1.0696 -1.2094
 5472SOL    HW228053   4.332   0.137   2.128 -1.8332 -1.5040 -0.8479
 5473SOL     OW28054   2.593   4.047   5.343 -0.1515 -0.1143  0.0139
 5473SOL    HW128055   2.675   4.017   5.304 -0.8766 -2.9353  0.6469
 5473SOL    HW228056   2.619   4.067   5.433  0.8519 -0.2558 -0.2447
 5474SOL     OW28057   2.640   2.384   8.321 -0.2587  0.8769 -0.2897
 5474SOL    HW128058   2.675   2.299   8.347 -2.8081 -0.3881 -1.0302
 5474SOL    HW228059   2.628   2.368   8.227 -1.0346  0.3959 -0.1093
 5475SOL     OW28060   2.428   3.076   2.272  0.5502  0.0982 -0.5870
 5475SOL    HW128061   2.518   3.047   2.289 -0.0857 -1.0836  0.7850
 5475SOL    HW228062   2.393   3.071   2.361  0.2493  0.2311 -0.7005
 5476SOL     OW28063   3.405   4.273   3.871  0.2832  0.3298  0.3606
 5476SOL    HW128064   3.494   4.308   3.869  0.5444 -0.3267  0.5551
 5476SOL    HW228065   3.393   4.292   3.964 -0.1281 -0.7441  0.5339
 5477SOL     OW28066   1.841   0.028  17.600  0.0471  0.4190 -0.3299
 5477SOL    HW128067   1.786   0.104  17.582  1.0226  1.7892  2.4840
 5477SOL    HW228068   1.926   0.052  17.562  0.6766 -1.4665 -0.1487
 5478SOL     OW28069   1.467   3.317   2.763 -0.1533 -0.3046 -0.0891
 5478SOL    HW128070   1.411   3.303   2.840 -1.1408  0.3056 -0.6995
 5478SOL    HW228071   1.411   3.279   2.696 -1.8673 -1.1137  1.7945
 5479SOL     OW28072   1.651   4.110   4.190  0.3058 -0.1368 -0.1511
 5479SOL    HW128073   1.567   4.071   4.214  0.9270 -1.5735 -0.2762
 5479SOL    HW228074   1.637   4.173   4.120 -1.1471 -0.4052 -0.0927
 5480SOL     OW28075   2.068   3.886   2.710 -0.3071 -0.4249  0.2180
 5480SOL    HW128076   2.052   3.844   2.625  1.5238  1.9653 -1.2953
 5480SOL    HW228077   2.003   3.955   2.724  0.1404 -0.0983  0.6525
 5481SOL     OW28078   4.603   1.503  16.589  0.1821 -0.0444  0.3457
 5481SOL    HW128079   4.684   1.451  16.593  0.3183  0.0838 -0.9650
 5481SOL    HW228080   4.607   1.546  16.675  1.7441 -1.3919  0.9550
 5482SOL     OW28081   1.885   0.829  11.821 -0.1276 -0.7105  0.1194
 5482SOL    HW128082   1.867   0.915  11.859  2.2646 -1.2426  2.4961
 5482SOL    HW228083   1.978   0.818  11.843  0.1717  1.1075 -0.2527
 5483SOL     OW28084   3.429   3.485  12.028 -0.2659  0.3309  0.4053
 5483SOL    HW128085   3.508   3.463  11.979  1.3335  0.2585  3.0507
 5483SOL    HW228086   3.423   3.400  12.072  0.4334  0.1124  0.0737
 5484SOL     OW28087   0.901   2.293   6.526 -0.2778 -0.0690 -0.2392
 5484SOL    HW128088   0.901   2.200   6.548  0.9092  0.1745  0.8405
 5484SOL    HW228089   0.809   2.315   6.539 -0.1452 -0.3130  1.0897
 5485SOL     OW28090   0.083   3.454  12.796 -0.2359 -0.2194  0.4100
 5485SOL    HW128091   0.113   3.400  12.869  0.4724  1.0842  1.0761
 5485SOL    HW228092   0.100   3.540  12.834  2.4040 -0.0369 -1.2340
 5486SOL     OW28093   2.169   1.125   7.632  0.3239 -0.2191 -0.3749
 5486SOL    HW128094   2.143   1.033   7.634  1.3632 -0.4681  1.9792
 5486SOL    HW228095   2.218   1.129   7.715 -0.9934 -1.9691  0.4788
 5487SOL     OW28096   0.798   1.935   3.396  0.0550 -0.0844 -0.2757
 5487SOL    HW128097   0.748   1.996   3.340 -0.0058  0.6117  0.5411
 5487SOL    HW228098   0.779   1.975   3.480  0.2986  0.0201 -0.2707
 5488SOL     OW28099   2.480   0.252   3.417  0.0244  0.5050 -0.2656
 5488SOL    HW128100   2.533   0.173   3.432 -0.5819  0.4413  1.5230
 5488SOL    HW228101   2.430   0.213   3.346 -1.0406  0.8392  0.3101
 5489SOL     OW28102   2.386   3.136   4.838 -0.0371  0.0086 -0.0935
 5489SOL    HW128103   2.480   3.124   4.824 -0.2666  0.5145 -2.1787
 5489SOL    HW228104   2.394   3.150   4.932  2.0572  1.0661 -0.4143
 5490SOL     OW28105   4.279   2.277   1.772  0.3159  0.3514 -0.2307
 5490SOL    HW128106   4.278   2.213   1.701  2.3899  1.5153 -1.3388
 5490SOL    HW228107   4.373   2.288   1.788  0.6089  1.8467 -2.9184
 5491SOL     OW28108   3.136   0.884   8.156 -0.1145  0.0480  0.0140
 5491SOL    HW128109   3.205   0.945   8.131 -0.0585 -0.3517 -0.7848
 5491SOL    HW228110   3.191   0.828   8.211 -0.7260  0.8167  1.4156
 5492SOL     OW28111   3.464   0.422   8.849  0.0443  0.1288  0.5261
 5492SOL    HW128112   3.501   0.336   8.870 -1.6031 -1.5395 -3.4173
 5492SOL    HW228113   3.372   0.405   8.869  0.2108 -0.1263  1.0756
 5493SOL     OW28114   2.332   2.451   9.446 -0.6498 -0.3094  0.4654
 5493SOL    HW128115   2.365   2.391   9.379 -3.1559  0.8338 -1.8349
 5493SOL    HW228116   2.413   2.483   9.484 -1.8081  2.3698  0.6522
 5494SOL     OW28117   0.133   1.334   0.944  0.2836 -0.1069  0.6544
 5494SOL    HW128118   0.143   1.252   0.992  1.4617 -1.0424 -1.1644
 5494SOL    HW228119   0.039   1.345   0.955  0.3676  1.7476 -0.4430
 5495SOL     OW28120   0.375   0.598   4.293  0.3179  0.0235  0.2784
 5495SOL    HW128121   0.383   0.692   4.282  1.0139 -0.0750 -0.0309
 5495SOL    HW228122   0.333   0.599   4.379  0.5339 -0.6234  0.3941
 5496SOL     OW28123   0.668   3.815  12.692 -0.5530 -0.3625  0.3288
 5496SOL    HW128124   0.697   3.835  12.781 -2.0272  2.4101  0.1676
 5496SOL    HW228125   0.611   3.739  12.704 -1.1949  0.0349 -0.3035
 5497SOL     OW28126   2.242   3.578   9.034  0.1869  0.1722 -0.2547
 5497SOL    HW128127   2.152   3.607   9.017 -0.0671 -0.1013  0.6279
 5497SOL    HW228128   2.229   3.491   9.071 -1.4588  0.4198 -0.2455
 5498SOL     OW28129   4.236   1.755   6.156  0.0922 -0.3478  0.4116
 5498SOL    HW128130   4.186   1.807   6.092  0.1244 -0.3250  0.4047
 5498SOL    HW228131   4.224   1.673   6.109  0.5842  0.3083 -0.8672
 5499SOL     OW28132   2.916   0.153  13.389  0.4425  0.2428 -0.2727
 5499SOL    HW128133   2.969   0.086  13.431 -1.6304 -1.1035  0.1942
 5499SOL    HW228134   2.876   0.179  13.472 -0.4126 -1.6189 -0.1006
 5500SOL     OW28135   0.559   3.163  17.442  0.0178 -0.1657  0.9368
 5500SOL    HW128136   0.468   3.157  17.412 -0.4470 -1.1671  2.4703
 5500SOL    HW228137   0.557   3.242  17.495 -0.7210  0.8371 -0.6059
 5501SOL     OW28138   2.541   2.203   2.821 -0.3179 -0.0268 -0.3435
 5501SOL    HW128139   2.578   2.115   2.831 -0.5189  0.1941  2.2296
 5501SOL    HW228140   2.455   2.167   2.800 -1.2798  0.8597  2.0459
 5502SOL     OW28141   3.510   2.462  16.331 -0.0863 -0.7544  0.1166
 5502SOL    HW128142   3.536   2.442  16.241 -1.4589  2.3640 -0.9639
 5502SOL    HW228143   3.487   2.554  16.315 -1.8331 -1.7232 -2.8243
 5503SOL     OW28144   1.431   3.749   4.015  0.4967 -0.3562 -0.2074
 5503SOL    HW128145   1.445   3.799   4.096 -1.4997  0.2299 -0.2439
 5503SOL    HW228146   1.518   3.709   4.006  0.3642 -0.5318 -0.6597
 5504SOL     OW28147   2.974   2.584   9.931 -0.0988  0.4210  0.1543
 5504SOL    HW128148   2.965   2.677   9.907  0.2029  0.6099  0.7735
 5504SOL    HW228149   2.927   2.596  10.013  0.1239 -2.6371  0.7310
 5505SOL     OW28150   1.729   2.746  10.325 -0.6677  0.2130 -0.7757
 5505SOL    HW128151   1.689   2.741  10.412  0.9768 -1.7591 -0.1523
 5505SOL    HW228152   1.709   2.838  10.307  0.0341  0.3316 -0.9511
 5506SOL     OW28153   1.633   4.025   8.224 -0.4113  0.2644  0.2672
 5506SOL    HW128154   1.603   4.050   8.312 -0.0102  0.2666  0.4016
 5506SOL    HW228155   1.675   4.108   8.202  0.6762  0.0579  1.6000
 5507SOL     OW28156   1.233   0.698   5.525 -0.1546  0.2161  0.2878
 5507SOL    HW128157   1.178   0.652   5.588 -2.7930 -0.2139 -2.3440
 5507SOL    HW228158   1.313   0.649   5.539  0.2819  0.9409  0.3353
 5508SOL     OW28159   0.119   4.083   8.607 -0.1165 -0.0420  0.4765
 5508SOL    HW128160   0.164   4.033   8.676  0.1023 -0.2197  0.2044
 5508SOL    HW228161   0.138   4.175   8.625  0.8412  0.3361 -2.3947
 5509SOL     OW28162   1.077   2.252   3.359  0.1331 -0.1277 -0.3790
 5509SOL    HW128163   1.160   2.236   3.404  0.3112 -0.9271 -0.9899
 5509SOL    HW228164   1.055   2.330   3.409  0.2905 -0.3980  0.1163
 5510SOL     OW28165   1.770   3.363   4.082  0.5414 -0.3485  0.6739
 5510SOL    HW128166   1.774   3.404   4.169  0.1027  0.1024  0.4797
 5510SOL    HW228167   1.680   3.332   4.073 -0.1231  1.0473  2.4516
 5511SOL     OW28168   1.958   1.519   7.679 -0.0720 -0.1636 -0.0541
 5511SOL    HW128169   2.051   1.498   7.673  0.4422  2.5889 -1.7208
 5511SOL    HW228170   1.937   1.582   7.609 -0.4224 -1.0206 -0.7195
 5512SOL     OW28171   0.426   1.653   2.781 -0.3595  0.2353 -0.0781
 5512SOL    HW128172   0.487   1.717   2.746  1.4008 -0.9618  0.8182
 5512SOL    HW228173   0.349   1.708   2.763 -1.5800 -2.4060 -2.8060
 5513SOL     OW28174   2.843   1.678   9.485 -0.0746 -0.2611 -0.7059
 5513SOL    HW128175   2.786   1.604   9.508 -0.9122  0.5560 -0.1538
 5513SOL    HW228176   2.918   1.658   9.541 -0.0586 -2.6014 -1.5520
 5514SOL     OW28177   3.705   3.765  14.819  0.0147  0.2765  0.1228
 5514SOL    HW128178   3.788   3.808  14.800 -0.0839  1.3370  2.0354
 5514SOL    HW228179   3.738   3.676  14.837  1.3740  0.7429 -0.0446
 5515SOL     OW28180   3.241   3.371  16.612 -0.1278  0.6821  0.2626
 5515SOL    HW128181   3.175   3.427  16.654  0.3413  0.2490  1.5823
 5515SOL    HW228182   3.320   3.426  16.619  1.7402 -1.7853 -1.6234
 5516SOL     OW28183   4.016   2.051   0.561 -0.2826  0.4145 -0.1587
 5516SOL    HW128184   3.972   2.022   0.641 -0.6460  3.0158  0.6051
 5516SOL    HW228185   4.106   2.061   0.589 -0.1286 -0.6874 -0.2948
 5517SOL     OW28186   2.554   1.536   2.025  0.1701  0.0833 -0.6615
 5517SOL    HW128187   2.509   1.493   1.952  0.2589  1.1721 -1.3438
 5517SOL    HW228188   2.504   1.493   2.095  0.0550  2.1508  0.5004
 5518SOL     OW28189   0.576   1.493  11.486  0.3442  0.7443  0.0279
 5518SOL    HW128190   0.537   1.406  11.496  0.0584  1.1615  2.6508
 5518SOL    HW228191   0.569   1.534  11.572  0.5481 -0.0907  0.4431
 5519SOL     OW28192   2.151   3.798   0.329  0.0048 -0.1992  0.2028
 5519SOL    HW128193   2.218   3.757   0.274  0.0464 -1.9429  1.5776
 5519SOL    HW228194   2.082   3.818   0.266 -1.0531  1.8005  1.9909
 5520SOL     OW28195   3.924   1.558  14.424  0.3329 -0.8005 -0.2897
 5520SOL    HW128196   3.905   1.466  14.441  1.4404 -0.9783 -0.0200
 5520SOL    HW228197   3.958   1.556  14.335 -0.3991 -1.1412 -0.5615
 5521SOL     OW28198   2.485   1.455   4.077  0.5112 -0.3412  0.0377
 5521SOL    HW128199   2.576   1.433   4.097  0.9314  1.1975 -0.1334
 5521SOL    HW228200   2.445   1.416   4.154 -0.3196  2.8121  1.2253
 5522SOL     OW28201   1.956   0.059  14.509 -0.5122 -0.4312 -0.1628
 5522SOL    HW128202   2.025   0.104  14.459 -1.0428 -1.3343 -1.7125
 5522SOL    HW228203   1.998   0.039  14.592 -0.4857  1.7775  0.3533
 5523SOL     OW28204   2.182   4.699   2.431 -0.0090 -0.3394  0.7700
 5523SOL    HW128205   2.091   4.686   2.406  0.0050  1.8729 -0.4591
 5523SOL    HW228206   2.168   4.731   2.520  1.6865  1.4034  0.4131
 5524SOL     OW28207   1.970   1.922   6.428  0.0110 -0.0290  0.1193
 5524SOL    HW128208   2.010   1.869   6.358  2.8987 -0.7815  2.3677
 5524SOL    HW228209   1.882   1.919   6.389 -0.3489  3.5255  0.6686
 5525SOL     OW28210   0.047   1.763  13.205  0.0096 -0.1442  0.7675
 5525SOL    HW128211   0.130   1.744  13.250  1.1404  0.6135 -1.0177
 5525SOL    HW228212   4.736   1.792  13.281 -1.7625 -0.9648 -0.0941
 5526SOL     OW28213   4.062   3.888   2.608  0.0862  0.3584  0.7098
 5526SOL    HW128214   4.093   3.977   2.592 -0.5517  0.2337 -1.2761
 5526SOL    HW228215   4.105   3.833   2.542 -1.0403  1.9501 -1.3667
 5527SOL     OW28216   4.352   2.718   6.857  0.4931  0.2136 -0.1750
 5527SOL    HW128217   4.357   2.685   6.767 -1.3918 -2.6174  0.7933
 5527SOL    HW228218   4.392   2.805   6.850 -0.2120  0.2214 -4.2781
 5528SOL     OW28219   1.760   0.367  10.775  0.2963  0.2677  0.7642
 5528SOL    HW128220   1.754   0.440  10.713 -0.3591 -0.8402 -0.4723
 5528SOL    HW228221   1.763   0.408  10.862  0.3276 -0.7988  1.2591
 5529SOL     OW28222   4.489   0.079   9.205  0.0132 -0.5869 -0.0907
 5529SOL    HW128223   4.455   0.166   9.185 -1.2764 -0.4062  2.8453
 5529SOL    HW228224   4.571   0.110   9.244 -0.4626  0.7871 -0.1846
 5530SOL     OW28225   2.379   4.660   6.408  0.4583  0.3023 -0.0119
 5530SOL    HW128226   2.448   4.606   6.371 -0.5834  0.6417 -2.4898
 5530SOL    HW228227   2.413   0.008   6.393  1.8649 -0.3892 -0.8968
 5531SOL     OW28228   2.626   0.019   4.092 -0.0852  0.9951  0.3850
 5531SOL    HW128229   2.574   0.050   4.018  0.8323 -0.0740 -0.7144
 5531SOL    HW228230   2.666   4.674   4.071 -3.2198 -0.8667  1.9369
 5532SOL     OW28231   0.710   0.851   6.606  0.0896  0.2977  0.5389
 5532SOL    HW128232   0.661   0.897   6.538 -0.8367  0.2368  1.1615
 5532SOL    HW228233   0.635   0.825   6.659 -0.6201  0.3179 -0.4688
 5533SOL     OW28234   4.078   3.656   3.515 -0.0581 -0.0443 -0.2120
 5533SOL    HW128235   4.031   3.661   3.432 -0.6664  1.4613  0.2178
 5533SOL    HW228236   4.008   3.667   3.579 -0.2678  1.7244 -0.7425
 5534SOL     OW28237   3.331   3.675   9.238  0.0186  0.4094  0.2965
 5534SOL    HW128238   3.263   3.724   9.286 -0.0770  3.0485 -2.5627
 5534SOL    HW228239   3.357   3.739   9.172  0.4010  0.8992  0.9204
 5535SOL     OW28240   1.600   3.887  16.362  0.6016  0.1448 -0.1585
 5535SOL    HW128241   1.676   3.940  16.385 -1.7445  2.6850  1.7344
 5535SOL    HW228242   1.565   3.952  16.302  1.1111 -1.4429 -2.1498
 5536SOL     OW28243   2.010   0.330  11.247 -0.0647  0.0325 -0.3808
 5536SOL    HW128244   1.994   0.424  11.234  0.4113  0.3053  0.9905
 5536SOL    HW228245   1.926   0.296  11.278 -0.3709  0.2462 -0.9771
 5537SOL     OW28246   2.434   2.317   3.705 -0.1592 -0.6492 -0.1085
 5537SOL    HW128247   2.338   2.313   3.708 -0.2240  0.5068 -0.4001
 5537SOL    HW228248   2.452   2.224   3.697 -0.0384 -0.4039 -2.8730
 5538SOL     OW28249   1.555   2.556   6.114  0.1237 -0.2277  0.0684
 5538SOL    HW128250   1.569   2.514   6.199 -0.9764  1.1952  0.9649
 5538SOL    HW228251   1.601   2.640   6.110 -1.9990  0.9421  0.0861
 5539SOL     OW28252   2.260   2.725  13.408  0.2582  0.2504  0.0773
 5539SOL    HW128253   2.333   2.670  13.437 -0.1181 -0.5124 -0.4387
 5539SOL    HW228254   2.218   2.670  13.342  0.0199  3.1832 -2.2533
 5540SOL     OW28255   3.404   4.221   0.992  0.5563  1.0134  0.2797
 5540SOL    HW128256   3.384   4.312   0.972 -1.2190  0.6566  0.4105
 5540SOL    HW228257   3.413   4.225   1.087 -1.4280 -1.0551  0.5684
 5541SOL     OW28258   0.391   2.554   1.816  0.4946  0.7426 -0.1854
 5541SOL    HW128259   0.347   2.472   1.791 -2.2165  2.7882 -2.1482
 5541SOL    HW228260   0.429   2.579   1.732  0.2236  0.7346 -0.3092
 5542SOL     OW28261   3.596   0.628   3.091  0.1222 -0.5473 -0.5259
 5542SOL    HW128262   3.540   0.550   3.085 -2.5064  1.4407 -1.6176
 5542SOL    HW228263   3.633   0.602   3.175  0.1014  0.1294 -0.3126
 5543SOL     OW28264   4.636   2.827   4.111  0.1628  0.7822 -0.2041
 5543SOL    HW128265   4.657   2.815   4.018  1.3767  1.9067 -0.0769
 5543SOL    HW228266   4.720   2.855   4.148 -0.8990  3.3905  0.2737
 5544SOL     OW28267   0.470   1.832   8.302 -0.4485  0.3429 -0.4834
 5544SOL    HW128268   0.557   1.860   8.331  0.8269 -1.7955 -2.2585
 5544SOL    HW228269   0.496   1.787   8.221  0.3224 -0.1580  0.0422
 5545SOL     OW28270   2.585   3.712   4.514  0.2022  0.2551 -0.6576
 5545SOL    HW128271   2.650   3.717   4.584  0.9607  0.4082 -1.3807
 5545SOL    HW228272   2.570   3.804   4.493  0.5080  0.1469 -1.3538
 5546SOL     OW28273   2.026   0.676   2.029  0.7959  0.3433  0.3353
 5546SOL    HW128274   2.060   0.759   2.061  1.5811  0.2666 -0.3202
 5546SOL    HW228275   1.952   0.669   2.090  1.0730 -0.0602  0.6228
 5547SOL     OW28276   4.723   4.499   1.612  1.3337  0.1318  0.0600
 5547SOL    HW128277   4.688   4.584   1.638 -0.6775 -0.8310  0.4406
 5547SOL    HW228278   4.681   4.440   1.674  1.4450 -0.3590 -0.3315
 5548SOL     OW28279   3.211   1.029   0.688 -0.4146  0.0500 -0.8000
 5548SOL    HW128280   3.295   1.060   0.723 -1.1036  0.9085  0.0894
 5548SOL    HW228281   3.157   1.089   0.739  0.2038  2.1559 -2.6373
 5549SOL     OW28282   3.012   3.662   0.244  0.0843  0.3637 -0.2735
 5549SOL    HW128283   2.925   3.700   0.239  0.3954  1.4277  2.3875
 5549SOL    HW228284   3.012   3.599   0.317  2.8320 -1.7417 -2.0636
 5550SOL     OW28285   2.397   3.151   5.112  0.1432 -0.4460  0.2029
 5550SOL    HW128286   2.491   3.162   5.125  0.6695 -1.7417 -2.3212
 5550SOL    HW228287   2.357   3.232   5.143  0.2817 -0.8164  1.3314
 5551SOL     OW28288   3.947   0.352   3.096 -0.3115  0.1642 -0.2075
 5551SOL    HW128289   4.025   0.372   3.045  0.7483 -0.5149  1.1608
 5551SOL    HW228290   3.978   0.378   3.183 -0.7476  2.0150 -0.5965
 5552SOL     OW28291   3.801   1.967   5.121 -0.0586 -0.0482 -0.3162
 5552SOL    HW128292   3.781   1.887   5.071  1.0752 -0.2428 -0.4635
 5552SOL    HW228293   3.833   2.016   5.045  0.9727  2.9705  2.0954
 5553SOL     OW28294   2.668   0.534   3.988 -0.5042 -0.0992  0.2133
 5553SOL    HW128295   2.713   0.450   3.993  1.7515  1.1403  0.4478
 5553SOL    HW228296   2.594   0.514   3.931 -0.1357  4.2413 -1.8014
 5554SOL     OW28297   2.346   1.079  14.647 -0.5060 -0.2073 -0.4151
 5554SOL    HW128298   2.408   1.028  14.700 -0.3919 -1.0919 -1.3977
 5554SOL    HW228299   2.304   1.126  14.718 -0.6299 -1.4998  0.3562
 5555SOL     OW28300   3.974   1.473  10.554 -0.1234 -0.0017  0.1265
 5555SOL    HW128301   4.042   1.537  10.535  1.1059 -1.4393 -0.3206
 5555SOL    HW228302   3.900   1.532  10.566 -0.6109  0.2821 -4.2395
 5556SOL     OW28303   2.081   4.166  17.489 -0.5879  0.3142 -0.8272
 5556SOL    HW128304   2.046   4.240  17.440 -0.1687  2.1914  1.7163
 5556SOL    HW228305   2.035   4.098  17.440 -1.9819  2.5348 -2.5868
 5557SOL     OW28306   3.486   1.789   8.545  0.0678  0.7989  0.6160
 5557SOL    HW128307   3.573   1.751   8.554 -0.9162 -1.6817 -0.2825
 5557SOL    HW228308   3.429   1.719   8.577 -0.7250  1.1303 -0.0690
 5558SOL     OW28309   4.073   0.059   6.979 -0.0274  0.3531 -0.2251
 5558SOL    HW128310   3.992   0.062   7.030  1.9750 -0.6486  3.0504
 5558SOL    HW228311   4.060   0.143   6.935  1.2928  0.1776 -0.9701
 5559SOL     OW28312   2.706   2.001   6.893 -0.4991  0.2913 -0.2554
 5559SOL    HW128313   2.750   1.999   6.808 -0.0207  2.0436 -0.0623
 5559SOL    HW228314   2.659   1.918   6.897 -0.3603  0.2691  0.8454
 5560SOL     OW28315   0.688   0.072   0.929 -0.6271  0.5844  0.1362
 5560SOL    HW128316   0.605   0.116   0.909 -0.3774  1.0323  0.0728
 5560SOL    HW228317   0.729   0.092   0.845 -1.4337  0.1235 -0.3712
 5561SOL     OW28318   3.903   1.568   2.267  0.1353 -0.1177 -0.1954
 5561SOL    HW128319   3.811   1.587   2.251  0.1619  0.0050 -0.2006
 5561SOL    HW228320   3.896   1.547   2.360 -1.0239  2.2329  0.2529
 5562SOL     OW28321   3.940   2.524   8.248  0.1092 -0.2823  0.1141
 5562SOL    HW128322   3.980   2.539   8.162 -0.7781  1.0520 -0.0625
 5562SOL    HW228323   3.979   2.440   8.273  1.4151  0.8338  1.8234
 5563SOL     OW28324   3.014   2.572   5.206  0.2890 -0.3517  0.1742
 5563SOL    HW128325   2.951   2.621   5.153 -1.3344 -1.3030  1.1843
 5563SOL    HW228326   3.085   2.585   5.144 -0.2224  0.8007 -0.1675
 5564SOL     OW28327   1.845   1.719  14.065  0.0426  0.6808  0.3138
 5564SOL    HW128328   1.771   1.665  14.036  0.4160  1.0446 -1.3335
 5564SOL    HW228329   1.870   1.673  14.145  2.1605 -0.2881 -0.9154
 5565SOL     OW28330   3.376   3.998  12.882 -0.1433  0.1419  0.0598
 5565SOL    HW128331   3.448   4.055  12.906  0.9406 -1.2380  0.0745
 5565SOL    HW228332   3.382   3.997  12.786  0.4824 -0.3312  0.1041
 5566SOL     OW28333   0.072   3.191  14.532 -0.2086  0.3024  0.1497
 5566SOL    HW128334   0.034   3.174  14.446  0.5004  2.0241 -0.5092
 5566SOL    HW228335   0.165   3.193  14.509  0.1713 -1.7007  1.5559
 5567SOL     OW28336   0.079   4.488   5.174 -0.8054  0.8093 -0.3290
 5567SOL    HW128337   0.093   4.397   5.199  2.3542  1.6030  0.7513
 5567SOL    HW228338   0.105   4.493   5.082 -1.6295  0.3789 -0.5905
 5568SOL     OW28339   1.337   1.626   9.044  0.2176  0.3747  0.1987
 5568SOL    HW128340   1.261   1.569   9.055 -0.2203  1.2205  1.4581
 5568SOL    HW228341   1.348   1.653   9.135  2.4807 -1.1776  0.3998
 5569SOL     OW28342   3.064   2.863   0.806  0.3548 -0.1224 -0.5502
 5569SOL    HW128343   3.088   2.947   0.768  0.3610 -0.1181 -0.5366
 5569SOL    HW228344   2.998   2.829   0.745  1.4331 -0.7202 -1.3953
 5570SOL     OW28345   2.344   2.499   6.590  0.0768 -0.2848  0.3774
 5570SOL    HW128346   2.267   2.445   6.606  0.2381 -1.1342 -1.7284
 5570SOL    HW228347   2.383   2.453   6.516 -0.7637 -0.0857 -0.1840
 5571SOL     OW28348   3.066   2.442  11.622  0.2008  0.5838  0.8891
 5571SOL    HW128349   3.018   2.446  11.705 -2.8647 -0.7078 -0.8445
 5571SOL    HW228350   3.143   2.490  11.654 -0.4012  0.2466  2.8716
 5572SOL     OW28351   2.984   3.093  10.062 -0.1928 -0.5241  0.0956
 5572SOL    HW128352   3.043   3.162  10.092  0.7702 -0.1316 -2.7542
 5572SOL    HW228353   2.901   3.135  10.039 -0.9256 -1.7622  0.4606
 5573SOL     OW28354   0.027   1.720  12.680 -0.0408  0.0001  0.4821
 5573SOL    HW128355   0.110   1.756  12.651  0.9646 -3.6513 -1.2501
 5573SOL    HW228356   0.037   1.625  12.677 -1.7720 -0.1456 -1.2569
 5574SOL     OW28357   0.144   0.164   3.923 -0.5391  0.4885 -0.1359
 5574SOL    HW128358   0.081   0.104   3.884 -1.1788  0.9898  0.1387
 5574SOL    HW228359   0.142   0.243   3.870 -0.2083  0.8785  0.4323
 5575SOL     OW28360   1.375   4.454   0.567  0.1244  0.4446 -0.1520
 5575SOL    HW128361   1.382   4.383   0.502  2.2140 -0.2048  0.7928
 5575SOL    HW228362   1.343   4.516   0.501  0.6155  0.1400 -0.6713
 5576SOL     OW28363   3.618   4.651  12.927 -0.1503  0.5760  0.6671
 5576SOL    HW128364   3.632   4.738  12.891 -1.2996  1.0829  1.4609
 5576SOL    HW228365   3.571   4.623  12.849  1.2950  1.2881 -0.4528
 5577SOL     OW28366   0.552   4.373   3.036  0.1186 -0.0723  0.1669
 5577SOL    HW128367   0.488   4.435   3.002 -0.4968 -1.8084 -1.8535
 5577SOL    HW228368   0.505   4.325   3.105 -1.1164  0.9635  0.0371
 5578SOL     OW28369   1.094   3.630   2.289 -0.1456 -0.0841  0.2083
 5578SOL    HW128370   1.081   3.612   2.196  2.0279  0.9029 -0.2843
 5578SOL    HW228371   1.023   3.574   2.319  0.5808 -1.9741 -1.5974
 5579SOL     OW28372   2.748   4.010   6.204  0.9636 -0.2482 -1.1389
 5579SOL    HW128373   2.812   4.025   6.273  0.5714  0.5829 -0.9524
 5579SOL    HW228374   2.671   3.982   6.254  0.0231  0.5168 -2.1434
 5580SOL     OW28375   3.238   0.643   5.973  0.1891  0.2384 -0.0751
 5580SOL    HW128376   3.281   0.705   6.031 -2.1004  0.7317  1.1114
 5580SOL    HW228377   3.315   0.591   5.948  0.5817  0.1664  1.3287
 5581SOL     OW28378   0.385   1.572   2.249 -1.0286 -0.3565 -0.3303
 5581SOL    HW128379   0.392   1.648   2.191  3.5306  0.1059  0.8163
 5581SOL    HW228380   0.313   1.525   2.206  0.1462 -2.6858  0.2312
 5582SOL     OW28381   1.648   1.546  10.383  0.3439 -0.1401 -0.1753
 5582SOL    HW128382   1.721   1.513  10.330  0.3017 -1.6010  0.6718
 5582SOL    HW228383   1.572   1.556  10.326 -1.0989 -1.3938  1.5158
 5583SOL     OW28384   3.796   3.938   2.249 -0.0687  1.0260 -0.7147
 5583SOL    HW128385   3.791   3.870   2.181 -0.7859  0.2580  0.1134
 5583SOL    HW228386   3.882   3.976   2.230  0.5124  0.6496  1.1882
 5584SOL     OW28387   4.359   0.843   1.738 -0.1436 -0.3228  0.2696
 5584SOL    HW128388   4.446   0.881   1.726 -0.2421 -0.6777 -1.5531
 5584SOL    HW228389   4.325   0.871   1.653 -0.2645  0.4930  0.5902
 5585SOL     OW28390   0.387   2.039   3.846  0.3777  0.3098  0.2688
 5585SOL    HW128391   0.342   2.113   3.889 -1.3878 -0.7978  0.3405
 5585SOL    HW228392   0.477   2.056   3.872  0.8937 -1.3416 -0.4545
 5586SOL     OW28393   0.866   4.722   3.052 -0.1617  0.0895 -0.2489
 5586SOL    HW128394   0.833   4.660   3.117 -0.1457 -1.2713 -1.5270
 5586SOL    HW228395   0.924   0.033   3.109  0.5655 -0.6254 -0.3556
 5587SOL     OW28396   0.663   3.488   2.820 -0.0849 -0.1259  0.1955
 5587SOL    HW128397   0.649   3.394   2.832 -3.2619  0.4667  0.9754
 5587SOL    HW228398   0.597   3.529   2.876 -2.3576 -0.8199 -2.0099
 5588SOL     OW28399   4.407   3.102   4.751  0.2891  1.1927  0.1317
 5588SOL    HW128400   4.490   3.090   4.706  0.7794 -3.0182  2.1284
 5588SOL    HW228401   4.429   3.142   4.834  1.4486  1.4983 -0.3262
 5589SOL     OW28402   1.775   3.232   4.483  0.2355  0.1759  0.5889
 5589SOL    HW128403   1.801   3.191   4.566  0.5240  0.8451  0.8279
 5589SOL    HW228404   1.688   3.197   4.466 -0.1409  2.3726 -1.9421
 5590SOL     OW28405   1.289   4.449   4.457 -0.5323  0.0876  0.7224
 5590SOL    HW128406   1.195   4.461   4.443 -0.6244  2.1724  2.9830
 5590SOL    HW228407   1.300   4.433   4.551 -1.1771 -2.9044  0.2733
 5591SOL     OW28408   4.453   2.888   1.254  0.6892  0.1268  0.5425
 5591SOL    HW128409   4.494   2.801   1.256  0.1226 -0.0873  2.6753
 5591SOL    HW228410   4.498   2.927   1.328  2.0588 -0.5267  0.0458
 5592SOL     OW28411   3.785   1.522   9.418  0.0806  0.2529 -0.1971
 5592SOL    HW128412   3.760   1.485   9.333 -0.6276 -1.4268  0.7565
 5592SOL    HW228413   3.838   1.450   9.450  0.5958  1.2071  1.1013
 5593SOL     OW28414   2.535   4.256   3.420 -0.0329 -0.4342 -0.4933
 5593SOL    HW128415   2.546   4.235   3.327  0.0763 -1.2906 -0.2873
 5593SOL    HW228416   2.580   4.340   3.414 -1.1480  0.3279  2.0963
 5594SOL     OW28417   2.345   3.011   6.900  0.0622  0.5699 -0.2385
 5594SOL    HW128418   2.327   2.921   6.875 -0.4238  0.1388  1.6291
 5594SOL    HW228419   2.382   3.002   6.988 -2.8660 -0.7043  0.8499
 5595SOL     OW28420   0.274   3.864   2.175  0.1204  0.2542 -0.1450
 5595SOL    HW128421   0.237   3.788   2.129  0.2731 -0.2322  0.5239
 5595SOL    HW228422   0.361   3.857   2.137  1.5212  0.7965  2.9817
 5596SOL     OW28423   1.492   4.638   4.027 -0.4964  0.4528 -0.3097
 5596SOL    HW128424   1.424   4.594   4.077  0.3229  1.8054  1.9818
 5596SOL    HW228425   1.473   4.612   3.937 -0.7717  1.2779 -0.4975
 5597SOL     OW28426   1.512   1.543   0.225  0.6538 -0.2581  0.0229
 5597SOL    HW128427   1.452   1.604   0.182  3.0626  1.4941 -0.8547
 5597SOL    HW228428   1.557   1.609   0.278 -0.6969  0.0814  0.7353
 5598SOL     OW28429   0.096   1.864   6.970 -0.1005  0.5952 -0.4859
 5598SOL    HW128430   0.001   1.864   6.961 -0.0476 -2.6651 -1.0452
 5598SOL    HW228431   0.100   1.889   7.062 -1.4722  0.5228 -0.4088
 5599SOL     OW28432   0.808   3.381   8.369 -0.5474  0.0165  1.0103
 5599SOL    HW128433   0.822   3.286   8.362  1.1061  0.2291  1.4249
 5599SOL    HW228434   0.893   3.417   8.344 -1.6453  1.4013 -0.7135
 5600SOL     OW28435   4.419   4.182   4.364 -0.1097 -0.1466  0.2801
 5600SOL    HW128436   4.409   4.189   4.269 -2.6355  1.7558  0.6634
 5600SOL    HW228437   4.337   4.217   4.400  0.0344 -1.2703  1.6725
 5601SOL     OW28438   3.451   1.283   9.749 -0.3766 -0.4243 -0.1317
 5601SOL    HW128439   3.509   1.219   9.789  0.6596 -0.1159 -1.1309
 5601SOL    HW228440   3.424   1.233   9.672  2.5922 -3.0189  0.5277
 5602SOL     OW28441   3.457   4.122   4.277  0.3613  0.1091  0.6866
 5602SOL    HW128442   3.506   4.048   4.313  1.3784  0.6027  0.3154
 5602SOL    HW228443   3.386   4.141   4.338 -0.7095 -2.8538  0.3684
 5603SOL     OW28444   3.020   4.484  12.947  0.0040 -0.1172  0.2196
 5603SOL    HW128445   2.938   4.493  12.995 -0.6003  1.1134 -1.0265
 5603SOL    HW228446   3.044   4.577  12.940 -0.3133 -0.0189  0.4474
 5604SOL     OW28447   3.627   1.219  15.435 -0.5849 -0.3415  0.3287
 5604SOL    HW128448   3.699   1.254  15.382 -0.8112 -0.2879  0.0581
 5604SOL    HW228449   3.671   1.200  15.518 -1.1429 -0.4527  0.6042
 5605SOL     OW28450   4.664   0.005  15.996 -0.0483  0.5047  0.4582
 5605SOL    HW128451   4.634   4.670  16.049 -1.4557 -0.3221 -1.4969
 5605SOL    HW228452   4.611   0.084  16.010  0.9063  1.4213 -1.1138
 5606SOL     OW28453   0.910   2.544   1.589  0.0875  0.3308  0.0486
 5606SOL    HW128454   0.924   2.611   1.655  0.4995 -1.1758  1.4730
 5606SOL    HW228455   0.830   2.585   1.556 -0.2939 -1.5385 -1.3944
 5607SOL     OW28456   2.089   2.945   6.727 -0.2195 -0.0613 -0.1947
 5607SOL    HW128457   2.086   2.931   6.821  0.0691  0.9462 -0.0373
 5607SOL    HW228458   2.130   2.861   6.706  0.2935  0.1740 -0.1200
 5608SOL     OW28459   1.697   0.849   5.423 -0.7027  0.6235  0.2142
 5608SOL    HW128460   1.692   0.830   5.517  0.2102 -0.2915  0.0727
 5608SOL    HW228461   1.654   0.769   5.393 -0.3713 -0.1254  1.7046
 5609SOL     OW28462   4.408   1.263  17.683 -0.0266 -0.6755  0.1909
 5609SOL    HW128463   4.405   1.168  17.693 -0.2507 -0.7677 -0.7728
 5609SOL    HW228464   4.409   1.287   0.020  2.4078  1.0255 -0.2713
 5610SOL     OW28465   2.449   1.231   7.308  0.0661  0.1758 -0.0590
 5610SOL    HW128466   2.421   1.279   7.386  1.2537  2.6939 -1.1602
 5610SOL    HW228467   2.543   1.224   7.328  0.5424  1.6116 -1.7340
 5611SOL     OW28468   2.442   4.302   8.174 -0.3048 -0.4283 -0.6128
 5611SOL    HW128469   2.413   4.266   8.258 -0.6562  1.2185 -0.0213
 5611SOL    HW228470   2.526   4.343   8.192 -1.0553  0.4471  0.9518
 5612SOL     OW28471   4.572   0.576  16.212  0.1273 -0.7542  0.9070
 5612SOL    HW128472   4.618   0.542  16.288 -0.6827  1.9332  2.6119
 5612SOL    HW228473   4.642   0.600  16.151 -1.3802 -1.2252 -1.0127
 5613SOL     OW28474   1.487   2.063   8.752  0.0434  0.2391  0.3050
 5613SOL    HW128475   1.486   1.979   8.797  1.6177  1.0139  1.7958
 5613SOL    HW228476   1.465   2.125   8.822  1.2769  0.7708  0.2269
 5614SOL     OW28477   1.927   4.461   8.949 -0.5690  0.0873 -0.0647
 5614SOL    HW128478   2.022   4.472   8.942 -0.1995 -1.8082  1.8187
 5614SOL    HW228479   1.916   4.394   9.017  0.8102 -0.7060 -0.6268
 5615SOL     OW28480   3.039   1.020   8.695 -0.2141  0.1615  0.1814
 5615SOL    HW128481   3.124   1.054   8.666 -0.4596  0.2844 -0.4054
 5615SOL    HW228482   2.996   1.102   8.720 -0.5218  0.4208 -1.1954
 5616SOL     OW28483   1.550   2.476   4.175  0.3732  0.2985  0.1066
 5616SOL    HW128484   1.560   2.571   4.182  0.0673  0.4438 -1.4132
 5616SOL    HW228485   1.630   2.442   4.214  0.1968 -0.8563 -0.5480
 5617SOL     OW28486   2.083   0.716   2.768 -0.2518 -0.0262  0.1896
 5617SOL    HW128487   2.167   0.762   2.769 -0.3951  0.2976 -2.2411
 5617SOL    HW228488   2.082   0.660   2.690  2.4950  2.1850 -1.4436
 5618SOL     OW28489   3.400   3.138   3.229  0.0929 -0.0074  0.1886
 5618SOL    HW128490   3.355   3.219   3.251 -0.5324 -0.5067  0.7528
 5618SOL    HW228491   3.429   3.143   3.138 -0.4983  0.4757  0.0301
 5619SOL     OW28492   1.052   3.419   1.497  0.1252 -0.1066  0.1038
 5619SOL    HW128493   1.102   3.447   1.573 -3.0501  1.7705  1.5167
 5619SOL    HW228494   1.045   3.497   1.442 -0.0930  0.5500  1.0600
 5620SOL     OW28495   2.967   1.558   5.255 -0.4744 -0.2632  0.1705
 5620SOL    HW128496   2.958   1.651   5.275  0.8128 -0.5808  2.2231
 5620SOL    HW228497   2.982   1.526   5.344  0.8291 -0.9030 -0.2916
 5621SOL     OW28498   3.242   1.531   2.310 -0.1005  0.1040  0.2233
 5621SOL    HW128499   3.197   1.472   2.250  1.6853 -2.6060  1.5432
 5621SOL    HW228500   3.168   1.581   2.345  1.1372  0.7871  1.8459
 5622SOL     OW28501   2.221   1.802   8.953  0.9607  0.2307  0.1271
 5622SOL    HW128502   2.230   1.842   8.867  1.7555 -2.4134 -1.0140
 5622SOL    HW228503   2.307   1.765   8.973  0.4667 -0.2357  1.3830
 5623SOL     OW28504   4.540   3.711   8.432  0.1961 -0.0852 -0.5205
 5623SOL    HW128505   4.568   3.725   8.341 -1.0619  3.2863 -0.3681
 5623SOL    HW228506   4.529   3.616   8.433 -1.3858  0.1133 -0.6397
 5624SOL     OW28507   0.310   2.519   5.655 -0.0098 -0.0389  1.2439
 5624SOL    HW128508   0.270   2.591   5.703  1.6827  2.2710 -0.8140
 5624SOL    HW228509   0.302   2.458   5.728 -0.9599 -0.0915  1.0942
 5625SOL     OW28510   1.197   0.549   6.162  0.4573  0.0562 -0.6681
 5625SOL    HW128511   1.148   0.554   6.080 -0.8469  0.2940  0.1379
 5625SOL    HW228512   1.286   0.561   6.127  0.3974 -0.7323 -1.1072
 5626SOL     OW28513   3.319   4.550   5.678  0.3066 -0.2101 -0.5815
 5626SOL    HW128514   3.352   4.605   5.750 -0.5795  0.9052 -1.0394
 5626SOL    HW228515   3.299   4.615   5.611 -2.8041 -2.3746 -1.7680
 5627SOL     OW28516   3.986   2.256   3.810  0.1054  0.3090 -0.6035
 5627SOL    HW128517   3.893   2.276   3.799 -0.4680 -0.5205  2.8280
 5627SOL    HW228518   4.010   2.327   3.869 -0.1893  0.7918 -1.0648
 5628SOL     OW28519   0.723   0.498   6.351 -0.1886 -0.3173  0.3059
 5628SOL    HW128520   0.686   0.432   6.410 -0.7642 -0.7367 -0.5391
 5628SOL    HW228521   0.815   0.471   6.347 -0.5346 -1.1157 -2.3061
 5629SOL     OW28522   2.200   3.600  13.506 -0.0296  0.0421 -0.0060
 5629SOL    HW128523   2.144   3.537  13.461  1.0409  0.0644 -1.3641
 5629SOL    HW228524   2.258   3.623  13.433  0.6830  0.3980  0.6815
 5630SOL     OW28525   0.877   3.653   2.890 -0.4149  0.5448  0.0387
 5630SOL    HW128526   0.951   3.619   2.941  0.4407 -0.1007 -1.6288
 5630SOL    HW228527   0.823   3.575   2.884  0.6053 -0.3733  3.1199
 5631SOL     OW28528   4.019   4.616   1.893  0.3511 -0.3356 -0.4420
 5631SOL    HW128529   4.042   4.662   1.974 -0.8902 -0.6283  0.0733
 5631SOL    HW228530   3.931   4.650   1.876  0.8280  1.1168  0.0035
 5632SOL     OW28531   0.320   1.713   0.394 -0.9247  0.1006  0.0866
 5632SOL    HW128532   0.409   1.685   0.414 -0.7509  0.9308  0.4360
 5632SOL    HW228533   0.273   1.631   0.374  0.3246 -0.5877 -0.0314
 5633SOL     OW28534   2.837   0.177   7.263  0.5906  0.3674 -0.6248
 5633SOL    HW128535   2.833   0.262   7.307  0.7733  1.4833 -2.7934
 5633SOL    HW228536   2.795   0.123   7.330  0.4868  0.2994 -0.7446
 5634SOL     OW28537   4.343   0.703   8.142 -0.7881 -0.7831 -0.5192
 5634SOL    HW128538   4.362   0.646   8.068 -1.9361  0.2288 -1.5841
 5634SOL    HW228539   4.428   0.692   8.186 -0.3319  0.1384 -1.1801
 5635SOL     OW28540   1.016   3.226  14.598  0.6377 -0.7806 -0.3208
 5635SOL    HW128541   1.043   3.137  14.619  0.7961 -0.5334  0.5550
 5635SOL    HW228542   0.928   3.203  14.569 -0.0750 -0.5691  1.6671
 5636SOL     OW28543   1.186   2.712   4.114  0.1965 -0.0440 -0.3409
 5636SOL    HW128544   1.206   2.726   4.022  0.5412 -1.4664 -0.4827
 5636SOL    HW228545   1.272   2.711   4.156  1.0421 -0.6578 -2.1031
 5637SOL     OW28546   4.229   0.888  12.825  0.0238 -0.0447  0.5263
 5637SOL    HW128547   4.291   0.914  12.757 -0.5122 -1.2465 -0.4103
 5637SOL    HW228548   4.189   0.973  12.843 -0.3433 -0.7303  2.9932
 5638SOL     OW28549   1.094   3.881   7.585  0.4953  0.0545 -0.5164
 5638SOL    HW128550   1.182   3.848   7.604 -0.3978 -0.8344  1.9956
 5638SOL    HW228551   1.038   3.845   7.653 -2.6057  3.0557 -1.4945
 5639SOL     OW28552   4.699   1.152   2.948 -0.2458 -0.3373  0.9181
 5639SOL    HW128553   0.050   1.173   2.923 -1.4472  0.8581 -2.3414
 5639SOL    HW228554   4.716   1.071   2.997  0.1135 -1.4892 -1.0999
 5640SOL     OW28555   2.735   0.348  16.179 -0.9715 -0.0326  0.1214
 5640SOL    HW128556   2.778   0.304  16.106 -3.6549 -1.7234 -0.4385
 5640SOL    HW228557   2.667   0.282  16.192 -1.0236  0.4785  2.4976
 5641SOL     OW28558   1.370   2.977   8.088 -0.3331 -0.1260  0.4846
 5641SOL    HW128559   1.342   2.954   8.177 -0.7766  0.0804  0.3982
 5641SOL    HW228560   1.410   2.896   8.057  0.0082 -0.2583  1.2816
 5642SOL     OW28561   0.503   2.961   9.985  0.2548  0.4095 -0.1693
 5642SOL    HW128562   0.495   2.934  10.077  1.3787  1.3006  0.1985
 5642SOL    HW228563   0.418   2.928   9.958  0.0894  0.8227 -0.1429
 5643SOL     OW28564   4.310   3.963   2.092 -0.7916  0.4156 -0.2254
 5643SOL    HW128565   4.358   3.885   2.120 -1.0216 -0.6555 -2.8361
 5643SOL    HW228566   4.330   3.963   1.999  0.5270 -0.8398  0.0436
 5644SOL     OW28567   0.954   1.782   8.827 -0.4843  0.6641  0.2188
 5644SOL    HW128568   0.937   1.708   8.769  1.2058  1.0688 -0.7988
 5644SOL    HW228569   1.038   1.811   8.791 -0.5609  0.4455 -0.1404
 5645SOL     OW28570   0.879   1.682   3.230  0.3302  0.3547  0.7449
 5645SOL    HW128571   0.806   1.722   3.278 -1.6658 -1.2878 -0.9251
 5645SOL    HW228572   0.858   1.588   3.231 -2.3683  0.9219 -0.5854
 5646SOL     OW28573   1.849   3.227   1.320  0.0314  0.2235  0.2659
 5646SOL    HW128574   1.776   3.255   1.264 -1.4307 -2.3908  0.8908
 5646SOL    HW228575   1.847   3.132   1.309 -0.0617  0.4471 -1.6141
 5647SOL     OW28576   1.585   4.508   8.001  0.0772 -0.1073  0.0668
 5647SOL    HW128577   1.660   4.526   7.945 -0.3475 -0.1883 -0.5366
 5647SOL    HW228578   1.570   4.413   8.002 -2.1081  0.2140 -1.5732
 5648SOL     OW28579   2.759   3.481   2.082 -0.1386  0.7171 -0.3900
 5648SOL    HW128580   2.823   3.544   2.048 -0.6232  1.1277 -0.5513
 5648SOL    HW228581   2.687   3.494   2.021 -0.1606 -1.9278 -0.9010
 5649SOL     OW28582   1.102   4.415  10.191  0.0007  0.2417  0.6706
 5649SOL    HW128583   1.020   4.424  10.144  1.3083  1.7250 -1.3021
 5649SOL    HW228584   1.065   4.367  10.266 -1.6571 -0.6221 -0.6962
 5650SOL     OW28585   4.352   1.975   7.671 -0.3059 -0.0674 -0.0639
 5650SOL    HW128586   4.437   2.012   7.693  1.0743 -1.4992 -2.8780
 5650SOL    HW228587   4.359   1.987   7.576  0.5313 -1.8396 -0.2348
 5651SOL     OW28588   1.087   2.050   8.514 -0.2889 -0.4999  0.4029
 5651SOL    HW128589   1.087   2.133   8.468 -1.4770  0.5895  2.3515
 5651SOL    HW228590   1.006   2.061   8.565 -0.4037 -0.3231  0.1815
 5652SOL     OW28591   2.325   1.207   4.858 -0.2257  0.2359  0.2272
 5652SOL    HW128592   2.280   1.225   4.775 -0.7965 -0.5640  0.3573
 5652SOL    HW228593   2.288   1.268   4.922  1.9465 -0.4571  2.1490
 5653SOL     OW28594   4.685   2.374   2.480  0.2898  0.6479 -0.7456
 5653SOL    HW128595   4.664   2.283   2.500  2.5122  0.1950 -0.4567
 5653SOL    HW228596   4.680   2.365   2.385 -0.2068  2.1195 -0.8549
 5654SOL     OW28597   3.732   3.928   1.801  0.3221 -0.1500 -0.9329
 5654SOL    HW128598   3.749   3.834   1.809 -0.1116 -0.2079 -0.6790
 5654SOL    HW228599   3.654   3.925   1.745 -0.3546  0.4857 -0.0176
 5655SOL     OW28600   1.049   2.157  15.244  0.3706 -0.4849  0.2703
 5655SOL    HW128601   0.977   2.202  15.288  0.1497  2.3041 -2.9519
 5655SOL    HW228602   1.057   2.230  15.183  0.9502  0.1084  1.0694
 5656SOL     OW28603   4.626   0.868   3.114 -0.4521 -0.8326 -0.1824
 5656SOL    HW128604   4.566   0.868   3.189  1.3371 -0.6379  1.2333
 5656SOL    HW228605   4.591   0.801   3.055 -1.8050  1.3779 -1.8939
 5657SOL     OW28606   4.546   3.389   7.668 -0.3402 -0.2890  0.4992
 5657SOL    HW128607   4.634   3.385   7.705 -0.1250  1.2067  0.1362
 5657SOL    HW228608   4.524   3.482   7.657  0.3024 -0.1821  0.1220
 5658SOL     OW28609   0.270   2.522   4.278  0.8659  0.4874  0.1323
 5658SOL    HW128610   0.208   2.491   4.212 -0.8438  0.9492  1.5404
 5658SOL    HW228611   0.305   2.597   4.229  2.5842  0.9368  2.0736
 5659SOL     OW28612   3.220   1.945   6.972 -0.6923 -0.0983  0.1168
 5659SOL    HW128613   3.136   1.981   6.943  0.4304  1.0427 -1.6838
 5659SOL    HW228614   3.282   1.955   6.900 -0.8687 -1.1460 -0.1853
 5660SOL     OW28615   1.545   3.853   4.725 -0.1805 -0.2567 -0.1342
 5660SOL    HW128616   1.515   3.919   4.663  0.1997 -2.1889 -2.3538
 5660SOL    HW228617   1.477   3.787   4.731  0.1236 -0.5969 -0.4230
 5661SOL     OW28618   4.422   3.757   7.068  0.0707  0.5862  0.0903
 5661SOL    HW128619   4.384   3.701   7.136 -1.4092 -0.1539 -1.3351
 5661SOL    HW228620   4.349   3.807   7.031  1.1755  1.2004 -1.2792
 5662SOL     OW28621   2.465   2.896   5.100 -0.3309  0.1538  0.2874
 5662SOL    HW128622   2.427   2.982   5.116 -0.5188 -0.5565  3.7644
 5662SOL    HW228623   2.436   2.855   5.181  0.5828  2.4163  1.7561
 5663SOL     OW28624   3.104   0.065  12.641  0.4208  0.2161  0.0902
 5663SOL    HW128625   3.098   0.146  12.590  1.4013 -1.4185 -2.5574
 5663SOL    HW228626   3.078   0.017  12.563 -2.5406 -0.4678  1.4717
 5664SOL     OW28627   3.226   1.520   5.615 -0.7505  0.3651  0.1929
 5664SOL    HW128628   3.214   1.529   5.710  2.4571  0.3905  0.5801
 5664SOL    HW228629   3.157   1.578   5.581  0.1559  1.1364 -0.3192
 5665SOL     OW28630   3.575   0.382   3.647  0.1330 -0.3832 -0.1180
 5665SOL    HW128631   3.503   0.441   3.625  0.8979  0.2734 -0.8463
 5665SOL    HW228632   3.572   0.404   3.741 -2.6152 -0.8218 -0.1062
 5666SOL     OW28633   3.148   4.199  12.708  0.1002 -0.1387 -0.2993
 5666SOL    HW128634   3.070   4.221  12.657  1.2882  0.9538 -1.6308
 5666SOL    HW228635   3.204   4.274  12.729  1.0411 -0.2012 -2.5188
 5667SOL     OW28636   3.889   0.210  11.594  0.3724  0.2843  0.8200
 5667SOL    HW128637   3.895   0.243  11.683 -1.3196  0.9143  0.7040
 5667SOL    HW228638   3.934   0.287  11.559 -0.3807  0.4033  0.1161
 5668SOL     OW28639   3.525   1.619   1.542 -0.4581  0.2627  1.6522
 5668SOL    HW128640   3.512   1.651   1.632 -0.2371  0.5240  1.5925
 5668SOL    HW228641   3.472   1.684   1.496  1.8283  0.5025 -0.6326
 5669SOL     OW28642   1.254   1.054   8.321  0.5630 -0.3576  0.1769
 5669SOL    HW128643   1.305   0.984   8.362 -0.4018 -1.4695 -0.5143
 5669SOL    HW228644   1.205   1.014   8.249 -0.3402  1.9205 -0.4988
 5670SOL     OW28645   4.586   3.574  12.965  0.6868 -0.7277 -0.2043
 5670SOL    HW128646   4.646   3.605  13.032  0.2641  0.5614 -0.4179
 5670SOL    HW228647   4.566   3.655  12.918  2.1401 -1.9628 -3.0017
 5671SOL     OW28648   4.481   2.211   6.490  0.4262  0.2474 -0.8273
 5671SOL    HW128649   4.416   2.281   6.484  1.0798  1.0562  1.4483
 5671SOL    HW228650   4.465   2.175   6.402  0.0144 -1.5650 -0.0169
 5672SOL     OW28651   4.219   4.554   9.471  0.7848 -0.2219 -0.0511
 5672SOL    HW128652   4.195   4.558   9.378  1.1071  0.2398 -0.1177
 5672SOL    HW228653   4.240   4.461   9.474  1.5683 -0.0113  0.8906
 5673SOL     OW28654   0.228   1.528   1.677  0.1382  0.0227  0.2601
 5673SOL    HW128655   0.257   1.498   1.591  2.0983  1.8359  0.2786
 5673SOL    HW228656   0.145   1.488   1.701  0.3654 -1.2510 -1.0163
 5674SOL     OW28657   2.222   0.156   4.767  0.4230  0.0264 -0.6879
 5674SOL    HW128658   2.131   0.153   4.736 -0.0016  3.1820  0.3114
 5674SOL    HW228659   2.273   0.163   4.686 -1.0588  0.5839 -1.5684
 5675SOL     OW28660   2.646   2.497  11.124 -0.0110 -0.1445  0.2757
 5675SOL    HW128661   2.638   2.411  11.167  1.7155 -1.7383 -2.5694
 5675SOL    HW228662   2.617   2.467  11.038  0.6184  0.6586 -0.2146
 5676SOL     OW28663   0.168   2.114   0.061  0.2334  0.4443 -0.9197
 5676SOL    HW128664   0.178   2.188   0.121  1.0873 -1.1165  0.9083
 5676SOL    HW228665   0.258   2.085   0.045 -0.1658 -0.6227 -1.2616
 5677SOL     OW28666   3.956   2.096   4.442 -0.2363 -0.8166  0.6881
 5677SOL    HW128667   3.871   2.104   4.486 -0.8572 -0.1918 -0.6264
 5677SOL    HW228668   4.000   2.051   4.514 -0.7304 -2.5714 -0.1028
 5678SOL     OW28669   2.594   2.033  16.645  0.4116  0.1651 -0.2938
 5678SOL    HW128670   2.622   1.968  16.710 -1.6495  0.9447  1.3771
 5678SOL    HW228671   2.605   2.116  16.691  1.2719  1.0903 -2.1655
 5679SOL     OW28672   1.571   1.893  15.781  0.4839  0.2331  0.0906
 5679SOL    HW128673   1.570   1.919  15.873  2.4468  1.8502 -0.3391
 5679SOL    HW228674   1.636   1.825  15.762  1.7472  2.2430 -2.7893
 5680SOL     OW28675   0.253   2.068  12.326 -0.3228 -0.5223 -0.5628
 5680SOL    HW128676   0.270   2.102  12.414  4.2730 -1.0035 -1.2275
 5680SOL    HW228677   0.341   2.044  12.297 -0.8802 -0.1680 -2.4982
 5681SOL     OW28678   1.308   3.463   5.343 -0.1582 -0.1991  0.1724
 5681SOL    HW128679   1.291   3.516   5.265 -1.4781  0.8017  1.1442
 5681SOL    HW228680   1.400   3.442   5.328 -0.5775 -0.6015 -1.9091
 5682SOL     OW28681   2.213   0.842  17.118 -0.1080 -0.0042 -0.4633
 5682SOL    HW128682   2.264   0.882  17.189 -0.1703 -0.7380 -0.0117
 5682SOL    HW228683   2.247   0.753  17.116 -1.4036 -0.4716 -1.2475
 5683SOL     OW28684   1.119   2.769   7.583  0.2251  0.1058  0.0922
 5683SOL    HW128685   1.138   2.713   7.658  2.2589 -1.9107 -1.9320
 5683SOL    HW228686   1.035   2.730   7.562  0.1910  0.3117 -0.1559
 5684SOL     OW28687   0.501   1.048   9.385  0.9187 -0.1812 -0.2855
 5684SOL    HW128688   0.435   0.983   9.362  1.7532 -1.1176 -0.0338
 5684SOL    HW228689   0.486   1.124   9.329 -0.7554  0.2617  0.7513
 5685SOL     OW28690   0.899   3.327   8.044  0.4849  0.1234 -0.0114
 5685SOL    HW128691   0.942   3.378   7.975 -0.1807 -0.8885 -1.1780
 5685SOL    HW228692   0.970   3.328   8.108  1.5065  3.4468 -1.2414
 5686SOL     OW28693   2.850   3.748   7.729  0.4825  0.2660 -0.7140
 5686SOL    HW128694   2.943   3.739   7.750 -0.2050  1.0938  2.6579
 5686SOL    HW228695   2.821   3.657   7.739  0.4958  0.3416 -0.0129
 5687SOL     OW28696   4.046   0.864   2.036  0.3870  0.1990 -0.4131
 5687SOL    HW128697   4.022   0.898   2.122 -2.8406 -0.8014 -0.9321
 5687SOL    HW228698   4.133   0.902   2.024 -0.3664  1.6836 -1.1535
 5688SOL     OW28699   0.448   3.911  14.616  0.2083 -0.3458  0.3843
 5688SOL    HW128700   0.533   3.930  14.576 -0.4008  1.5092 -0.0431
 5688SOL    HW228701   0.451   3.954  14.701 -0.4650 -2.3394  1.4198
 5689SOL     OW28702   0.098   4.603   4.139 -0.0557  0.3450  0.0198
 5689SOL    HW128703   0.068   4.588   4.049  2.2019  0.8558 -0.8102
 5689SOL    HW228704   0.069   4.524   4.184  0.5631  0.3013  0.3359
 5690SOL     OW28705   0.181   1.785   2.775  0.1799  0.1263 -0.0543
 5690SOL    HW128706   0.108   1.769   2.835  1.7779 -2.4412  1.2018
 5690SOL    HW228707   0.137   1.782   2.691  0.5027  1.2524 -0.2589
 5691SOL     OW28708   2.333   3.955   4.589  0.1102 -0.0769 -0.3489
 5691SOL    HW128709   2.383   3.977   4.511  0.3338  1.5451  0.2525
 5691SOL    HW228710   2.327   4.032   4.645  1.0585 -0.3824  0.1726
 5692SOL     OW28711   3.961   1.719   3.091  0.7567 -0.3169 -0.5656
 5692SOL    HW128712   4.052   1.712   3.121 -0.2120 -1.2909  2.2044
 5692SOL    HW228713   3.964   1.795   3.033  0.8161 -0.1527 -0.3501
 5693SOL     OW28714   3.011   0.351   2.184 -0.0930  0.0354 -0.6912
 5693SOL    HW128715   2.934   0.315   2.140  1.2376 -0.1331 -2.9358
 5693SOL    HW228716   3.015   0.307   2.269  1.3265  2.0896  0.3234
 5694SOL     OW28717   4.587   4.663   8.603 -0.0793 -0.4682 -0.7546
 5694SOL    HW128718   4.597   4.729   8.671  3.5304  0.1742 -1.9049
 5694SOL    HW228719   4.578   4.710   8.520 -3.0724  2.2033  1.0974
 5695SOL     OW28720   3.823   0.128  17.729  0.0270 -0.0712 -0.1194
 5695SOL    HW128721   3.809   0.222  17.734  0.6701 -0.0585  1.4285
 5695SOL    HW228722   3.895   0.129  17.666  1.8178  2.2577  1.9851
 5696SOL     OW28723   2.058   0.238  11.949 -0.1592 -0.8601 -0.0277
 5696SOL    HW128724   1.991   0.299  11.981  0.8257  0.2708 -0.1337
 5696SOL    HW228725   2.024   0.152  11.974 -1.2625 -0.1018  1.1144
 5697SOL     OW28726   4.654   0.137   3.764  0.2245  0.5192  0.3634
 5697SOL    HW128727   4.570   0.165   3.729  0.4445  1.8376  0.8862
 5697SOL    HW228728   4.641   0.042   3.774  0.3642  0.6278  1.4761
 5698SOL     OW28729   1.692   0.038  14.608 -0.5521 -0.0546  0.7516
 5698SOL    HW128730   1.661   0.128  14.608  0.6796  0.3737 -0.3130
 5698SOL    HW228731   1.785   0.042  14.587 -1.3314 -0.6711 -2.9671
 5699SOL     OW28732   0.988   1.228   7.605  0.1198  0.1521 -0.0553
 5699SOL    HW128733   1.010   1.319   7.628 -1.4606  0.5906 -0.2836
 5699SOL    HW228734   0.893   1.226   7.595  0.3579 -0.3873 -2.0856
 5700SOL     OW28735   2.202   0.411   3.185  0.3938 -0.4922  0.5979
 5700SOL    HW128736   2.120   0.420   3.137 -0.2235 -0.2216  1.7004
 5700SOL    HW228737   2.201   0.481   3.251 -2.6426 -0.3068  0.3215
 5701SOL     OW28738   3.884   1.999  12.853  0.1936  0.0655  0.4883
 5701SOL    HW128739   3.915   1.943  12.924 -0.4884 -0.6664  0.2014
 5701SOL    HW228740   3.939   1.979  12.777  0.1804  1.5033  0.1152
 5702SOL     OW28741   0.952   4.464  11.335 -0.2791 -0.1430  0.2552
 5702SOL    HW128742   0.923   4.433  11.420  0.8555  1.9482  1.3866
 5702SOL    HW228743   0.876   4.511  11.303 -0.0206  0.0561 -0.0723
 5703SOL     OW28744   4.434   1.150   0.998 -0.6509  0.0169  0.2418
 5703SOL    HW128745   4.373   1.088   0.958 -1.7490  0.9034  0.5848
 5703SOL    HW228746   4.517   1.123   0.957 -0.7841 -0.7903  0.5033
 5704SOL     OW28747   0.633   0.851   5.109 -0.0375  0.0538 -0.1285
 5704SOL    HW128748   0.719   0.810   5.106  0.5530  1.3907 -1.5330
 5704SOL    HW228749   0.625   0.869   5.015  1.4888  1.0629 -0.0648
 5705SOL     OW28750   1.013   3.134   1.525 -0.0035  0.0646 -0.0969
 5705SOL    HW128751   1.014   3.226   1.497 -0.5923  0.5931  1.6129
 5705SOL    HW228752   1.025   3.151   1.618 -1.8301  0.6730  0.0385
 5706SOL     OW28753   4.444   1.711   7.335  0.2088 -0.3729 -0.1235
 5706SOL    HW128754   4.473   1.743   7.250  1.3555  1.2538  0.8880
 5706SOL    HW228755   4.405   1.787   7.378 -1.1917 -0.5509 -1.0628
 5707SOL     OW28756   0.398   4.593  16.566  0.0332  0.2500 -0.4152
 5707SOL    HW128757   0.438   4.601  16.480 -0.1366 -2.0682 -0.7040
 5707SOL    HW228758   0.311   4.630  16.556  0.2244  0.2663 -1.9057
 5708SOL     OW28759   0.498   4.726   9.025  0.0224 -0.7352 -0.0333
 5708SOL    HW128760   0.572   4.670   9.003  0.1493 -0.4029 -0.4563
 5708SOL    HW228761   0.446   4.732   8.945 -0.1416  1.5159  0.2331
 5709SOL     OW28762   2.810   3.681   3.629 -0.4735 -0.1340  0.1230
 5709SOL    HW128763   2.879   3.716   3.571 -0.8405  0.4305  0.0276
 5709SOL    HW228764   2.829   3.587   3.626 -3.3443 -0.6404 -2.0872
 5710SOL     OW28765   0.336   1.357  16.142  0.4194 -0.8120 -0.1447
 5710SOL    HW128766   0.262   1.354  16.081  1.2169 -0.0637 -1.1625
 5710SOL    HW228767   0.295   1.382  16.225  1.0051 -0.8155  0.1442
 5711SOL     OW28768   1.942   2.221  11.022  0.0754 -0.3721 -0.2134
 5711SOL    HW128769   1.895   2.146  10.985 -0.7640 -0.3634  0.8355
 5711SOL    HW228770   1.888   2.253  11.094 -0.3547  1.6932 -1.4505
 5712SOL     OW28771   1.915   3.816  10.655  0.1773  0.2558 -0.0369
 5712SOL    HW128772   1.831   3.841  10.693 -1.0860 -0.3907 -2.4656
 5712SOL    HW228773   1.896   3.740  10.601 -1.6851  1.2116 -0.6993
 5713SOL     OW28774   2.724   3.264   8.710  0.0988  0.2032 -0.1083
 5713SOL    HW128775   2.758   3.176   8.728 -0.7176  0.0927  0.8918
 5713SOL    HW228776   2.778   3.282   8.633  0.3754  1.4665  0.3905
 5714SOL     OW28777   2.206   0.607   8.166  0.1559 -0.3681 -0.1155
 5714SOL    HW128778   2.187   0.668   8.237  0.7513  0.4921 -0.7008
 5714SOL    HW228779   2.192   0.525   8.214 -1.9358  0.4764  0.7206
 5715SOL     OW28780   4.206   1.564   6.371 -0.2245  0.2835  0.3490
 5715SOL    HW128781   4.112   1.550   6.356 -0.2449 -0.6001  1.2469
 5715SOL    HW228782   4.223   1.638   6.313  0.4417  0.6047  0.9566
 5716SOL     OW28783   3.363   2.445  11.579  0.5466 -0.1399 -0.0930
 5716SOL    HW128784   3.299   2.375  11.571 -0.3803  0.4443  2.1494
 5716SOL    HW228785   3.446   2.397  11.584  1.8608  2.1014 -0.2285
 5717SOL     OW28786   1.733   2.071   1.327 -0.4011 -0.1887 -0.2147
 5717SOL    HW128787   1.804   2.013   1.354 -0.4115  0.1179  0.4771
 5717SOL    HW228788   1.743   2.061   1.232  2.2794  1.1120 -0.0678
 5718SOL     OW28789   3.193   2.769   4.559  0.1159 -0.1761  0.5375
 5718SOL    HW128790   3.264   2.705   4.564  0.5088  0.4817  3.4470
 5718SOL    HW228791   3.217   2.830   4.629 -0.9355  0.5199  0.2961
 5719SOL     OW28792   3.860   4.358   7.988 -0.3664  0.3162  0.2512
 5719SOL    HW128793   3.818   4.331   8.069  0.9903 -2.9405 -0.1006
 5719SOL    HW228794   3.908   4.276   7.970 -1.0805  0.0216 -0.3054
 5720SOL     OW28795   4.383   3.190   8.177 -0.6126 -0.1816 -0.2458
 5720SOL    HW128796   4.444   3.137   8.125 -0.6435  0.7848 -1.2852
 5720SOL    HW228797   4.300   3.168   8.134 -0.8801  0.8501 -0.2652
 5721SOL     OW28798   4.352   4.272   1.695  0.4257 -0.8105  0.4823
 5721SOL    HW128799   4.306   4.300   1.774  2.0375  0.0527  1.1033
 5721SOL    HW228800   4.440   4.265   1.732  0.1223 -0.1013  1.3336
 5722SOL     OW28801   4.540   3.766   4.755  0.4060  0.1909  0.1034
 5722SOL    HW128802   4.602   3.836   4.735 -0.0003  0.1424 -1.2642
 5722SOL    HW228803   4.487   3.815   4.818  1.1382  1.5744 -0.3528
 5723SOL     OW28804   1.217   2.423   7.586  0.4006 -0.1785 -0.7884
 5723SOL    HW128805   1.258   2.475   7.516 -2.1345 -0.2402 -2.2901
 5723SOL    HW228806   1.285   2.359   7.606  1.9125  1.0435 -2.0069
 5724SOL     OW28807   4.698   4.323  12.349 -0.5614 -0.7403  0.0119
 5724SOL    HW128808   4.722   4.242  12.394  0.2256 -2.5347 -3.6286
 5724SOL    HW228809   0.038   4.377  12.356 -0.3733 -0.9957 -0.1518
 5725SOL     OW28810   4.042   3.754   1.692  0.0427 -0.6875  0.1551
 5725SOL    HW128811   3.995   3.676   1.721  1.7094 -2.2356 -1.2506
 5725SOL    HW228812   4.037   3.744   1.597 -1.2706  0.7351  0.0893
 5726SOL     OW28813   2.590   3.989  17.586  0.2242  0.4121 -0.4564
 5726SOL    HW128814   2.641   4.064  17.557  1.0845 -0.1320 -0.3269
 5726SOL    HW228815   2.502   4.027  17.579  0.0663  0.4205  1.6976
 5727SOL     OW28816   4.472   4.691   4.642  1.1878 -0.0723  0.1975
 5727SOL    HW128817   4.426   0.024   4.684 -1.4824 -2.4888  1.5004
 5727SOL    HW228818   4.559   4.698   4.683  0.6551 -3.2504  1.9227
 5728SOL     OW28819   0.563   2.027   3.252 -0.3864 -0.1533 -0.4990
 5728SOL    HW128820   0.530   2.053   3.166  0.7663 -1.7271 -1.4055
 5728SOL    HW228821   0.538   2.106   3.300  0.3522 -0.5424  0.5353
 5729SOL     OW28822   3.836   3.644   5.150  0.1927  0.2751 -0.0069
 5729SOL    HW128823   3.904   3.709   5.133  0.6653  0.0814  1.1789
 5729SOL    HW228824   3.900   3.577   5.175  0.4514  0.4105 -0.2988
 5730SOL     OW28825   1.661   2.164  16.316  0.1120  0.3069  0.2858
 5730SOL    HW128826   1.725   2.231  16.294  0.9440 -0.7804 -0.6075
 5730SOL    HW228827   1.707   2.082  16.299 -1.2798 -0.4423  0.1211
 5731SOL     OW28828   0.269   0.246   2.447  0.1110 -0.4065  0.4335
 5731SOL    HW128829   0.247   0.233   2.355 -1.9737  1.7942  0.6088
 5731SOL    HW228830   0.358   0.280   2.446  0.5316 -1.6263 -2.6901
 5732SOL     OW28831   2.924   4.581   4.805 -0.4200 -0.0484  0.1103
 5732SOL    HW128832   2.904   4.506   4.749  0.2439  0.3841 -0.7010
 5732SOL    HW228833   2.871   4.559   4.882 -1.9514  2.3077 -0.2494
 5733SOL     OW28834   2.703   0.764  11.586 -0.4287  0.2534 -0.0440
 5733SOL    HW128835   2.654   0.737  11.508  0.4312  2.6277 -1.4077
 5733SOL    HW228836   2.749   0.837  11.545  0.9998 -0.5170  0.2061
 5734SOL     OW28837   0.705   0.127   5.565  0.2295 -0.2868 -0.4879
 5734SOL    HW128838   0.709   0.120   5.661 -0.7679  0.1047 -0.4161
 5734SOL    HW228839   0.689   0.035   5.546 -0.7505 -0.2600  0.1636
 5735SOL     OW28840   0.091   4.301  17.400  0.0362  0.0917 -0.6799
 5735SOL    HW128841   0.143   4.350  17.336 -1.4905  1.8644 -0.5833
 5735SOL    HW228842   0.105   4.208  17.381 -0.1942 -0.0824  0.0084
 5736SOL     OW28843   0.753   1.471   2.167  0.0423  0.6545 -0.1845
 5736SOL    HW128844   0.760   1.386   2.122  0.9443  0.7628 -0.2385
 5736SOL    HW228845   0.676   1.500   2.117  0.1035 -0.3429 -0.8622
 5737SOL     OW28846   0.433   1.333   2.697  0.3250  0.7998 -0.2717
 5737SOL    HW128847   0.338   1.340   2.694  0.3433  1.1807 -0.0660
 5737SOL    HW228848   0.448   1.257   2.753  0.8102 -0.0932 -1.6211
 5738SOL     OW28849   4.659   0.248   4.413  0.0396 -0.2224 -0.1221
 5738SOL    HW128850   4.589   0.227   4.351  2.3966 -1.8627 -2.2916
 5738SOL    HW228851   4.692   0.159   4.425  1.3207  0.3938  0.8534
 5739SOL     OW28852   4.071   0.249  14.589  0.2988  0.0908  0.3784
 5739SOL    HW128853   4.127   0.173  14.568 -0.0968 -0.7018  2.1974
 5739SOL    HW228854   4.115   0.277  14.669 -0.5004  1.9200  0.1567
 5740SOL     OW28855   1.222   1.953  11.042  0.2035 -0.1603 -0.2006
 5740SOL    HW128856   1.315   1.951  11.061  0.3237 -1.3250 -0.9052
 5740SOL    HW228857   1.190   1.960  11.132 -2.0081  0.6619 -1.0218
 5741SOL     OW28858   0.320   0.601   0.483  0.2059 -1.1680 -0.3731
 5741SOL    HW128859   0.313   0.514   0.445 -0.6368 -1.1797 -0.1956
 5741SOL    HW228860   0.356   0.644   0.406  0.2559 -0.0374  0.2754
 5742SOL     OW28861   0.194   1.994  15.068 -0.3540 -0.2125 -0.7781
 5742SOL    HW128862   0.268   1.933  15.072 -1.3858 -1.4291 -0.3358
 5742SOL    HW228863   0.240   2.073  15.097  1.1528 -1.7402  0.9818
 5743SOL     OW28864   0.818   3.737   4.058 -0.1236 -0.3136  0.1973
 5743SOL    HW128865   0.730   3.756   4.091 -0.1429  1.2493 -0.7792
 5743SOL    HW228866   0.833   3.651   4.097  2.2051  1.2402  2.8037
 5744SOL     OW28867   0.571   1.598  14.902 -0.3375  0.3393 -0.1880
 5744SOL    HW128868   0.543   1.507  14.895 -0.0660  0.2776 -0.4984
 5744SOL    HW228869   0.618   1.609  14.819  1.0704  1.8037  0.8117
 5745SOL     OW28870   2.068   1.312   3.426 -0.2896 -0.4647  0.1612
 5745SOL    HW128871   2.099   1.402   3.419  1.3219 -1.1280 -1.3323
 5745SOL    HW228872   2.137   1.269   3.475 -1.2508 -1.3346  0.7609
 5746SOL     OW28873   2.793   2.780  13.844 -0.6324 -0.1543 -0.3304
 5746SOL    HW128874   2.699   2.792  13.829 -0.6270 -1.6841 -1.6249
 5746SOL    HW228875   2.824   2.762  13.755 -0.6934  2.6075 -0.9082
 5747SOL     OW28876   2.371   2.267   5.673 -0.0986 -0.3055 -0.9392
 5747SOL    HW128877   2.450   2.282   5.725 -0.8556  1.0169 -0.1741
 5747SOL    HW228878   2.361   2.351   5.627  0.1123 -0.7864 -1.8620
 5748SOL     OW28879   2.527   0.700   5.564  0.2670 -0.3074  0.7289
 5748SOL    HW128880   2.542   0.794   5.568 -0.7619 -0.1443  0.6628
 5748SOL    HW228881   2.611   0.671   5.601  1.4599  0.7836 -1.1492
 5749SOL     OW28882   3.580   0.060   8.291  0.4567 -0.0423  0.3118
 5749SOL    HW128883   3.588   4.717   8.339  0.7295 -1.0468 -1.4767
 5749SOL    HW228884   3.648   0.035   8.228  1.0303  2.1751  0.0666
 5750SOL     OW28885   0.490   0.211   1.835  0.2774 -0.5363  0.4441
 5750SOL    HW128886   0.457   0.144   1.895  0.5735  0.2947  1.5394
 5750SOL    HW228887   0.474   0.165   1.753  1.8191  1.2760 -0.8801
 5751SOL     OW28888   3.971   3.213   6.583  0.1086  0.4112 -0.0499
 5751SOL    HW128889   3.877   3.223   6.570 -0.0325  0.0562  0.6902
 5751SOL    HW228890   3.982   3.118   6.573  1.3196  0.6533 -0.9283
 5752SOL     OW28891   3.470   1.078   5.823  0.6542  0.2714 -0.1956
 5752SOL    HW128892   3.526   1.023   5.769 -0.6687  0.5089 -1.8060
 5752SOL    HW228893   3.384   1.071   5.781 -0.4320 -1.5078  2.2872
 5753SOL     OW28894   2.961   4.176   4.020  0.0675  0.1359 -0.7414
 5753SOL    HW128895   2.925   4.206   3.937 -0.5542 -3.7051 -1.8387
 5753SOL    HW228896   3.025   4.244   4.041  0.6434 -1.4747  2.8345
 5754SOL     OW28897   0.125   1.627  10.076 -0.0160 -0.6677  0.2959
 5754SOL    HW128898   0.069   1.572  10.130 -1.9148  3.0730  2.1364
 5754SOL    HW228899   0.114   1.584   9.991  1.5937 -1.6500  0.5655
 5755SOL     OW28900   1.966   1.601   3.410 -0.2873  0.1483 -0.3059
 5755SOL    HW128901   1.919   1.520   3.432  0.4337  0.3632  2.0235
 5755SOL    HW228902   1.915   1.668   3.455  1.3669 -0.3949  2.4095
 5756SOL     OW28903   0.662   2.638   2.328  0.4722 -0.5858 -0.0131
 5756SOL    HW128904   0.652   2.555   2.374  0.2964 -0.3365  0.4024
 5756SOL    HW228905   0.583   2.684   2.358  1.5862  1.5759 -0.3414
 5757SOL     OW28906   2.869   2.118   3.349  0.1961  0.1717 -0.6557
 5757SOL    HW128907   2.859   2.193   3.408  1.1382  0.8920 -1.4069
 5757SOL    HW228908   2.776   2.097   3.343  0.4309 -1.3551  1.3411
 5758SOL     OW28909   0.609   4.522   1.250  0.2931 -0.1252  0.2243
 5758SOL    HW128910   0.538   4.541   1.188 -0.6056  1.4809  1.7805
 5758SOL    HW228911   0.637   4.437   1.215 -1.8111 -0.2501 -1.2182
 5759SOL     OW28912   2.107   3.801   4.558  0.0395  0.0185 -0.4952
 5759SOL    HW128913   2.184   3.854   4.575  0.0821 -0.2113  0.0062
 5759SOL    HW228914   2.134   3.718   4.594 -1.6456 -0.4210 -0.2223
 5760SOL     OW28915   2.087   2.608   9.621  0.0476  0.1849  0.0774
 5760SOL    HW128916   2.045   2.578   9.541  1.8974  0.8430 -1.1295
 5760SOL    HW228917   2.008   2.620   9.675  0.0129  0.1556  0.0333
 5761SOL     OW28918   2.415   0.091   4.243 -0.1951 -0.1708  0.3107
 5761SOL    HW128919   2.495   0.080   4.191  0.7721 -1.2372  2.0471
 5761SOL    HW228920   2.359   0.037   4.188 -1.0820 -0.1544  1.2001
 5762SOL     OW28921   3.622   2.116   8.385 -0.0783 -0.2200  0.1548
 5762SOL    HW128922   3.711   2.082   8.385  0.4936  1.2630 -1.6260
 5762SOL    HW228923   3.629   2.208   8.359  1.9849 -0.5072 -0.3140
 5763SOL     OW28924   2.343   1.591   0.389 -0.4525  0.1269  0.3995
 5763SOL    HW128925   2.413   1.545   0.436 -0.2546  1.2481  1.1837
 5763SOL    HW228926   2.281   1.617   0.456 -0.2957  3.4248 -0.7404
 5764SOL     OW28927   0.160   3.059  12.931 -0.6496 -0.7053  0.3203
 5764SOL    HW128928   0.194   3.141  12.969 -0.4671  0.4311 -2.2651
 5764SOL    HW228929   0.094   3.099  12.874 -0.4702  1.7610  1.8120
 5765SOL     OW28930   3.301   2.205   6.144  0.7535 -0.1726  0.3169
 5765SOL    HW128931   3.211   2.201   6.178  1.0674 -1.3261  1.0408
 5765SOL    HW228932   3.350   2.138   6.192  2.2582  0.7655  0.0552
 5766SOL     OW28933   3.272   4.520   4.539  0.3624  0.3380 -0.3324
 5766SOL    HW128934   3.275   4.426   4.522 -0.7480  0.4498 -1.1695
 5766SOL    HW228935   3.336   4.558   4.478  0.8438  1.3695  0.8122
 5767SOL     OW28936   3.254   4.023   5.229 -0.1961 -0.2063 -0.1079
 5767SOL    HW128937   3.296   4.107   5.246 -0.3879  0.2590 -1.9830
 5767SOL    HW228938   3.291   4.014   5.141  0.0471  0.9533 -0.1210
 5768SOL     OW28939   2.801   3.401   3.681  0.0339 -0.1324 -0.1985
 5768SOL    HW128940   2.838   3.315   3.659  1.6838  0.4873  0.1958
 5768SOL    HW228941   2.805   3.408   3.776  1.4018  0.3753 -0.2926
 5769SOL     OW28942   4.704   1.087   1.883 -0.0022  0.1042 -0.5821
 5769SOL    HW128943   4.711   1.047   1.970 -2.0407 -2.0826 -1.4273
 5769SOL    HW228944   4.615   1.120   1.878 -0.1666 -0.2500  0.0295
 5770SOL     OW28945   4.244   1.614   4.349 -0.1994 -0.2502  0.0566
 5770SOL    HW128946   4.285   1.569   4.275  0.0934 -0.2604  0.2282
 5770SOL    HW228947   4.191   1.682   4.306 -1.4444 -2.1534 -1.4186
 5771SOL     OW28948   4.442   0.311   5.835 -0.1469 -0.3575  0.0475
 5771SOL    HW128949   4.518   0.305   5.893  0.4683 -1.4487 -0.8964
 5771SOL    HW228950   4.463   0.395   5.793 -1.0206  0.1623  0.6270
 5772SOL     OW28951   4.629   2.614   1.837  0.3425  0.4597  0.0284
 5772SOL    HW128952   4.556   2.666   1.803 -0.2678 -2.1755 -2.6459
 5772SOL    HW228953   4.667   2.665   1.909 -1.2089 -1.3056  2.0876
 5773SOL     OW28954   2.229   2.490   3.361  0.2024  0.0888 -0.1895
 5773SOL    HW128955   2.144   2.470   3.400 -0.2203  0.2649 -1.0366
 5773SOL    HW228956   2.268   2.531   3.439 -1.4961 -0.3204  0.8789
 5774SOL     OW28957   4.090   1.207   1.345  0.2998 -0.5641  0.0509
 5774SOL    HW128958   4.126   1.223   1.432 -1.9178 -1.7915  1.1877
 5774SOL    HW228959   3.999   1.221   1.369 -0.0930 -3.0327 -0.0287
 5775SOL     OW28960   1.816   0.583   0.010  0.5829  0.4893 -0.0609
 5775SOL    HW128961   1.892   0.547  17.720 -0.0303 -0.2581 -0.4980
 5775SOL    HW228962   1.765   0.505  17.745 -0.1237  0.6067  1.2265
 5776SOL     OW28963   3.350   0.526  17.615 -1.1158  0.0505  0.2020
 5776SOL    HW128964   3.327   0.450  17.562 -0.0935 -0.3123  0.2817
 5776SOL    HW228965   3.270   0.545  17.664 -0.9223  1.5912 -0.0918
 5777SOL     OW28966   0.409   4.561   2.915 -0.0112 -0.1818  0.0569
 5777SOL    HW128967   0.421   4.654   2.898 -1.2140 -0.0006  0.2096
 5777SOL    HW228968   0.457   4.524   2.840 -0.4583 -1.3683  0.3469
 5778SOL     OW28969   2.361   3.176  17.292 -0.2331 -0.1329  0.3870
 5778SOL    HW128970   2.308   3.182  17.371 -0.6647 -0.5813  0.1225
 5778SOL    HW228971   2.419   3.101  17.308 -1.2526 -1.1374 -0.6668
 5779SOL     OW28972   2.050   3.608   1.787  0.2115 -0.6031  0.5269
 5779SOL    HW128973   2.075   3.532   1.736 -1.3355 -0.1266 -0.9551
 5779SOL    HW228974   2.076   3.679   1.729 -2.2764 -1.4823 -1.6695
 5780SOL     OW28975   1.023   3.056   8.512  0.1487  0.2574 -0.7206
 5780SOL    HW128976   0.999   3.006   8.590  3.2296 -1.4603 -0.9268
 5780SOL    HW228977   0.949   3.117   8.516 -0.3300 -0.2869 -1.3588
 5781SOL     OW28978   3.706   3.212   1.549  0.8929  0.0472  0.5631
 5781SOL    HW128979   3.708   3.124   1.585  2.6965  0.8798  2.5207
 5781SOL    HW228980   3.748   3.202   1.463  0.1810 -1.1872  0.3652
 5782SOL     OW28981   0.251   1.087   7.317  0.1946  0.7492  0.4667
 5782SOL    HW128982   0.344   1.107   7.315  0.3973 -0.2618 -0.0519
 5782SOL    HW228983   0.242   1.000   7.279  1.6247  0.7029  0.2658
 5783SOL     OW28984   1.534   0.924  16.808 -0.8596 -0.5968  0.3505
 5783SOL    HW128985   1.463   0.971  16.853  0.4034  3.1408 -1.5545
 5783SOL    HW228986   1.526   0.838  16.850 -0.8088 -0.8928 -0.2573
 5784SOL     OW28987   4.105   3.439   6.529  0.1493  0.0373 -0.2032
 5784SOL    HW128988   4.065   3.355   6.550 -0.3687  0.5537  0.8730
 5784SOL    HW228989   4.056   3.505   6.578 -0.1650 -2.3244  2.6792
 5785SOL     OW28990   3.733   0.875   3.561 -0.2094 -0.2002 -0.4129
 5785SOL    HW128991   3.802   0.909   3.505 -0.4775  0.5184 -0.3152
 5785SOL    HW228992   3.724   0.945   3.627 -1.8410 -1.0004  0.2187
 5786SOL     OW28993   0.837   1.897   8.090 -0.0464  0.6022  0.4738
 5786SOL    HW128994   0.781   1.949   8.032  0.0763 -1.1561 -1.2325
 5786SOL    HW228995   0.888   1.843   8.029  0.4611  0.1750  1.2784
 5787SOL     OW28996   0.896   2.010   7.364  0.2346 -0.1484 -0.7503
 5787SOL    HW128997   0.837   1.935   7.361 -1.2116  0.9895 -0.7070
 5787SOL    HW228998   0.903   2.015   7.268 -3.0786  0.5674 -0.9648
 5788SOL     OW28999   0.021   2.065   8.675  0.1005 -0.0919 -0.3733
 5788SOL    HW129000   0.116   2.078   8.679 -0.1528  1.5502  0.0185
 5788SOL    HW229001   0.009   2.130   8.606 -0.9002 -0.3959 -0.4826
 5789SOL     OW29002   1.761   0.040   3.517 -1.0497  0.0089 -0.0849
 5789SOL    HW129003   1.744   0.027   3.610  0.9110 -0.6184  0.1768
 5789SOL    HW229004   1.676   0.016   3.479 -3.5182  3.5482  3.1613
 5790SOL     OW29005   0.260   3.182   3.722 -0.1924 -0.0637 -0.9093
 5790SOL    HW129006   0.165   3.181   3.708 -0.6078 -0.5279  2.0789
 5790SOL    HW229007   0.269   3.110   3.784  0.9102  0.1324 -0.8441
 5791SOL     OW29008   4.248   3.062  11.481  0.1561  0.4139 -0.1125
 5791SOL    HW129009   4.232   3.007  11.557 -1.4870  1.1765  0.0813
 5791SOL    HW229010   4.322   3.112  11.516  0.0926 -0.0493  0.6711
 5792SOL     OW29011   2.785   1.117   7.029  0.2961  0.3529 -0.0569
 5792SOL    HW129012   2.822   1.041   6.984  0.2333 -0.4332  1.2127
 5792SOL    HW229013   2.700   1.083   7.057  0.3536 -1.0955 -1.6027
 5793SOL     OW29014   0.094   2.853  12.628  0.0462 -0.3889  0.0322
 5793SOL    HW129015   0.040   2.899  12.693  0.4139  1.0377 -0.6619
 5793SOL    HW229016   0.175   2.852  12.679 -0.7037 -1.6087  1.2082
 5794SOL     OW29017   3.428   2.579   5.343  0.1730  0.6160 -0.7548
 5794SOL    HW129018   3.417   2.484   5.351  1.8677  0.4099 -0.8321
 5794SOL    HW229019   3.370   2.595   5.269 -0.3720 -1.1448 -0.7105
 5795SOL     OW29020   1.742   1.450  12.896  0.2579 -0.1726 -0.5696
 5795SOL    HW129021   1.665   1.408  12.857 -0.8159 -0.6785  2.0708
 5795SOL    HW229022   1.734   1.542  12.868  1.4524  0.4633  1.2045
 5796SOL     OW29023   0.832   1.426  16.792  0.3008  0.0556 -0.2479
 5796SOL    HW129024   0.854   1.510  16.753 -0.9344  0.7246  0.5299
 5796SOL    HW229025   0.863   1.365  16.725 -1.1259  0.4099 -1.2272
 5797SOL     OW29026   3.105   2.474  16.885  0.1514 -0.0508  0.1423
 5797SOL    HW129027   3.146   2.449  16.968 -1.6907  1.7313  1.5948
 5797SOL    HW229028   3.044   2.402  16.868  0.1978 -0.1093  0.2230
 5798SOL     OW29029   4.268   1.127   7.385 -0.3858 -0.1137 -0.2992
 5798SOL    HW129030   4.316   1.090   7.310  1.6504  0.1241  0.8995
 5798SOL    HW229031   4.335   1.115   7.452  0.6742 -2.4145 -1.7418
 5799SOL     OW29032   4.080   3.987   8.678 -0.0590 -0.0081  0.1492
 5799SOL    HW129033   4.126   3.958   8.599 -3.3075  0.0538 -1.7847
 5799SOL    HW229034   3.988   3.966   8.664  0.4119 -1.2704 -1.0099
 5800SOL     OW29035   1.486   2.138   7.895  0.4144  0.1181 -0.5298
 5800SOL    HW129036   1.540   2.144   7.974  1.4181  0.9910 -1.2644
 5800SOL    HW229037   1.490   2.043   7.885 -3.1513  0.0599 -1.3847
 5801SOL     OW29038   4.438   2.634   0.241  0.4695 -0.2449  0.4931
 5801SOL    HW129039   4.476   2.575   0.177  0.1852  0.6445 -0.4904
 5801SOL    HW229040   4.509   2.696   0.256 -0.1538  1.3350 -2.9709
 5802SOL     OW29041   0.488   2.785   0.144 -0.2186  0.7421  0.1824
 5802SOL    HW129042   0.467   2.847   0.075 -0.2886 -0.6443 -1.0379
 5802SOL    HW229043   0.582   2.792   0.161 -0.1690  0.2841  0.0922
 5803SOL     OW29044   1.656   3.517   7.841 -0.1349  0.2778 -0.0705
 5803SOL    HW129045   1.679   3.429   7.809  0.5908  0.7893 -0.9553
 5803SOL    HW229046   1.720   3.572   7.796 -0.0061  0.3224  0.1718
 5804SOL     OW29047   4.218   3.700   2.839 -0.1338 -0.4778 -0.1621
 5804SOL    HW129048   4.298   3.684   2.790 -0.0227 -0.8237  0.1286
 5804SOL    HW229049   4.215   3.795   2.840 -2.4159 -0.5480  0.7665
 5805SOL     OW29050   2.184   3.854   7.841  0.0328  0.1966  0.0670
 5805SOL    HW129051   2.264   3.906   7.850 -0.3791  0.4170  2.2903
 5805SOL    HW229052   2.163   3.847   7.934 -0.5574 -0.0281 -0.0842
 5806SOL     OW29053   1.075   2.553  17.185  0.3112 -0.3293  0.3547
 5806SOL    HW129054   0.996   2.598  17.215 -0.6262 -1.6794 -0.0629
 5806SOL    HW229055   1.132   2.556  17.262  3.8542  3.3897 -2.3909
 5807SOL     OW29056   1.740   1.779  11.755  0.2199  0.1572  0.0457
 5807SOL    HW129057   1.675   1.712  11.774  1.2946 -1.4564 -1.9312
 5807SOL    HW229058   1.759   1.815  11.842  1.9966  1.4107 -0.8597
 5808SOL     OW29059   2.533   3.474  11.444  0.1542 -0.3828  0.1930
 5808SOL    HW129060   2.614   3.523  11.427  0.2874 -0.2148  1.3009
 5808SOL    HW229061   2.489   3.471  11.359  0.2487  0.4511  0.1140
 5809SOL     OW29062   0.164   3.310   4.933 -0.0871 -0.0754  0.1648
 5809SOL    HW129063   0.189   3.361   5.011 -0.7585  0.4483  0.0365
 5809SOL    HW229064   0.197   3.223   4.954  1.0535 -0.0075 -1.3291
 5810SOL     OW29065   1.122   4.166   2.014  0.0742  0.4050  0.3830
 5810SOL    HW129066   1.183   4.240   2.014 -2.3476  2.3817 -0.3777
 5810SOL    HW229067   1.178   4.093   1.988 -0.3890 -0.9735  3.3268
 5811SOL     OW29068   1.378   3.747  13.126  0.0774  0.2880  0.0720
 5811SOL    HW129069   1.309   3.711  13.071 -3.3824  3.5616  2.2649
 5811SOL    HW229070   1.345   3.746  13.215  0.4496  1.3388  0.2253
 5812SOL     OW29071   1.677   0.224   6.860 -0.2334 -0.0607 -0.1635
 5812SOL    HW129072   1.765   0.221   6.898 -0.8178  2.2520  1.3231
 5812SOL    HW229073   1.626   0.279   6.920  1.3435 -0.0024  1.1369
 5813SOL     OW29074   0.370   3.791   5.857  0.6064  0.3910  0.1214
 5813SOL    HW129075   0.280   3.816   5.878  0.6897  0.8580 -0.0642
 5813SOL    HW229076   0.363   3.696   5.860  1.6439  0.2763 -1.0031
 5814SOL     OW29077   2.450   4.553   1.565 -0.1035  0.0764 -0.4521
 5814SOL    HW129078   2.442   4.563   1.470  1.4272  0.3249 -0.5526
 5814SOL    HW229079   2.368   4.505   1.581  0.7275 -0.5870  1.8532
 5815SOL     OW29080   3.250   0.410   5.728 -0.2220 -0.0700 -0.3154
 5815SOL    HW129081   3.312   0.453   5.787 -0.0526 -3.4773  1.9866
 5815SOL    HW229082   3.234   0.328   5.775  0.0297 -0.2160 -0.4800
 5816SOL     OW29083   2.416   1.144   8.084 -0.2018  0.2474  0.2349
 5816SOL    HW129084   2.367   1.094   8.149 -1.7613  1.8454  0.2846
 5816SOL    HW229085   2.496   1.165   8.132 -0.9862 -0.6355  1.9565
 5817SOL     OW29086   2.039   1.418   6.617 -0.0309 -0.0505 -0.3243
 5817SOL    HW129087   2.001   1.498   6.652  0.2262  0.2150 -0.6507
 5817SOL    HW229088   1.991   1.405   6.536 -0.8072  0.8202  0.0047
 5818SOL     OW29089   0.054   3.117   0.139 -0.2202 -0.0937  0.4175
 5818SOL    HW129090   0.137   3.094   0.181 -0.2284 -0.8718  0.0001
 5818SOL    HW229091   0.085   3.198   0.098 -0.3149  1.0125  2.5326
 5819SOL     OW29092   0.357   1.725   4.947  1.0274 -0.1747 -0.9792
 5819SOL    HW129093   0.418   1.666   4.902 -0.2702 -0.5766 -2.2011
 5819SOL    HW229094   0.297   1.745   4.875  0.8317  1.9589 -0.2166
 5820SOL     OW29095   0.025   3.236   6.770  0.4410  0.2669  0.5769
 5820SOL    HW129096   4.680   3.279   6.779  1.6241  2.4097  1.3079
 5820SOL    HW229097   0.045   3.194   6.854 -0.3800 -0.0459  0.6196
 5821SOL     OW29098   2.739   0.184  12.479 -1.1275 -0.3084  0.0847
 5821SOL    HW129099   2.681   0.174  12.403 -0.1171  3.5800 -1.2098
 5821SOL    HW229100   2.690   0.160  12.557 -1.8432  0.3115 -0.1771
 5822SOL     OW29101   1.649   0.005  16.619  0.7551 -0.0948  0.2585
 5822SOL    HW129102   1.677   4.667  16.668  2.3597  0.0242 -0.4626
 5822SOL    HW229103   1.566   4.719  16.580  0.3432  1.3402  0.2102
 5823SOL     OW29104   0.887   0.001   7.259  0.2428 -0.3156 -0.2788
 5823SOL    HW129105   0.912   4.734   7.166  0.4700 -3.1621 -0.0088
 5823SOL    HW229106   0.794   4.722   7.264  0.4212 -1.0460  0.3148
 5824SOL     OW29107   0.663   1.843   3.963  0.1031 -0.0043 -0.3429
 5824SOL    HW129108   0.597   1.816   4.027  1.2687 -0.2224  0.7677
 5824SOL    HW229109   0.665   1.938   3.971 -1.5787  0.1404 -1.6841
 5825SOL     OW29110   4.258   1.936   4.455 -0.0119  0.8269  0.0271
 5825SOL    HW129111   4.279   1.994   4.381  1.2513 -0.2237 -0.4419
 5825SOL    HW229112   4.222   1.870   4.397  0.5818 -0.3934  1.0614
 5826SOL     OW29113   2.973   4.735  11.517 -0.2228  0.1617 -0.5516
 5826SOL    HW129114   2.890   4.711  11.559 -0.7357 -0.1078 -1.7295
 5826SOL    HW229115   2.991   4.663  11.457 -0.5972  0.0768 -0.5650
 5827SOL     OW29116   2.043   2.032   9.235 -0.5826  0.0538 -0.3147
 5827SOL    HW129117   2.045   2.115   9.282 -0.2344  0.1257 -0.4580
 5827SOL    HW229118   2.135   2.008   9.241 -0.7011 -0.0181  1.0811
 5828SOL     OW29119   1.655   2.349  11.487 -0.3097  0.4065 -0.0849
 5828SOL    HW129120   1.561   2.342  11.507 -0.0517 -1.3508  0.4787
 5828SOL    HW229121   1.675   2.422  11.545 -2.5633  1.8071 -1.0539
 5829SOL     OW29122   1.146   4.000   4.172 -0.2087 -0.7604 -0.6949
 5829SOL    HW129123   1.130   3.941   4.246 -0.8250  1.1326  0.6794
 5829SOL    HW229124   1.106   3.954   4.098  2.0381 -0.5556 -2.0401
 5830SOL     OW29125   1.230   3.290   7.411 -0.3948  0.0070  0.1420
 5830SOL    HW129126   1.313   3.334   7.424  0.1968 -0.6430 -1.4386
 5830SOL    HW229127   1.212   3.240   7.491 -0.6658 -0.9596 -0.5225
 5831SOL     OW29128   3.980   3.408   4.139 -0.3861  0.2797 -0.3346
 5831SOL    HW129129   3.917   3.455   4.084 -0.4185  0.4935 -0.1144
 5831SOL    HW229130   3.935   3.365   4.212 -1.8035  0.5501 -1.0433
 5832SOL     OW29131   0.519   0.152   8.428 -0.7336  0.2727  0.0450
 5832SOL    HW129132   0.477   0.235   8.450  1.7641  1.4841  0.2834
 5832SOL    HW229133   0.605   0.155   8.472 -0.7515 -0.4474  0.1354
 5833SOL     OW29134   3.276   4.340  11.620  0.1302 -0.2886 -0.3832
 5833SOL    HW129135   3.327   4.417  11.595 -1.4409  1.2785  1.2324
 5833SOL    HW229136   3.206   4.343  11.554 -1.1397 -3.2785  0.8042
 5834SOL     OW29137   3.867   1.817   3.346  0.2170 -0.2987  0.4009
 5834SOL    HW129138   3.902   1.907   3.344  0.6644 -0.4861 -0.2507
 5834SOL    HW229139   3.909   1.787   3.265 -0.6663  1.7166 -0.8218
 5835SOL     OW29140   1.640   0.205  17.515 -0.2094 -0.3550  0.2032
 5835SOL    HW129141   1.547   0.213  17.492  0.0662 -1.6639 -1.4002
 5835SOL    HW229142   1.643   0.247  17.601 -2.7107 -0.1748  0.2230
 5836SOL     OW29143   4.109   2.699   8.790  0.2891 -0.0875  0.1309
 5836SOL    HW129144   4.015   2.681   8.796  0.2335 -0.2986 -1.4868
 5836SOL    HW229145   4.124   2.646   8.712 -0.1603  3.0596 -2.0952
 5837SOL     OW29146   0.004   1.428   1.790 -0.0270  0.4994  0.3391
 5837SOL    HW129147   4.679   1.438   1.860  0.9983  3.6541  0.8008
 5837SOL    HW229148   0.056   1.363   1.837  0.6497 -0.8272 -2.2521
 5838SOL     OW29149   0.754   1.183   5.070  0.0975 -0.0554 -0.2193
 5838SOL    HW129150   0.665   1.148   5.080  0.3783 -0.6573  0.1874
 5838SOL    HW229151   0.725   1.273   5.056  3.0717  0.4923 -2.7233
 5839SOL     OW29152   2.873   4.683   2.915 -0.0727 -0.3640 -0.3079
 5839SOL    HW129153   2.946   4.725   2.870 -3.1919  4.4560 -0.8150
 5839SOL    HW229154   2.800   4.696   2.855  1.1700  0.5864 -1.6343
 5840SOL     OW29155   2.773   0.650   5.695  0.0956  0.6506 -0.2528
 5840SOL    HW129156   2.793   0.740   5.671  0.2827  0.6062 -0.2649
 5840SOL    HW229157   2.850   0.604   5.660 -0.2384  1.2251 -1.7681
 5841SOL     OW29158   2.677   2.258   6.969 -0.2162 -0.0541 -0.0196
 5841SOL    HW129159   2.683   2.169   6.933  0.1357  0.5636 -1.4801
 5841SOL    HW229160   2.605   2.249   7.032  1.0761  1.5636  1.6615
 5842SOL     OW29161   4.561   1.134  17.207 -0.3411 -0.5175 -0.3125
 5842SOL    HW129162   4.638   1.157  17.259 -1.7902 -1.2964  2.1886
 5842SOL    HW229163   4.504   1.203  17.240  1.2795  0.6101  0.1388
 5843SOL     OW29164   1.894   0.205   8.188 -0.5545 -0.0055 -0.6640
 5843SOL    HW129165   1.951   0.236   8.118 -0.3223 -1.0744 -0.9503
 5843SOL    HW229166   1.898   0.110   8.179  0.7188  0.0732 -0.8472
 5844SOL     OW29167   0.343   2.709   0.656  0.1123 -0.5884  0.2479
 5844SOL    HW129168   0.326   2.762   0.578 -1.5866  0.1313  1.1078
 5844SOL    HW229169   0.430   2.693   0.620 -0.2214  1.6522 -1.5455
 5845SOL     OW29170   0.801   4.534   7.888 -0.7404  0.3878 -0.2071
 5845SOL    HW129171   0.886   4.574   7.905 -1.4552  1.7077  0.3060
 5845SOL    HW229172   0.782   4.506   7.978 -2.7082  2.7961  0.1278
 5846SOL     OW29173   1.071   3.901   2.323 -0.2952 -0.5445  0.0283
 5846SOL    HW129174   1.078   3.806   2.312  1.2136 -0.1596 -2.1929
 5846SOL    HW229175   1.158   3.928   2.295 -0.5800 -1.2920 -1.5753
 5847SOL     OW29176   1.892   3.307   3.819  0.6105  0.0782 -0.5523
 5847SOL    HW129177   1.922   3.216   3.826 -1.2591 -0.5268 -0.3150
 5847SOL    HW229178   1.834   3.309   3.896  0.3285 -1.0813 -0.7278
 5848SOL     OW29179   1.406   3.589  11.353  0.3489  0.1699  0.8861
 5848SOL    HW129180   1.431   3.515  11.298  0.7323 -0.5769  2.0500
 5848SOL    HW229181   1.355   3.647  11.296  4.2278  3.6066  0.9026
 5849SOL     OW29182   3.057   2.935   1.872  0.4452  0.3130 -0.3541
 5849SOL    HW129183   3.015   2.872   1.931  2.2588 -0.1956  0.3914
 5849SOL    HW229184   3.087   2.996   1.940  2.1725 -1.9732  0.9301
 5850SOL     OW29185   0.703   1.765   9.570  0.1173 -0.3336  0.3263
 5850SOL    HW129186   0.734   1.675   9.564 -0.1535 -0.5826  2.4815
 5850SOL    HW229187   0.670   1.775   9.481  1.7887 -1.4506 -0.4029
 5851SOL     OW29188   1.309   1.214   2.188 -0.5401 -0.2905  0.1984
 5851SOL    HW129189   1.356   1.236   2.108  0.3275 -1.2880  0.4399
 5851SOL    HW229190   1.356   1.271   2.248 -1.2245 -0.6939  1.1086
 5852SOL     OW29191   2.845   4.139  11.654 -0.1947 -0.1314  0.4209
 5852SOL    HW129192   2.889   4.055  11.643 -0.2920 -0.1760  0.3701
 5852SOL    HW229193   2.863   4.144  11.748 -0.7530 -1.1758  0.5921
 5853SOL     OW29194   1.498   2.407   8.766 -0.1351 -0.2393  0.0880
 5853SOL    HW129195   1.518   2.352   8.842  3.3411  0.2509 -0.4295
 5853SOL    HW229196   1.570   2.382   8.708 -0.4851 -2.6869  0.7041
 5854SOL     OW29197   1.268   4.517  10.398 -0.0892 -0.1437 -0.0497
 5854SOL    HW129198   1.355   4.477  10.401 -0.2426 -0.3556  1.4498
 5854SOL    HW229199   1.250   4.505  10.304  1.2561 -1.1043 -0.1924
 5855SOL     OW29200   2.187   3.379   3.407  0.0153  0.4300  0.0467
 5855SOL    HW129201   2.165   3.346   3.493  1.0408 -0.1578  0.0794
 5855SOL    HW229202   2.243   3.453   3.431 -1.9515  1.8121  0.4116
 5856SOL     OW29203   3.856   2.008   0.792  0.0827 -0.1096  0.3013
 5856SOL    HW129204   3.773   2.054   0.807 -0.0610  0.2821 -1.8170
 5856SOL    HW229205   3.889   1.993   0.881 -1.9275  1.5191  1.3480
 5857SOL     OW29206   0.524   4.441   6.548  0.2909 -0.1869  0.0069
 5857SOL    HW129207   0.492   4.530   6.535  0.7473  0.1124  0.9037
 5857SOL    HW229208   0.468   4.380   6.500 -0.7128  0.6637  0.1081
 5858SOL     OW29209   2.941   4.302  10.762  0.0780 -0.0970 -0.2755
 5858SOL    HW129210   2.928   4.279  10.670  3.1110 -0.4456 -0.6170
 5858SOL    HW229211   2.964   4.214  10.793 -0.7308 -0.3813 -0.4898
 5859SOL     OW29212   4.441   3.805   1.608 -0.3496 -0.3049  0.2413
 5859SOL    HW129213   4.403   3.719   1.629 -2.0177  0.0127 -1.4411
 5859SOL    HW229214   4.519   3.786   1.557 -1.8548 -0.4280 -2.0345
 5860SOL     OW29215   1.346   4.454  10.051 -0.3094  0.0635 -1.2353
 5860SOL    HW129216   1.262   4.454  10.097  0.7427 -1.3227  0.6784
 5860SOL    HW229217   1.391   4.518  10.105 -3.1989  0.3658  0.8373
 5861SOL     OW29218   1.136   1.241   7.350 -0.2792  0.4383 -0.2275
 5861SOL    HW129219   1.055   1.206   7.389  0.8761 -1.8262  0.1264
 5861SOL    HW229220   1.179   1.256   7.435 -2.7269  0.0324  1.1001
 5862SOL     OW29221   1.633   1.605   8.478 -0.4438 -0.4070  0.2124
 5862SOL    HW129222   1.573   1.532   8.464  0.5125 -0.6789 -2.6090
 5862SOL    HW229223   1.590   1.664   8.416  1.5771 -0.9959 -1.7900
 5863SOL     OW29224   3.936   2.319  13.733  0.4218  0.5142 -0.6825
 5863SOL    HW129225   3.932   2.224  13.727 -2.2676  0.5648  0.3929
 5863SOL    HW229226   3.843   2.341  13.737  0.8275  1.7436  2.3794
 5864SOL     OW29227   1.186   1.024   5.527 -0.1441  0.1142 -0.0237
 5864SOL    HW129228   1.099   1.040   5.565  0.7665 -0.1391  2.1224
 5864SOL    HW229229   1.181   0.929   5.521  0.1118  0.1740 -1.3278
 5865SOL     OW29230   0.469   4.531  17.386  0.2319  0.2815  0.0481
 5865SOL    HW129231   0.501   4.462  17.328 -0.1180 -0.8110  1.1414
 5865SOL    HW229232   0.482   4.618  17.349  1.3521 -1.0322 -2.6880
 5866SOL     OW29233   1.862   3.118   4.732 -0.3591  0.0630  0.1497
 5866SOL    HW129234   1.931   3.142   4.794 -1.0111 -0.7568  1.1752
 5866SOL    HW229235   1.788   3.108   4.792 -1.2047 -0.0313 -0.9072
 5867SOL     OW29236   0.145   2.698   0.347 -0.0884  0.3275  0.2057
 5867SOL    HW129237   0.101   2.625   0.389 -0.8900  1.7989  1.9289
 5867SOL    HW229238   0.062   2.738   0.322 -0.4202 -0.1208  0.6150
 5868SOL     OW29239   3.238   1.813   7.214  0.3515 -0.0398 -0.0265
 5868SOL    HW129240   3.239   1.875   7.287  0.9033 -0.1732  0.0771
 5868SOL    HW229241   3.215   1.875   7.145  0.5795 -0.4682 -0.4852
 5869SOL     OW29242   1.403   4.705   9.306  0.0143 -0.5689 -0.1874
 5869SOL    HW129243   1.354   4.725   9.226 -0.4250 -0.9933 -0.0273
 5869SOL    HW229244   1.441   0.051   9.329  1.9713 -0.8872 -2.2619
 5870SOL     OW29245   2.524   0.312  13.185  0.0832 -1.0640  0.0255
 5870SOL    HW129246   2.505   0.285  13.276 -0.5462 -0.2645  0.1329
 5870SOL    HW229247   2.612   0.340  13.212  0.1045  0.5336 -1.7334
 5871SOL     OW29248   2.228   3.117   8.110 -0.0012 -0.3361  0.5934
 5871SOL    HW129249   2.140   3.083   8.129 -0.0143 -2.6032 -3.6360
 5871SOL    HW229250   2.221   3.123   8.015 -0.7143 -2.2260  0.5230
 5872SOL     OW29251   2.861   3.440   8.902  0.1253 -0.2482  0.3015
 5872SOL    HW129252   2.822   3.474   8.982  2.2673  0.7531  0.9343
 5872SOL    HW229253   2.784   3.396   8.866 -0.2517 -0.9170  1.9386
 5873SOL     OW29254   4.537   3.361  12.801  0.4674 -0.4192  0.5824
 5873SOL    HW129255   4.630   3.361  12.777 -0.0649 -2.7244 -1.4419
 5873SOL    HW229256   4.535   3.425  12.872  0.8015  1.3461 -0.9717
 5874SOL     OW29257   4.349   4.264  13.489  0.5512 -1.0885  0.1536
 5874SOL    HW129258   4.359   4.172  13.514  1.2614 -1.0916 -0.1544
 5874SOL    HW229259   4.261   4.274  13.525  1.6133 -0.7731  2.5963
 5875SOL     OW29260   0.056   4.014   7.185  0.2369 -0.0246 -0.1600
 5875SOL    HW129261   0.034   3.996   7.093 -0.2587 -4.0704  0.7475
 5875SOL    HW229262   0.068   4.108   7.196 -2.0458  0.1255  1.0588
 5876SOL     OW29263   0.709   2.723   1.847 -0.0590 -0.2720  0.1600
 5876SOL    HW129264   0.788   2.757   1.804 -1.5385  1.4917 -1.1610
 5876SOL    HW229265   0.655   2.715   1.769  1.2147 -0.9716 -0.6536
 5877SOL     OW29266   1.819   2.257  17.159  0.1046 -0.9092  0.7210
 5877SOL    HW129267   1.747   2.197  17.141  0.0044  0.3658 -3.1970
 5877SOL    HW229268   1.898   2.210  17.133 -0.1236 -0.4001 -0.9015
 5878SOL     OW29269   2.844   2.119   4.113 -0.5201  0.2879 -1.1541
 5878SOL    HW129270   2.881   2.120   4.024  1.1890 -0.0580 -0.4489
 5878SOL    HW229271   2.895   2.189   4.154 -0.3307 -0.0963 -0.7334
 5879SOL     OW29272   4.036   0.787   7.601 -0.4149 -0.0858  0.0936
 5879SOL    HW129273   4.010   0.872   7.636 -1.0003  0.0585 -0.7057
 5879SOL    HW229274   3.954   0.739   7.614 -0.4500  0.6405  2.4262
 5880SOL     OW29275   3.774   4.396   3.455 -0.1901 -0.4990 -0.4765
 5880SOL    HW129276   3.868   4.379   3.461 -0.3651 -0.6425  2.0111
 5880SOL    HW229277   3.765   4.491   3.453 -1.0512 -0.5294  1.5546
 5881SOL     OW29278   1.864   3.204   0.279  0.5728  0.9764 -0.0855
 5881SOL    HW129279   1.939   3.157   0.240  0.7846  1.3057 -0.0731
 5881SOL    HW229280   1.872   3.195   0.374 -2.0368 -2.1732 -0.1422
 5882SOL     OW29281   3.694   4.404   2.315  0.0629 -0.0795 -0.0812
 5882SOL    HW129282   3.780   4.427   2.280 -0.4413 -0.3780 -1.5320
 5882SOL    HW229283   3.664   4.488   2.352  1.2785  0.3286 -0.0447
 5883SOL     OW29284   1.621   0.447   3.668 -0.1307 -0.4466 -0.0061
 5883SOL    HW129285   1.630   0.367   3.719  1.2469 -0.0406  0.3857
 5883SOL    HW229286   1.607   0.509   3.740 -0.9417  0.9399 -1.3344
 5884SOL     OW29287   2.853   2.712  10.529 -0.3927 -0.1734  0.1210
 5884SOL    HW129288   2.933   2.747  10.568  1.2087 -3.5107 -0.1820
 5884SOL    HW229289   2.834   2.632  10.578 -3.3954  0.7154  0.3849
 5885SOL     OW29290   2.184   1.123   5.651 -0.3414 -0.3065  0.0858
 5885SOL    HW129291   2.188   1.183   5.576 -1.5117  2.1464  1.9750
 5885SOL    HW229292   2.164   1.037   5.614 -2.2113  0.2223 -0.1245
 5886SOL     OW29293   1.107   2.635  13.541  0.0560 -0.1775  0.1299
 5886SOL    HW129294   1.108   2.584  13.460 -1.0363 -0.5752  0.3677
 5886SOL    HW229295   1.059   2.572  13.594 -1.2468 -0.6373 -1.6128
 5887SOL     OW29296   3.645   3.422  16.540  0.2337  0.2812  0.3445
 5887SOL    HW129297   3.690   3.387  16.463 -0.3114  2.1366 -0.8029
 5887SOL    HW229298   3.692   3.379  16.612 -0.8124 -1.7340 -0.1728
 5888SOL     OW29299   2.741   0.249   8.894  0.5309 -0.5730  0.3465
 5888SOL    HW129300   2.806   0.247   8.965 -0.0041  0.0122  0.8615
 5888SOL    HW229301   2.755   0.338   8.862  1.9649 -0.4856  1.1657
 5889SOL     OW29302   3.967   1.810   6.045  0.2579  0.5305  0.0801
 5889SOL    HW129303   3.955   1.904   6.057  0.2828  0.8717 -2.5563
 5889SOL    HW229304   3.911   1.800   5.968 -0.4260  2.2556  0.3522
 5890SOL     OW29305   2.220   4.146   5.576 -0.0492 -0.0379 -0.8234
 5890SOL    HW129306   2.241   4.225   5.526 -1.1234  2.3163  2.4994
 5890SOL    HW229307   2.230   4.077   5.511 -1.5459  0.4195 -1.5333
 5891SOL     OW29308   4.426   4.636   9.625  0.0690 -0.4929 -0.1846
 5891SOL    HW129309   4.352   4.613   9.569  0.5427 -2.2252 -0.1049
 5891SOL    HW229310   4.437   4.556   9.677 -1.6179 -0.0267  0.8679
 5892SOL     OW29311   3.413   4.533  13.072 -0.2364  0.0589 -0.4025
 5892SOL    HW129312   3.497   4.528  13.026 -0.0835  0.7671 -0.2018
 5892SOL    HW229313   3.380   4.622  13.057 -2.5998 -0.6721  0.4965
 5893SOL     OW29314   4.636   2.112   5.200  0.2105  0.6302  0.3781
 5893SOL    HW129315   4.725   2.115   5.235  0.7977 -2.1969 -0.8665
 5893SOL    HW229316   4.602   2.052   5.267 -0.4454  0.7672  0.1646
 5894SOL     OW29317   3.559   0.628   0.037 -0.0124  0.5335 -0.2142
 5894SOL    HW129318   3.500   0.595  17.725 -0.9220  1.8824 -0.0778
 5894SOL    HW229319   3.623   0.556   0.033 -1.7264 -1.0070  0.1808
 5895SOL     OW29320   0.969   2.451   0.552 -0.4185 -0.0027 -0.5765
 5895SOL    HW129321   0.931   2.375   0.508  2.8428 -1.6469 -0.5295
 5895SOL    HW229322   1.052   2.449   0.504  0.4304  0.9703  0.8670
 5896SOL     OW29323   0.858   3.121   5.939 -1.1363  0.0394 -0.3466
 5896SOL    HW129324   0.880   3.124   5.846  1.6955 -1.8262  0.2621
 5896SOL    HW229325   0.939   3.102   5.987 -0.8819  0.6053 -0.5486
 5897SOL     OW29326   2.381   3.627   6.841  0.1803 -0.3311  0.2305
 5897SOL    HW129327   2.365   3.708   6.791 -0.5683  0.7878  2.2767
 5897SOL    HW229328   2.402   3.665   6.926  0.6404 -1.2876  0.5415
 5898SOL     OW29329   1.448   3.926   2.712  0.3206 -1.1791 -0.7226
 5898SOL    HW129330   1.542   3.945   2.711 -0.0218  0.5647  0.7465
 5898SOL    HW229331   1.433   3.906   2.620  2.1592  2.1858 -1.7408
 5899SOL     OW29332   4.346   3.186   8.992  0.0966  0.2161 -0.3276
 5899SOL    HW129333   4.403   3.260   8.973  2.0003 -0.7508  1.4383
 5899SOL    HW229334   4.302   3.162   8.911 -0.8456 -3.0748  1.1452
 5900SOL     OW29335   0.446   2.787   8.033  0.1867 -0.2332 -0.4412
 5900SOL    HW129336   0.520   2.783   7.971  1.9478 -2.8667  1.8387
 5900SOL    HW229337   0.499   2.795   8.112 -0.4470 -1.0939  0.0628
 5901SOL     OW29338   1.797   2.383   5.800  0.4306 -0.0188 -0.1236
 5901SOL    HW129339   1.706   2.405   5.821  0.8941 -1.3183  3.2870
 5901SOL    HW229340   1.822   2.367   5.891 -1.0384  1.4942  0.5422
 5902SOL     OW29341   4.691   0.758   6.774 -0.0667  0.0015  0.3253
 5902SOL    HW129342   4.660   0.795   6.691 -0.2327  2.4390  1.4859
 5902SOL    HW229343   4.640   0.811   6.835  1.0805  1.2455  0.1887
 5903SOL     OW29344   1.881   0.353   5.703  0.2632  0.7732  0.1227
 5903SOL    HW129345   1.956   0.337   5.646  0.6396  1.3643  0.4574
 5903SOL    HW229346   1.865   0.262   5.728 -0.6111  1.2792  1.3953
 5904SOL     OW29347   0.520   3.051   6.962 -0.4850  0.7150 -0.1415
 5904SOL    HW129348   0.586   3.120   6.947  1.1703 -1.0044 -0.7186
 5904SOL    HW229349   0.515   3.019   6.872 -3.5147  0.2466  0.2120
 5905SOL     OW29350   4.300   1.757   7.809  0.1632 -0.2946  0.1857
 5905SOL    HW129351   4.324   1.846   7.784  0.3352 -0.3340  0.2110
 5905SOL    HW229352   4.209   1.750   7.779  0.4822  0.8574 -1.0391
 5906SOL     OW29353   3.600   0.864   3.196  0.0789 -0.7699 -1.0384
 5906SOL    HW129354   3.607   0.773   3.167 -2.9483 -1.0917 -0.7568
 5906SOL    HW229355   3.524   0.855   3.253  1.0256  2.0134  0.6772
 5907SOL     OW29356   1.692   2.867   3.144  0.7163 -0.0451  0.4988
 5907SOL    HW129357   1.762   2.806   3.167  0.4933  0.4382  2.5224
 5907SOL    HW229358   1.742   2.947   3.161 -0.4615  1.0087 -0.9762
 5908SOL     OW29359   0.089   2.560   3.579  0.2011 -0.0330 -0.6817
 5908SOL    HW129360   0.183   2.545   3.587  0.1083  0.6348  1.6745
 5908SOL    HW229361   0.066   2.575   3.671  0.8336  0.2663 -0.5704
 5909SOL     OW29362   3.362   0.625   6.652  0.0933  0.5596 -0.4017
 5909SOL    HW129363   3.390   0.590   6.736 -1.1619 -0.0305 -0.2274
 5909SOL    HW229364   3.284   0.575   6.627  0.4390  0.4010 -1.1689
 5910SOL     OW29365   3.229   2.915  16.682 -0.1013  0.7005 -0.2609
 5910SOL    HW129366   3.154   2.857  16.673  1.0556 -0.5315 -1.8612
 5910SOL    HW229367   3.298   2.868  16.636 -1.5280 -1.2933 -0.3469
 5911SOL     OW29368   2.961   0.123   8.080 -0.7787  0.0687 -0.2716
 5911SOL    HW129369   3.038   0.118   8.024 -1.6177 -0.1398 -1.3949
 5911SOL    HW229370   2.955   0.028   8.085 -0.9923  0.2933  3.5152
 5912SOL     OW29371   0.160   4.166   5.232  0.0428  0.0694 -0.1264
 5912SOL    HW129372   0.210   4.198   5.307 -0.6218 -1.3281  0.9151
 5912SOL    HW229373   0.081   4.140   5.279  0.5771  1.7938  1.7206
 5913SOL     OW29374   0.204   1.793  14.475 -0.2892 -0.0981  0.2557
 5913SOL    HW129375   0.299   1.787  14.466 -0.1188  4.0608 -0.4851
 5913SOL    HW229376   0.191   1.806  14.569 -0.3375  0.6339  0.1510
 5914SOL     OW29377   1.989   2.926   2.022 -0.0668  0.4361 -0.5274
 5914SOL    HW129378   2.005   2.835   1.998 -1.0453 -0.0095  0.5317
 5914SOL    HW229379   1.898   2.936   1.995  0.4726  0.2174 -2.4318
 5915SOL     OW29380   1.938   4.011   2.359  0.1648 -0.1935  0.5383
 5915SOL    HW129381   1.898   3.973   2.281  0.4305 -0.1183  0.3618
 5915SOL    HW229382   1.915   4.104   2.366  2.2467  0.3430  0.4934
 5916SOL     OW29383   1.650   1.081   7.198 -0.2594  0.2978  0.2223
 5916SOL    HW129384   1.614   1.163   7.232 -1.1236  0.1467 -0.3510
 5916SOL    HW229385   1.703   1.064   7.276  2.1072  0.4775 -1.3369
 5917SOL     OW29386   1.000   2.592   5.916  0.2900 -0.2167 -0.2440
 5917SOL    HW129387   1.073   2.543   5.953 -0.4003 -1.5188 -0.6360
 5917SOL    HW229388   1.022   2.674   5.961 -0.0796 -0.7135  0.8170
 5918SOL     OW29389   2.333   0.391   2.947  0.0044 -0.6988  0.1995
 5918SOL    HW129390   2.262   0.408   3.008  0.7414 -2.0283  1.4260
 5918SOL    HW229391   2.391   0.337   3.002 -1.8544 -1.4535  1.4173
 5919SOL     OW29392   0.116   2.214   1.541  0.3703  0.5180 -0.2791
 5919SOL    HW129393   0.045   2.252   1.489  0.9795  1.2551 -0.5788
 5919SOL    HW229394   0.176   2.188   1.471 -0.0702 -0.6150 -0.2258
 5920SOL     OW29395   2.931   1.303   4.775  0.0064  0.2595  0.5465
 5920SOL    HW129396   2.963   1.216   4.750  1.7396  0.8136  0.8596
 5920SOL    HW229397   2.836   1.301   4.767 -0.0452 -1.4745  1.5400
 5921SOL     OW29398   2.276   3.571   2.841  0.0671 -0.0523  0.1727
 5921SOL    HW129399   2.252   3.516   2.916  1.6812 -0.0495  0.6983
 5921SOL    HW229400   2.226   3.528   2.771  0.9378  0.0883 -0.5406
 5922SOL     OW29401   0.779   0.109   9.101 -0.3904 -0.0896 -0.2347
 5922SOL    HW129402   0.729   0.076   9.026  0.1007  1.4762 -1.2465
 5922SOL    HW229403   0.834   0.032   9.113  0.8392  0.4723 -2.1240
 5923SOL     OW29404   1.554   3.712  10.711  0.4979 -0.3165  0.0318
 5923SOL    HW129405   1.468   3.674  10.695  1.1569 -2.5276  1.7534
 5923SOL    HW229406   1.610   3.652  10.663  1.9510  1.5796 -0.6616
 5924SOL     OW29407   1.752   0.541   2.956 -0.0563 -0.6039 -0.3604
 5924SOL    HW129408   1.683   0.579   3.011  1.2942  1.8482 -0.3291
 5924SOL    HW229409   1.794   0.623   2.931  1.0593 -1.7461 -2.1353
 5925SOL     OW29410   1.892   2.605   9.782  0.0256  0.1335  0.2634
 5925SOL    HW129411   1.871   2.600   9.875 -0.5998 -1.5101  0.0437
 5925SOL    HW229412   1.840   2.534   9.743  1.3891  0.0134 -1.3716
 5926SOL     OW29413   1.141   0.226  13.163 -0.0562 -0.1276  0.6720
 5926SOL    HW129414   1.130   0.165  13.236  1.4885 -0.8520  0.3121
 5926SOL    HW229415   1.126   0.169  13.088  2.3949  1.0808 -0.7423
 5927SOL     OW29416   2.404   4.171   6.531 -0.0841  0.6661  0.1874
 5927SOL    HW129417   2.325   4.220   6.508  1.0863  2.5357  0.1939
 5927SOL    HW229418   2.373   4.084   6.504 -1.8572  1.1416  0.7503
 5928SOL     OW29419   0.639   1.944   2.356  0.1025  0.1392 -0.5782
 5928SOL    HW129420   0.714   1.892   2.386 -0.5793  0.5812  1.8283
 5928SOL    HW229421   0.672   1.984   2.275  0.5248 -2.0638 -1.4968
 5929SOL     OW29422   3.623   3.343   5.903  0.1350  0.5537  0.1915
 5929SOL    HW129423   3.590   3.432   5.889 -1.2113  0.1541  0.8129
 5929SOL    HW229424   3.556   3.303   5.848 -0.3240  0.8813  0.5114
 5930SOL     OW29425   3.109   0.205   3.277 -0.3584 -0.4029  0.2577
 5930SOL    HW129426   3.113   0.294   3.241 -0.4329  0.2654  1.8866
 5930SOL    HW229427   3.168   0.216   3.351  0.5650  2.7950 -0.9595
 5931SOL     OW29428   0.090   0.536  16.885 -0.0567 -0.5108  0.6558
 5931SOL    HW129429   0.015   0.580  16.926  1.5919  2.9702 -0.1449
 5931SOL    HW229430   0.122   0.479  16.955  0.1419 -1.1444  0.0551
 5932SOL     OW29431   2.124   4.252  14.485  0.2165  0.0696 -0.3845
 5932SOL    HW129432   2.035   4.221  14.504  0.4496 -0.8890 -0.8335
 5932SOL    HW229433   2.124   4.332  14.537 -2.1179 -0.3678  0.3048
 5933SOL     OW29434   4.338   3.998   4.738 -0.2613  0.0649 -0.1884
 5933SOL    HW129435   4.264   3.943   4.712 -0.8257 -0.4895  2.5782
 5933SOL    HW229436   4.295   4.082   4.726 -0.6191 -0.3033 -1.4374
 5934SOL     OW29437   0.940   1.595   8.625  0.9760 -0.4038 -0.2434
 5934SOL    HW129438   0.886   1.630   8.553  2.4792 -0.7189 -1.5366
 5934SOL    HW229439   0.937   1.501   8.608  1.7651 -0.3203 -0.8566
 5935SOL     OW29440   2.055   3.185  12.887  0.0548  0.3272 -0.3093
 5935SOL    HW129441   2.091   3.108  12.841  0.0087  0.4322 -0.5201
 5935SOL    HW229442   2.134   3.233  12.913  0.5745 -0.9353  0.4927
 5936SOL     OW29443   2.744   1.888  12.525  0.1516  0.5535  0.1287
 5936SOL    HW129444   2.782   1.831  12.591  0.3577  2.7740  1.9448
 5936SOL    HW229445   2.808   1.884  12.454 -1.8325 -1.1060 -1.5858
 5937SOL     OW29446   1.762   2.025   7.638 -0.4680 -0.1861 -0.0912
 5937SOL    HW129447   1.743   2.118   7.628 -0.8806 -0.4529 -1.8297
 5937SOL    HW229448   1.796   2.017   7.727 -1.9826 -2.2672  0.3118
 5938SOL     OW29449   4.409   2.123   6.251  0.5188  0.5763  0.5153
 5938SOL    HW129450   4.439   2.108   6.161 -0.8638 -2.0596  0.5033
 5938SOL    HW229451   4.318   2.120   6.223  0.1452  0.7106  1.7384
 5939SOL     OW29452   0.528   3.596   3.285  0.3256 -0.3765 -0.4838
 5939SOL    HW129453   0.560   3.563   3.368  0.6357 -1.0719 -0.8825
 5939SOL    HW229454   0.473   3.668   3.317  2.7259  1.1737  0.1637
 5940SOL     OW29455   1.641   0.106   2.886  0.1280 -0.5831  0.3012
 5940SOL    HW129456   1.720   0.078   2.931 -0.0272  0.6999  1.4027
 5940SOL    HW229457   1.606   0.161   2.956  0.5787 -0.8590  0.7451
 5941SOL     OW29458   1.971   2.728  12.771  0.1283  0.4821  0.1418
 5941SOL    HW129459   1.953   2.636  12.755 -0.4818 -0.0435  3.7592
 5941SOL    HW229460   1.897   2.775  12.733 -0.9926 -2.1004 -0.8164
 5942SOL     OW29461   1.708   1.026   4.067 -0.4285 -0.3562  0.4881
 5942SOL    HW129462   1.780   1.044   4.128 -0.1714 -0.8326  0.3285
 5942SOL    HW229463   1.649   1.083   4.115 -0.3441 -1.7349  2.2233
 5943SOL     OW29464   1.359   0.083   8.299  0.2588 -0.0076 -0.0375
 5943SOL    HW129465   1.376   4.732   8.324  2.6022  0.5261  0.2892
 5943SOL    HW229466   1.390   0.123   8.380  1.9343  2.3063 -1.8258
 5944SOL     OW29467   2.165   3.044   7.572 -0.3199  0.5064  0.5351
 5944SOL    HW129468   2.203   2.957   7.584  0.4146  0.5556 -1.4954
 5944SOL    HW229469   2.113   3.024   7.495  1.8761 -0.8396 -0.6028
 5945SOL     OW29470   0.797   0.096  11.996 -0.4232 -0.2895 -0.6629
 5945SOL    HW129471   0.843   0.130  12.072 -1.5508  1.8865 -0.9584
 5945SOL    HW229472   0.715   0.083  12.044 -0.0044 -0.4066  0.0302
 5946SOL     OW29473   3.521   0.989   6.609 -0.4306  0.1805 -0.1646
 5946SOL    HW129474   3.520   1.037   6.526 -1.0503 -1.7659 -1.2879
 5946SOL    HW229475   3.431   0.968   6.632 -0.4961  0.0642 -0.5139
 5947SOL     OW29476   0.908   1.704  14.791 -0.0746  0.1508 -0.2910
 5947SOL    HW129477   0.994   1.681  14.755  0.1806  2.3951 -1.1401
 5947SOL    HW229478   0.860   1.627  14.759 -0.1097  0.0891 -0.0839
 5948SOL     OW29479   0.427   1.192  17.273 -0.4149  0.1302  0.3361
 5948SOL    HW129480   0.510   1.145  17.269 -0.2561  0.0731  3.6675
 5948SOL    HW229481   0.430   1.214  17.180  0.1255 -0.7936  0.1424
 5949SOL     OW29482   2.309   3.726   0.521 -0.3434  0.5214  0.1721
 5949SOL    HW129483   2.333   3.796   0.582  1.6756 -0.4013  0.4441
 5949SOL    HW229484   2.251   3.771   0.460  0.1403 -0.1941 -0.8105
 5950SOL     OW29485   2.893   1.489   6.415 -0.0724  0.0867  0.0721
 5950SOL    HW129486   2.955   1.542   6.465  0.8938  0.9473 -2.0843
 5950SOL    HW229487   2.933   1.404   6.397 -0.4126 -0.0813  0.1017
 5951SOL     OW29488   3.733   0.231   2.999  0.3619  0.2920  0.0804
 5951SOL    HW129489   3.751   0.244   2.906  1.3034 -0.5665  0.1464
 5951SOL    HW229490   3.795   0.293   3.039 -0.6504  0.3149  1.6301
 5952SOL     OW29491   0.055   1.130   5.649 -0.4277  0.0709 -0.3747
 5952SOL    HW129492   0.145   1.156   5.628  0.5428 -1.9041  1.3295
 5952SOL    HW229493   0.042   1.052   5.595 -1.4748 -0.6051  0.8456
 5953SOL     OW29494   1.664   1.819  17.079 -0.1775 -0.1670  0.2923
 5953SOL    HW129495   1.651   1.783  16.991 -0.4852 -3.1149  1.5323
 5953SOL    HW229496   1.642   1.746  17.137 -0.0870  0.1020  0.6644
 5954SOL     OW29497   0.214   3.344   7.221  0.3896  0.0334  0.4581
 5954SOL    HW129498   0.304   3.330   7.248  0.1523  0.2162  1.3508
 5954SOL    HW229499   0.192   3.418   7.278 -1.4130  0.1338 -0.3576
 5955SOL     OW29500   0.430   0.512   0.136  0.0978 -0.9869  0.1390
 5955SOL    HW129501   0.364   0.446   0.160 -0.7931 -0.4732 -0.8841
 5955SOL    HW229502   0.416   0.521   0.041 -1.3948  3.4680  0.7990
 5956SOL     OW29503   2.827   1.942   6.316  0.5003  0.5459  0.1611
 5956SOL    HW129504   2.820   1.986   6.232  0.4968 -0.1732 -0.2154
 5956SOL    HW229505   2.743   1.895   6.315  0.0149  1.4571 -2.0554
 5957SOL     OW29506   0.877   3.174  13.785 -0.4619 -0.6535 -0.3867
 5957SOL    HW129507   0.788   3.139  13.789 -0.6158 -0.2602 -0.3956
 5957SOL    HW229508   0.872   3.235  13.711  0.8416  0.5033  0.4706
 5958SOL     OW29509   3.635   2.949   8.287 -0.1398  0.1912  0.1988
 5958SOL    HW129510   3.582   2.960   8.208  1.0984  0.3261 -0.6170
 5958SOL    HW229511   3.611   3.030   8.332  1.9055  0.6959  0.3803
 5959SOL     OW29512   0.563   2.419  16.835 -0.1310  0.2195 -0.6631
 5959SOL    HW129513   0.508   2.386  16.906 -0.3833 -1.2328 -1.5331
 5959SOL    HW229514   0.629   2.352  16.821  0.6282  0.5731  1.1827
 5960SOL     OW29515   4.544   1.401   2.960  0.1750 -0.3744  0.1009
 5960SOL    HW129516   4.492   1.407   2.880 -1.9727 -3.1725  1.2786
 5960SOL    HW229517   4.557   1.306   2.970  0.4879 -0.4718 -1.2837
 5961SOL     OW29518   1.603   3.495   8.889 -0.1304  0.0690  0.1274
 5961SOL    HW129519   1.608   3.582   8.929 -1.8518  0.7707 -1.2024
 5961SOL    HW229520   1.559   3.509   8.806 -1.2164 -0.2238  0.6606
 5962SOL     OW29521   0.723   3.702   3.793 -0.1612 -0.2300  0.0846
 5962SOL    HW129522   0.686   3.781   3.755 -2.3059 -1.5203 -0.5160
 5962SOL    HW229523   0.755   3.737   3.877  1.9942 -1.2411 -0.3161
 5963SOL     OW29524   2.134   3.192   3.215 -0.1318  0.7888  0.3954
 5963SOL    HW129525   2.134   3.233   3.302  0.2603  0.3782  0.5911
 5963SOL    HW229526   2.213   3.228   3.175  1.8158 -2.9293  0.8903
 5964SOL     OW29527   2.197   2.152   6.226 -0.1910 -0.0297  0.1585
 5964SOL    HW129528   2.150   2.151   6.143 -1.8014  1.9788  1.0511
 5964SOL    HW229529   2.157   2.082   6.278 -1.1760 -0.2312 -0.8846
 5965SOL     OW29530   3.779   1.228  12.554 -0.0827  0.3764 -0.2724
 5965SOL    HW129531   3.756   1.233  12.461  1.2805 -0.9536 -0.6885
 5965SOL    HW229532   3.828   1.310  12.552  0.4400  0.0288 -1.6664
 5966SOL     OW29533   1.211   1.055   0.485  0.8195  0.5309  0.0395
 5966SOL    HW129534   1.290   1.038   0.434  0.6906 -0.3372  0.1398
 5966SOL    HW229535   1.233   1.144   0.515  0.8355  0.0474  1.4596
 5967SOL     OW29536   0.125   3.631   4.232 -0.0620  0.1422 -0.0050
 5967SOL    HW129537   0.045   3.586   4.260  0.7708 -1.5131 -0.2793
 5967SOL    HW229538   0.088   3.696   4.172 -0.1150  0.3118  0.2132
 5968SOL     OW29539   4.388   3.422   4.976 -0.4151 -0.1962 -0.3276
 5968SOL    HW129540   4.436   3.451   4.898 -0.8906 -1.8156 -1.2247
 5968SOL    HW229541   4.435   3.342   5.000  0.1948 -0.0806 -1.1491
 5969SOL     OW29542   0.471   3.116  10.668 -0.1072 -0.2450 -0.0571
 5969SOL    HW129543   0.520   3.192  10.700 -2.9716  0.9028  1.6459
 5969SOL    HW229544   0.383   3.151  10.650 -0.4328 -0.5158  1.0001
 5970SOL     OW29545   0.779   1.261   6.885  0.3687  0.4353 -0.0789
 5970SOL    HW129546   0.731   1.182   6.911  0.8697  0.1590 -0.0130
 5970SOL    HW229547   0.817   1.240   6.800  0.0200  1.1578 -0.4138
 5971SOL     OW29548   1.718   2.900   8.391 -0.7040 -0.5488  0.1297
 5971SOL    HW129549   1.783   2.845   8.348 -0.7136 -0.8879  0.5582
 5971SOL    HW229550   1.750   2.985   8.361  0.0142 -0.5756  0.8307
 5972SOL     OW29551   0.868   0.646   6.650  0.0687 -0.9314 -0.3271
 5972SOL    HW129552   0.821   0.727   6.633 -0.9883 -1.4537  0.0871
 5972SOL    HW229553   0.927   0.648   6.574  0.7949 -1.0630  0.2302
 5973SOL     OW29554   3.259   2.211  12.330  0.2783  0.5453 -0.8115
 5973SOL    HW129555   3.330   2.260  12.288  2.4316 -1.5430  0.3673
 5973SOL    HW229556   3.253   2.145  12.261 -1.2567  0.9935 -1.1032
 5974SOL     OW29557   2.969   1.787   9.856 -0.6394 -0.1465  0.3799
 5974SOL    HW129558   3.037   1.765   9.792 -2.7302 -0.2488 -1.8055
 5974SOL    HW229559   2.976   1.882   9.846 -1.1011 -0.3595 -2.0254
 5975SOL     OW29560   0.726   3.826   4.762 -0.2250  0.0841  0.0981
 5975SOL    HW129561   0.654   3.775   4.726  3.2978 -3.8919 -1.2536
 5975SOL    HW229562   0.760   3.859   4.679 -4.0190  0.5762 -1.2517
 5976SOL     OW29563   2.235   4.652   8.378  0.2358  0.5277 -0.5428
 5976SOL    HW129564   2.244   4.654   8.474 -0.5531 -1.5375 -0.4491
 5976SOL    HW229565   2.285   4.732   8.360 -0.2130  1.0522  0.5036
 5977SOL     OW29566   2.620   2.143   0.655  0.5262 -0.2686 -0.7623
 5977SOL    HW129567   2.546   2.097   0.695  0.9954 -0.9086 -0.6326
 5977SOL    HW229568   2.603   2.235   0.672  0.2739 -1.1385  3.5616
 5978SOL     OW29569   2.880   0.027   6.719  0.0044 -0.0089  0.2628
 5978SOL    HW129570   2.802   0.047   6.771 -0.2767 -0.1549 -0.1041
 5978SOL    HW229571   2.838   4.726   6.644 -2.1413  2.1302  0.3115
 5979SOL     OW29572   1.984   3.484   5.512 -0.0824 -0.1133  0.2513
 5979SOL    HW129573   2.052   3.424   5.541  0.0716  0.4841  1.1232
 5979SOL    HW229574   2.008   3.490   5.419 -3.2207 -1.0429 -0.6167
 5980SOL     OW29575   4.357   3.340   6.467 -0.1791 -0.0901  0.0127
 5980SOL    HW129576   4.276   3.387   6.483 -0.5287 -0.1702 -1.5463
 5980SOL    HW229577   4.402   3.401   6.409  0.5826 -1.3690 -0.7425
 5981SOL     OW29578   0.696   4.537   7.532  0.1516  0.1955  0.5741
 5981SOL    HW129579   0.657   4.455   7.562 -1.4980  1.6103  2.3856
 5981SOL    HW229580   0.676   4.537   7.439 -0.3760 -3.0569  0.7046
 5982SOL     OW29581   2.142   2.865   3.008 -0.7954  0.4098  0.1598
 5982SOL    HW129582   2.133   2.826   2.921  2.2045 -0.2881  0.1751
 5982SOL    HW229583   2.070   2.928   3.003 -2.0733 -1.1479 -1.3023
 5983SOL     OW29584   0.499   0.963   0.146  0.0914 -0.6867  0.0221
 5983SOL    HW129585   0.458   0.960   0.060  1.2181  0.9461 -0.5709
 5983SOL    HW229586   0.551   1.042   0.132  1.0277 -1.2476  0.2920
 5984SOL     OW29587   1.595   0.492   2.718  0.0850 -0.1487 -0.6895
 5984SOL    HW129588   1.659   0.550   2.677 -0.5135 -1.2941 -3.2433
 5984SOL    HW229589   1.629   0.479   2.806 -1.6004 -1.1004 -0.1857
 5985SOL     OW29590   3.621   1.803   0.944  0.4479 -0.1447  0.1418
 5985SOL    HW129591   3.642   1.896   0.935  0.3624 -0.1456 -0.0538
 5985SOL    HW229592   3.527   1.793   0.959  0.9518 -2.8353  1.4850
 5986SOL     OW29593   3.884   3.535   2.855  0.6375  0.1751  0.2588
 5986SOL    HW129594   3.969   3.490   2.853 -0.3865 -1.7162 -0.8378
 5986SOL    HW229595   3.828   3.458   2.854 -1.3368  1.6075  0.7657
 5987SOL     OW29596   3.703   2.729   7.238  0.6284 -0.7633 -0.2422
 5987SOL    HW129597   3.741   2.785   7.171 -0.6901 -0.9169 -1.1166
 5987SOL    HW229598   3.611   2.743   7.213  0.2618 -1.3858  0.7453
 5988SOL     OW29599   1.276   0.207   3.241 -0.2329  0.0905  0.7273
 5988SOL    HW129600   1.318   0.123   3.222  1.4696  0.8699  0.9689
 5988SOL    HW229601   1.211   0.183   3.307 -0.0703  1.0575  1.2357
 5989SOL     OW29602   0.273   1.683   7.191  0.1480  0.6836  0.3182
 5989SOL    HW129603   0.201   1.716   7.138 -0.1106  0.7673  0.7193
 5989SOL    HW229604   0.346   1.703   7.132 -0.3479  0.9060 -0.2115
 5990SOL     OW29605   4.012   1.243   6.096 -0.5987  0.5000  0.2599
 5990SOL    HW129606   4.103   1.237   6.125  0.2475 -0.9604 -2.6931
 5990SOL    HW229607   4.024   1.308   6.027  1.7853 -1.2654 -1.0026
 5991SOL     OW29608   0.845   1.250  17.385 -0.1469 -0.3995  0.1136
 5991SOL    HW129609   0.852   1.216  17.474  0.2500 -0.2558  0.1370
 5991SOL    HW229610   0.781   1.186  17.353  0.0175  0.3679 -1.7670
 5992SOL     OW29611   1.848   3.461   4.927 -0.3003 -0.1036 -0.0354
 5992SOL    HW129612   1.873   3.479   4.837  0.3859 -0.3088  0.1149
 5992SOL    HW229613   1.930   3.462   4.976  0.3698  0.8279 -1.1938
 5993SOL     OW29614   3.302   3.720   5.837 -0.3577 -0.4053  0.0257
 5993SOL    HW129615   3.258   3.697   5.919  0.0789  1.2693  0.7230
 5993SOL    HW229616   3.264   3.653   5.779 -1.1406  0.1480 -0.1089
 5994SOL     OW29617   3.265   3.455   6.745 -0.4934  0.9636 -0.3966
 5994SOL    HW129618   3.248   3.363   6.727 -0.3812  0.7683  0.5023
 5994SOL    HW229619   3.360   3.457   6.731 -0.3991  0.7783  0.1907
 5995SOL     OW29620   4.465   4.254  11.900  0.1172 -0.1958 -0.6954
 5995SOL    HW129621   4.495   4.335  11.858 -0.4943  1.2458  1.6657
 5995SOL    HW229622   4.378   4.240  11.863 -0.2819 -1.7352  0.8112
 5996SOL     OW29623   3.057   2.571   2.081 -0.5213 -0.2552 -0.2684
 5996SOL    HW129624   3.018   2.508   2.141  0.5764 -0.5063  0.1756
 5996SOL    HW229625   2.975   2.610   2.052  0.8124  2.4284 -0.4218
 5997SOL     OW29626   2.815   4.436   2.476 -0.6465 -0.0320 -0.3067
 5997SOL    HW129627   2.761   4.405   2.402  0.5987  0.0673 -1.2565
 5997SOL    HW229628   2.780   4.390   2.552 -0.0066  1.1669  0.7093
 5998SOL     OW29629   2.609   4.593   6.266  0.0972 -0.5587 -0.4567
 5998SOL    HW129630   2.567   4.515   6.228  0.3641 -0.8661 -0.1171
 5998SOL    HW229631   2.677   4.618   6.203 -1.2492  2.8436 -0.5625
 5999SOL     OW29632   1.871   1.958  16.445  0.1354 -0.1693 -0.0301
 5999SOL    HW129633   1.836   1.945  16.357  0.5050  1.3164 -0.4014
 5999SOL    HW229634   1.961   1.978  16.423  0.6098 -0.5718  1.5260
 6000SOL     OW29635   4.709   1.264   4.574 -0.4794  0.1062  0.5184
 6000SOL    HW129636   4.699   1.355   4.545 -0.7789 -0.4942 -1.2780
 6000SOL    HW229637   4.704   1.211   4.495  3.1899  0.8604 -0.1971
 6001SOL     OW29638   2.260   4.312   4.409 -0.3259  0.1370  0.2983
 6001SOL    HW129639   2.291   4.402   4.418 -0.2597  0.1602 -0.1530
 6001SOL    HW229640   2.292   4.270   4.488  0.6482  1.5916  0.6808
 6002SOL     OW29641   1.869   1.225   1.801  0.8074  0.4630  0.2636
 6002SOL    HW129642   1.937   1.162   1.777  0.0984 -0.3951  0.4947
 6002SOL    HW229643   1.854   1.194   1.891 -0.8842 -1.0903 -0.5457
 6003SOL     OW29644   2.318   2.979  13.395 -0.4963  0.0999 -0.1522
 6003SOL    HW129645   2.389   2.971  13.460  1.5116  2.4506 -2.0720
 6003SOL    HW229646   2.295   2.887  13.388 -0.1446 -0.0767  0.9969
 6004SOL     OW29647   2.139   3.423   7.927  0.0705  0.4759 -0.4184
 6004SOL    HW129648   2.220   3.474   7.928 -2.0010  3.7837 -1.7825
 6004SOL    HW229649   2.166   3.346   7.877  0.8960  0.7868 -0.4473
 6005SOL     OW29650   1.537   3.428  10.592 -0.3092  0.4219  0.2960
 6005SOL    HW129651   1.557   3.336  10.578 -0.1760  0.4062  0.5981
 6005SOL    HW229652   1.495   3.441  10.507  0.1041 -2.4544 -0.3271
 6006SOL     OW29653   0.204   2.757   3.265 -0.5119 -0.5349 -0.2333
 6006SOL    HW129654   0.233   2.817   3.196  3.4053 -1.6604  0.4435
 6006SOL    HW229655   0.202   2.823   3.335  0.4207  1.8957 -2.4661
 6007SOL     OW29656   3.841   2.744   6.085  0.5209 -0.7280  0.3477
 6007SOL    HW129657   3.884   2.675   6.034 -1.2217 -0.6189 -1.2623
 6007SOL    HW229658   3.884   2.724   6.168 -1.4165  0.1886  1.5732
 6008SOL     OW29659   2.046   2.298   5.164  0.2845 -0.2209 -0.0292
 6008SOL    HW129660   2.114   2.246   5.123 -0.4408 -0.7927 -0.4931
 6008SOL    HW229661   2.039   2.372   5.104 -2.5951 -1.3049 -1.0093
 6009SOL     OW29662   2.783   1.450  16.077  0.0134  0.1325  0.0550
 6009SOL    HW129663   2.830   1.428  15.997 -0.1263 -2.1425  0.5922
 6009SOL    HW229664   2.788   1.376  16.137 -0.0825  1.8187  2.1122
 6010SOL     OW29665   2.877   3.826   2.945 -0.3546  0.0957 -0.9166
 6010SOL    HW129666   2.837   3.879   2.876 -1.7763 -1.1512 -1.0706
 6010SOL    HW229667   2.944   3.783   2.892  0.7425  0.5837  0.0675
 6011SOL     OW29668   2.489   2.519   6.186  0.3099 -0.6309  0.2690
 6011SOL    HW129669   2.505   2.508   6.092 -0.1073 -0.9898  0.2391
 6011SOL    HW229670   2.490   2.429   6.218  0.7297 -0.4269  0.8243
 6012SOL     OW29671   2.143   2.600  12.929  0.3072 -0.1049 -0.4009
 6012SOL    HW129672   2.181   2.557  12.852  0.6510  0.0072 -0.2898
 6012SOL    HW229673   2.079   2.655  12.883  0.2961  0.1532 -0.0738
 6013SOL     OW29674   4.619   0.518   9.815 -0.6363  0.7664  0.0775
 6013SOL    HW129675   4.577   0.541   9.732 -0.4162 -2.6687 -0.9782
 6013SOL    HW229676   4.560   0.449   9.842  0.6214 -0.4511 -0.3056
 6014SOL     OW29677   3.446   4.051   5.030 -0.4555  0.0039  0.2008
 6014SOL    HW129678   3.492   4.001   4.962  0.4485 -0.9860  1.5343
 6014SOL    HW229679   3.510   4.048   5.101 -0.8000  0.6338  0.5366
 6015SOL     OW29680   0.428   1.822  16.975  0.1186 -0.9085 -0.0367
 6015SOL    HW129681   0.379   1.854  17.050 -0.7896 -2.3641 -0.0054
 6015SOL    HW229682   0.495   1.780  17.030 -1.2517 -3.4669 -0.3019
 6016SOL     OW29683   2.972   3.088   9.004 -0.2804  0.1453 -0.2089
 6016SOL    HW129684   2.887   3.048   8.988 -1.0812 -0.0206  4.4521
 6016SOL    HW229685   2.961   3.110   9.097  1.9393 -1.0071  0.3513
 6017SOL     OW29686   0.046   1.910   7.806 -0.4064  0.1255 -0.4523
 6017SOL    HW129687   4.739   1.842   7.854 -0.0569  1.1145  1.2687
 6017SOL    HW229688   0.112   1.858   7.760  0.4291  3.0671 -2.6379
 6018SOL     OW29689   1.789   2.600  13.215  0.2953 -0.2528  0.2421
 6018SOL    HW129690   1.804   2.533  13.281 -0.6824 -1.6019 -0.8968
 6018SOL    HW229691   1.853   2.671  13.223 -1.0695  1.2491 -2.0574
 6019SOL     OW29692   0.046   0.258   8.950  0.5093 -0.3264  0.3921
 6019SOL    HW129693   4.715   0.321   8.966  1.7715  1.9714 -3.2570
 6019SOL    HW229694   4.731   0.180   8.940 -0.9523  0.6430  0.7782
 6020SOL     OW29695   2.734   0.566   5.951  0.4021 -0.3756 -0.5336
 6020SOL    HW129696   2.721   0.584   5.858 -0.3216 -1.2411 -0.5962
 6020SOL    HW229697   2.814   0.618   5.959  0.5315 -0.5990 -0.3668
 6021SOL     OW29698   1.277   2.329   7.940 -0.3144 -0.3277  0.2865
 6021SOL    HW129699   1.219   2.262   7.904  0.1410 -1.2335  1.2269
 6021SOL    HW229700   1.346   2.272   7.974  1.1781  0.8315 -0.7825
 6022SOL     OW29701   1.197   2.308   8.218  0.0698 -0.8708  0.5253
 6022SOL    HW129702   1.287   2.337   8.232  0.9687 -3.1838 -0.4171
 6022SOL    HW229703   1.146   2.373   8.267 -1.6418 -1.7934 -0.0466
 6023SOL     OW29704   3.133   4.499   9.234 -0.2511  0.3913 -0.0622
 6023SOL    HW129705   3.128   4.403   9.242  0.5339  0.2593 -1.1803
 6023SOL    HW229706   3.138   4.508   9.139  1.4181  0.7392  0.0622
 6024SOL     OW29707   3.862   1.771   9.361  0.1861 -0.1584  0.2722
 6024SOL    HW129708   3.956   1.753   9.363  0.4967  1.5402  0.8533
 6024SOL    HW229709   3.829   1.691   9.402 -1.0388  1.5313  2.5666
 6025SOL     OW29710   1.106   3.355   4.240  0.2026 -0.7337 -0.8703
 6025SOL    HW129711   1.170   3.426   4.250 -0.7720  0.0668 -0.2670
 6025SOL    HW229712   1.033   3.411   4.211 -0.2832 -0.5446  0.7079
 6026SOL     OW29713   4.491   2.288  12.252  0.0289  0.0604  0.1661
 6026SOL    HW129714   4.558   2.284  12.185  1.8830 -1.1457  2.0775
 6026SOL    HW229715   4.515   2.208  12.300  0.9026  1.1548  1.5566
 6027SOL     OW29716   3.459   2.164   7.640  0.6553  1.0038  0.6372
 6027SOL    HW129717   3.547   2.128   7.653 -0.4812 -2.1344 -0.4340
 6027SOL    HW229718   3.416   2.106   7.704  0.7941 -0.5209 -0.6500
 6028SOL     OW29719   3.108   1.205  11.582  0.4460  0.0561  0.4663
 6028SOL    HW129720   3.173   1.213  11.511 -0.3073  1.3101 -0.0962
 6028SOL    HW229721   3.169   1.183  11.653 -0.0475 -1.7948  0.2983
 6029SOL     OW29722   2.639   2.316   3.902 -0.6194 -0.2876  0.2230
 6029SOL    HW129723   2.563   2.305   3.845  1.5231  0.2802 -2.7637
 6029SOL    HW229724   2.624   2.236   3.953 -1.0144 -0.2257  0.2027
 6030SOL     OW29725   0.919   3.936   8.663  0.1729  0.9571  0.3804
 6030SOL    HW129726   0.848   4.000   8.661 -0.3422  0.3332 -0.5567
 6030SOL    HW229727   0.990   4.000   8.675  0.0673  1.0507  0.5116
 6031SOL     OW29728   3.382   0.202   6.599  0.4630 -0.0455 -0.2583
 6031SOL    HW129729   3.355   0.292   6.613  2.6640  0.7527 -1.0435
 6031SOL    HW229730   3.387   0.169   6.689  1.1386  0.8396  0.0253
 6032SOL     OW29731   0.009   0.461   2.045  0.5566  0.0438  0.1579
 6032SOL    HW129732   0.085   0.417   2.007 -0.0778  1.3350 -2.5632
 6032SOL    HW229733   4.696   0.458   1.965 -0.3936  1.3312  0.7352
 6033SOL     OW29734   0.035   0.501   4.423 -0.6021  0.5190  0.1553
 6033SOL    HW129735   4.715   0.426   4.422  2.8089 -2.2098  1.2758
 6033SOL    HW229736   0.116   0.450   4.418 -0.0197  1.6814 -1.9663
 6034SOL     OW29737   2.110   4.146   6.821 -0.8448  0.2689 -0.1963
 6034SOL    HW129738   2.042   4.198   6.864 -0.1755  0.5955  0.4770
 6034SOL    HW229739   2.187   4.202   6.811  0.4143 -1.5467 -0.7391
 6035SOL     OW29740   3.331   3.713   6.501 -0.1635 -0.8792 -0.0025
 6035SOL    HW129741   3.282   3.632   6.483 -0.9788 -0.8327  1.9866
 6035SOL    HW229742   3.354   3.734   6.411  2.7662  1.8990  1.3899
 6036SOL     OW29743   1.778   4.395   2.649 -0.0440  0.2699  0.3572
 6036SOL    HW129744   1.832   4.443   2.587  0.2725  1.3628  1.4840
 6036SOL    HW229745   1.804   4.442   2.728  0.9580 -2.2348  1.5580
 6037SOL     OW29746   2.666   2.946   7.853 -0.2879  0.1195  0.0942
 6037SOL    HW129747   2.722   2.877   7.815 -0.1389  0.1703  0.2238
 6037SOL    HW229748   2.589   2.892   7.871 -0.2985 -0.5838 -2.0341
 6038SOL     OW29749   1.538   2.669   4.977  0.1550  0.5091 -0.1142
 6038SOL    HW129750   1.481   2.665   4.901 -0.2743  0.1646  0.2270
 6038SOL    HW229751   1.509   2.593   5.028 -1.6447 -0.2165 -2.2300
 6039SOL     OW29752   4.011   0.851   1.257  0.1638 -0.0511  0.1796
 6039SOL    HW129753   4.102   0.879   1.265  0.4865 -0.7436 -1.1876
 6039SOL    HW229754   4.006   0.815   1.346  0.9263  0.9887  0.6421
 6040SOL     OW29755   2.234   1.966   8.653  0.2025  0.6596  0.2894
 6040SOL    HW129756   2.220   1.988   8.561 -0.9036  0.8614  0.5126
 6040SOL    HW229757   2.227   1.871   8.640  2.7482  0.5202 -0.0885
 6041SOL     OW29758   0.913   2.993   2.596  0.2111  0.2340 -0.4478
 6041SOL    HW129759   1.005   2.992   2.620  0.0102  0.3229  0.3336
 6041SOL    HW229760   0.895   2.905   2.564  3.4132 -0.1149 -1.2830
 6042SOL     OW29761   4.158   4.361   2.646 -0.4894  0.1221  0.2542
 6042SOL    HW129762   4.168   4.449   2.610 -0.4736  0.2985  0.6822
 6042SOL    HW229763   4.144   4.385   2.738 -3.5385  2.3572 -0.7786
 6043SOL     OW29764   0.592   4.119   5.247 -0.1694 -0.2388 -0.1642
 6043SOL    HW129765   0.541   4.136   5.167 -0.1643  0.0585 -0.1037
 6043SOL    HW229766   0.637   4.041   5.216  2.4544  0.8613  0.8605
 6044SOL     OW29767   3.590   1.923   6.635  0.1826  0.1797 -0.4963
 6044SOL    HW129768   3.682   1.899   6.650 -0.0837  0.2804  1.2815
 6044SOL    HW229769   3.601   2.014   6.608  1.5471 -0.0374 -0.6941
 6045SOL     OW29770   3.597   2.552   4.277  0.0475  0.0587 -0.0835
 6045SOL    HW129771   3.681   2.596   4.265 -0.1237 -0.0677 -1.8137
 6045SOL    HW229772   3.544   2.632   4.284  1.6405  1.2575 -1.7678
 6046SOL     OW29773   0.654   1.413   0.651 -0.3774  0.2055 -0.0599
 6046SOL    HW129774   0.615   1.356   0.717 -1.1993 -2.0501 -2.5093
 6046SOL    HW229775   0.597   1.391   0.577 -0.2430 -2.7692  0.7094
 6047SOL     OW29776   1.205   2.484  10.101 -0.6492  0.1665 -0.3338
 6047SOL    HW129777   1.271   2.418  10.119 -0.2759  1.0710  1.6093
 6047SOL    HW229778   1.131   2.434  10.066  1.2734 -1.8721 -1.4733
 6048SOL     OW29779   3.459   3.685   3.892 -0.5104  0.1500  0.9738
 6048SOL    HW129780   3.528   3.749   3.876 -1.5096  0.5809 -1.5304
 6048SOL    HW229781   3.453   3.701   3.987 -0.1490 -0.4409  1.0990
 6049SOL     OW29782   4.069   4.158   3.998  0.1811  0.3024 -0.0866
 6049SOL    HW129783   4.037   4.220   3.933 -0.0914 -1.4944 -1.6571
 6049SOL    HW229784   4.062   4.221   4.070 -0.3050 -0.3373  0.4313
 6050SOL     OW29785   3.438   1.986   7.870  0.0402 -0.3135 -0.1540
 6050SOL    HW129786   3.365   2.030   7.914 -0.4633 -0.6764 -0.6197
 6050SOL    HW229787   3.491   1.962   7.947 -0.1822 -0.2837  0.0086
 6051SOL     OW29788   3.937   3.396   1.200  0.4484 -0.5171  0.3709
 6051SOL    HW129789   3.856   3.415   1.152 -0.3394 -0.6550  1.6528
 6051SOL    HW229790   3.950   3.313   1.153  1.5263  0.1335 -0.4685
 6052SOL     OW29791   4.575   4.682   5.387 -0.1486  0.0693 -0.2561
 6052SOL    HW129792   4.557   4.588   5.382 -0.2379  0.1344 -1.1412
 6052SOL    HW229793   4.595   4.685   5.481  0.5287 -2.4167 -0.3225
 6053SOL     OW29794   3.013   4.178   1.185  0.0339  0.2785  0.3419
 6053SOL    HW129795   2.960   4.176   1.265 -0.8419  0.0551 -0.2392
 6053SOL    HW229796   3.072   4.104   1.196 -1.7336 -1.3915 -1.2829
 6054SOL     OW29797   4.313   3.169   5.796  0.3338  0.3666 -0.0922
 6054SOL    HW129798   4.306   3.113   5.874 -2.5994  2.0815  0.8763
 6054SOL    HW229799   4.230   3.213   5.813  0.8914  1.1697  0.5559
 6055SOL     OW29800   4.480   2.549   8.531 -0.2331  0.5238  0.0982
 6055SOL    HW129801   4.568   2.575   8.502  0.1820 -2.3393 -1.2281
 6055SOL    HW229802   4.424   2.584   8.462  0.0121  1.4912  0.3894
 6056SOL     OW29803   2.013   3.869   8.849 -0.3269 -0.4606  0.2759
 6056SOL    HW129804   2.057   3.898   8.769  0.2102  1.4635  1.2476
 6056SOL    HW229805   2.052   3.934   8.909 -0.8325  1.4610 -1.4708
 6057SOL     OW29806   1.572   4.538   6.012 -0.0469 -0.0362 -0.5832
 6057SOL    HW129807   1.606   4.549   6.101  1.0006  0.8998 -1.0932
 6057SOL    HW229808   1.652   4.554   5.961  1.6308 -0.2933  1.9262
 6058SOL     OW29809   1.721   2.924   1.982  0.2905 -0.0188 -0.5220
 6058SOL    HW129810   1.669   2.868   1.924 -0.6634 -1.9028  2.1303
 6058SOL    HW229811   1.713   3.002   1.928  2.2801  0.7428  0.2649
 6059SOL     OW29812   2.316   1.750   5.575  0.3180 -0.5015 -0.6033
 6059SOL    HW129813   2.383   1.773   5.510 -0.1539 -0.8218 -1.1970
 6059SOL    HW229814   2.293   1.836   5.609 -1.4645 -0.3996 -2.0694
 6060SOL     OW29815   1.343   1.176   9.056 -0.0892  0.4184  0.0647
 6060SOL    HW129816   1.340   1.193   8.962  4.0056 -1.8191 -0.4719
 6060SOL    HW229817   1.425   1.127   9.059  0.0290  0.6267  0.2812
 6061SOL     OW29818   0.363   4.448   5.645  0.0769  0.2565 -0.2601
 6061SOL    HW129819   0.381   4.432   5.737 -0.7302 -3.0179 -0.6712
 6061SOL    HW229820   0.285   4.504   5.643  0.2190  0.4647  0.0356
 6062SOL     OW29821   0.144   3.571   1.716 -0.2875 -0.5172  0.0876
 6062SOL    HW129822   0.050   3.550   1.715 -0.8769  2.1625  0.3157
 6062SOL    HW229823   0.186   3.490   1.687  2.2057  1.1769 -0.9345
 6063SOL     OW29824   3.175   2.244  16.690 -0.0920 -0.2062 -0.4246
 6063SOL    HW129825   3.137   2.165  16.651 -1.1553 -0.6162  1.4146
 6063SOL    HW229826   3.093   2.292  16.703  1.2359  1.6648  1.0933
 6064SOL     OW29827   0.696   0.101   7.906  0.0506  0.4439  0.8049
 6064SOL    HW129828   0.678   0.072   7.816  0.9245  1.5104  0.2771
 6064SOL    HW229829   0.616   0.078   7.951  0.6304 -2.7848  0.1693
 6065SOL     OW29830   3.060   3.008  13.521 -0.0637  0.0665  0.2344
 6065SOL    HW129831   3.030   3.026  13.610 -1.9270 -2.5457  0.1052
 6065SOL    HW229832   3.010   2.928  13.504 -0.9866  0.9002 -1.0281
 6066SOL     OW29833   1.676   2.883   4.623 -0.2570 -0.3408  0.2966
 6066SOL    HW129834   1.677   2.901   4.717 -2.0419  0.1465  0.2290
 6066SOL    HW229835   1.616   2.948   4.587 -0.0979  0.3492  1.2789
 6067SOL     OW29836   1.449   0.145   8.537  0.3493 -0.2750 -0.4349
 6067SOL    HW129837   1.539   0.116   8.550  0.0019  0.8030  4.3050
 6067SOL    HW229838   1.406   0.092   8.605  1.6250 -1.0431 -0.2278
 6068SOL     OW29839   1.911   2.244   7.236 -0.4572  0.5873  0.2821
 6068SOL    HW129840   1.917   2.169   7.296 -0.1691  0.2120 -0.2116
 6068SOL    HW229841   1.979   2.306   7.263  1.0663 -0.4202 -1.1980
 6069SOL     OW29842   2.527   2.321   1.010  0.3976 -0.2633  0.0153
 6069SOL    HW129843   2.591   2.260   1.047 -0.6889 -1.2315  0.2836
 6069SOL    HW229844   2.498   2.372   1.086 -2.9862  0.2004 -1.6252
 6070SOL     OW29845   4.100   1.643  17.513 -1.0676  0.0055 -0.4730
 6070SOL    HW129846   4.153   1.567  17.539  0.1886  0.5266 -1.5263
 6070SOL    HW229847   4.163   1.690  17.458 -3.5407  1.5276 -1.9974
 6071SOL     OW29848   1.015   4.171   6.841 -0.2364 -0.6431 -0.1338
 6071SOL    HW129849   0.950   4.108   6.810 -0.8950 -0.2861  0.5312
 6071SOL    HW229850   0.969   4.243   6.884  0.4677 -0.3837  0.1849
 6072SOL     OW29851   0.791   0.408   3.939  0.0655 -0.8331  0.0163
 6072SOL    HW129852   0.882   0.387   3.916 -0.7789 -2.2288 -2.1724
 6072SOL    HW229853   0.768   0.336   3.997 -1.7628  1.1317  1.7115
 6073SOL     OW29854   1.568   2.412   3.767  0.1949  0.4198 -0.2023
 6073SOL    HW129855   1.639   2.348   3.765  1.9899  2.3797  0.3490
 6073SOL    HW229856   1.584   2.455   3.852  0.3991  0.8764 -0.4727
 6074SOL     OW29857   1.551   1.550   2.168 -0.3018 -0.0898  0.5634
 6074SOL    HW129858   1.503   1.583   2.092  2.0059  1.4226 -0.2440
 6074SOL    HW229859   1.630   1.528   2.118 -1.9536 -1.8105 -1.2629
 6075SOL     OW29860   3.631   1.725  16.729 -0.2382  0.4712  0.2372
 6075SOL    HW129861   3.572   1.787  16.773 -1.9854 -1.8459  1.1357
 6075SOL    HW229862   3.683   1.780  16.670 -0.0754  0.6585  0.5606
 6076SOL     OW29863   3.790   2.424  15.430  0.1591  0.1480  0.5110
 6076SOL    HW129864   3.725   2.475  15.479 -0.1661  0.4353 -0.2180
 6076SOL    HW229865   3.735   2.405  15.354  2.3717 -1.0973 -0.7776
 6077SOL     OW29866   0.246   1.480   6.673  0.2559  0.5332  0.2736
 6077SOL    HW129867   0.236   1.573   6.694  0.0340  0.6946 -0.5611
 6077SOL    HW229868   0.331   1.483   6.630 -0.2226  0.1099 -0.7038
 6078SOL     OW29869   4.569   2.069  12.394  0.3996  0.0072 -0.4571
 6078SOL    HW129870   4.599   2.116  12.472 -1.5971  1.0692 -0.3503
 6078SOL    HW229871   4.595   1.981  12.423  1.2460  0.3091 -0.2852
 6079SOL     OW29872   2.571   2.031   8.558  0.1284  0.2640  0.7910
 6079SOL    HW129873   2.497   2.062   8.507 -1.2537  0.2094  2.7882
 6079SOL    HW229874   2.626   2.110   8.555  1.2182 -0.4346  2.3540
 6080SOL     OW29875   1.434   2.271   7.644 -0.5070 -0.0907 -0.2833
 6080SOL    HW129876   1.480   2.354   7.662 -0.1165 -0.2063 -0.7528
 6080SOL    HW229877   1.439   2.226   7.728  0.2473 -0.5057 -0.5525
 6081SOL     OW29878   1.924   1.582   9.309 -0.5307 -0.2238  0.3561
 6081SOL    HW129879   1.958   1.614   9.225 -0.0933 -0.0157  0.6183
 6081SOL    HW229880   1.834   1.568   9.279 -0.2741 -0.8818 -0.1067
 6082SOL     OW29881   4.114   4.289  15.979 -0.6518 -0.1202 -0.1036
 6082SOL    HW129882   4.096   4.382  15.968  2.2123  0.1829 -2.1634
 6082SOL    HW229883   4.059   4.267  16.054  0.6995 -1.4480  0.4822
 6083SOL     OW29884   2.746   3.783   2.365  0.2402 -0.3846 -0.4438
 6083SOL    HW129885   2.739   3.877   2.382 -0.8754 -0.9917  2.4593
 6083SOL    HW229886   2.830   3.758   2.404  0.6665  0.8533 -0.5650
 6084SOL     OW29887   0.333   2.866  12.780 -0.0187 -0.2449 -0.3075
 6084SOL    HW129888   0.316   2.935  12.844  2.0971 -1.2334  1.3416
 6084SOL    HW229889   0.405   2.819  12.823  0.7190 -1.2875 -2.6961
 6085SOL     OW29890   2.875   4.684   6.199 -0.0121 -0.2823  0.0933
 6085SOL    HW129891   2.863   4.594   6.229 -0.3388  0.0404  0.9375
 6085SOL    HW229892   2.953   4.715   6.245  1.0283 -0.4707 -1.5844
 6086SOL     OW29893   4.126   3.313   7.140  0.2180  0.0041 -0.1777
 6086SOL    HW129894   4.050   3.278   7.185 -0.1382 -0.0027 -0.7839
 6086SOL    HW229895   4.164   3.228   7.115 -1.7276 -0.5196 -1.3786
 6087SOL     OW29896   4.402   1.629  15.211 -0.0301  0.9205 -0.3638
 6087SOL    HW129897   4.319   1.607  15.169 -0.8934 -1.4458  2.6033
 6087SOL    HW229898   4.465   1.604  15.143 -0.3131 -1.1138  0.1184
 6088SOL     OW29899   0.051   2.551   0.580 -0.0254  0.3066 -0.3102
 6088SOL    HW129900   0.081   2.460   0.586 -1.5705 -0.3083 -1.8520
 6088SOL    HW229901   4.704   2.523   0.609  1.0076 -2.1411  0.4703
 6089SOL     OW29902   0.533   3.757  11.825  0.7673  0.3918 -0.5534
 6089SOL    HW129903   0.599   3.776  11.892  1.3207 -2.2351 -0.3496
 6089SOL    HW229904   0.470   3.710  11.879  2.7579 -0.9726  0.5893
 6090SOL     OW29905   3.575   4.394   4.290 -0.1601  0.5486 -0.2406
 6090SOL    HW129906   3.570   4.299   4.275 -0.1598  0.3850  0.7891
 6090SOL    HW229907   3.661   4.411   4.328  1.1073 -0.7778 -2.4555
 6091SOL     OW29908   3.248   3.949   4.591  0.4176 -0.4202 -0.0734
 6091SOL    HW129909   3.206   3.955   4.677 -1.3674 -1.8725 -0.8476
 6091SOL    HW229910   3.315   4.015   4.612 -0.1338 -0.0012  0.3784
 6092SOL     OW29911   1.561   1.090   1.466  0.1921  0.1114  0.1545
 6092SOL    HW129912   1.509   1.093   1.546 -0.8894  0.6225 -0.5792
 6092SOL    HW229913   1.574   0.996   1.471 -1.2287 -0.1513 -1.4309
 6093SOL     OW29914   0.863   0.195   9.342 -0.1057  0.6573 -0.1629
 6093SOL    HW129915   0.901   0.280   9.319  2.7238 -0.3715  0.7623
 6093SOL    HW229916   0.818   0.171   9.261  1.4093  2.0059 -1.4086
 6094SOL     OW29917   4.566   1.903   5.373  0.4027  0.3669 -0.0847
 6094SOL    HW129918   4.500   1.930   5.436  1.9236 -1.5198  2.2945
 6094SOL    HW229919   4.640   1.901   5.434 -0.0953 -0.6303  0.4819
 6095SOL     OW29920   1.611   1.938   7.245 -0.3056  0.2257 -0.1938
 6095SOL    HW129921   1.552   1.943   7.170  0.5817 -0.2025 -0.9233
 6095SOL    HW229922   1.594   2.025   7.280  3.5933  1.4958 -1.4364
 6096SOL     OW29923   1.299   3.923   8.422 -1.2675 -0.5597  0.5350
 6096SOL    HW129924   1.305   3.836   8.463 -1.0471 -0.5158  0.5965
 6096SOL    HW229925   1.308   3.898   8.330 -0.0375  2.7057 -0.2140
 6097SOL     OW29926   2.567   2.026  14.034  0.0523  0.6122 -0.7635
 6097SOL    HW129927   2.520   1.995  14.111 -1.4252  2.1153 -1.0666
 6097SOL    HW229928   2.592   2.113  14.066 -3.2587  1.4389 -0.4297
 6098SOL     OW29929   4.478   4.285   6.798  0.3686 -0.1257  0.1349
 6098SOL    HW129930   4.394   4.253   6.831 -0.6050  2.6712  0.3787
 6098SOL    HW229931   4.446   4.353   6.739  1.0266 -0.5742 -0.7355
 6099SOL     OW29932   2.370   2.906   4.520  0.3124  0.4254 -0.4575
 6099SOL    HW129933   2.446   2.898   4.578 -0.0198 -0.1481 -0.1080
 6099SOL    HW229934   2.309   2.879   4.588  0.5611  2.9268  0.7509
 6100SOL     OW29935   4.349   2.554   5.879  0.0446 -0.1800  0.1207
 6100SOL    HW129936   4.334   2.497   5.954 -2.0476  0.0123 -0.1369
 6100SOL    HW229937   4.334   2.638   5.923  2.3474  0.2296  0.0969
 6101SOL     OW29938   2.486   3.417   8.474  0.0552  0.3440 -0.3074
 6101SOL    HW129939   2.475   3.469   8.394 -2.4451  0.0009 -0.1841
 6101SOL    HW229940   2.582   3.423   8.480  0.2261 -3.4484  0.6525
 6102SOL     OW29941   1.198   4.227   7.020  0.8343 -0.2221 -0.0533
 6102SOL    HW129942   1.123   4.190   7.067 -0.9151  0.9725 -1.9174
 6102SOL    HW229943   1.178   4.187   6.935  2.3600 -0.5488 -0.2529
 6103SOL     OW29944   3.730   0.884  12.369  0.0927  0.3009  0.0702
 6103SOL    HW129945   3.804   0.908  12.313 -0.9979  1.1335 -1.0190
 6103SOL    HW229946   3.753   0.797  12.401  1.1170 -0.3592 -2.4807
 6104SOL     OW29947   1.637   3.665   3.119 -0.9536  0.2831  0.3062
 6104SOL    HW129948   1.668   3.754   3.103  2.6264 -0.9809  0.1974
 6104SOL    HW229949   1.591   3.658   3.036 -4.9176 -0.8320  2.6184
 6105SOL     OW29950   1.064   2.157   5.449  0.5273  0.1214 -0.0250
 6105SOL    HW129951   1.151   2.160   5.409  0.7412 -2.6127  0.2085
 6105SOL    HW229952   1.086   2.185   5.538 -2.8734  0.6023  0.6642
 6106SOL     OW29953   2.956   1.849   2.466 -0.3724 -0.2351 -0.5182
 6106SOL    HW129954   2.952   1.787   2.392  0.6843 -0.6155 -0.2542
 6106SOL    HW229955   2.972   1.793   2.541 -0.8605 -0.9331 -0.9371
 6107SOL     OW29956   1.956   3.046   3.491  0.0818 -0.3983  0.3377
 6107SOL    HW129957   2.029   3.100   3.523  0.7148  0.6922 -2.9817
 6107SOL    HW229958   1.896   3.087   3.553 -0.2396  1.0683 -0.9637
 6108SOL     OW29959   0.584   0.156   9.372 -0.3399  0.6811  0.0888
 6108SOL    HW129960   0.627   0.225   9.423 -1.2315  0.2008  1.4832
 6108SOL    HW229961   0.662   0.107   9.344 -0.1155  0.5533  0.9301
 6109SOL     OW29962   4.081   1.802   4.264 -0.5431  0.1707 -0.8267
 6109SOL    HW129963   4.069   1.834   4.174 -1.7265  0.5236 -0.5462
 6109SOL    HW229964   3.996   1.761   4.278 -0.0481 -1.1990 -1.8016
 6110SOL     OW29965   1.093   3.474  10.738  0.0030 -0.4409  0.0520
 6110SOL    HW129966   1.135   3.543  10.789  0.5223  2.0565 -3.7067
 6110SOL    HW229967   1.004   3.499  10.760  0.9883  3.4726 -0.4502
 6111SOL     OW29968   3.883   2.028   8.123  0.2445  0.0848  0.2557
 6111SOL    HW129969   3.908   1.945   8.082 -2.6165 -0.9920  0.6478
 6111SOL    HW229970   3.852   1.986   8.203  1.0115  1.8617  1.4690
 6112SOL     OW29971   0.648   2.026  14.408 -0.5045 -0.3881 -0.1858
 6112SOL    HW129972   0.680   2.115  14.423  0.6109 -0.5814 -1.4891
 6112SOL    HW229973   0.731   1.984  14.387  0.5849 -0.9272  5.1622
 6113SOL     OW29974   2.893   3.048   6.437 -0.1819 -0.0244 -0.4593
 6113SOL    HW129975   2.971   3.067   6.489  0.4899 -1.5628 -0.9104
 6113SOL    HW229976   2.842   2.992   6.496  0.1300 -2.9221 -2.9523
 6114SOL     OW29977   4.487   0.140   3.168 -0.0890 -0.0898  0.1261
 6114SOL    HW129978   4.418   0.161   3.105  1.1774 -0.2002 -1.2812
 6114SOL    HW229979   4.452   0.060   3.207  0.4584 -0.5748 -0.3903
 6115SOL     OW29980   1.168   1.250   5.803  0.2121  0.1165  0.0701
 6115SOL    HW129981   1.160   1.310   5.876  2.4363 -0.0645  0.4734
 6115SOL    HW229982   1.076   1.247   5.775 -0.6381 -0.5086  2.9867
 6116SOL     OW29983   1.686   1.703  12.084 -0.3213 -0.3271 -0.6472
 6116SOL    HW129984   1.723   1.789  12.064  1.7166 -1.1087 -0.2527
 6116SOL    HW229985   1.674   1.705  12.179  0.3698  0.3178 -0.5683
 6117SOL     OW29986   2.131   2.708   5.084  0.0669  0.3104  0.0426
 6117SOL    HW129987   2.111   2.617   5.107  1.5943 -0.4762 -1.7236
 6117SOL    HW229988   2.189   2.738   5.154 -1.8924  1.2445  1.2636
 6118SOL     OW29989   1.092   0.494  13.978  0.7026 -0.1806  0.2267
 6118SOL    HW129990   0.997   0.496  13.967  0.9097  0.4683 -1.4452
 6118SOL    HW229991   1.131   0.479  13.892  0.3106 -0.5244  0.1140
 6119SOL     OW29992   0.069   1.122   0.048 -0.1287  0.0817 -0.2789
 6119SOL    HW129993   0.137   1.084  17.749 -1.9734 -2.3808 -0.8122
 6119SOL    HW229994   0.121   1.144   0.126  0.6754  3.0645 -1.6483
 6120SOL     OW29995   4.214   2.159   6.856 -0.0001  0.0955 -0.4934
 6120SOL    HW129996   4.230   2.252   6.841  2.8840  0.1741  3.1796
 6120SOL    HW229997   4.133   2.140   6.809  0.1672 -2.6384  0.3500
 6121SOL     OW29998   4.138   3.290   3.123 -0.1492  0.0466 -0.0304
 6121SOL    HW129999   4.100   3.302   3.211  1.2442  0.5371  0.5121
 6121SOL    HW230000   4.056   3.277   3.076  0.1809  4.0053 -1.6684
 6122SOL     OW30001   0.626   1.655  11.710 -0.3483  0.2014 -0.2780
 6122SOL    HW130002   0.705   1.607  11.737 -0.3900 -0.2028 -0.8630
 6122SOL    HW230003   0.593   1.676  11.797 -1.5535 -3.4263  0.1536
 6123SOL     OW30004   2.434   4.154  11.569 -0.6064 -0.1270  0.2936
 6123SOL    HW130005   2.501   4.192  11.513  1.3220  1.3305  3.5932
 6123SOL    HW230006   2.475   4.188  11.649  0.2347 -1.9641  0.6274
 6124SOL     OW30007   0.930   0.837  14.269  0.0028  0.1442  0.5882
 6124SOL    HW130008   1.014   0.838  14.315  0.0060 -2.1926  0.6203
 6124SOL    HW230009   0.960   0.807  14.183 -0.0164 -3.4721  1.8603
 6125SOL     OW30010   4.351   4.328   2.207  0.3419 -0.0971 -0.3414
 6125SOL    HW130011   4.314   4.327   2.119 -0.9438 -0.1657  0.1896
 6125SOL    HW230012   4.271   4.323   2.261  1.5653  0.1330  1.5069
 6126SOL     OW30013   2.848   1.349   0.583  0.2595 -0.0166  0.1613
 6126SOL    HW130014   2.842   1.313   0.672 -0.2596  0.2878  0.2515
 6126SOL    HW230015   2.868   1.265   0.542 -1.4850 -0.0782 -0.5414
 6127SOL     OW30016   0.036   4.445   2.054  0.1000  0.2598  0.3756
 6127SOL    HW130017   0.098   4.373   2.065  0.2771  0.2976 -0.4281
 6127SOL    HW230018   4.709   4.434   2.122  0.1400 -0.8488  0.2327
 6128SOL     OW30019   1.326   2.813   6.113 -0.0378 -0.5622  0.6607
 6128SOL    HW130020   1.395   2.816   6.047 -2.0378 -1.8589 -1.4793
 6128SOL    HW230021   1.347   2.899   6.149 -2.3734  0.8982 -1.4934
 6129SOL     OW30022   2.819   1.072  12.716  0.0870 -0.7229  0.0700
 6129SOL    HW130023   2.879   1.145  12.734 -0.5392 -0.5637  1.5430
 6129SOL    HW230024   2.878   1.009  12.674  0.5829 -0.0900 -0.1890
 6130SOL     OW30025   0.680   0.497   3.067 -0.2857 -0.4547  0.5610
 6130SOL    HW130026   0.715   0.411   3.041 -1.7811 -1.1348  0.8324
 6130SOL    HW230027   0.616   0.461   3.128 -0.2005 -0.6893  0.5149
 6131SOL     OW30028   3.278   1.902   8.381 -0.3968 -0.1778  0.1569
 6131SOL    HW130029   3.280   1.977   8.439  1.8038  0.0958 -0.2669
 6131SOL    HW230030   3.334   1.838   8.426 -1.9771 -2.0917 -0.5772
 6132SOL     OW30031   3.529   1.038   6.115 -0.3690  0.8538 -0.4047
 6132SOL    HW130032   3.504   0.946   6.106  2.3854  0.0714 -0.0194
 6132SOL    HW230033   3.496   1.059   6.027 -2.5082  1.3581  0.5155
 6133SOL     OW30034   2.411   1.903   6.381  0.0169  0.4345 -0.0550
 6133SOL    HW130035   2.318   1.884   6.386 -0.0568  1.1594  1.5312
 6133SOL    HW230036   2.419   1.859   6.297 -0.7336 -2.5937  1.4916
 6134SOL     OW30037   4.620   4.065   1.773  0.5794 -0.3760 -0.2139
 6134SOL    HW130038   4.589   4.096   1.858 -0.9086  0.1739 -0.9642
 6134SOL    HW230039   4.649   3.976   1.795  1.8781 -0.0689 -0.6832
 6135SOL     OW30040   3.918   3.201   2.315 -0.4084  0.1096 -0.1065
 6135SOL    HW130041   3.881   3.113   2.315  1.6046 -0.7201  0.0865
 6135SOL    HW230042   4.003   3.207   2.271  1.0081  0.0376  2.6443
 6136SOL     OW30043   1.420   0.197  14.569 -0.1049 -0.1500 -0.1370
 6136SOL    HW130044   1.343   0.144  14.553  0.0839 -0.4069 -0.2004
 6136SOL    HW230045   1.450   0.207  14.478 -1.2611  0.3496 -0.4623
 6137SOL     OW30046   4.034   0.251   5.087 -0.0882  0.4495  0.1743
 6137SOL    HW130047   4.059   0.305   5.162  1.1966 -1.0960  0.8681
 6137SOL    HW230048   3.990   0.320   5.038  1.5420 -0.0769 -2.0246
 6138SOL     OW30049   3.143   1.576   4.074  0.0399  0.6695 -0.6583
 6138SOL    HW130050   3.169   1.662   4.042  0.9904  0.8040  0.4592
 6138SOL    HW230051   3.050   1.565   4.054  0.0572  0.5130 -0.6513
 6139SOL     OW30052   3.711   2.092  11.865  0.1933  0.0294 -0.0168
 6139SOL    HW130053   3.674   2.174  11.832 -0.0885  0.3679  1.1329
 6139SOL    HW230054   3.795   2.095  11.821  0.6894 -0.9847  0.8683
 6140SOL     OW30055   1.575   1.492  11.391  0.5021 -0.0978 -0.0418
 6140SOL    HW130056   1.658   1.452  11.363  1.4238  1.1037  0.9839
 6140SOL    HW230057   1.575   1.575  11.344 -0.9896  0.5912  1.1583
 6141SOL     OW30058   3.745   0.186  13.257 -0.4547 -0.1998 -0.2379
 6141SOL    HW130059   3.785   0.121  13.199  0.3186 -0.3188  0.4288
 6141SOL    HW230060   3.823   0.238  13.273 -0.9541  1.0298 -1.8346
 6142SOL     OW30061   0.566   2.512   6.385  0.4034 -0.2184 -0.1230
 6142SOL    HW130062   0.584   2.465   6.304 -0.6111  0.2920 -0.6504
 6142SOL    HW230063   0.617   2.463   6.449  0.6759  1.7437  1.1756
 6143SOL     OW30064   3.867   4.195   8.870 -0.2405  0.1919  0.1949
 6143SOL    HW130065   3.952   4.203   8.827 -0.2263  2.3286  0.6129
 6143SOL    HW230066   3.821   4.155   8.796  1.1820  2.6279 -2.0184
 6144SOL     OW30067   4.567   3.489   4.732  0.3110  0.6354 -0.7384
 6144SOL    HW130068   4.562   3.582   4.755 -1.7957 -0.4256  3.0077
 6144SOL    HW230069   4.654   3.461   4.761 -0.0592  1.1860  0.9117
 6145SOL     OW30070   1.320   1.468   7.224 -0.6639  0.2239 -0.4674
 6145SOL    HW130071   1.256   1.484   7.154 -0.7169  1.1044 -0.2108
 6145SOL    HW230072   1.269   1.408   7.278  0.8539 -1.1374 -0.5462
 6146SOL     OW30073   2.837   1.364  16.777 -0.3507 -0.0411  0.6969
 6146SOL    HW130074   2.903   1.422  16.740  0.4497 -0.4756  1.4348
 6146SOL    HW230075   2.777   1.423  16.822 -0.3392 -0.1664  0.8750
 6147SOL     OW30076   3.265   1.559   5.891 -0.0485  0.5463  0.8571
 6147SOL    HW130077   3.219   1.554   5.975 -0.9087  2.1727  0.4773
 6147SOL    HW230078   3.333   1.493   5.906  0.4365  0.9424  0.3804
 6148SOL     OW30079   4.132   4.691  12.413  0.2099 -0.4094 -0.0799
 6148SOL    HW130080   4.063   4.644  12.460  0.9115 -0.5801  0.7761
 6148SOL    HW230081   4.189   4.622  12.380 -0.0469 -0.9169  0.5518
 6149SOL     OW30082   0.424   4.028  10.068 -0.0358 -0.2202  0.0801
 6149SOL    HW130083   0.387   4.115  10.080  0.0269 -0.1085 -0.5317
 6149SOL    HW230084   0.427   3.989  10.155 -3.5562 -0.1612  0.2316
 6150SOL     OW30085   1.043   3.630   6.508  1.0144 -0.4388  0.1761
 6150SOL    HW130086   1.021   3.538   6.518 -2.2823  0.2980 -0.4716
 6150SOL    HW230087   0.965   3.678   6.534  0.4029 -1.2027 -0.2709
 6151SOL     OW30088   0.059   2.459  17.343  0.2400  0.1974  0.3664
 6151SOL    HW130089   0.017   2.543  17.361  0.7717  0.3705  0.8123
 6151SOL    HW230090   0.012   2.396  17.398  0.8087 -0.7155 -0.2019
 6152SOL     OW30091   4.650   3.106   7.789 -0.2837  0.1554  0.0494
 6152SOL    HW130092   4.726   3.093   7.732  0.0082 -0.7622  0.6692
 6152SOL    HW230093   4.647   3.200   7.807 -0.7418 -0.1704  1.6315
 6153SOL     OW30094   3.656   3.453   8.253 -0.0808 -0.2189  0.0060
 6153SOL    HW130095   3.704   3.420   8.176 -1.0618  0.4754 -0.8990
 6153SOL    HW230096   3.719   3.513   8.293 -1.4019  0.5280  0.9775
 6154SOL     OW30097   4.286   2.237   5.017 -0.1901 -0.5815 -0.3737
 6154SOL    HW130098   4.373   2.273   5.035 -1.4400  0.4976  3.5716
 6154SOL    HW230099   4.311   2.161   4.964 -1.8826 -0.6098 -1.1159
 6155SOL     OW30100   3.050   4.281   2.196 -0.9633 -0.7300 -0.3838
 6155SOL    HW130101   3.099   4.353   2.236 -0.0459 -2.1140  0.9731
 6155SOL    HW230102   3.118   4.244   2.140 -0.3699  1.7355 -1.3253
 6156SOL     OW30103   2.276   4.580   5.916 -0.1310 -0.1225 -0.1676
 6156SOL    HW130104   2.358   4.623   5.892  0.2846 -0.3671  0.8075
 6156SOL    HW230105   2.287   4.488   5.893 -1.7684 -0.8259  1.8525
 6157SOL     OW30106   2.496   4.568   5.349 -0.7311  0.1104  0.3298
 6157SOL    HW130107   2.421   4.587   5.292 -0.5289  0.4579  0.1761
 6157SOL    HW230108   2.524   4.656   5.375 -0.5689 -0.1814  1.1100
 6158SOL     OW30109   0.976   0.280   5.799 -0.3253  0.3132 -0.3826
 6158SOL    HW130110   0.976   0.325   5.715  2.5619  0.2270 -0.4303
 6158SOL    HW230111   0.974   0.189   5.768  0.4255 -0.8049  2.8516
 6159SOL     OW30112   4.171   3.562   8.645 -0.8601  0.3711  0.7342
 6159SOL    HW130113   4.121   3.577   8.565  3.3928 -0.4798 -2.0588
 6159SOL    HW230114   4.099   3.569   8.707 -0.9127  0.2946  0.6825
 6160SOL     OW30115   4.153   1.083   2.930 -0.2154  0.4551 -0.3031
 6160SOL    HW130116   4.086   1.016   2.942  1.6630 -1.0397  1.9336
 6160SOL    HW230117   4.165   1.056   2.839 -1.7177 -0.3689 -0.2557
 6161SOL     OW30118   4.060   0.748   0.764  0.1930 -0.0237  0.3190
 6161SOL    HW130119   4.003   0.694   0.819  0.7497 -2.7749 -1.8080
 6161SOL    HW230120   4.092   0.694   0.692  3.4421  3.0166 -0.4973
 6162SOL     OW30121   2.696   1.414   2.713  0.1188 -0.3500  0.0949
 6162SOL    HW130122   2.766   1.382   2.770  0.2632  1.2189  0.8240
 6162SOL    HW230123   2.734   1.409   2.625 -1.8269 -2.7577 -0.5906
 6163SOL     OW30124   2.381   3.963   2.537  0.6654  0.0503  0.3808
 6163SOL    HW130125   2.330   4.044   2.534 -0.3225 -0.6300 -1.2778
 6163SOL    HW230126   2.363   3.922   2.452 -1.3364  3.0517 -0.6449
 6164SOL     OW30127   3.540   2.009   4.665  0.2109  0.2917 -0.0061
 6164SOL    HW130128   3.444   2.005   4.666  0.2495 -0.4735  0.4991
 6164SOL    HW230129   3.550   1.914   4.666 -1.1633  0.1182 -2.7671
 6165SOL     OW30130   1.662   1.708  16.832  0.6570  0.1321  0.3055
 6165SOL    HW130131   1.674   1.726  16.739 -0.1504 -0.9669 -0.0132
 6165SOL    HW230132   1.742   1.659  16.850 -0.1591 -0.6853  1.7880
 6166SOL     OW30133   1.857   4.671  11.141  0.7613 -0.2581  0.0377
 6166SOL    HW130134   1.834   0.008  11.088 -1.6582 -1.6134 -0.8908
 6166SOL    HW230135   1.938   4.643  11.099  0.2746 -1.5999 -0.0253
 6167SOL     OW30136   3.175   2.943   3.828 -0.3435 -0.4301 -0.0039
 6167SOL    HW130137   3.202   2.867   3.880 -0.3109 -0.4707 -0.0792
 6167SOL    HW230138   3.149   2.897   3.748  2.8980  1.0096 -1.9136
 6168SOL     OW30139   2.931   1.976  11.604 -1.0243 -0.5986  0.3947
 6168SOL    HW130140   2.929   2.069  11.581 -2.7655 -0.4979  0.9373
 6168SOL    HW230141   2.842   1.942  11.591 -1.6160  0.3199  2.1451
 6169SOL     OW30142   0.108   0.725   8.054  0.6266  0.2142  0.0805
 6169SOL    HW130143   0.190   0.711   8.007  0.0195  0.1304 -0.9520
 6169SOL    HW230144   0.048   0.655   8.029  0.5647  1.2635 -2.7269
 6170SOL     OW30145   0.139   3.647   7.657  0.3011  0.1454  0.2702
 6170SOL    HW130146   0.087   3.572   7.687  0.2987 -0.5102 -1.3861
 6170SOL    HW230147   0.072   3.716   7.658 -1.1248 -1.2543  0.3271
 6171SOL     OW30148   0.442   2.694   2.490  0.1462  0.5297  0.4154
 6171SOL    HW130149   0.504   2.675   2.561 -0.0644 -2.1366 -0.1164
 6171SOL    HW230150   0.374   2.628   2.501  2.2769 -1.9532 -1.2792
 6172SOL     OW30151   4.604   4.438   8.878 -0.0199  0.2101  0.2668
 6172SOL    HW130152   4.553   4.430   8.959  0.8893 -2.5126  0.5838
 6172SOL    HW230153   4.533   4.435   8.814  2.5682  2.1618 -2.7323
 6173SOL     OW30154   2.303   4.061   3.724 -0.1852  0.0565 -0.0587
 6173SOL    HW130155   2.332   3.976   3.690 -0.3947  0.1958 -0.5779
 6173SOL    HW230156   2.259   4.044   3.807  0.7361  0.4423  0.5050
 6174SOL     OW30157   1.654   3.094   2.812 -0.8465  0.1780  0.1784
 6174SOL    HW130158   1.625   3.180   2.780  0.9874  0.0320 -1.8796
 6174SOL    HW230159   1.580   3.046   2.849 -0.0583 -0.0756  1.4413
 6175SOL     OW30160   2.711   2.554   7.525  0.3017  0.3020  0.3383
 6175SOL    HW130161   2.797   2.516   7.544  0.4683 -0.0595 -1.1096
 6175SOL    HW230162   2.714   2.631   7.581  1.4271 -0.6645  1.5957
 6176SOL     OW30163   1.834   2.939   2.635 -0.2644  0.3475 -0.0275
 6176SOL    HW130164   1.922   2.949   2.670 -0.4995  1.0151  0.3759
 6176SOL    HW230165   1.778   3.000   2.683 -0.6137  0.8188 -1.0229
 6177SOL     OW30166   3.340   3.437   3.045 -0.3739  0.0456 -0.0968
 6177SOL    HW130167   3.426   3.476   3.031 -0.3678  0.4704  1.0809
 6177SOL    HW230168   3.336   3.362   2.987  1.8317 -0.2059  0.1027
 6178SOL     OW30169   2.997   0.712   5.914 -0.3325 -0.2407 -0.2702
 6178SOL    HW130170   3.038   0.791   5.877 -1.1250  0.0388 -0.5616
 6178SOL    HW230171   3.075   0.666   5.945  0.8322  1.3233 -0.8567
 6179SOL     OW30172   1.587   0.868  12.045 -0.0101 -0.5208  0.3085
 6179SOL    HW130173   1.658   0.851  12.107 -0.0736  1.9720  1.0620
 6179SOL    HW230174   1.526   0.928  12.088 -1.2107 -0.7309 -1.1062
 6180SOL     OW30175   2.349   0.811   2.692 -0.2033  0.0737 -0.4387
 6180SOL    HW130176   2.425   0.853   2.652 -0.0770  0.0692 -0.2022
 6180SOL    HW230177   2.372   0.718   2.695  0.5786  0.3655  2.6434
 6181SOL     OW30178   0.080   1.345   3.412 -0.4712 -0.4093  0.0064
 6181SOL    HW130179   0.127   1.417   3.369 -0.3853  0.5901  1.7927
 6181SOL    HW230180   0.116   1.364   3.499 -0.8780  0.0416  0.0780
 6182SOL     OW30181   4.641   3.542   6.486  0.1828 -0.3232 -0.0896
 6182SOL    HW130182   4.663   3.611   6.549  0.0859 -2.4865  2.3115
 6182SOL    HW230183   4.618   3.469   6.543  1.2967 -1.5835 -1.2795
 6183SOL     OW30184   0.861   4.700   6.796 -0.2855  0.3244 -0.0055
 6183SOL    HW130185   0.949   4.711   6.758  0.2616 -3.4263  0.1741
 6183SOL    HW230186   0.861   4.608   6.824 -1.5885 -0.7285 -3.5127
 6184SOL     OW30187   0.727   3.851   0.918  0.2414  0.0165  0.0642
 6184SOL    HW130188   0.656   3.875   0.859  0.1833 -3.5597 -1.3577
 6184SOL    HW230189   0.732   3.936   0.963  1.4371 -0.7736  1.4325
 6185SOL     OW30190   4.567   4.619   4.402 -0.0213  0.8283 -0.0364
 6185SOL    HW130191   4.524   4.623   4.488 -2.9363 -0.3172 -1.4468
 6185SOL    HW230192   4.578   4.526   4.386  0.0057  1.3603 -3.1116
 6186SOL     OW30193   0.679   1.991  15.065  0.0509 -0.1242  0.2696
 6186SOL    HW130194   0.753   1.966  15.120  0.4670 -1.0735 -0.7142
 6186SOL    HW230195   0.658   2.073  15.110  2.9048  1.5798 -1.5361
 6187SOL     OW30196   0.960   3.861  14.381  0.1658  0.6420  0.1005
 6187SOL    HW130197   0.895   3.892  14.319 -0.9020  1.4369  1.6130
 6187SOL    HW230198   1.012   3.937  14.407 -1.8427  1.1096  2.6710
 6188SOL     OW30199   2.927   3.681   6.735 -0.0605  0.0877  0.1263
 6188SOL    HW130200   2.974   3.734   6.670  1.5840  0.4394  1.6055
 6188SOL    HW230201   2.940   3.589   6.712 -0.9105  0.2605 -1.0390
 6189SOL     OW30202   0.777   3.634   2.596  0.7264 -0.4981  0.0177
 6189SOL    HW130203   0.834   3.563   2.565  0.8767 -0.6289  0.5876
 6189SOL    HW230204   0.725   3.596   2.668 -0.8432  0.6645 -0.5149
 6190SOL     OW30205   3.460   2.121   3.657 -0.4651  0.2090 -0.0857
 6190SOL    HW130206   3.449   2.213   3.635 -0.9238  0.0800 -0.3974
 6190SOL    HW230207   3.475   2.118   3.752 -1.4395  0.0392  0.0662
 6191SOL     OW30208   1.914   3.774   4.345  0.0896  0.1413 -0.3297
 6191SOL    HW130209   1.998   3.789   4.387 -0.5247  1.3572  0.4710
 6191SOL    HW230210   1.863   3.781   4.426  2.1678  2.0945  0.8076
 6192SOL     OW30211   3.352   3.553   4.665 -0.0369 -0.7345  0.2337
 6192SOL    HW130212   3.399   3.487   4.615  1.3476 -0.8138  1.6360
 6192SOL    HW230213   3.378   3.629   4.614 -0.4972 -0.5656  0.2460
 6193SOL     OW30214   2.142   2.388   7.269  0.0495 -0.0469  0.6600
 6193SOL    HW130215   2.174   2.389   7.179 -0.1939 -0.2067  0.5728
 6193SOL    HW230216   2.121   2.481   7.279  1.2221  0.4979 -2.0149
 6194SOL     OW30217   3.742   2.274   2.662 -0.4652  0.0547  0.2437
 6194SOL    HW130218   3.669   2.330   2.687 -1.7212 -2.1832  1.5519
 6194SOL    HW230219   3.709   2.233   2.582 -0.7210 -0.1849  0.4765
 6195SOL     OW30220   3.413   3.012   1.308 -0.0916 -0.0821 -0.0775
 6195SOL    HW130221   3.467   2.975   1.377 -2.9847 -1.0330  1.6834
 6195SOL    HW230222   3.403   3.098   1.349  2.9452 -0.2174  0.9456
 6196SOL     OW30223   1.797   1.094   3.798  0.2487  0.5137 -0.1038
 6196SOL    HW130224   1.745   1.076   3.876 -0.9889 -0.6118 -1.1790
 6196SOL    HW230225   1.888   1.101   3.827  0.2435  1.1020 -0.2275
 6197SOL     OW30226   1.595   0.684   3.471 -0.3123  0.2247 -0.1844
 6197SOL    HW130227   1.641   0.736   3.537  0.7258  0.0365 -0.7576
 6197SOL    HW230228   1.576   0.606   3.524  1.3522 -0.1102 -0.0690
 6198SOL     OW30229   0.641   3.457   4.281  0.3908 -0.0365 -0.7448
 6198SOL    HW130230   0.614   3.445   4.372  0.0747 -1.5295 -1.0458
 6198SOL    HW230231   0.564   3.478   4.228  0.2802 -1.2860 -1.0771
 6199SOL     OW30232   2.210   3.420  17.126  0.2965  0.3942 -0.1195
 6199SOL    HW130233   2.250   3.339  17.159  2.3361  1.0714 -0.9072
 6199SOL    HW230234   2.279   3.451  17.067 -0.5126  0.3303 -1.0909
 6200SOL     OW30235   3.542   0.532   1.886  0.3161 -0.1697 -0.3787
 6200SOL    HW130236   3.596   0.534   1.808  0.8931  3.8431  0.1393
 6200SOL    HW230237   3.617   0.548   1.944 -0.4448  1.3803  0.1758
 6201SOL     OW30238   1.158   1.612   0.869  0.2265  0.0835  0.1599
 6201SOL    HW130239   1.067   1.592   0.844  0.9645 -2.0292 -0.8399
 6201SOL    HW230240   1.188   1.531   0.911  2.8252  0.5822 -0.7459
 6202SOL     OW30241   3.574   2.650   5.781 -0.0459 -0.3301 -0.7613
 6202SOL    HW130242   3.561   2.557   5.760 -0.2541 -0.7845  1.3523
 6202SOL    HW230243   3.669   2.658   5.783 -0.0077 -0.9326 -0.0867
 6203SOL     OW30244   1.841   2.293   9.694  0.0334  0.2298  1.4206
 6203SOL    HW130245   1.935   2.309   9.704  0.0935  1.4224 -0.9599
 6203SOL    HW230246   1.836   2.199   9.707  1.1631  0.0019  0.2416
 6204SOL     OW30247   4.183   1.658   8.326 -0.2759 -0.1077 -0.4999
 6204SOL    HW130248   4.146   1.597   8.390  2.2515 -1.1691 -0.0572
 6204SOL    HW230249   4.252   1.601   8.293  0.2232 -0.8143  1.7854
 6205SOL     OW30250   1.647   2.665   9.177 -0.0870 -0.1161 -0.1133
 6205SOL    HW130251   1.660   2.734   9.241 -3.0605  0.5232 -0.2133
 6205SOL    HW230252   1.620   2.589   9.229  2.1892 -1.3997 -0.7568
 6206SOL     OW30253   3.434   3.864  13.156 -0.0124 -0.0878 -0.3117
 6206SOL    HW130254   3.457   3.785  13.107  0.8559  1.0253 -1.6720
 6206SOL    HW230255   3.411   3.915  13.079 -2.5124 -1.1011 -0.2456
 6207SOL     OW30256   2.923   0.384   4.781 -0.2192 -0.0101 -0.1412
 6207SOL    HW130257   2.946   0.292   4.790  1.3376  0.3639 -0.2967
 6207SOL    HW230258   2.896   0.388   4.689  1.1731  0.6744 -0.5131
 6208SOL     OW30259   3.512   4.017   7.994 -0.0509 -0.4625 -0.3100
 6208SOL    HW130260   3.487   4.102   7.960  0.6433  0.2281  0.9042
 6208SOL    HW230261   3.606   4.029   7.984 -0.4592  0.5223 -2.7735
 6209SOL     OW30262   2.259   0.578   4.691  0.2466  0.3646  0.3623
 6209SOL    HW130263   2.339   0.551   4.737  3.5392  3.3719 -3.4901
 6209SOL    HW230264   2.292   0.649   4.635  1.6594  0.4826  1.3277
 6210SOL     OW30265   1.418   4.191   3.454  0.3274 -0.0720  0.0566
 6210SOL    HW130266   1.466   4.166   3.376  1.1624  3.3048 -0.5300
 6210SOL    HW230267   1.343   4.237   3.418  0.1543 -1.2244 -1.0262
 6211SOL     OW30268   3.804   4.702   7.730 -0.5183  0.0658  0.5049
 6211SOL    HW130269   3.734   0.025   7.746 -0.7269  0.2697 -1.1947
 6211SOL    HW230270   3.837   4.686   7.818 -1.4010 -1.3179  0.5889
 6212SOL     OW30271   2.617   0.148   6.014 -0.2440  0.2016  0.6564
 6212SOL    HW130272   2.566   0.220   6.052 -0.3252  0.5321 -0.0653
 6212SOL    HW230273   2.694   0.144   6.071  0.2636  2.6878  0.1523
 6213SOL     OW30274   4.001   1.491   4.434 -0.2492  0.0021  0.9188
 6213SOL    HW130275   4.088   1.529   4.443 -0.0383  0.1090 -1.5361
 6213SOL    HW230276   4.030   1.406   4.400 -2.7818  0.2197 -1.8363
 6214SOL     OW30277   0.698   2.038  10.942  0.0587  0.5501 -0.4931
 6214SOL    HW130278   0.724   2.072  11.027  1.5876  0.9257 -1.1047
 6214SOL    HW230279   0.711   2.114  10.885 -1.7816  1.1317 -0.1256
 6215SOL     OW30280   0.866   2.563   4.863  0.7114 -0.6344 -0.5225
 6215SOL    HW130281   0.821   2.479   4.849 -0.6780  0.7013 -4.1128
 6215SOL    HW230282   0.803   2.600   4.925  1.1897 -1.6342  0.5737
 6216SOL     OW30283   1.916   2.358   6.046  0.0846 -0.1637 -0.5721
 6216SOL    HW130284   1.933   2.312   6.128 -0.1948  0.7246 -0.0178
 6216SOL    HW230285   2.000   2.401   6.030 -0.5255  0.9971 -0.6497
 6217SOL     OW30286   2.012   3.871   3.423  0.5952 -0.2422  0.3825
 6217SOL    HW130287   2.055   3.889   3.507 -2.0978 -2.0161  2.1508
 6217SOL    HW230288   2.004   3.778   3.444  2.8813 -0.3433  0.8365
 6218SOL     OW30289   0.729   3.616  13.421  0.0936 -0.3690 -0.3247
 6218SOL    HW130290   0.689   3.702  13.410 -1.0762 -1.1483 -2.2968
 6218SOL    HW230291   0.779   3.606  13.340  2.3528  0.6113  0.9691
 6219SOL     OW30292   4.577   2.104   7.743  0.7215  0.4508 -0.8079
 6219SOL    HW130293   4.596   2.170   7.809 -0.4023  0.5327 -0.5696
 6219SOL    HW230294   4.656   2.050   7.741 -0.5579 -1.4289 -0.4192
 6220SOL     OW30295   0.322   0.495  11.106 -0.5392  0.4155  0.3837
 6220SOL    HW130296   0.226   0.494  11.104 -0.4921  0.3746 -1.8779
 6220SOL    HW230297   0.339   0.448  11.188  1.2304  1.6343  0.7039
 6221SOL     OW30298   1.068   2.461   9.151  0.5963  0.0756  0.1441
 6221SOL    HW130299   1.140   2.398   9.149  1.1138  0.7642 -2.3848
 6221SOL    HW230300   0.985   2.415   9.141  0.3674  0.0284  2.2053
 6222SOL     OW30301   2.438   0.499   1.896  0.3997 -0.6594  0.4930
 6222SOL    HW130302   2.408   0.494   1.986 -0.0140  2.3914  0.5041
 6222SOL    HW230303   2.422   0.589   1.868  1.0779 -0.1533  1.7442
 6223SOL     OW30304   1.330   0.168  12.252  0.1421  0.1814  0.1993
 6223SOL    HW130305   1.294   0.081  12.271 -2.5108  0.3834 -3.8729
 6223SOL    HW230306   1.403   0.144  12.195  0.0305 -1.5642  0.7931
 6224SOL     OW30307   2.446   0.998   1.284 -0.0608 -0.3282  0.4573
 6224SOL    HW130308   2.363   1.016   1.328 -0.0497  3.1806 -0.9438
 6224SOL    HW230309   2.423   0.988   1.192 -2.3546 -0.9154  1.0815
 6225SOL     OW30310   1.198   0.993   7.896  0.5946  0.5581  0.3603
 6225SOL    HW130311   1.291   1.017   7.888  0.7926 -0.3824 -0.2871
 6225SOL    HW230312   1.203   0.916   7.953 -1.5718  1.2138  1.4239
 6226SOL     OW30313   1.486   2.658   3.144  0.3463 -0.2066  0.0023
 6226SOL    HW130314   1.519   2.637   3.232 -0.1438  0.3605  0.3258
 6226SOL    HW230315   1.552   2.724   3.122  0.9056 -1.1265 -1.0089
 6227SOL     OW30316   0.339   0.879   6.108  0.1256 -0.8454  0.1049
 6227SOL    HW130317   0.303   0.952   6.059  0.0750 -0.0908  1.2659
 6227SOL    HW230318   0.427   0.873   6.072  0.4901  1.9459  0.5604
 6228SOL     OW30319   1.481   0.111  16.806 -0.5431 -0.5639  0.3844
 6228SOL    HW130320   1.447   0.111  16.716 -0.3755 -0.8757  0.3183
 6228SOL    HW230321   1.564   0.068  16.784  0.1238 -0.1818  2.2115
 6229SOL     OW30322   0.380   1.705   6.453 -0.0016 -0.6710  0.8440
 6229SOL    HW130323   0.419   1.702   6.366  2.6518 -0.5486  2.0375
 6229SOL    HW230324   0.454   1.685   6.510  1.3459  3.9348  0.7252
 6230SOL     OW30325   4.508   2.918   3.672  0.2778 -0.2914  0.0872
 6230SOL    HW130326   4.506   2.873   3.588 -0.7262  0.0674 -0.0727
 6230SOL    HW230327   4.426   2.967   3.675 -0.0066 -0.7177 -0.9428
 6231SOL     OW30328   0.590   1.621   0.318  0.0407  0.6669  0.6540
 6231SOL    HW130329   0.664   1.678   0.339 -0.0239  0.7301  0.7087
 6231SOL    HW230330   0.613   1.584   0.233 -0.6043  1.8745 -0.0349
 6232SOL     OW30331   2.156   2.195   7.765  0.0535 -0.6913 -0.1378
 6232SOL    HW130332   2.135   2.281   7.728  1.6380 -0.5091 -0.6025
 6232SOL    HW230333   2.224   2.159   7.708 -0.3625 -1.0715 -0.3946
 6233SOL     OW30334   2.764   4.227   2.683 -0.4596  0.2103 -0.4173
 6233SOL    HW130335   2.799   4.268   2.762  0.7488 -2.1675  0.2816
 6233SOL    HW230336   2.677   4.196   2.709  0.4130 -0.4469  1.6799
 6234SOL     OW30337   1.046   0.941  11.650  0.1845  0.8486  0.0476
 6234SOL    HW130338   0.956   0.913  11.633  0.6955 -1.8077  1.7136
 6234SOL    HW230339   1.061   0.911  11.740  1.6678  3.2083  0.6010
 6235SOL     OW30340   2.807   1.375   7.002 -0.8086 -0.0946  0.3456
 6235SOL    HW130341   2.802   1.279   7.003  0.1689 -0.1365  1.9635
 6235SOL    HW230342   2.741   1.388   6.935 -0.2434 -0.7387 -0.3356
 6236SOL     OW30343   3.607   2.191   4.894  0.1598  0.2748  0.3640
 6236SOL    HW130344   3.696   2.164   4.872 -0.1158 -0.5937  0.3012
 6236SOL    HW230345   3.565   2.150   4.818  0.0069 -0.8260  1.0504
 6237SOL     OW30346   0.926   0.754   2.391 -0.4697 -0.1154 -0.2314
 6237SOL    HW130347   1.018   0.772   2.372 -0.9696  0.0631 -2.5052
 6237SOL    HW230348   0.914   0.770   2.485 -2.8091  0.3283 -0.6182
 6238SOL     OW30349   1.274   3.629   6.050 -0.4283  0.3935  0.3316
 6238SOL    HW130350   1.344   3.650   6.112  0.2125  1.3338 -0.6971
 6238SOL    HW230351   1.214   3.703   6.065 -4.5402 -3.0845  1.1420
 6239SOL     OW30352   1.205   4.685  14.250 -0.3842 -0.4255 -0.3097
 6239SOL    HW130353   1.259   4.728  14.183 -2.0758 -0.3504 -1.6040
 6239SOL    HW230354   1.193   0.019  14.310 -0.3038 -1.4380  0.9467
 6240SOL     OW30355   2.130   2.597   2.227  0.4165 -0.3505  0.3769
 6240SOL    HW130356   2.044   2.630   2.252 -0.3364 -0.5827 -1.8564
 6240SOL    HW230357   2.155   2.633   2.142 -1.7366 -3.9973 -1.8213
 6241SOL     OW30358   3.238   3.345   1.178 -0.0687  0.1624 -0.2986
 6241SOL    HW130359   3.273   3.372   1.093 -1.9726  0.8532 -0.8513
 6241SOL    HW230360   3.316   3.346   1.234 -0.8532 -0.9808  0.8062
 6242SOL     OW30361   3.844   4.560   5.710 -0.0382 -0.1959  0.1099
 6242SOL    HW130362   3.896   4.480   5.699  1.0411  0.3425  1.2554
 6242SOL    HW230363   3.919   4.615   5.684  0.3579 -0.8204 -0.0728
 6243SOL     OW30364   0.686   3.186   3.706  0.2732  0.4519  0.3393
 6243SOL    HW130365   0.621   3.210   3.640 -0.2181  0.5632  0.8605
 6243SOL    HW230366   0.685   3.269   3.753 -0.7198  0.1933  0.7861
 6244SOL     OW30367   4.095   4.310   1.403 -0.1857 -0.5172 -0.0730
 6244SOL    HW130368   4.140   4.233   1.368  1.4743  1.0178 -1.2929
 6244SOL    HW230369   4.044   4.275   1.477 -0.1527 -1.1540 -0.3527
 6245SOL     OW30370   0.006   3.322   3.949 -0.1396 -0.1820  0.4441
 6245SOL    HW130371   0.003   3.251   3.885 -0.7024 -0.8011  1.1608
 6245SOL    HW230372   4.664   3.308   3.997  0.1947 -0.2576  0.9847
 6246SOL     OW30373   0.406   1.160   1.492  0.3122  0.9669 -0.4259
 6246SOL    HW130374   0.433   1.171   1.584 -1.9917  0.4872  0.3255
 6246SOL    HW230375   0.395   1.249   1.458 -0.7615  2.0127  2.6364
 6247SOL     OW30376   3.226   4.359   8.522  0.3455  0.0976 -0.6274
 6247SOL    HW130377   3.173   4.438   8.524 -0.4525 -0.4731  0.3664
 6247SOL    HW230378   3.197   4.318   8.440  0.8367 -3.4538  0.9814
 6248SOL     OW30379   0.760   2.869   5.049 -0.0046 -0.1110 -0.0420
 6248SOL    HW130380   0.727   2.885   4.961 -1.7431 -0.9642  0.4646
 6248SOL    HW230381   0.820   2.943   5.061  0.6501 -0.3341 -1.8590
 6249SOL     OW30382   2.028   3.953   5.331 -0.2114 -0.0725  0.0021
 6249SOL    HW130383   2.113   3.944   5.374 -1.2054  1.2698  2.2268
 6249SOL    HW230384   2.060   3.985   5.247 -0.2995  0.1366  0.0487
 6250SOL     OW30385   1.128   2.478   5.356 -0.0320 -0.1376  0.0173
 6250SOL    HW130386   1.127   2.447   5.265 -2.1112 -1.7855  0.5816
 6250SOL    HW230387   1.036   2.458   5.375 -0.1951 -0.8856 -1.4827
 6251SOL     OW30388   3.777   3.226   5.359 -0.2400  0.0535  0.5325
 6251SOL    HW130389   3.858   3.176   5.350 -0.9143 -0.7555 -1.0663
 6251SOL    HW230390   3.717   3.171   5.308 -0.7954  2.3127 -1.2584
 6252SOL     OW30391   4.109   3.224   6.304 -0.0165 -0.1608 -0.3159
 6252SOL    HW130392   4.186   3.185   6.345 -0.3789 -1.2527 -0.6888
 6252SOL    HW230393   4.039   3.212   6.368 -3.1980 -1.6422 -4.1186
 6253SOL     OW30394   3.356   2.688  17.712  0.1693 -0.1132 -0.2028
 6253SOL    HW130395   3.285   2.747  17.736  0.2707 -0.3362  0.6452
 6253SOL    HW230396   3.424   2.719   0.016 -1.1801  0.6796  0.9303
 6254SOL     OW30397   2.159   4.009   5.027  0.5872  0.2338 -0.0011
 6254SOL    HW130398   2.182   4.102   5.018 -0.4280  0.3671 -1.1442
 6254SOL    HW230399   2.243   3.963   5.022  0.7362  0.2636  2.3404
 6255SOL     OW30400   3.630   4.000  14.367  0.3221  0.3006  0.0685
 6255SOL    HW130401   3.572   3.956  14.305 -0.4531  0.8467  0.4127
 6255SOL    HW230402   3.600   3.978  14.454 -0.7200  1.0195 -0.1019
 6256SOL     OW30403   2.348   2.523   5.475 -0.0366  0.2601 -0.3410
 6256SOL    HW130404   2.417   2.500   5.412 -2.2058  0.4126 -2.7753
 6256SOL    HW230405   2.287   2.453   5.452 -0.2237  0.6814 -1.1533
 6257SOL     OW30406   4.690   4.366   4.237  0.5284 -0.1540  0.5080
 6257SOL    HW130407   4.675   4.328   4.323  0.8555  0.1750  0.7085
 6257SOL    HW230408   4.664   4.292   4.181  0.7197  0.8426 -0.8912
 6258SOL     OW30409   0.334   2.984   3.917  0.4345  0.3801  0.6824
 6258SOL    HW130410   0.420   3.000   3.878  0.1590 -4.9371 -2.0365
 6258SOL    HW230411   0.340   3.046   3.990 -0.4127 -1.2556  2.1449
 6259SOL     OW30412   3.997   0.373   3.776  0.3437  0.1875  0.4468
 6259SOL    HW130413   4.086   0.383   3.809  0.8135 -1.7827 -0.2029
 6259SOL    HW230414   3.947   0.412   3.848  0.0356  0.3998  0.1169
 6260SOL     OW30415   3.143   0.868   1.949 -0.2205  0.1501  0.7552
 6260SOL    HW130416   3.229   0.857   1.989 -0.4062 -0.1649  1.0787
 6260SOL    HW230417   3.141   0.785   1.901 -1.9135  0.6603 -0.0625
 6261SOL     OW30418   4.168   3.806   6.962 -0.3872 -0.3159 -0.0154
 6261SOL    HW130419   4.164   3.815   6.867  1.0077  0.9956  0.0574
 6261SOL    HW230420   4.096   3.750   6.990  1.5454 -1.7242  2.1997
 6262SOL     OW30421   3.224   3.084  10.478 -0.5604 -0.2616 -0.3391
 6262SOL    HW130422   3.249   3.123  10.562 -2.3016  0.9872 -0.4156
 6262SOL    HW230423   3.306   3.055  10.437 -0.7320 -1.9269  0.5110
 6263SOL     OW30424   2.434   1.593   3.847 -0.1312  0.0092 -0.0180
 6263SOL    HW130425   2.518   1.594   3.800 -0.4421  3.3172 -0.5203
 6263SOL    HW230426   2.456   1.543   3.925 -0.3340  0.1552  0.1315
 6264SOL     OW30427   3.572   1.090   3.017  0.4374 -0.0076 -0.1239
 6264SOL    HW130428   3.579   1.002   3.053 -5.2643 -0.7048 -0.6900
 6264SOL    HW230429   3.531   1.134   3.092  0.9370  1.5651 -0.7586
 6265SOL     OW30430   0.363   4.737   9.565 -0.2535 -0.1913 -0.3106
 6265SOL    HW130431   0.294   0.058   9.592 -0.8050 -1.0114  0.1052
 6265SOL    HW230432   0.385   0.033   9.479  1.0983  1.4671  0.7183
 6266SOL     OW30433   0.496   0.699  11.137  0.0906  0.1839  1.1085
 6266SOL    HW130434   0.440   0.623  11.148  0.7905 -0.4978 -0.0097
 6266SOL    HW230435   0.543   0.674  11.057 -0.8862  0.1304  0.5539
 6267SOL     OW30436   1.526   3.136   6.913 -0.2986  0.4060  0.4931
 6267SOL    HW130437   1.592   3.105   6.975 -0.4932  1.6010  1.2920
 6267SOL    HW230438   1.580   3.160   6.837  0.4187  1.1149  1.2398
 6268SOL     OW30439   1.066   1.960   2.864  0.0523 -0.6639  0.0969
 6268SOL    HW130440   0.999   1.892   2.859 -0.7533  0.1834 -0.6423
 6268SOL    HW230441   1.056   1.984   2.956  1.1320 -1.4239  0.4072
 6269SOL     OW30442   3.618   1.031  13.032  0.1143 -0.3370  0.1418
 6269SOL    HW130443   3.557   0.964  13.001 -0.7479  0.5652 -0.0920
 6269SOL    HW230444   3.609   1.100  12.966 -1.9707 -0.6598  0.0970
 6270SOL     OW30445   3.213   3.270   5.419  0.0359  0.0066  0.5013
 6270SOL    HW130446   3.275   3.342   5.414 -0.5943  0.5229  0.1633
 6270SOL    HW230447   3.169   3.292   5.336  1.1080  0.3626  0.0367
 6271SOL     OW30448   4.500   3.895   5.025 -0.4404 -0.2179  0.2256
 6271SOL    HW130449   4.566   3.866   5.088 -0.2388  1.2490  0.6955
 6271SOL    HW230450   4.543   3.972   4.988 -3.2110  1.1983 -0.1076
 6272SOL     OW30451   1.656   4.102  13.217 -0.3729  0.0501 -0.0616
 6272SOL    HW130452   1.580   4.105  13.158 -1.0400  0.7647  0.8291
 6272SOL    HW230453   1.640   4.185  13.261 -2.3408 -0.8844  0.9961
 6273SOL     OW30454   0.694   4.642  11.745 -0.3757  0.2797 -0.1161
 6273SOL    HW130455   0.744   4.578  11.695  2.1007  0.6444  1.8503
 6273SOL    HW230456   0.705   4.626  11.839 -0.7213 -3.5820 -0.7387
 6274SOL     OW30457   1.440   0.722  11.858 -0.9025  0.0254 -0.0242
 6274SOL    HW130458   1.526   0.681  11.848  0.5420  2.9754  0.1733
 6274SOL    HW230459   1.453   0.798  11.914 -2.0398  1.4832 -1.7500
 6275SOL     OW30460   3.052   4.460   1.168 -0.2826 -0.5029 -0.0580
 6275SOL    HW130461   3.025   4.465   1.259 -0.5783 -0.1561 -0.1659
 6275SOL    HW230462   3.036   4.366   1.164 -0.8993 -0.3913 -0.2267
 6276SOL     OW30463   2.439   1.302   4.326 -0.3091  0.2879  0.1769
 6276SOL    HW130464   2.352   1.262   4.331  0.7553 -2.0453 -0.2439
 6276SOL    HW230465   2.480   1.226   4.284 -0.8977 -0.1858  0.4501
 6277SOL     OW30466   0.946   2.896   3.558 -0.1217 -0.4478  0.5971
 6277SOL    HW130467   0.961   2.969   3.618 -0.4306 -0.7480  1.0375
 6277SOL    HW230468   0.975   2.933   3.475  2.6339 -2.1820  0.7796
 6278SOL     OW30469   3.320   3.949  11.744  0.1737 -0.1181 -0.4442
 6278SOL    HW130470   3.258   3.882  11.714 -1.4400  1.1812 -0.0039
 6278SOL    HW230471   3.360   3.889  11.807  1.2557  3.2174  2.0364
 6279SOL     OW30472   4.677   1.265  17.615 -0.2096  0.3525 -0.1827
 6279SOL    HW130473   4.714   1.225  17.694 -0.3135  2.4808  0.9569
 6279SOL    HW230474   4.583   1.260  17.630 -0.0193 -0.4718  0.7438
 6280SOL     OW30475   0.121   4.440   6.500 -0.1736 -0.0835  0.1974
 6280SOL    HW130476   0.158   4.483   6.422  0.4351 -0.7294  0.1327
 6280SOL    HW230477   0.075   4.517   6.534  0.6407  0.8907 -0.8989
 6281SOL     OW30478   2.155   3.365  16.501  0.0030  0.2880 -0.2063
 6281SOL    HW130479   2.135   3.277  16.470 -1.1615  0.0171  1.3455
 6281SOL    HW230480   2.120   3.364  16.590 -1.6717 -0.5110 -0.8762
 6282SOL     OW30481   1.516   2.769   3.946  0.1717 -0.0778  0.0212
 6282SOL    HW130482   1.586   2.801   3.888  1.7620 -1.9992  0.8609
 6282SOL    HW230483   1.531   2.827   4.021  1.8789  0.0950 -0.4551
 6283SOL     OW30484   2.922   4.012   4.889 -0.3937  0.4461 -0.2349
 6283SOL    HW130485   2.836   4.048   4.869 -0.3814  1.9205  2.2178
 6283SOL    HW230486   2.966   4.095   4.912  1.2008 -0.5597  0.4059
 6284SOL     OW30487   3.030   2.128   9.600 -0.2459 -0.3558 -0.1058
 6284SOL    HW130488   3.096   2.198   9.600  0.9285 -1.4511  0.5056
 6284SOL    HW230489   2.968   2.179   9.549 -0.5491 -1.0082 -0.3827
 6285SOL     OW30490   4.088   1.633   0.745  0.7122  0.0771  0.1482
 6285SOL    HW130491   4.114   1.589   0.826  0.8441 -1.3446 -0.6757
 6285SOL    HW230492   4.168   1.679   0.720  0.8625 -0.5105 -0.4262
 6286SOL     OW30493   0.369   1.548   4.089 -0.1596  0.4011  0.1904
 6286SOL    HW130494   0.419   1.497   4.026  1.1864  2.0046 -0.0375
 6286SOL    HW230495   0.282   1.553   4.049 -0.3193 -0.9840  0.3846
 6287SOL     OW30496   1.982   1.154   9.707 -0.5409 -0.8752  0.1812
 6287SOL    HW130497   2.031   1.132   9.786 -0.0641  2.0523  0.7171
 6287SOL    HW230498   2.011   1.245   9.694 -0.1410 -0.8936  0.9636
 6288SOL     OW30499   1.093   0.874   0.930 -0.1386 -0.3695  0.1868
 6288SOL    HW130500   1.162   0.851   0.991  2.1436  0.8153 -1.9598
 6288SOL    HW230501   1.017   0.826   0.962 -0.8827  0.7759  0.1352
 6289SOL     OW30502   0.337   4.652   4.762  0.2601  0.6695 -0.4265
 6289SOL    HW130503   0.427   4.669   4.791  1.0109 -1.5236 -1.5058
 6289SOL    HW230504   0.344   4.587   4.692  0.4835  0.1279  0.0994
 6290SOL     OW30505   3.599   1.243   2.202 -0.3837  0.0841  0.2151
 6290SOL    HW130506   3.666   1.309   2.181 -0.6779  0.1623 -0.4626
 6290SOL    HW230507   3.627   1.210   2.287 -0.0746  0.8650  0.4189
 6291SOL     OW30508   1.521   3.259   1.997  0.0808 -0.6792  0.1428
 6291SOL    HW130509   1.498   3.184   2.051  0.4821 -0.5548  0.4862
 6291SOL    HW230510   1.591   3.219   1.946  1.6317  1.1718  0.8244
 6292SOL     OW30511   0.616   4.337   4.403 -0.0734  0.2372  0.1609
 6292SOL    HW130512   0.615   4.263   4.464  1.3019  0.8019  0.8747
 6292SOL    HW230513   0.570   4.307   4.325 -0.3573  2.6590 -0.5852
 6293SOL     OW30514   3.935   1.353   8.860  0.3908  0.1455  0.4334
 6293SOL    HW130515   3.993   1.336   8.934  2.2327  5.5148  0.2781
 6293SOL    HW230516   3.912   1.263   8.836  1.1064  0.6534 -2.2257
 6294SOL     OW30517   3.601   3.915   4.378  0.4518 -0.2019 -0.5601
 6294SOL    HW130518   3.649   3.940   4.457 -1.1523 -0.4816  0.4973
 6294SOL    HW230519   3.664   3.906   4.306 -0.0235 -4.4288 -0.4535
 6295SOL     OW30520   4.606   4.009   4.679 -0.1819 -0.0630 -0.0151
 6295SOL    HW130521   4.643   4.095   4.700 -0.2035  0.1912 -1.0147
 6295SOL    HW230522   4.514   4.019   4.705  0.5097  3.3697  1.1331
 6296SOL     OW30523   0.300   4.420   5.934  0.0140  0.0317  0.2233
 6296SOL    HW130524   0.211   4.418   5.970 -0.3643  2.9456 -0.5800
 6296SOL    HW230525   0.313   4.514   5.939 -0.7479  0.2934 -2.9100
 6297SOL     OW30526   1.180   3.620  13.985 -0.8068 -0.3161  0.3367
 6297SOL    HW130527   1.176   3.667  14.068 -0.2175 -2.5240  1.6254
 6297SOL    HW230528   1.197   3.686  13.918  0.8236 -0.2674  0.7959
 6298SOL     OW30529   0.594   2.307   5.460  0.0461  0.1716 -0.5918
 6298SOL    HW130530   0.671   2.362   5.447  0.8337 -1.0918 -1.2100
 6298SOL    HW230531   0.583   2.318   5.554  0.2289  1.1656 -0.6850
 6299SOL     OW30532   2.453   0.297  16.846  0.3095  0.4208  0.2285
 6299SOL    HW130533   2.430   0.312  16.937  1.8733  1.4827  0.4504
 6299SOL    HW230534   2.440   0.384  16.809 -0.1729 -0.8229 -2.5214
 6300SOL     OW30535   1.066   4.114  16.801 -0.2038  0.6698 -0.3758
 6300SOL    HW130536   1.126   4.097  16.874  0.8949  0.9193 -1.2079
 6300SOL    HW230537   1.019   4.030  16.795  2.1660 -0.7830  1.4445
 6301SOL     OW30538   2.185   0.700  11.246  0.3829 -0.4301  0.1148
 6301SOL    HW130539   2.277   0.694  11.270  1.0077  0.9609 -1.9581
 6301SOL    HW230540   2.149   0.751  11.319  2.4154 -0.9575  1.4625
 6302SOL     OW30541   1.419   2.841   7.126  0.0366  0.4371 -0.1230
 6302SOL    HW130542   1.337   2.855   7.174 -1.6070 -1.2165 -2.4591
 6302SOL    HW230543   1.393   2.846   7.034 -1.7969 -3.9939  0.1682
 6303SOL     OW30544   1.319   2.242   3.068 -0.4179  0.0360 -0.4064
 6303SOL    HW130545   1.390   2.234   3.131 -0.7891  1.9291  0.2271
 6303SOL    HW230546   1.354   2.321   3.027 -2.9049  2.5705  2.3413
 6304SOL     OW30547   2.069   2.903  12.083 -0.1109 -0.3556  0.1100
 6304SOL    HW130548   2.006   2.840  12.046  0.1427 -1.2068  1.1476
 6304SOL    HW230549   2.017   2.981  12.104 -1.1223 -0.4824 -1.8771
 6305SOL     OW30550   1.478   4.473   3.356  0.3672 -0.2092 -0.4381
 6305SOL    HW130551   1.420   4.427   3.296  0.9706  0.6322 -1.6693
 6305SOL    HW230552   1.489   4.402   3.419 -1.5681  2.1032  2.4811
 6306SOL     OW30553   3.355   0.196   2.737 -0.1568 -0.4908 -0.2579
 6306SOL    HW130554   3.275   0.149   2.762 -0.1933 -0.8101 -0.9945
 6306SOL    HW230555   3.426   0.144   2.775  0.0090 -0.3446 -0.3716
 6307SOL     OW30556   1.527   1.887   7.869 -0.4007 -0.1052  0.1085
 6307SOL    HW130557   1.441   1.847   7.880 -0.3408 -0.1551  0.3751
 6307SOL    HW230558   1.573   1.807   7.846  0.6860  0.2387  1.0640
 6308SOL     OW30559   1.312   4.142   5.292 -0.4847  0.1165 -0.3441
 6308SOL    HW130560   1.306   4.226   5.335  0.0970 -0.7546  1.4270
 6308SOL    HW230561   1.231   4.098   5.317 -0.8431  1.1284  0.2381
 6309SOL     OW30562   3.993   1.077  10.805  0.4218 -0.5047 -0.2998
 6309SOL    HW130563   3.970   1.047  10.893 -0.7086  0.9049 -0.1059
 6309SOL    HW230564   3.916   1.127  10.778  1.1780  1.1944  0.6945
 6310SOL     OW30565   4.466   0.753   2.617 -0.3941 -0.3508 -0.2014
 6310SOL    HW130566   4.488   0.668   2.654  0.1288  0.1437  0.6270
 6310SOL    HW230567   4.556   0.787   2.617 -1.1746  1.7289 -1.2704
 6311SOL     OW30568   0.644   1.602   4.428 -0.2961  0.5267 -0.4804
 6311SOL    HW130569   0.704   1.641   4.491 -0.0792  0.8976 -0.9153
 6311SOL    HW230570   0.583   1.563   4.491  0.9284 -1.9820 -0.8371
 6312SOL     OW30571   3.570   1.864   2.565 -0.3381  0.5558  0.1475
 6312SOL    HW130572   3.558   1.931   2.632 -2.4465 -0.2619  0.5718
 6312SOL    HW230573   3.499   1.806   2.592 -0.7758  0.6895 -0.7216
 6313SOL     OW30574   1.987   0.162   0.508  0.3301  0.5663  0.1800
 6313SOL    HW130575   2.042   0.114   0.446  2.4614  0.1285  2.4240
 6313SOL    HW230576   1.899   0.141   0.477 -0.2373  1.3268  1.2900
 6314SOL     OW30577   2.439   4.524  14.650  0.4688 -0.5053  0.0182
 6314SOL    HW130578   2.444   4.429  14.636 -3.1228 -0.3378 -2.3291
 6314SOL    HW230579   2.362   4.537  14.596  2.3455  4.2612 -1.4793
 6315SOL     OW30580   4.504   3.780   6.026  0.4769  0.2646  0.3270
 6315SOL    HW130581   4.551   3.783   5.942  1.0605 -1.2707  0.6012
 6315SOL    HW230582   4.526   3.689   6.043  1.6064  0.1527 -1.6678
 6316SOL     OW30583   1.797   0.572   4.467 -0.3304 -0.3357 -0.6311
 6316SOL    HW130584   1.706   0.587   4.491 -1.0208 -0.9173 -2.8819
 6316SOL    HW230585   1.843   0.628   4.530  0.4117 -0.4125 -1.1009
 6317SOL     OW30586   3.141   3.530   6.449  0.2111  0.3516 -0.1399
 6317SOL    HW130587   3.108   3.523   6.539 -0.6060 -0.7385 -0.5344
 6317SOL    HW230588   3.135   3.442   6.413  2.1078  0.2252 -0.1342
 6318SOL     OW30589   2.737   1.358   4.161 -1.1190  0.6691 -0.1729
 6318SOL    HW130590   2.793   1.325   4.231  0.3184  0.9910 -1.1829
 6318SOL    HW230591   2.782   1.440   4.142  2.1518 -1.3483 -0.9941
 6319SOL     OW30592   0.540   0.506   1.847 -0.1286 -0.1294 -0.3807
 6319SOL    HW130593   0.535   0.536   1.938  0.3159 -2.9208  0.5682
 6319SOL    HW230594   0.479   0.561   1.798  2.7618  0.6151 -3.0944
 6320SOL     OW30595   2.170   3.096   1.178 -0.5542 -0.3547 -0.5653
 6320SOL    HW130596   2.117   3.154   1.123  0.2245 -0.8689 -1.8379
 6320SOL    HW230597   2.174   3.023   1.116  1.6452 -0.8536  0.1830
 6321SOL     OW30598   0.057   0.867  16.876 -0.1984 -0.1429  0.2084
 6321SOL    HW130599   0.013   0.824  16.802 -3.2412  0.5155  1.6438
 6321SOL    HW230600   4.728   0.905  16.930  0.9695  2.9148 -0.4311
 6322SOL     OW30601   1.909   1.666   4.940  0.4685  0.3000 -0.0742
 6322SOL    HW130602   1.885   1.579   4.973  0.6542 -0.0829 -0.9664
 6322SOL    HW230603   1.846   1.721   4.986 -0.5704 -0.0914 -1.0486
 6323SOL     OW30604   4.730   1.305   9.204  0.4686  0.6118 -0.3349
 6323SOL    HW130605   0.079   1.318   9.171 -0.3144  3.1112 -1.5135
 6323SOL    HW230606   0.013   1.245   9.275 -1.9908 -1.9764 -1.7256
 6324SOL     OW30607   2.483   2.172  15.670  0.4649 -0.2881  0.0019
 6324SOL    HW130608   2.547   2.101  15.667 -0.5917 -1.3445  1.9746
 6324SOL    HW230609   2.402   2.121  15.679 -0.0108  0.5348  0.3565
 6325SOL     OW30610   0.645   3.294   6.994 -0.3640 -0.4461  0.0603
 6325SOL    HW130611   0.598   3.341   6.925  1.7022  0.2646 -0.8372
 6325SOL    HW230612   0.734   3.314   6.968 -0.9848 -1.5229 -2.8146
 6326SOL     OW30613   3.201   3.148  13.217  0.5248  0.7334 -0.3116
 6326SOL    HW130614   3.276   3.091  13.199  0.4182  0.7417 -0.7864
 6326SOL    HW230615   3.227   3.198  13.295  0.1344  1.2417 -0.4999
 6327SOL     OW30616   1.558   3.592   6.952 -0.0350 -0.3636  0.4407
 6327SOL    HW130617   1.639   3.641   6.960  0.3368 -0.8153 -0.5730
 6327SOL    HW230618   1.541   3.622   6.863 -1.4720 -0.4562  0.6748
 6328SOL     OW30619   4.324   0.895  10.851 -0.4925 -0.2006 -0.1304
 6328SOL    HW130620   4.273   0.942  10.917 -1.1333  0.0502 -0.7984
 6328SOL    HW230621   4.400   0.952  10.839 -0.3728 -0.5275 -0.9484
 6329SOL     OW30622   3.862   3.499   9.017  0.1753 -1.2502  0.4047
 6329SOL    HW130623   3.783   3.448   8.998 -1.2209  0.4291  1.6202
 6329SOL    HW230624   3.930   3.432   9.018  0.9187 -0.5104 -0.3428
 6330SOL     OW30625   2.458   3.309   8.047  0.7701  0.8955  0.1889
 6330SOL    HW130626   2.525   3.241   8.051 -0.4915 -0.3748 -0.2658
 6330SOL    HW230627   2.390   3.258   8.089  1.0041  0.0062 -0.5157
 6331SOL     OW30628   4.691   3.386   1.008 -0.5424  0.1108  0.4211
 6331SOL    HW130629   4.684   3.466   1.059  2.6058  1.0462 -0.5908
 6331SOL    HW230630   4.668   3.412   0.918  0.4778  0.5808  0.3000
 6332SOL     OW30631   0.245   2.597  14.829 -0.2107  0.7594 -0.6151
 6332SOL    HW130632   0.250   2.578  14.923 -0.8785  1.7463 -0.3825
 6332SOL    HW230633   0.316   2.537  14.807  0.6798  1.5118  0.1770
 6333SOL     OW30634   1.089   0.245  10.903 -0.4017 -0.1869  0.5547
 6333SOL    HW130635   1.181   0.218  10.898 -0.8744 -1.4511 -1.2634
 6333SOL    HW230636   1.070   0.203  10.987  3.4090 -1.7167  0.6594
 6334SOL     OW30637   3.957   4.352  15.245  0.3182  0.4779 -0.0040
 6334SOL    HW130638   4.014   4.389  15.177  0.0677  2.1108  0.6821
 6334SOL    HW230639   4.011   4.323  15.318 -1.5329 -4.4018 -0.5315
 6335SOL     OW30640   3.194   2.544  13.053 -0.0934 -0.3632  0.5222
 6335SOL    HW130641   3.220   2.526  13.143 -1.2282 -1.2016  0.6797
 6335SOL    HW230642   3.194   2.639  13.057  1.2305 -0.2819 -1.3014
 6336SOL     OW30643   4.107   2.956   3.833 -0.2699  1.1010  0.0350
 6336SOL    HW130644   4.090   2.933   3.742  0.2408 -1.3072  0.5662
 6336SOL    HW230645   4.095   3.051   3.838 -1.1269  1.0293 -0.6314
 6337SOL     OW30646   0.879   4.536   2.587 -0.2866 -0.2849 -0.3996
 6337SOL    HW130647   0.877   4.550   2.682 -0.8364  0.8921 -0.5835
 6337SOL    HW230648   0.931   4.456   2.583  1.1656  0.6825 -1.1140
 6338SOL     OW30649   4.559   1.257  10.418  0.0761  0.4605 -0.5152
 6338SOL    HW130650   4.643   1.227  10.450 -0.7422 -1.8117 -0.5131
 6338SOL    HW230651   4.568   1.255  10.323 -0.3782 -0.9633 -0.5320
 6339SOL     OW30652   1.844   3.322   7.103  0.2261  0.2921 -0.6552
 6339SOL    HW130653   1.762   3.371   7.111 -1.3786 -2.3243 -0.9596
 6339SOL    HW230654   1.802   3.236   7.104  0.0142  0.3941 -0.6791
 6340SOL     OW30655   2.681   4.417   3.101 -0.3210 -0.2607 -0.2520
 6340SOL    HW130656   2.664   4.329   3.134 -0.4342  0.3706  1.3433
 6340SOL    HW230657   2.727   4.389   3.022  0.4768  2.3589 -0.7136
 6341SOL     OW30658   1.714   3.083   7.147 -0.2747 -0.0034 -0.6414
 6341SOL    HW130659   1.746   2.996   7.126  0.2547  0.1673 -0.5512
 6341SOL    HW230660   1.663   3.067   7.226 -1.0132 -0.0726 -1.1290
 6342SOL     OW30661   1.466   0.147  12.000  0.8976  0.5871 -0.7267
 6342SOL    HW130662   1.399   0.158  11.933  0.3082  2.0836  0.0940
 6342SOL    HW230663   1.529   0.216  11.979 -0.8418  2.7241  1.0734
 6343SOL     OW30664   1.765   1.034   2.224 -0.1249 -0.2983  0.0538
 6343SOL    HW130665   1.810   1.078   2.296  0.5722  0.5510 -0.9082
 6343SOL    HW230666   1.688   1.002   2.271  0.5212 -0.1651  1.2098
 6344SOL     OW30667   3.787   0.739   2.923  0.3102 -0.0839 -0.3509
 6344SOL    HW130668   3.755   0.709   2.838 -0.7849 -1.2740  0.4803
 6344SOL    HW230669   3.709   0.709   2.971 -0.4567  2.4162 -0.0528
 6345SOL     OW30670   0.706   2.893   4.417  0.1301 -0.1907  0.2416
 6345SOL    HW130671   0.785   2.910   4.365  0.1232  0.3991  0.4205
 6345SOL    HW230672   0.665   2.980   4.422  1.1695  0.3221 -0.1437
 6346SOL     OW30673   3.905   0.733   3.242  0.2997  0.3282  0.3849
 6346SOL    HW130674   3.991   0.693   3.254 -0.2588 -0.6281  1.1749
 6346SOL    HW230675   3.912   0.780   3.159 -0.4516 -0.7311 -0.2767
 6347SOL     OW30676   1.309   0.304   8.760 -0.6234  0.0696  0.3038
 6347SOL    HW130677   1.284   0.213   8.772  1.3369 -0.2589  1.8931
 6347SOL    HW230678   1.248   0.326   8.690 -0.9049  0.0037  0.5289
 6348SOL     OW30679   3.413   2.845  10.623  0.3389 -0.1115 -0.9441
 6348SOL    HW130680   3.455   2.776  10.571 -0.8043 -2.0332  0.6400
 6348SOL    HW230681   3.346   2.798  10.673 -1.7298  2.6603 -1.1390
 6349SOL     OW30682   1.431   1.469  11.051  0.2502  0.0209 -0.2182
 6349SOL    HW130683   1.446   1.554  11.094  0.8945 -0.4607  0.5029
 6349SOL    HW230684   1.404   1.412  11.122  0.4489 -0.0377 -0.1891
 6350SOL     OW30685   0.604   1.214   8.079 -0.3023 -0.9143  0.4659
 6350SOL    HW130686   0.558   1.295   8.056 -0.2509 -1.1719 -0.5278
 6350SOL    HW230687   0.694   1.248   8.079 -1.3143  1.7916 -1.3788
 6351SOL     OW30688   0.863   1.690   3.552 -0.6847  0.1649  0.5899
 6351SOL    HW130689   0.899   1.742   3.624  2.2157  0.4621 -1.0749
 6351SOL    HW230690   0.815   1.752   3.496 -1.7894 -1.0941  0.1466
 6352SOL     OW30691   1.696   4.309   1.853 -0.6595  0.1556  0.1708
 6352SOL    HW130692   1.680   4.366   1.778 -0.6092  1.4382  1.1384
 6352SOL    HW230693   1.655   4.227   1.826  0.2880  0.1919 -1.3668
 6353SOL     OW30694   4.257   2.643  17.309  0.1022 -0.2492 -0.7251
 6353SOL    HW130695   4.163   2.626  17.307 -0.0458  0.6262 -0.9615
 6353SOL    HW230696   4.260   2.691  17.392 -2.0995 -1.9008  0.3350
 6354SOL     OW30697   4.656   3.507   9.330  1.0106  0.7297  0.3936
 6354SOL    HW130698   4.624   3.484   9.243  0.6442 -0.2161  0.7730
 6354SOL    HW230699   4.724   3.443   9.352 -1.0978 -2.1061 -1.3699
 6355SOL     OW30700   1.581   2.172   7.378 -0.0186 -0.2945 -0.3125
 6355SOL    HW130701   1.518   2.173   7.449 -1.4769  0.6556 -1.6188
 6355SOL    HW230702   1.647   2.226   7.423  0.0885 -0.7105  0.0234
 6356SOL     OW30703   3.240   0.624   1.800 -0.2409  0.1612 -0.5968
 6356SOL    HW130704   3.315   0.653   1.853  0.0128 -0.1600 -0.7815
 6356SOL    HW230705   3.263   0.533   1.781  0.6586  0.1523  0.5048
 6357SOL     OW30706   0.258   1.046   4.111  0.3124 -0.3277 -0.6342
 6357SOL    HW130707   0.268   1.090   4.026  0.7009 -1.5429 -1.2183
 6357SOL    HW230708   0.237   0.959   4.078  0.4755 -0.9710  0.9956
 6358SOL     OW30709   3.469   2.054   8.600  0.8714  0.9546 -0.1043
 6358SOL    HW130710   3.506   2.073   8.514  0.0830 -0.3828 -0.7407
 6358SOL    HW230711   3.484   1.960   8.594  3.6712  1.2143  2.8383
 6359SOL     OW30712   3.181   2.451   8.183  0.5256  0.0283 -0.6776
 6359SOL    HW130713   3.220   2.412   8.105  3.2115 -2.1616  1.7565
 6359SOL    HW230714   3.247   2.425   8.247  0.5150 -0.0301 -0.6905
 6360SOL     OW30715   0.661   1.022   3.356  0.3368  0.0254  0.3999
 6360SOL    HW130716   0.717   1.058   3.425 -0.3822  3.1620 -0.6906
 6360SOL    HW230717   0.568   1.040   3.370  0.1085 -1.3011  0.5979
 6361SOL     OW30718   1.750   1.457   3.196  0.4568 -0.1958  0.3505
 6361SOL    HW130719   1.683   1.458   3.127 -1.2906  0.1492  2.0557
 6361SOL    HW230720   1.819   1.419   3.141  0.1712  1.0915 -0.9094
 6362SOL     OW30721   0.915   4.659   5.413 -0.0386  0.8867 -0.1225
 6362SOL    HW130722   0.942   4.730   5.472 -0.2514  1.1200 -0.3041
 6362SOL    HW230723   0.906   4.713   5.334  1.8274  0.3443 -0.7180
 6363SOL     OW30724   2.242   0.129   6.566 -0.3382  0.4607 -0.1866
 6363SOL    HW130725   2.160   0.084   6.584  0.3172 -0.5354  0.3406
 6363SOL    HW230726   2.252   0.124   6.471 -1.4709  0.0125 -0.2768
 6364SOL     OW30727   3.089   3.735   2.823 -0.0479 -0.2084 -0.2995
 6364SOL    HW130728   3.158   3.700   2.767 -0.3369 -0.6719 -0.3640
 6364SOL    HW230729   3.148   3.761   2.895  1.4354  1.1023 -1.9852
 6365SOL     OW30730   0.487   1.527   4.856  0.1635  1.2216 -0.2418
 6365SOL    HW130731   0.495   1.488   4.768  0.1191 -0.8629  0.6749
 6365SOL    HW230732   0.436   1.455   4.894  0.1759  1.0502 -0.5458
 6366SOL     OW30733   2.013   0.577  11.086  0.1284 -0.3478  0.1574
 6366SOL    HW130734   2.073   0.616  11.150 -0.4502 -0.7667  0.9402
 6366SOL    HW230735   2.074   0.557  11.015 -1.0148 -0.5000 -0.7771
 6367SOL     OW30736   2.303   4.048   0.237 -0.4953  0.2332  0.0174
 6367SOL    HW130737   2.282   3.981   0.172  0.3182  0.0469 -0.0613
 6367SOL    HW230738   2.217   4.055   0.278 -0.5515  0.2693 -0.1073
 6368SOL     OW30739   2.301   1.875   4.378 -0.2313 -0.0197  0.2097
 6368SOL    HW130740   2.226   1.930   4.401  0.1239 -0.0268  1.4099
 6368SOL    HW230741   2.332   1.861   4.468 -0.3299 -0.6178  0.1485
 6369SOL     OW30742   0.438   3.862   1.070  0.6244 -0.1392 -0.0614
 6369SOL    HW130743   0.428   3.776   1.109  0.3581 -0.7635 -1.4996
 6369SOL    HW230744   0.477   3.911   1.143 -1.9759  2.2309 -0.2626
 6370SOL     OW30745   4.645   4.091   1.505 -0.1986 -0.5737 -0.4350
 6370SOL    HW130746   4.735   4.062   1.492  1.1674  2.0907  3.0871
 6370SOL    HW230747   4.640   4.075   1.600 -0.3176 -1.0713 -0.5273
 6371SOL     OW30748   3.860   1.461   6.450 -0.4102  0.1651 -0.2391
 6371SOL    HW130749   3.872   1.536   6.391  0.1363 -0.0679 -0.4218
 6371SOL    HW230750   3.814   1.494   6.527 -1.9035 -0.3225 -0.9262
 6372SOL     OW30751   2.045   2.103  11.606 -0.4738 -0.1769  0.2266
 6372SOL    HW130752   2.118   2.128  11.663 -0.7614  0.8109  0.1673
 6372SOL    HW230753   2.050   2.172  11.540 -0.1362  1.3372  1.8284
 6373SOL     OW30754   3.126   3.622   3.662  0.2287 -0.4006 -0.6841
 6373SOL    HW130755   3.184   3.549   3.684 -0.2055 -0.2234  1.0429
 6373SOL    HW230756   3.138   3.625   3.567  0.0785  2.7880 -0.6210
 6374SOL     OW30757   2.130   0.431   9.550  0.1136  0.4532  0.0850
 6374SOL    HW130758   2.133   0.371   9.624 -2.4913 -1.4182 -1.3268
 6374SOL    HW230759   2.040   0.422   9.518  0.8735 -0.1820 -1.9207
 6375SOL     OW30760   3.077   0.223  16.975 -0.4724  0.5621  0.3696
 6375SOL    HW130761   3.104   0.302  16.928  1.1269 -0.1048  0.1670
 6375SOL    HW230762   3.025   0.263  17.045  2.4938  0.0293  2.8754
 6376SOL     OW30763   3.730   2.341   4.164 -0.1199 -0.5438 -0.4797
 6376SOL    HW130764   3.671   2.397   4.216  1.0174 -0.6482  0.8996
 6376SOL    HW230765   3.681   2.259   4.156  0.5366 -1.0349  0.7081
 6377SOL     OW30766   4.161   1.336   4.296 -0.0849  0.1209 -0.1909
 6377SOL    HW130767   4.231   1.365   4.238 -0.7103 -1.1520 -1.5772
 6377SOL    HW230768   4.201   1.257   4.331 -1.7488  0.6779  2.9729
 6378SOL     OW30769   3.669   1.911   9.191  0.2699  0.1420 -0.1820
 6378SOL    HW130770   3.627   1.858   9.124 -0.4212 -0.2239  0.5446
 6378SOL    HW230771   3.717   1.842   9.237 -1.9750  0.2030  2.2459
 6379SOL     OW30772   1.030   0.050   7.009  0.1029  0.1949  0.1903
 6379SOL    HW130773   1.078   0.056   6.926 -0.9619 -0.9112 -0.4917
 6379SOL    HW230774   1.068   0.130   7.044 -1.5472  2.2266 -2.5927
 6380SOL     OW30775   2.252   4.380   9.478  0.2896  0.1184  0.3662
 6380SOL    HW130776   2.223   4.419   9.561  0.7819 -1.1694  1.1440
 6380SOL    HW230777   2.233   4.287   9.488 -0.3420  0.3538  1.3689
 6381SOL     OW30778   0.423   2.973  16.556  0.4380  0.2646  0.3594
 6381SOL    HW130779   0.400   2.978  16.463 -1.6550  1.7657  0.9551
 6381SOL    HW230780   0.461   2.885  16.555 -0.8972 -0.3135  0.8046
 6382SOL     OW30781   4.158   0.447   2.958  0.2575 -0.1497  0.1868
 6382SOL    HW130782   4.182   0.536   2.984 -2.3456  0.0463  1.9364
 6382SOL    HW230783   4.128   0.449   2.867 -0.6423 -0.7038  0.4723
 6383SOL     OW30784   2.076   0.223  15.492 -0.4805  0.3763 -0.5757
 6383SOL    HW130785   1.994   0.210  15.540  0.3963 -0.5533  0.6544
 6383SOL    HW230786   2.121   0.280  15.554 -2.8922  0.5419  1.0163
 6384SOL     OW30787   3.708   1.683   2.852  0.8405  0.0808 -0.1951
 6384SOL    HW130788   3.705   1.760   2.908 -1.5628  0.8567 -1.3719
 6384SOL    HW230789   3.660   1.615   2.899  0.2164  0.2148 -0.6314
 6385SOL     OW30790   4.372   3.081   9.328 -0.5044  0.4368  0.6419
 6385SOL    HW130791   4.394   3.114   9.241 -1.0641 -1.5415 -0.2599
 6385SOL    HW230792   4.331   2.999   9.301  0.3500  0.6500 -1.2881
 6386SOL     OW30793   1.841   3.799   6.482  0.2338 -0.1910 -0.6784
 6386SOL    HW130794   1.803   3.727   6.532 -1.3245 -0.2137 -1.9026
 6386SOL    HW230795   1.885   3.847   6.553 -2.9285  0.5092  0.8044
 6387SOL     OW30796   0.696   0.454   5.443 -0.3020 -0.2311  0.0483
 6387SOL    HW130797   0.775   0.436   5.495 -0.8717 -1.9522  0.3334
 6387SOL    HW230798   0.697   0.547   5.423  0.7818 -0.0638  0.8624
 6388SOL     OW30799   3.812   4.164   5.784  0.2078  0.0196  0.2713
 6388SOL    HW130800   3.848   4.076   5.799 -1.8306 -0.7779  0.5130
 6388SOL    HW230801   3.735   4.140   5.733  0.1582  0.4729  0.1358
 6389SOL     OW30802   1.569   1.307   9.215  0.8418 -0.3913  0.5321
 6389SOL    HW130803   1.609   1.232   9.171 -0.6123 -0.7630 -0.1579
 6389SOL    HW230804   1.485   1.270   9.244 -0.1371  1.8775  0.5945
 6390SOL     OW30805   2.471   3.726   7.090 -0.4131  0.6624 -0.1741
 6390SOL    HW130806   2.513   3.653   7.136  1.7616  1.3303 -1.0670
 6390SOL    HW230807   2.544   3.788   7.078  0.3774 -0.6448 -2.0807
 6391SOL     OW30808   4.707   1.261  14.233  0.2846 -0.0245 -0.2050
 6391SOL    HW130809   4.720   1.220  14.147 -2.3096  1.4810 -1.3136
 6391SOL    HW230810   4.677   1.348  14.206  0.5805 -0.9866 -3.6439
 6392SOL     OW30811   4.613   0.088   7.756 -0.0214 -0.1856 -0.3170
 6392SOL    HW130812   4.667   0.086   7.677  0.9785 -0.4137  0.3731
 6392SOL    HW230813   4.524   0.075   7.723  0.3042 -0.6511 -1.0071
 6393SOL     OW30814   0.816   1.571   4.203  0.1840 -0.0942 -0.6489
 6393SOL    HW130815   0.745   1.565   4.267  1.3699 -1.2949  0.5385
 6393SOL    HW230816   0.796   1.638   4.137 -0.6322  0.5773  0.2794
 6394SOL     OW30817   4.058   2.505   8.003  0.3051 -0.4001 -0.8021
 6394SOL    HW130818   4.127   2.532   7.942 -0.5720 -0.5122 -1.8447
 6394SOL    HW230819   4.072   2.411   8.010  0.4134 -0.3267 -0.0823
 6395SOL     OW30820   3.234   3.846  16.603 -0.4565  0.5640  0.4546
 6395SOL    HW130821   3.145   3.812  16.598 -0.2638  0.4012 -1.5815
 6395SOL    HW230822   3.287   3.796  16.541  1.2337  2.8259  0.0735
 6396SOL     OW30823   4.565   3.125   7.242  0.6248  0.4348  0.0488
 6396SOL    HW130824   4.606   3.090   7.321  0.7248  0.3613 -0.0354
 6396SOL    HW230825   4.643   3.164   7.202  0.0775 -0.1006 -1.5199
 6397SOL     OW30826   1.847   3.578   3.708  0.0303  0.6824  0.2951
 6397SOL    HW130827   1.842   3.560   3.614  0.9598 -1.7265  0.6921
 6397SOL    HW230828   1.896   3.506   3.750 -0.8502  1.2738  2.3337
 6398SOL     OW30829   0.077   2.446   1.782  0.3940  0.2236 -0.1512
 6398SOL    HW130830   0.001   2.499   1.806  0.6894  1.1837 -1.3208
 6398SOL    HW230831   0.093   2.419   1.872 -0.4753  0.4174  0.0617
 6399SOL     OW30832   4.063   2.461   3.979 -0.0560  0.2994 -0.3296
 6399SOL    HW130833   4.055   2.436   4.071  0.5049 -0.3047 -0.4457
 6399SOL    HW230834   4.049   2.555   3.971  2.2581  0.4708 -2.4177
 6400SOL     OW30835   3.979   2.342  16.917 -0.6211  0.2435 -0.0757
 6400SOL    HW130836   3.990   2.371  16.826  2.0230 -1.0996 -0.1824
 6400SOL    HW230837   4.064   2.358  16.959 -0.1964  1.4585 -1.3912
 6401SOL     OW30838   2.874   0.694   1.361  0.0319  0.1445  0.4742
 6401SOL    HW130839   2.787   0.732   1.353  0.5960  1.7009  1.7946
 6401SOL    HW230840   2.859   0.642   1.440 -0.4216  1.4831  1.2656
 6402SOL     OW30841   4.333   0.840   4.693  0.4291  0.3012 -0.0446
 6402SOL    HW130842   4.352   0.867   4.783  0.1908  0.3600 -0.0124
 6402SOL    HW230843   4.417   0.857   4.650  0.8687  1.2731  1.2069
 6403SOL     OW30844   2.642   4.103   4.054 -0.5600 -0.7906  0.0389
 6403SOL    HW130845   2.571   4.048   4.087 -2.1470  1.0599 -0.3324
 6403SOL    HW230846   2.715   4.043   4.072 -0.8945 -1.0168  0.6144
 6404SOL     OW30847   0.492   3.587   9.236 -0.4328 -0.0538  0.4139
 6404SOL    HW130848   0.517   3.668   9.191  0.3351 -0.2422  0.5074
 6404SOL    HW230849   0.566   3.566   9.293 -0.1881  2.2991  0.9595
 6405SOL     OW30850   3.843   1.759   2.527  0.0679  0.1960  0.1520
 6405SOL    HW130851   3.824   1.668   2.550  0.0931  0.3986  0.9513
 6405SOL    HW230852   3.760   1.796   2.557 -0.3988 -0.7081 -0.0129
 6406SOL     OW30853   0.302   0.536   6.002 -0.2953  0.4151 -0.1923
 6406SOL    HW130854   0.389   0.557   6.036  0.0963 -0.1818 -0.8136
 6406SOL    HW230855   0.319   0.502   5.914  2.7022  1.3750  0.0382
 6407SOL     OW30856   1.434   1.078   7.454  0.3426  0.1797  0.2388
 6407SOL    HW130857   1.343   1.102   7.471  0.7530  2.1807 -0.3441
 6407SOL    HW230858   1.478   1.147   7.505 -0.3260 -0.0351  1.0968
 6408SOL     OW30859   1.737   2.058   3.971 -0.3620 -0.3660 -0.4004
 6408SOL    HW130860   1.770   2.125   3.911 -1.0153  1.4831  1.2962
 6408SOL    HW230861   1.815   2.003   3.980 -0.3716 -0.0997  1.3227
 6409SOL     OW30862   3.783   0.319  11.217  0.6013  0.6750 -0.1270
 6409SOL    HW130863   3.842   0.386  11.250 -1.3414  1.6365  1.4030
 6409SOL    HW230864   3.714   0.368  11.173 -0.3061 -0.5478 -0.0676
 6410SOL     OW30865   0.851   4.424   7.148  0.1682 -0.2086 -0.0249
 6410SOL    HW130866   0.896   4.339   7.152  0.3837 -0.1124 -0.4153
 6410SOL    HW230867   0.852   4.439   7.243  2.7549 -1.2064  0.1007
 6411SOL     OW30868   0.723   3.583  13.697  0.1146 -0.4424  0.2689
 6411SOL    HW130869   0.744   3.611  13.608 -0.3725  0.8574  0.5546
 6411SOL    HW230870   0.664   3.508  13.691 -0.7773  0.2938 -0.1159
 6412SOL     OW30871   4.372   1.805  13.715  0.9050 -0.3861 -0.0539
 6412SOL    HW130872   4.387   1.894  13.685 -0.8243  0.0585  0.4089
 6412SOL    HW230873   4.325   1.761  13.645 -0.1314  0.2790  0.2180
 6413SOL     OW30874   1.789   0.570  12.213 -0.0447  0.4271 -0.1692
 6413SOL    HW130875   1.810   0.542  12.303 -0.9094  1.1746  0.2652
 6413SOL    HW230876   1.811   0.661  12.229 -1.9231  0.8888 -0.1882
 6414SOL     OW30877   2.355   3.373   6.398 -0.4228 -0.2590 -0.4140
 6414SOL    HW130878   2.344   3.381   6.493 -1.2921  0.1784 -0.5433
 6414SOL    HW230879   2.363   3.467   6.381 -1.1477  0.0214  0.7832
 6415SOL     OW30880   1.893   1.668   4.116  0.0297  0.0111 -0.3129
 6415SOL    HW130881   1.948   1.627   4.182 -1.6137 -3.8425 -1.3161
 6415SOL    HW230882   1.806   1.636   4.141  0.4245 -0.2405  0.7280
 6416SOL     OW30883   4.717   2.855   2.546  0.7430 -0.1336 -0.4432
 6416SOL    HW130884   0.036   2.821   2.614  0.0554  0.5169  0.4605
 6416SOL    HW230885   4.640   2.800   2.560  0.8301 -0.0784  0.2774
 6417SOL     OW30886   3.290   0.892   6.707 -0.1966 -0.0915 -0.4633
 6417SOL    HW130887   3.232   0.907   6.782  0.1330 -1.6567  0.0950
 6417SOL    HW230888   3.285   0.796   6.704 -0.5342 -0.0917  0.0821
 6418SOL     OW30889   2.031   2.658  15.250 -0.3629 -0.1388 -0.4960
 6418SOL    HW130890   2.072   2.699  15.326  1.0281 -0.9376 -0.8232
 6418SOL    HW230891   2.046   2.573  15.291  1.2717 -0.1434 -1.0962
 6419SOL     OW30892   3.562   0.253  11.395  0.4089  0.2624 -0.4868
 6419SOL    HW130893   3.625   0.287  11.330 -0.2638 -0.4069 -1.4947
 6419SOL    HW230894   3.489   0.302  11.358 -0.3712  0.8599  1.8782
 6420SOL     OW30895   4.177   2.984   8.149 -0.1593  0.2188 -0.1496
 6420SOL    HW130896   4.144   3.032   8.225  2.1047  1.5141  0.0171
 6420SOL    HW230897   4.242   2.927   8.191  0.0859 -0.5782 -1.6197
 6421SOL     OW30898   2.575   2.391   2.607  0.4008  0.4421  0.0560
 6421SOL    HW130899   2.564   2.326   2.677  2.9403  0.5956  0.5989
 6421SOL    HW230900   2.536   2.344   2.533  1.8866  0.1859 -0.5679
 6422SOL     OW30901   1.173   3.558   4.522  0.2846 -0.0005  0.3947
 6422SOL    HW130902   1.175   3.463   4.509  0.2828  0.0044  0.3582
 6422SOL    HW230903   1.078   3.566   4.524  0.4242  1.6193  1.2015
 6423SOL     OW30904   3.907   1.085   8.793 -0.2567 -0.2248 -0.0699
 6423SOL    HW130905   3.910   1.000   8.838 -2.3402 -1.9613 -3.2709
 6423SOL    HW230906   3.823   1.079   8.749 -0.2320  1.9171 -0.4010
 6424SOL     OW30907   3.157   0.537   7.311  0.4385  0.6988 -0.0334
 6424SOL    HW130908   3.113   0.621   7.322  0.7136  0.7791  0.4565
 6424SOL    HW230909   3.127   0.487   7.387  0.3479  0.6959 -0.0718
 6425SOL     OW30910   2.495   4.294  16.525  0.2652 -0.1995 -0.3486
 6425SOL    HW130911   2.558   4.314  16.593 -0.6748  0.1702  0.4142
 6425SOL    HW230912   2.481   4.383  16.491 -0.9043  0.3679  1.6358
 6426SOL     OW30913   2.665   0.041   3.366  0.3851 -0.4298 -0.0064
 6426SOL    HW130914   2.691   0.029   3.275  0.6568 -0.6266  0.0969
 6426SOL    HW230915   2.744   0.062   3.416 -1.0086  0.0373  2.0069
 6427SOL     OW30916   2.906   2.965   0.239 -0.5140  0.0977 -0.1467
 6427SOL    HW130917   2.992   3.005   0.254  0.6105 -1.1434 -3.1927
 6427SOL    HW230918   2.890   2.918   0.321 -0.6921 -0.5649 -0.5612
 6428SOL     OW30919   1.083   0.548   3.410  0.2647 -0.0913  0.6815
 6428SOL    HW130920   1.099   0.633   3.368  2.9876 -2.0509 -2.1907
 6428SOL    HW230921   1.168   0.514   3.382  0.0965 -1.0141  1.2856
 6429SOL     OW30922   2.000   2.022   8.125  0.1719 -0.3356  0.7802
 6429SOL    HW130923   1.958   2.076   8.193 -1.4571 -1.6368  0.7955
 6429SOL    HW230924   2.064   2.084   8.088  1.1466 -1.8658 -0.0731
 6430SOL     OW30925   1.991   3.114  15.290 -0.4732 -0.1930  0.0302
 6430SOL    HW130926   1.920   3.064  15.250  1.0583 -0.0552 -2.8877
 6430SOL    HW230927   2.063   3.071  15.243  2.0147  0.8300  2.8876
 6431SOL     OW30928   1.923   2.060   7.409 -0.4329 -0.1692  0.3300
 6431SOL    HW130929   1.846   2.031   7.458 -0.5624  1.3508  1.0232
 6431SOL    HW230930   1.988   1.997   7.439  2.3148  2.6686  0.3326
 6432SOL     OW30931   0.714   1.387   5.689  0.1540  0.6252 -0.3474
 6432SOL    HW130932   0.688   1.358   5.776  2.0516  1.0417  0.3665
 6432SOL    HW230933   0.700   1.481   5.689 -0.2128  0.5621  1.4771
 6433SOL     OW30934   2.120   1.987   4.569 -0.2990  0.0680 -0.5160
 6433SOL    HW130935   2.137   2.080   4.556 -2.0412  0.7463  1.9531
 6433SOL    HW230936   2.029   1.982   4.597 -0.0720 -1.5566 -0.0634
 6434SOL     OW30937   3.885   0.559  14.831 -0.5619  0.0046  0.1559
 6434SOL    HW130938   3.812   0.548  14.771 -0.4647 -2.2303  0.4380
 6434SOL    HW230939   3.889   0.475  14.878 -1.5148 -0.4366 -0.5521
 6435SOL     OW30940   2.037   2.753  12.371  0.4282  0.4485 -0.1950
 6435SOL    HW130941   1.961   2.812  12.372  0.9882  1.1374  1.4190
 6435SOL    HW230942   2.104   2.817  12.348 -0.7630  2.2902  1.5009
 6436SOL     OW30943   3.950   3.230   8.675 -0.3062 -0.4832  0.7035
 6436SOL    HW130944   3.865   3.276   8.677 -1.5656 -2.7931  0.2202
 6436SOL    HW230945   3.934   3.209   8.583  0.7758 -1.1208  0.6640
 6437SOL     OW30946   1.261   2.934   3.731 -0.9498 -0.5606 -0.2747
 6437SOL    HW130947   1.269   2.981   3.814  0.4311 -1.5006  0.1178
 6437SOL    HW230948   1.213   2.998   3.678  0.2790  0.9337  0.4163
 6438SOL     OW30949   0.182   1.461   5.812 -0.4440  0.5406  0.4698
 6438SOL    HW130950   0.134   1.429   5.735 -0.2617  0.9783  0.1720
 6438SOL    HW230951   0.123   1.447   5.885 -0.8209 -2.0480 -0.3433
 6439SOL     OW30952   4.246   2.053   0.228  0.1237  0.0215 -0.0177
 6439SOL    HW130953   4.155   2.026   0.245  1.0037 -0.6511  3.5331
 6439SOL    HW230954   4.219   2.100   0.149 -0.6568  0.1459  0.3200
 6440SOL     OW30955   4.217   3.795   2.424 -0.0152 -0.0186  0.0165
 6440SOL    HW130956   4.194   3.735   2.353  0.0760 -0.5967  0.4768
 6440SOL    HW230957   4.282   3.848   2.378  0.0333  2.1468  2.5655
 6441SOL     OW30958   1.491   2.002  12.536  0.2312 -0.0955  0.6799
 6441SOL    HW130959   1.541   1.934  12.581  1.5687 -1.1687 -2.4286
 6441SOL    HW230960   1.470   2.068  12.603  2.9389  2.5083 -1.0139
 6442SOL     OW30961   3.527   2.087   6.978 -0.1083  0.2157  0.5489
 6442SOL    HW130962   3.596   2.021   6.967 -1.0537 -0.7089  0.1415
 6442SOL    HW230963   3.464   2.072   6.908 -0.9530 -1.1488  1.6007
 6443SOL     OW30964   4.185   2.080   8.449  0.3113 -0.7672  0.9064
 6443SOL    HW130965   4.157   2.094   8.540 -1.2533  0.5640  0.1979
 6443SOL    HW230966   4.261   2.022   8.462  0.6821 -0.1548  1.4312
 6444SOL     OW30967   4.160   2.367  16.611  0.0018  0.5093  0.1811
 6444SOL    HW130968   4.077   2.319  16.611 -0.3804  1.1902 -1.6957
 6444SOL    HW230969   4.135   2.454  16.641  0.3051  0.0422  1.7994
 6445SOL     OW30970   1.745   1.295   1.488  0.5221  0.7174 -0.1898
 6445SOL    HW130971   1.736   1.390   1.496 -0.1424  0.8909 -3.0703
 6445SOL    HW230972   1.657   1.263   1.510  1.7159  0.1626  3.7543
 6446SOL     OW30973   0.855   3.130   5.058  0.2243 -0.1408 -0.1788
 6446SOL    HW130974   0.942   3.107   5.092 -0.5789 -2.5790  0.2585
 6446SOL    HW230975   0.816   3.166   5.138  0.5283  0.0398 -0.1096
 6447SOL     OW30976   1.781   4.004   6.740 -0.2628  0.3354 -0.7531
 6447SOL    HW130977   1.852   4.011   6.675  0.6892 -1.5329  0.0747
 6447SOL    HW230978   1.782   4.089   6.783  0.3976  0.4766 -1.0478
 6448SOL     OW30979   2.749   4.449  13.743 -0.0776  0.0314 -0.2516
 6448SOL    HW130980   2.706   4.528  13.776  1.8868  0.2434  1.7803
 6448SOL    HW230981   2.768   4.471  13.652  0.3301 -2.6081 -0.8007
 6449SOL     OW30982   2.813   0.244   1.198  0.1553 -0.3774  0.5177
 6449SOL    HW130983   2.834   0.220   1.289 -0.4556  0.2525  0.8281
 6449SOL    HW230984   2.760   0.167   1.175  2.1361 -1.6836  0.2980
 6450SOL     OW30985   4.200   0.408   9.947 -0.5752  0.0835  0.5967
 6450SOL    HW130986   4.275   0.372   9.899  0.1823  0.8906  1.1795
 6450SOL    HW230987   4.232   0.498   9.944 -0.5902  0.0521 -0.3537
 6451SOL     OW30988   2.179   4.488   7.869  0.6047  0.1956 -0.1663
 6451SOL    HW130989   2.268   4.480   7.835  0.4629  2.8666 -1.2291
 6451SOL    HW230990   2.195   4.494   7.963 -0.5886 -1.7092  0.1425
 6452SOL     OW30991   1.752   2.299   7.546 -0.5026  0.4328 -0.4287
 6452SOL    HW130992   1.829   2.286   7.490  0.4196  1.1423  0.6804
 6452SOL    HW230993   1.786   2.353   7.617 -0.4930  1.5946 -1.3257
 6453SOL     OW30994   0.969   1.192  15.376  0.1327  0.6021 -0.1436
 6453SOL    HW130995   1.038   1.134  15.408 -0.5901  0.1434  0.5820
 6453SOL    HW230996   0.972   1.181  15.281 -1.2995 -0.5385 -0.0658
 6454SOL     OW30997   3.419   1.093   9.565 -0.1513 -0.4221  0.4200
 6454SOL    HW130998   3.462   1.016   9.602 -3.0605 -1.7749  1.0313
 6454SOL    HW230999   3.328   1.064   9.572  0.0851 -1.1061  0.6462
 6455SOL     OW31000   0.077   2.273  17.147 -0.2297  0.1010  0.4309
 6455SOL    HW131001   0.134   2.216  17.197  0.3357  0.9989  0.8062
 6455SOL    HW231002   0.099   2.361  17.177  0.0573 -0.3452  1.5056
 6456SOL     OW31003   0.232   1.438   0.136 -0.3662 -0.0763  0.3036
 6456SOL    HW131004   0.213   1.360   0.189  1.2434 -1.3387 -0.9667
 6456SOL    HW231005   0.301   1.410   0.075 -1.1988  0.6095 -0.9476
 6457SOL     OW31006   4.464   3.592   6.817 -0.7400 -0.4191 -0.0160
 6457SOL    HW131007   4.489   3.661   6.877 -0.3641  0.4326 -1.1498
 6457SOL    HW231008   4.375   3.617   6.791 -0.4181 -0.7275 -1.4064
 6458SOL     OW31009   2.310   0.548  10.637  0.1398  0.4832  0.1052
 6458SOL    HW131010   2.244   0.517  10.575  0.8880 -0.3529 -0.2800
 6458SOL    HW231011   2.331   0.635  10.603  0.2962  0.3427 -0.1603
 6459SOL     OW31012   0.800   3.901  12.433 -0.0036  0.1386  0.4507
 6459SOL    HW131013   0.771   3.861  12.515 -0.8472 -1.4838 -0.6394
 6459SOL    HW231014   0.736   3.968  12.408  1.1236  0.4231 -1.6785
 6460SOL     OW31015   4.607   3.418  10.338  0.0950 -0.0457 -0.4080
 6460SOL    HW131016   4.558   3.339  10.317 -0.8607  0.3950  0.1848
 6460SOL    HW231017   4.567   3.459  10.414  1.6700 -2.2435  1.5845
 6461SOL     OW31018   4.220   0.480   6.208 -0.1230  0.3319  0.7392
 6461SOL    HW131019   4.177   0.398   6.229 -0.4540  0.6869  1.4412
 6461SOL    HW231020   4.156   0.537   6.166  1.5026  1.2525 -0.5414
 6462SOL     OW31021   3.056   0.392  11.997 -0.2737  0.0708  0.7551
 6462SOL    HW131022   2.994   0.412  12.067 -0.3026  0.5881  0.5756
 6462SOL    HW231023   3.096   0.477  11.979 -1.4090  0.0843 -1.6336
 6463SOL     OW31024   1.382   3.993  13.366  0.4129 -0.1092  0.0279
 6463SOL    HW131025   1.374   4.000  13.271  1.5954 -2.0681 -0.2095
 6463SOL    HW231026   1.334   3.911  13.379 -1.2668  1.5738  4.3713
 6464SOL     OW31027   3.386   4.736   5.848 -0.5289  0.2783 -0.0056
 6464SOL    HW131028   3.480   0.013   5.856 -0.5907  0.6292 -0.0246
 6464SOL    HW231029   3.358   0.079   5.886 -0.1617  0.8104 -0.9128
 6465SOL     OW31030   4.549   3.115   3.455 -0.3447 -0.7901  0.0945
 6465SOL    HW131031   4.480   3.090   3.517  0.5598 -0.6148  1.1659
 6465SOL    HW231032   4.488   3.115   3.381  0.0125 -0.4158 -0.1958
 6466SOL     OW31033   2.540   0.731  17.457  0.1878  0.0247 -0.3687
 6466SOL    HW131034   2.584   0.798  17.509  1.0712 -1.3339  0.6026
 6466SOL    HW231035   2.607   0.698  17.398  0.9152 -2.5652  1.9229
 6467SOL     OW31036   2.191   2.564   5.724  0.1725 -0.0822 -0.1678
 6467SOL    HW131037   2.224   2.578   5.635 -0.1133  0.7326 -0.1420
 6467SOL    HW231038   2.099   2.561   5.697  0.5487  1.6346 -1.6662
 6468SOL     OW31039   2.950   0.073   5.946  0.3159 -0.1610  0.1463
 6468SOL    HW131040   2.909   0.012   6.008 -0.6414 -1.9341 -2.2426
 6468SOL    HW231041   2.931   0.154   5.993 -0.4169  0.5038 -1.3271
 6469SOL     OW31042   3.462   3.750   4.538 -0.4151 -0.2080  0.0734
 6469SOL    HW131043   3.521   3.772   4.466  0.1802 -1.3262  0.2256
 6469SOL    HW231044   3.402   3.823   4.521 -1.1081 -1.3517 -2.4816
 6470SOL     OW31045   3.314   3.342   8.686 -0.1993  0.0251 -0.1695
 6470SOL    HW131046   3.238   3.324   8.742  0.5503  0.5572  1.0093
 6470SOL    HW231047   3.277   3.320   8.600 -1.0373 -1.9694  0.6998
 6471SOL     OW31048   0.183   3.814   4.908 -0.4595  0.3498  0.3093
 6471SOL    HW131049   0.136   3.893   4.933 -1.9303 -0.7258  0.9754
 6471SOL    HW231050   0.193   3.816   4.812 -1.5039 -0.4113  0.1739
 6472SOL     OW31051   2.927   0.399   7.979 -0.3999  0.3014 -0.0720
 6472SOL    HW131052   2.945   0.328   8.040  0.9684  2.6128  2.2448
 6472SOL    HW231053   2.836   0.380   7.959 -0.2134 -2.3601  1.6620
 6473SOL     OW31054   4.153   4.070   8.122  0.2546 -0.1410 -0.6691
 6473SOL    HW131055   4.215   3.998   8.136  1.2261  0.7854 -0.2459
 6473SOL    HW231056   4.177   4.101   8.035  1.2842  1.5753  0.2464
 6474SOL     OW31057   3.159   1.891  10.770  0.0692 -0.0038 -0.0961
 6474SOL    HW131058   3.206   1.852  10.696  1.3278  3.0109 -0.8545
 6474SOL    HW231059   3.221   1.888  10.844  1.4813 -3.0000 -1.3960
 6475SOL     OW31060   2.630   3.740   1.057 -0.0643  0.2336 -0.5322
 6475SOL    HW131061   2.707   3.688   1.037 -0.6842 -0.9871  0.2673
 6475SOL    HW231062   2.641   3.822   1.008 -1.9039  1.0707  0.4296
 6476SOL     OW31063   2.839   1.928   2.173 -0.7418  0.6967  0.4773
 6476SOL    HW131064   2.766   1.867   2.172 -0.2810  0.1519  0.0963
 6476SOL    HW231065   2.796   2.009   2.147 -3.2982 -0.1963  1.9727
 6477SOL     OW31066   1.782   4.494   0.509  0.0542  0.5460  0.0802
 6477SOL    HW131067   1.761   4.547   0.432  1.8891  0.3036 -0.5658
 6477SOL    HW231068   1.729   4.530   0.580 -2.4494 -0.4445 -1.2506
 6478SOL     OW31069   3.228   0.656  10.892 -0.4270 -0.4135  0.3694
 6478SOL    HW131070   3.158   0.706  10.934 -2.0064 -2.8667  0.6389
 6478SOL    HW231071   3.283   0.718  10.843 -2.1526  1.0848  0.3422
 6479SOL     OW31072   2.985   3.244   1.210 -0.2788 -0.5567  0.4784
 6479SOL    HW131073   2.973   3.226   1.303 -0.4300 -0.3433  0.5015
 6479SOL    HW231074   3.079   3.263   1.212 -0.2865 -0.5033  0.2809
 6480SOL     OW31075   4.713   0.269  16.190 -0.1269 -0.2469  0.5157
 6480SOL    HW131076   4.623   0.295  16.210 -0.6712 -2.0240  0.3526
 6480SOL    HW231077   4.707   0.173  16.192  2.2558 -0.3988  0.1479
 6481SOL     OW31078   1.058   0.848  11.917  0.3541 -0.3500  0.4981
 6481SOL    HW131079   1.092   0.936  11.930 -0.4412  0.0791 -0.4230
 6481SOL    HW231080   0.993   0.840  11.987  0.8698 -2.0718  0.8062
 6482SOL     OW31081   4.400   3.682   9.014  0.0665 -0.2969 -0.1480
 6482SOL    HW131082   4.426   3.721   9.098  1.2614 -1.4844  0.0314
 6482SOL    HW231083   4.312   3.647   9.027  0.0949  0.1230  1.1434
 6483SOL     OW31084   3.055   0.247   2.719 -0.6518  0.0239 -0.2282
 6483SOL    HW131085   3.085   0.168   2.764 -0.2560 -0.4190 -1.2669
 6483SOL    HW231086   3.058   0.316   2.785  1.6848 -1.2930  1.0150
 6484SOL     OW31087   0.344   3.137   0.218  0.5404 -0.1316  0.5205
 6484SOL    HW131088   0.373   3.227   0.209  3.3643 -1.1633 -0.5352
 6484SOL    HW231089   0.384   3.113   0.302 -1.1780 -1.9691  0.8486
 6485SOL     OW31090   2.165   4.471  14.947  0.2784  0.1638  0.1152
 6485SOL    HW131091   2.100   4.486  14.879  0.8754  0.1198 -0.4759
 6485SOL    HW231092   2.150   4.542  15.010 -0.3897 -1.5517  1.8717
 6486SOL     OW31093   2.683   1.593   8.025  0.2703 -0.0952 -0.5560
 6486SOL    HW131094   2.749   1.562   7.961 -1.9004 -0.8483 -2.4301
 6486SOL    HW231095   2.724   1.660   8.080  2.3865 -0.1750 -2.0096
 6487SOL     OW31096   3.619   1.092   3.718  0.0823 -0.0611  0.2994
 6487SOL    HW131097   3.641   1.146   3.794 -2.7425  1.4486  0.0566
 6487SOL    HW231098   3.530   1.064   3.734 -0.0959 -0.0634 -0.6824
 6488SOL     OW31099   3.242   2.759   1.692 -0.4493 -0.2261 -0.1862
 6488SOL    HW131100   3.272   2.715   1.772 -1.1252  0.4953  0.4692
 6488SOL    HW231101   3.159   2.789   1.731 -1.1074 -1.5556 -0.5512
 6489SOL     OW31102   1.181   2.134   8.819 -0.1638 -0.5572  0.0282
 6489SOL    HW131103   1.222   2.067   8.763  0.7153 -0.9705  1.1653
 6489SOL    HW231104   1.094   2.096   8.819 -0.4303  0.0891  2.0892
 6490SOL     OW31105   2.054   0.974   1.190 -0.0783  0.0323 -0.2155
 6490SOL    HW131106   2.001   1.052   1.206  0.7956  0.3274  1.2609
 6490SOL    HW231107   1.980   0.920   1.162 -0.6503  0.9003 -0.3730
 6491SOL     OW31108   1.366   1.518   7.491  0.0574 -0.1372  0.0817
 6491SOL    HW131109   1.422   1.586   7.529  0.9855 -1.0491  0.3468
 6491SOL    HW231110   1.359   1.553   7.402  3.6086  1.7073  0.4971
 6492SOL     OW31111   3.777   4.581   9.197 -0.3183  0.2207 -0.0100
 6492SOL    HW131112   3.694   4.589   9.243 -0.3918 -0.8035  0.0249
 6492SOL    HW231113   3.838   4.573   9.270 -1.9409 -0.1738  1.3108
 6493SOL     OW31114   1.625   2.232   1.566 -0.9900  0.8629  0.0233
 6493SOL    HW131115   1.635   2.150   1.519  3.6921  2.1931 -1.2266
 6493SOL    HW231116   1.560   2.220   1.636  0.0103 -0.0695  0.7969
 6494SOL     OW31117   0.577   3.899  16.594  0.4147 -0.2856  0.1547
 6494SOL    HW131118   0.635   3.838  16.639 -0.5292  0.0236  1.7939
 6494SOL    HW231119   0.571   3.969  16.659  1.0916  0.0966 -0.1940
 6495SOL     OW31120   1.439   2.605  12.950  0.1504  0.2661  0.7101
 6495SOL    HW131121   1.509   2.546  12.923  1.1608  2.3550 -1.2501
 6495SOL    HW231122   1.368   2.546  12.923  0.9387 -0.4203  0.1456
 6496SOL     OW31123   0.677   0.585   4.270 -0.0234  0.3157 -0.5456
 6496SOL    HW131124   0.583   0.566   4.272 -0.2212  1.2048 -1.2541
 6496SOL    HW231125   0.697   0.589   4.364  0.4111  2.3670 -0.7295
 6497SOL     OW31126   3.161   4.552   7.045  0.0436  0.3601 -0.0241
 6497SOL    HW131127   3.200   4.593   6.968 -2.4713 -1.2483 -2.1324
 6497SOL    HW231128   3.184   4.459   7.033  1.0791  0.7804 -1.3771
 6498SOL     OW31129   1.651   2.338  17.503  0.3284  0.3599  0.0365
 6498SOL    HW131130   1.697   2.333  17.587 -0.3096 -0.4497  0.3308
 6498SOL    HW231131   1.723   2.368  17.447  1.3085 -2.3463 -0.1791
 6499SOL     OW31132   1.896   4.500   6.909  0.6102 -0.4369  0.0745
 6499SOL    HW131133   1.959   4.514   6.838 -0.1504 -1.1557 -0.7399
 6499SOL    HW231134   1.944   4.537   6.983  2.0010 -0.4428 -0.8108
 6500SOL     OW31135   0.883   3.517   4.226 -0.3875  0.4580  0.6432
 6500SOL    HW131136   0.913   3.578   4.293  0.3654  0.1025  0.6350
 6500SOL    HW231137   0.788   3.513   4.236 -0.6296 -1.1017 -2.4215
 6501SOL     OW31138   2.669   1.706   3.752  0.5638  0.0288 -0.2050
 6501SOL    HW131139   2.717   1.735   3.830 -1.9487  1.4622  0.8427
 6501SOL    HW231140   2.674   1.775   3.686 -0.6739 -1.1865 -1.5752
 6502SOL     OW31141   0.241   4.048   8.273  0.0065  0.1479 -0.2996
 6502SOL    HW131142   0.290   3.973   8.307 -0.8835 -0.5992 -0.6460
 6502SOL    HW231143   0.257   4.109   8.344  0.9786  0.2739 -0.6176
 6503SOL     OW31144   2.806   0.770   5.380 -0.0924  0.0381  1.0087
 6503SOL    HW131145   2.868   0.756   5.308 -1.3805 -2.4532  0.3799
 6503SOL    HW231146   2.860   0.792   5.456  0.1800  0.8325  0.5885
 6504SOL     OW31147   3.761   3.424  15.689  0.1709 -0.1788 -0.3864
 6504SOL    HW131148   3.831   3.365  15.660  0.1992 -2.5747  4.5491
 6504SOL    HW231149   3.686   3.374  15.657  0.7306 -1.8035  0.8081
 6505SOL     OW31150   0.847   3.211   6.624 -0.1986  0.5947 -0.5071
 6505SOL    HW131151   0.797   3.130   6.625 -1.0044  1.1281  1.3479
 6505SOL    HW231152   0.861   3.226   6.717 -1.1468  0.4353 -0.3490
 6506SOL     OW31153   4.074   3.808   8.367  0.2841  0.5571  0.3448
 6506SOL    HW131154   4.166   3.831   8.354  0.5066 -1.3588 -1.4777
 6506SOL    HW231155   4.087   3.714   8.366 -3.5031  0.0534 -0.2897
 6507SOL     OW31156   3.635   3.237   1.897 -0.0123 -0.1293 -0.2814
 6507SOL    HW131157   3.695   3.167   1.870  0.8499  0.1775  0.8483
 6507SOL    HW231158   3.585   3.198   1.969  0.5765  0.8042  0.6214
 6508SOL     OW31159   4.580   0.616   2.966 -0.6285  0.3416 -0.0541
 6508SOL    HW131160   4.568   0.537   3.020 -4.0523  2.1187  1.7887
 6508SOL    HW231161   4.581   0.574   2.880  2.9200 -0.8555  0.5440
 6509SOL     OW31162   3.492   0.763   8.033 -0.4768 -0.6346 -0.2334
 6509SOL    HW131163   3.434   0.765   8.109 -1.0722 -1.4870 -0.6591
 6509SOL    HW231164   3.435   0.718   7.971  0.7810 -0.1949 -1.7042
 6510SOL     OW31165   3.184   0.429  16.816 -0.9137 -0.6057  0.0842
 6510SOL    HW131166   3.272   0.461  16.798 -1.6760  1.4334 -0.1126
 6510SOL    HW231167   3.161   0.420  16.723  0.3591  3.2503 -0.6196
 6511SOL     OW31168   0.377   0.239   6.946 -0.2217  0.4586  0.6959
 6511SOL    HW131169   0.453   0.286   6.912  0.0792 -1.4962 -1.3464
 6511SOL    HW231170   0.407   0.148   6.938 -0.9919  0.2734 -0.1200
 6512SOL     OW31171   0.099   2.526   7.420  0.2117  0.5886 -0.2870
 6512SOL    HW131172   0.057   2.493   7.499  0.2197  0.3543 -0.3771
 6512SOL    HW231173   0.035   2.490   7.359  1.1183 -0.1973 -0.7833
 6513SOL     OW31174   0.900   3.611   4.521 -0.6687 -0.6502  0.5522
 6513SOL    HW131175   0.844   3.684   4.547  0.7262  0.8864 -0.8384
 6513SOL    HW231176   0.847   3.535   4.548 -1.4301 -0.5741 -0.7480
 6514SOL     OW31177   3.783   4.322   6.000  0.0270 -0.0376 -0.0670
 6514SOL    HW131178   3.694   4.343   5.970  0.1036  1.9315  1.0352
 6514SOL    HW231179   3.811   4.255   5.938  2.4325  0.7498  0.1617
 6515SOL     OW31180   4.732   1.113   2.631  0.4004  0.0269  0.0325
 6515SOL    HW131181   4.724   1.046   2.699  2.9414 -1.4573 -1.1232
 6515SOL    HW231182   0.020   1.064   2.554  3.8672 -0.7245  1.7620
 6516SOL     OW31183   0.775   2.763  16.543 -0.2202 -0.2905  0.1982
 6516SOL    HW131184   0.681   2.744  16.540 -0.3008  0.1115  0.2960
 6516SOL    HW231185   0.768   2.816  16.622 -1.5991 -0.5072  0.2388
 6517SOL     OW31186   0.241   2.265   5.755  0.2070  0.6508  0.0458
 6517SOL    HW131187   0.192   2.297   5.831  1.4812 -0.4986  1.3583
 6517SOL    HW231188   0.181   2.283   5.683  3.6739 -1.4365 -3.3496
 6518SOL     OW31189   3.190   4.532   2.785 -0.4432  0.1953 -0.5869
 6518SOL    HW131190   3.265   4.475   2.769 -3.1064 -3.9441  1.5126
 6518SOL    HW231191   3.146   4.521   2.701 -0.9284  0.3464 -0.3529
 6519SOL     OW31192   1.346   4.202   5.692  0.4951 -0.1884  0.3048
 6519SOL    HW131193   1.336   4.108   5.675 -0.1208 -0.2782  1.1317
 6519SOL    HW231194   1.431   4.228   5.657 -0.3049 -0.1866 -1.6203
 6520SOL     OW31195   1.072   1.824   8.367  0.2520 -0.4410  0.0203
 6520SOL    HW131196   1.085   1.903   8.418 -1.3683 -0.7372  0.9116
 6520SOL    HW231197   0.976   1.817   8.368  0.2107 -0.0024 -1.4160
 6521SOL     OW31198   2.222   2.006   5.639  0.0105 -0.1831  0.5902
 6521SOL    HW131199   2.138   2.026   5.598 -0.1896 -0.8979  0.6589
 6521SOL    HW231200   2.281   2.061   5.588  1.9963 -1.2196  1.7636
 6522SOL     OW31201   2.254   3.578  15.968  0.4313 -0.0635  0.0400
 6522SOL    HW131202   2.278   3.662  16.007  3.0275 -1.5709  1.7359
 6522SOL    HW231203   2.342   3.547  15.946 -0.4704 -2.4097 -0.2249
 6523SOL     OW31204   2.761   4.415  10.264  0.3732 -0.2631 -1.1139
 6523SOL    HW131205   2.840   4.457  10.300 -1.0074  1.7000 -0.3696
 6523SOL    HW231206   2.687   4.472  10.283  0.2109 -0.7141 -0.3716
 6524SOL     OW31207   2.315   2.078  16.596  0.8135  0.2489  0.2820
 6524SOL    HW131208   2.270   2.013  16.649 -0.7319  2.7486  2.0605
 6524SOL    HW231209   2.404   2.047  16.616  1.0059 -0.2237 -1.3801
 6525SOL     OW31210   0.922   0.779   2.850  0.1136 -0.0778 -0.5279
 6525SOL    HW131211   0.947   0.863   2.887  1.0411 -0.4680 -0.2670
 6525SOL    HW231212   0.972   0.715   2.902  0.8352  0.9328  0.0129
 6526SOL     OW31213   1.982   0.145   2.861  0.1109  0.3629  0.1114
 6526SOL    HW131214   1.939   0.081   2.805 -0.3560 -0.4491  1.3872
 6526SOL    HW231215   1.938   0.115   2.941 -1.2196  2.0157 -0.0012
 6527SOL     OW31216   2.483   0.596   4.877 -0.0948 -0.2426  0.0930
 6527SOL    HW131217   2.497   0.662   4.945  0.6729  0.1036 -0.4015
 6527SOL    HW231218   2.564   0.606   4.827  0.2206 -0.9503  0.4748
 6528SOL     OW31219   1.624   3.343   8.475 -0.0442  0.3125 -0.0140
 6528SOL    HW131220   1.674   3.346   8.556  0.0804 -2.3617  0.0099
 6528SOL    HW231221   1.591   3.433   8.469  2.0576  1.1787  1.7209
 6529SOL     OW31222   1.145   0.852   1.656  0.1362 -0.2486  0.5343
 6529SOL    HW131223   1.096   0.794   1.714  0.4986 -0.5929  0.5017
 6529SOL    HW231224   1.216   0.866   1.719  0.8447 -0.4896 -0.2137
 6530SOL     OW31225   0.544   1.133   7.166  0.5753 -0.2422 -0.7485
 6530SOL    HW131226   0.568   1.043   7.188  1.2617  0.7582  2.6673
 6530SOL    HW231227   0.562   1.176   7.250  2.5649 -1.7928 -0.3943
 6531SOL     OW31228   3.128   0.343   7.771 -0.2117  0.7937 -0.2647
 6531SOL    HW131229   3.170   0.287   7.836 -3.1081  1.4905  2.2497
 6531SOL    HW231230   3.058   0.385   7.821 -0.7387 -0.4532  0.0523
 6532SOL     OW31231   0.726   2.830  16.974 -0.0881 -0.0009  0.3957
 6532SOL    HW131232   0.733   2.887  16.897 -1.6656  1.5544  1.4258
 6532SOL    HW231233   0.808   2.858  17.016  0.6588  2.3134 -2.5983
 6533SOL     OW31234   1.724   3.274   3.371  0.0591 -0.0091 -0.4742
 6533SOL    HW131235   1.748   3.348   3.314 -2.0577  1.2921  0.3454
 6533SOL    HW231236   1.762   3.214   3.307  1.2136  1.1961 -0.9235
 6534SOL     OW31237   3.929   2.442   0.056  0.1220  0.1102 -0.4695
 6534SOL    HW131238   4.012   2.470   0.095  0.9415 -0.5844 -1.7163
 6534SOL    HW231239   3.915   2.502  17.738 -1.7507  0.2215 -0.0346
 6535SOL     OW31240   0.667   2.807   0.639  0.0232 -0.4841 -0.4647
 6535SOL    HW131241   0.655   2.855   0.721 -2.0204 -1.3040 -0.2969
 6535SOL    HW231242   0.732   2.742   0.668 -0.3129 -0.5392  0.1734
 6536SOL     OW31243   3.573   2.601  15.783 -0.4447  1.0593  0.2956
 6536SOL    HW131244   3.592   2.647  15.865  0.2782  0.6848  0.3388
 6536SOL    HW231245   3.484   2.572  15.804 -0.4622  1.5999  0.9756
 6537SOL     OW31246   0.123   1.476  13.205 -0.8733  0.7585 -0.0085
 6537SOL    HW131247   0.061   1.536  13.163  0.4724  2.0303 -0.1845
 6537SOL    HW231248   0.177   1.539  13.252  0.3484  0.2718 -0.7805
 6538SOL     OW31249   0.863   1.029   8.986  0.1802  0.0239 -0.0636
 6538SOL    HW131250   0.812   1.108   8.967  1.7065  0.3721 -2.7877
 6538SOL    HW231251   0.880   1.035   9.080 -0.3247  0.0733  0.0239
 6539SOL     OW31252   4.299   1.670   5.279 -0.3311 -0.0562  0.1700
 6539SOL    HW131253   4.237   1.641   5.212  1.7102 -1.0747 -1.2449
 6539SOL    HW231254   4.379   1.676   5.227  0.0771 -1.7143  0.5932
 6540SOL     OW31255   2.240   0.952   6.473  0.6616 -0.2004  0.0491
 6540SOL    HW131256   2.203   1.028   6.519  3.7466  1.4783 -0.2263
 6540SOL    HW231257   2.168   0.897   6.444  2.4172 -2.2483 -0.4087
 6541SOL     OW31258   1.327   3.698  10.253  0.4234 -0.2613  0.5335
 6541SOL    HW131259   1.360   3.612  10.279  0.6784 -0.1865  0.4539
 6541SOL    HW231260   1.244   3.690  10.301  0.1741 -2.4557 -0.2647
 6542SOL     OW31261   3.078   0.741  14.985 -0.6393  0.2720  0.1397
 6542SOL    HW131262   3.036   0.826  14.976 -0.9988  0.0154 -0.6224
 6542SOL    HW231263   3.166   0.776  14.972 -0.6484  0.7316  1.3232
 6543SOL     OW31264   2.464   4.287   5.204  0.0509 -0.1165  0.0054
 6543SOL    HW131265   2.490   4.363   5.257 -1.8367  1.1277 -0.8173
 6543SOL    HW231266   2.533   4.224   5.222 -0.8791 -0.6766  1.6128
 6544SOL     OW31267   2.782   2.154   5.362  0.8537 -0.1795 -0.0871
 6544SOL    HW131268   2.789   2.223   5.428 -1.4451 -0.7943  0.8046
 6544SOL    HW231269   2.753   2.080   5.416  0.6819  1.5080  2.1043
 6545SOL     OW31270   0.715   2.336   2.175  0.2436  0.6120 -0.1620
 6545SOL    HW131271   0.671   2.397   2.115 -1.3484 -1.5341 -1.1493
 6545SOL    HW231272   0.649   2.339   2.243 -1.2194  0.5385 -1.5917
 6546SOL     OW31273   0.515   0.182  17.693  0.4199 -0.3042 -0.4139
 6546SOL    HW131274   0.526   0.259  17.637 -1.8383  0.6183  0.4156
 6546SOL    HW231275   0.422   0.194  17.712  0.2063 -1.0877 -0.9308
 6547SOL     OW31276   1.736   0.196   8.402 -0.3471  0.2431 -0.2453
 6547SOL    HW131277   1.764   0.115   8.446 -2.3210  0.5202  1.4901
 6547SOL    HW231278   1.786   0.192   8.321 -0.6547 -1.0461 -0.3820
 6548SOL     OW31279   0.692   0.476  11.250 -0.0617  0.5420  0.5422
 6548SOL    HW131280   0.607   0.491  11.292  0.4225 -0.3785  1.8222
 6548SOL    HW231281   0.714   0.560  11.209  0.5230  0.3443  0.4642
 6549SOL     OW31282   1.032   1.003   0.667  0.2173 -0.0093  0.3330
 6549SOL    HW131283   1.100   1.008   0.599  0.6078  1.8991  0.8752
 6549SOL    HW231284   1.079   1.008   0.750 -0.2297 -0.4434  0.6148
 6550SOL     OW31285   3.624   2.575  13.940  0.2839 -0.7321  0.3884
 6550SOL    HW131286   3.647   2.500  13.886 -0.5061  0.0019 -0.9403
 6550SOL    HW231287   3.609   2.647  13.880  1.9328 -0.6328  0.1019
 6551SOL     OW31288   4.333   1.308   0.670 -0.1875 -0.2126 -0.3019
 6551SOL    HW131289   4.379   1.263   0.599  0.5865 -0.0292  0.0819
 6551SOL    HW231290   4.255   1.253   0.679 -1.2278  0.9345 -2.1865
 6552SOL     OW31291   4.576   4.281   6.150 -0.3957 -0.2446 -0.5524
 6552SOL    HW131292   4.567   4.188   6.131 -1.3619 -0.8216  2.6948
 6552SOL    HW231293   4.656   4.285   6.202  0.6615 -0.5169 -2.1610
 6553SOL     OW31294   3.762   0.562   4.248 -0.1078 -0.1058 -0.5644
 6553SOL    HW131295   3.777   0.654   4.270 -0.6762  0.2722 -1.7835
 6553SOL    HW231296   3.740   0.525   4.334  2.5716 -2.3293 -0.8485
 6554SOL     OW31297   2.620   2.749   4.906 -0.1927 -0.8985  0.4082
 6554SOL    HW131298   2.573   2.667   4.890 -2.7397  0.6862 -0.3167
 6554SOL    HW231299   2.580   2.773   4.989  0.0617 -0.6590  0.4609
 6555SOL     OW31300   0.139   1.131   1.144  0.2389 -0.0652  0.5886
 6555SOL    HW131301   0.105   1.172   1.223  1.1879 -2.1139  2.0398
 6555SOL    HW231302   0.110   1.040   1.138  0.6838 -0.2362  0.9877
 6556SOL     OW31303   1.161   2.876   7.898 -0.2484 -0.3398  0.7804
 6556SOL    HW131304   1.248   2.916   7.893 -0.1114 -0.8096 -0.7180
 6556SOL    HW231305   1.173   2.782   7.883  0.4325 -0.1570  0.1676
 6557SOL     OW31306   1.291   3.005  12.727  0.0606 -0.2605  0.2014
 6557SOL    HW131307   1.243   2.928  12.759  0.1537  0.2219  1.4882
 6557SOL    HW231308   1.229   3.076  12.746  1.4528  0.9225  0.2998
 6558SOL     OW31309   3.755   4.006   8.702  0.0256 -0.3403  0.0071
 6558SOL    HW131310   3.714   4.007   8.615 -1.8235  4.0082  0.9169
 6558SOL    HW231311   3.726   3.920   8.732  0.9837 -0.7048 -0.1044
 6559SOL     OW31312   3.431   2.127  16.584  0.2812  0.2743 -0.4341
 6559SOL    HW131313   3.371   2.174  16.641 -0.0211  1.5104 -1.7697
 6559SOL    HW231314   3.506   2.187  16.589 -0.1537  0.7474  0.3245
 6560SOL     OW31315   0.017   1.435  12.250 -0.3943  0.6248 -0.3661
 6560SOL    HW131316   0.102   1.394  12.266 -0.1442  1.2612 -0.0466
 6560SOL    HW231317   0.037   1.527  12.267  1.0165  0.3407 -0.5011
 6561SOL     OW31318   1.884   0.802   2.926  0.3185 -0.2218  0.4768
 6561SOL    HW131319   1.933   0.861   2.984  0.7055 -0.3683  0.2970
 6561SOL    HW231320   1.953   0.772   2.867 -0.8315 -1.1228 -0.4199
 6562SOL     OW31321   0.272   1.712  12.846  0.3088 -0.7376 -0.2306
 6562SOL    HW131322   0.281   1.619  12.823 -1.8122 -1.2993  1.2519
 6562SOL    HW231323   0.177   1.724  12.854  0.3780  0.9428 -1.8958
 6563SOL     OW31324   4.350   0.746   3.258 -0.7280 -0.2532  0.2138
 6563SOL    HW131325   4.422   0.731   3.319  0.3766 -2.6557 -1.6701
 6563SOL    HW231326   4.321   0.831   3.290 -2.6276 -1.7486  2.4743
 6564SOL     OW31327   3.859   0.390  14.511 -0.1884  0.2527 -0.2787
 6564SOL    HW131328   3.868   0.438  14.593  2.3677 -0.9636  0.1512
 6564SOL    HW231329   3.944   0.347  14.499 -0.8710 -0.7431 -1.5915
 6565SOL     OW31330   4.547   1.307   3.464  0.3429  0.3283 -0.5162
 6565SOL    HW131331   4.643   1.317   3.465  0.4172 -0.5770  1.9719
 6565SOL    HW231332   4.511   1.395   3.474 -0.3779  0.0823 -0.9807
 6566SOL     OW31333   3.127   1.402   8.962  0.0142 -0.0600  0.8254
 6566SOL    HW131334   3.171   1.390   8.878 -1.9565  3.2724 -0.6731
 6566SOL    HW231335   3.059   1.335   8.967  0.3682 -0.4696  0.1380
 6567SOL     OW31336   4.359   1.390   6.509 -0.6005 -0.3072  0.1785
 6567SOL    HW131337   4.303   1.368   6.583  0.4248 -2.0921  0.4485
 6567SOL    HW231338   4.303   1.453   6.464 -1.0722  0.7263  2.2496
 6568SOL     OW31339   0.309   2.924   5.952 -0.4709  0.6615 -0.0135
 6568SOL    HW131340   0.306   2.979   5.874  0.0776  1.4912  0.5351
 6568SOL    HW231341   0.389   2.948   5.999  0.9278 -0.6221 -1.7734
 6569SOL     OW31342   3.926   3.134   8.924  0.2607  0.2234 -0.4187
 6569SOL    HW131343   3.928   3.158   8.832 -0.4703 -1.2860 -0.8309
 6569SOL    HW231344   3.863   3.062   8.916  1.2756 -0.5844 -1.0713
 6570SOL     OW31345   4.333   2.410   6.415  0.2305 -0.3495  0.1086
 6570SOL    HW131346   4.353   2.485   6.471 -1.9476  0.9326 -0.8216
 6570SOL    HW231347   4.248   2.439   6.384  1.2393  3.2948  0.7575
 6571SOL     OW31348   3.792   1.590   8.910 -0.7360  0.3663 -0.1743
 6571SOL    HW131349   3.859   1.639   8.958  0.3659 -1.1463 -0.1680
 6571SOL    HW231350   3.846   1.514   8.891 -1.9474 -0.5704  0.1909
 6572SOL     OW31351   4.185   3.074   2.585  0.5118  0.0471  0.2142
 6572SOL    HW131352   4.228   3.091   2.670  0.0162  1.9451  0.0734
 6572SOL    HW231353   4.139   2.991   2.600  0.8506 -0.0460  0.7573
 6573SOL     OW31354   1.370   4.363   7.684  0.3378  0.3721 -0.0285
 6573SOL    HW131355   1.333   4.275   7.681  1.6106 -0.1095 -1.7871
 6573SOL    HW231356   1.299   4.426   7.694  0.9837  1.0925  0.0715
 6574SOL     OW31357   2.446   2.147   6.120 -0.7483 -0.4683  0.3591
 6574SOL    HW131358   2.357   2.170   6.143 -0.3968  2.3220 -1.0753
 6574SOL    HW231359   2.426   2.055   6.138  3.2113 -1.1247  1.5541
 6575SOL     OW31360   4.178   2.665   4.295  0.0894  0.5664  0.3080
 6575SOL    HW131361   4.216   2.744   4.257  0.9403  0.0617  0.1241
 6575SOL    HW231362   4.157   2.688   4.385 -0.5357  0.2827  0.2387
 6576SOL     OW31363   3.725   4.479   1.660  0.1022 -0.5343  0.0029
 6576SOL    HW131364   3.786   4.509   1.594 -0.3488  0.8774  0.2401
 6576SOL    HW231365   3.741   4.545   1.727 -1.7636 -1.3201  1.2529
 6577SOL     OW31366   3.796   4.399  16.658 -0.0162 -0.2265  0.5548
 6577SOL    HW131367   3.755   4.485  16.661 -1.4538 -0.8681 -1.0927
 6577SOL    HW231368   3.721   4.351  16.624 -1.1508  1.8600  0.1605
 6578SOL     OW31369   3.444   1.708   1.788  0.9900  0.2704  0.4741
 6578SOL    HW131370   3.405   1.757   1.861  0.3975  1.0453 -0.3639
 6578SOL    HW231371   3.367   1.671   1.745  2.3807 -1.5397 -0.4385
 6579SOL     OW31372   3.031   1.979   6.093  0.1597  0.3756 -0.4356
 6579SOL    HW131373   3.119   1.944   6.078  0.6818  1.9814 -1.1179
 6579SOL    HW231374   2.970   1.934   6.034 -1.1613  0.9739  0.4720
 6580SOL     OW31375   1.477   1.275  11.889  0.4060 -0.2379 -0.2215
 6580SOL    HW131376   1.420   1.227  11.829 -0.3678 -0.5903  0.7986
 6580SOL    HW231377   1.539   1.302  11.821 -0.6653  0.5108 -0.9069
 6581SOL     OW31378   4.417   1.674   3.925  0.5383  0.1459 -0.2214
 6581SOL    HW131379   4.409   1.769   3.918 -2.3026 -0.0957 -0.1802
 6581SOL    HW231380   4.378   1.647   3.842  3.2280 -1.1628 -1.0569
 6582SOL     OW31381   4.495   3.328   6.758  0.7160 -0.2092  0.1281
 6582SOL    HW131382   4.403   3.300   6.752  1.0007 -0.2645 -3.6784
 6582SOL    HW231383   4.494   3.414   6.800 -2.5438  1.2139 -2.9391
 6583SOL     OW31384   3.436   3.644   3.259 -0.3300 -0.4690 -0.3118
 6583SOL    HW131385   3.460   3.736   3.260  0.4689 -0.7005  1.6259
 6583SOL    HW231386   3.391   3.630   3.175 -2.2272 -1.0110  0.7932
 6584SOL     OW31387   1.887   1.663  12.529  0.3407 -0.2709  0.2284
 6584SOL    HW131388   1.962   1.671  12.588 -0.6652 -0.8675  1.5854
 6584SOL    HW231389   1.850   1.579  12.555 -1.8265  0.6793  0.1866
 6585SOL     OW31390   3.998   3.394   2.033  0.8179 -0.4322  0.0913
 6585SOL    HW131391   4.094   3.398   2.031  0.7051  2.8800  1.2178
 6585SOL    HW231392   3.977   3.303   2.015 -0.2567 -0.4213  1.3534
 6586SOL     OW31393   1.227   0.759   8.877  0.3257  0.2031 -0.0303
 6586SOL    HW131394   1.265   0.714   8.801 -0.6752 -0.8467  0.0842
 6586SOL    HW231395   1.154   0.803   8.832 -1.0597 -0.7657  1.2719
 6587SOL     OW31396   1.062   0.901   8.528 -0.1701  0.1916  0.0068
 6587SOL    HW131397   1.047   0.884   8.621 -1.6956 -1.2349 -0.5106
 6587SOL    HW231398   1.135   0.963   8.534 -2.3465  2.5528  1.7090
 6588SOL     OW31399   2.125   3.287   5.614  0.2036 -1.0943 -0.7579
 6588SOL    HW131400   2.133   3.312   5.706 -1.8719  4.0757 -2.0122
 6588SOL    HW231401   2.069   3.210   5.629 -0.9929 -0.4237 -1.7406
 6589SOL     OW31402   1.285   0.579   6.617  0.5239 -0.3060 -0.4046
 6589SOL    HW131403   1.211   0.518   6.622  0.7384 -0.5155  0.2203
 6589SOL    HW231404   1.348   0.526   6.568 -0.2511 -2.2540  0.6856
 6590SOL     OW31405   3.870   3.479   5.925  0.1662  0.2352  0.2264
 6590SOL    HW131406   3.836   3.567   5.938  0.3195  0.1984  0.8965
 6590SOL    HW231407   3.786   3.435   5.911  1.1226 -1.1465 -1.0909
 6591SOL     OW31408   4.500   1.681   6.116  0.3779  0.0171  0.3596
 6591SOL    HW131409   4.418   1.722   6.141 -0.0170 -0.8877  0.5462
 6591SOL    HW231410   4.533   1.659   6.203  0.3926  0.9813  0.5935
 6592SOL     OW31411   1.210   1.872   8.688 -0.7736  0.2691 -0.5955
 6592SOL    HW131412   1.177   1.920   8.612  0.3774 -1.8024 -2.4068
 6592SOL    HW231413   1.303   1.854   8.671 -0.9929 -1.7797  0.3697
 6593SOL     OW31414   0.627   3.175   4.430  0.8098  0.1961 -0.0880
 6593SOL    HW131415   0.587   3.209   4.350 -0.6293 -0.2707  0.4295
 6593SOL    HW231416   0.555   3.186   4.492  1.1897 -0.8993  0.5540
 6594SOL     OW31417   4.418   1.239   1.254 -0.7543  0.0932 -0.9884
 6594SOL    HW131418   4.423   1.334   1.248  2.4116  0.0181  0.4265
 6594SOL    HW231419   4.417   1.203   1.166 -0.2706 -2.1478 -0.1021
 6595SOL     OW31420   2.754   4.643   2.683  0.1103 -0.0654  0.6780
 6595SOL    HW131421   2.775   4.583   2.611  4.2741  3.1601 -0.7832
 6595SOL    HW231422   2.805   4.716   2.648 -1.8238  0.7745 -0.4045
 6596SOL     OW31423   1.572   0.767   1.343 -0.0530 -0.4676  0.7102
 6596SOL    HW131424   1.526   0.690   1.310 -1.3274  0.7437 -0.3441
 6596SOL    HW231425   1.533   0.764   1.431 -1.3637  3.6626  0.2865
 6597SOL     OW31426   3.543   4.701  15.241  0.5157 -0.3389 -0.3162
 6597SOL    HW131427   3.591   4.640  15.185 -0.9171 -2.8905  1.2349
 6597SOL    HW231428   3.463   4.721  15.193 -0.4164 -1.7483  0.6632
 6598SOL     OW31429   2.149   4.207   1.923 -0.1422  0.2112 -0.3080
 6598SOL    HW131430   2.147   4.145   1.997  0.2776  0.1530 -0.3447
 6598SOL    HW231431   2.242   4.190   1.909 -0.6405 -1.4081 -1.5986
 6599SOL     OW31432   4.190   2.818  12.589 -0.3596 -0.4991 -0.2045
 6599SOL    HW131433   4.278   2.856  12.590 -0.2577 -0.7328 -0.5220
 6599SOL    HW231434   4.205   2.726  12.565  1.7182  0.2034 -1.6404
 6600SOL     OW31435   0.001   0.992   9.975 -0.3553 -0.0284  0.0424
 6600SOL    HW131436   4.715   0.977   9.885  1.7881  0.1945 -0.6042
 6600SOL    HW231437   4.711   0.915  10.024  2.0349 -0.4770  0.7902
 6601SOL     OW31438   4.375   0.798   8.947 -0.0628  0.1236 -0.5559
 6601SOL    HW131439   4.337   0.802   8.860 -0.1417  0.6179 -0.5009
 6601SOL    HW231440   4.448   0.859   8.936 -1.0743  1.2716 -0.8945
 6602SOL     OW31441   3.386   0.564   4.061  0.3795  0.1449  0.0700
 6602SOL    HW131442   3.402   0.523   4.146  0.0612 -0.9336 -0.3838
 6602SOL    HW231443   3.462   0.532   4.013  0.0127 -0.3080 -0.2062
 6603SOL     OW31444   4.018   3.756   3.262 -0.2452  0.1895 -0.6817
 6603SOL    HW131445   4.045   3.702   3.189 -0.2892 -0.9330  0.1419
 6603SOL    HW231446   3.937   3.799   3.234  0.7930  1.5176 -1.6539
 6604SOL     OW31447   3.167   0.912   4.496  0.3025 -0.0213 -0.1516
 6604SOL    HW131448   3.225   0.943   4.427  1.3156  1.4472  1.3584
 6604SOL    HW231449   3.215   0.832   4.516 -0.5698 -0.4495  0.2165
 6605SOL     OW31450   4.216   1.357   3.905  0.0977  0.5226  0.2123
 6605SOL    HW131451   4.225   1.270   3.867 -2.0932  0.1294  0.6020
 6605SOL    HW231452   4.133   1.351   3.953 -0.7508  2.8878 -0.9738
 6606SOL     OW31453   0.306   3.263   2.294  0.5956 -0.9004 -0.7229
 6606SOL    HW131454   0.377   3.313   2.336 -0.2660  0.1808 -0.5690
 6606SOL    HW231455   0.296   3.306   2.209  0.8249  1.2585  0.3353
 6607SOL     OW31456   3.414   3.792   2.576 -0.2157  0.2979 -0.2264
 6607SOL    HW131457   3.395   3.857   2.644 -0.2202 -1.6088  1.6027
 6607SOL    HW231458   3.508   3.801   2.562 -0.0357  0.7841  1.2410
 6608SOL     OW31459   4.044   2.432   9.029 -0.1938 -0.5433  0.3646
 6608SOL    HW131460   4.063   2.516   9.072  1.0298 -0.2252 -0.7800
 6608SOL    HW231461   4.101   2.450   8.954 -0.8280 -1.5205 -0.3474
 6609SOL     OW31462   3.177   1.370  12.899 -0.0334  0.0873  0.0811
 6609SOL    HW131463   3.243   1.316  12.856 -0.2565 -0.5147  0.4859
 6609SOL    HW231464   3.227   1.439  12.943  2.2983 -2.4083  1.3697
 6610SOL     OW31465   4.317   4.194   8.487 -0.2885  0.0340  0.0186
 6610SOL    HW131466   4.364   4.231   8.562  0.3980 -2.3479  0.7591
 6610SOL    HW231467   4.333   4.100   8.486  0.6301  0.1576  1.6222
 6611SOL     OW31468   4.494   4.317   2.451 -0.0692  0.2187 -0.0629
 6611SOL    HW131469   4.453   4.299   2.366 -0.3071 -1.3962  0.3867
 6611SOL    HW231470   4.586   4.335   2.432  0.0683  0.8994  1.2434
 6612SOL     OW31471   1.620   1.895  14.651 -0.2683  0.5605 -0.4280
 6612SOL    HW131472   1.685   1.848  14.704  0.6700  0.4315 -1.6887
 6612SOL    HW231473   1.655   1.886  14.563  0.0773  0.1747 -0.2507
 6613SOL     OW31474   3.301   0.755   6.397 -0.3817  0.2869 -0.1695
 6613SOL    HW131475   3.214   0.784   6.425  0.8155  0.0127  3.8818
 6613SOL    HW231476   3.342   0.744   6.482 -1.5796 -0.2396  0.3505
 6614SOL     OW31477   0.712   2.489   4.064 -0.1026  0.0912 -0.0871
 6614SOL    HW131478   0.718   2.573   4.110 -0.4822  0.0019  0.1214
 6614SOL    HW231479   0.659   2.442   4.128 -1.6859  1.5373 -0.3413
 6615SOL     OW31480   1.239   0.620   2.537  0.4823 -0.3145  0.4929
 6615SOL    HW131481   1.318   0.648   2.584  0.4393  0.2599  0.2195
 6615SOL    HW231482   1.208   0.705   2.506  1.4071 -0.5752 -1.1432
 6616SOL     OW31483   4.427   1.155   6.697  0.7960  0.4381  0.4169
 6616SOL    HW131484   4.341   1.197   6.693  1.0224  0.9424  0.9053
 6616SOL    HW231485   4.484   1.199   6.634 -0.3159  1.0480 -0.1507
 6617SOL     OW31486   2.166   0.576   2.434 -0.3119  0.4827 -0.4332
 6617SOL    HW131487   2.108   0.640   2.392  0.7185  1.3129 -0.5814
 6617SOL    HW231488   2.103   0.504   2.443 -1.6594  2.1430  3.4139
 6618SOL     OW31489   4.072   4.705   9.637 -0.3571  0.0608 -0.4314
 6618SOL    HW131490   3.985   4.674   9.612 -0.2106 -0.4698 -0.2880
 6618SOL    HW231491   4.119   4.653   9.571  1.2940  0.7169  0.2262
 6619SOL     OW31492   1.765   2.692   8.654  0.3913  0.8284 -0.0019
 6619SOL    HW131493   1.765   2.657   8.743  0.3300 -0.8422 -0.6545
 6619SOL    HW231494   1.848   2.736   8.639  1.5788 -1.5416 -0.4788
 6620SOL     OW31495   3.877   2.893   8.135 -0.3010  0.1574  0.4927
 6620SOL    HW131496   3.953   2.938   8.174 -0.5248  1.0187 -0.0542
 6620SOL    HW231497   3.807   2.940   8.181  0.7772  0.9689  1.3118
 6621SOL     OW31498   1.756   1.468  16.461  0.0940  0.6103 -0.3154
 6621SOL    HW131499   1.797   1.550  16.488  2.3796 -0.7337  0.2992
 6621SOL    HW231500   1.733   1.428  16.545  1.8605  3.2473  1.4334
 6622SOL     OW31501   1.630   4.106   4.860  0.4577  0.6589 -0.1980
 6622SOL    HW131502   1.628   4.161   4.781  0.7346 -0.8973 -1.2753
 6622SOL    HW231503   1.612   4.019   4.824 -2.3967  0.9163  0.6562
 6623SOL     OW31504   1.905   0.143  16.850 -0.1720  0.1831 -0.2389
 6623SOL    HW131505   1.921   0.177  16.762 -1.1073  0.9871 -0.1064
 6623SOL    HW231506   1.857   0.218  16.885 -1.9630 -0.9457 -0.2758
 6624SOL     OW31507   0.085   0.590   5.004 -0.7555 -0.0965 -0.0750
 6624SOL    HW131508   0.171   0.573   5.042 -0.0404  2.5502 -0.4593
 6624SOL    HW231509   0.056   0.500   4.992  0.8670 -0.5782 -0.3670
 6625SOL     OW31510   0.873   4.350  13.428 -0.4670 -0.6045 -0.2943
 6625SOL    HW131511   0.904   4.332  13.517 -2.6146  1.9098  0.9268
 6625SOL    HW231512   0.881   4.445  13.428  0.5434 -0.6909  0.7397
 6626SOL     OW31513   0.079   3.744  10.343 -0.4850  0.5393 -0.0856
 6626SOL    HW131514   0.153   3.733  10.283 -0.3535 -0.7294  0.2971
 6626SOL    HW231515   0.099   3.830  10.380  1.0352  1.1264 -2.3080
 6627SOL     OW31516   3.610   1.369   1.319  0.2649  0.0720 -0.3811
 6627SOL    HW131517   3.535   1.427   1.335 -0.1558 -1.4515  3.3189
 6627SOL    HW231518   3.654   1.393   1.238  0.4722  0.7451 -0.0693
 6628SOL     OW31519   1.506   0.851   4.182 -0.2896 -0.4075  0.3813
 6628SOL    HW131520   1.574   0.909   4.149 -0.5385  0.9308  2.2454
 6628SOL    HW231521   1.450   0.909   4.233 -0.2828  1.8398 -2.1930
 6629SOL     OW31522   4.240   4.100   1.533  0.4355 -0.6490  0.0229
 6629SOL    HW131523   4.276   4.168   1.590  1.0745 -1.0286  0.0734
 6629SOL    HW231524   4.158   4.090   1.581  1.6686 -0.4793  2.2161
 6630SOL     OW31525   4.224   0.776   8.374  0.1640  0.3462  0.4461
 6630SOL    HW131526   4.273   0.766   8.293  0.4633  3.5654  0.2162
 6630SOL    HW231527   4.151   0.716   8.355 -0.9958  0.7201  3.6803
 6631SOL     OW31528   4.591   1.813  12.480 -0.1188 -0.4954 -0.9025
 6631SOL    HW131529   4.658   1.778  12.539 -1.3316 -0.2252  0.6672
 6631SOL    HW231530   4.559   1.733  12.437  0.5163 -0.6579 -1.0624
 6632SOL     OW31531   1.679   2.387   7.860 -0.1646  0.6164 -0.3145
 6632SOL    HW131532   1.740   2.314   7.867  0.5740  1.2854  0.3053
 6632SOL    HW231533   1.687   2.422   7.949 -2.2816 -0.4572  0.2951
 6633SOL     OW31534   4.716   0.189   2.522  0.4640 -0.1743  0.2739
 6633SOL    HW131535   0.033   0.163   2.594 -0.3127  2.5325  1.8608
 6633SOL    HW231536   0.049   0.214   2.464  0.3939 -2.1107 -0.6640
 6634SOL     OW31537   0.800   4.157   8.763  0.5204  0.3700 -0.1080
 6634SOL    HW131538   0.727   4.218   8.749  1.7414  2.3439  2.1249
 6634SOL    HW231539   0.852   4.201   8.830  0.9905 -0.4126  0.0439
 6635SOL     OW31540   3.393   3.960   2.240 -0.5285 -0.0171  0.1629
 6635SOL    HW131541   3.468   4.019   2.247  0.6162 -1.2398 -1.6979
 6635SOL    HW231542   3.420   3.923   2.156  1.5871  1.0148  0.3769
 6636SOL     OW31543   2.097   0.203   9.723 -0.0120 -0.2648 -0.2417
 6636SOL    HW131544   2.012   0.244   9.740  0.8675  1.6047 -0.2655
 6636SOL    HW231545   2.099   0.166   9.635  0.1128  0.2402 -0.4558
 6637SOL     OW31546   0.880   2.044   7.777  0.6590 -0.1866 -0.3098
 6637SOL    HW131547   0.862   2.076   7.689 -0.5737 -1.3143 -0.4655
 6637SOL    HW231548   0.794   2.037   7.817 -0.3462  1.9182 -2.1170
 6638SOL     OW31549   1.473   2.488  16.257  0.9435  0.2576 -0.5300
 6638SOL    HW131550   1.471   2.392  16.260  0.3906  0.3026  0.5326
 6638SOL    HW231551   1.503   2.519  16.342  0.4800  0.9753 -0.6272
 6639SOL     OW31552   0.472   1.300   8.855  0.6781 -0.3900 -0.3745
 6639SOL    HW131553   0.458   1.393   8.871 -0.4781 -0.1364 -2.8903
 6639SOL    HW231554   0.437   1.295   8.766  3.2412 -0.8569 -1.3593
 6640SOL     OW31555   3.626   0.029   1.209 -0.0455 -0.2790  0.4040
 6640SOL    HW131556   3.596   0.051   1.297 -1.3168 -0.2043 -0.0415
 6640SOL    HW231557   3.686   0.101   1.188  0.3180 -0.5507  0.5188
 6641SOL     OW31558   0.555   2.477   4.613 -0.0336 -0.1173 -0.9238
 6641SOL    HW131559   0.462   2.458   4.620 -0.8505  3.1952 -2.5823
 6641SOL    HW231560   0.558   2.573   4.613  0.6682 -0.1360  0.3162
 6642SOL     OW31561   2.392   0.979   9.619 -0.6205  0.2350  0.1868
 6642SOL    HW131562   2.436   1.061   9.642  0.5257 -0.3283  0.0379
 6642SOL    HW231563   2.454   0.923   9.666 -0.7849  1.2273  1.5996
 6643SOL     OW31564   3.224   3.491  15.712 -0.4699 -0.3605  0.9179
 6643SOL    HW131565   3.133   3.476  15.687 -0.4048  0.2971  0.2972
 6643SOL    HW231566   3.220   3.572  15.763 -0.5862 -0.7187  1.4797
 6644SOL     OW31567   1.472   0.574   6.162  0.4639 -0.5865  0.0997
 6644SOL    HW131568   1.488   0.480   6.172 -4.0552 -1.1878  1.4549
 6644SOL    HW231569   1.481   0.610   6.250 -3.7123 -1.5230  0.9226
 6645SOL     OW31570   1.727   2.984  13.155 -0.2458  0.4135  0.1275
 6645SOL    HW131571   1.815   2.970  13.190  0.3581 -0.0178 -1.5354
 6645SOL    HW231572   1.707   2.890  13.161 -1.5067  0.5255 -2.1330
 6646SOL     OW31573   3.083   0.033  14.901  0.4281  0.1344 -0.4008
 6646SOL    HW131574   3.019   4.719  14.856  0.4958  0.0493 -0.3954
 6646SOL    HW231575   3.119   0.090  14.832 -0.2158  0.6426 -0.3130
 6647SOL     OW31576   1.127   0.790   3.272 -0.3891 -0.2075  0.1033
 6647SOL    HW131577   1.200   0.820   3.217 -2.7093  0.7592 -2.4019
 6647SOL    HW231578   1.051   0.777   3.216  0.3769  1.1107 -1.2340
 6648SOL     OW31579   4.064   0.859   4.634 -0.1270 -0.3544 -0.4734
 6648SOL    HW131580   4.159   0.855   4.623  0.0346  0.7191  0.5457
 6648SOL    HW231581   4.044   0.808   4.555  2.6620 -2.8774  0.4347
 6649SOL     OW31582   4.163   4.201   3.651 -0.9338  0.4641  0.3171
 6649SOL    HW131583   4.090   4.144   3.630 -0.4122  0.1349 -0.5610
 6649SOL    HW231584   4.170   4.256   3.573 -0.1061 -1.3671 -0.8864
 6650SOL     OW31585   1.774   0.190   7.322  0.5410  0.0390 -0.4711
 6650SOL    HW131586   1.736   0.173   7.408  0.6917  0.2177 -0.3686
 6650SOL    HW231587   1.695   0.213   7.273  0.5168  0.1967 -0.3591
 6651SOL     OW31588   0.161   3.606   2.788  0.1998 -0.3828 -0.2158
 6651SOL    HW131589   0.225   3.607   2.717 -0.6964 -3.1209 -1.0354
 6651SOL    HW231590   0.112   3.528   2.762 -2.6877  1.6971 -0.9826
 6652SOL     OW31591   2.847   2.444   1.496 -0.3520 -0.4110 -0.1206
 6652SOL    HW131592   2.756   2.423   1.474 -0.3874 -0.1700 -0.2129
 6652SOL    HW231593   2.829   2.499   1.573 -2.0562 -1.3735  0.1782
 6653SOL     OW31594   3.458   0.322   0.158  0.1516  0.5626  0.1705
 6653SOL    HW131595   3.447   0.417   0.145  0.0809  0.7313  1.4612
 6653SOL    HW231596   3.535   0.289   0.111  1.6367  1.4161  1.9859
 6654SOL     OW31597   1.705   1.530   9.174 -0.0587 -0.3974 -0.6122
 6654SOL    HW131598   1.686   1.543   9.081  1.3359 -2.4303 -1.1725
 6654SOL    HW231599   1.664   1.447   9.196 -0.1891  0.6616  3.0688
 6655SOL     OW31600   1.784   4.464  11.535 -0.3476 -0.5273 -0.4727
 6655SOL    HW131601   1.745   4.537  11.584  0.3910 -1.0341  0.8774
 6655SOL    HW231602   1.822   4.407  11.601  0.4326  0.9208  0.3388
 6656SOL     OW31603   4.706   3.947   0.747 -0.3154 -0.2709 -0.1900
 6656SOL    HW131604   0.023   4.024   0.744 -0.2567 -0.3231 -0.3727
 6656SOL    HW231605   0.022   3.882   0.790  0.9705  2.2332  1.9493
 6657SOL     OW31606   2.549   3.909   8.184 -0.4207 -0.2310  0.5581
 6657SOL    HW131607   2.507   3.986   8.147  1.2150  0.5873  0.3836
 6657SOL    HW231608   2.517   3.844   8.121 -1.0566  0.2504  0.3898
 6658SOL     OW31609   0.138   2.875   4.271  0.0247 -0.0733 -0.1061
 6658SOL    HW131610   0.190   2.808   4.227  1.1870  1.1777 -0.6375
 6658SOL    HW231611   0.197   2.901   4.341 -0.5045  2.6932 -0.6745
 6659SOL     OW31612   4.471   1.054   5.521 -0.1452  0.4580  0.5764
 6659SOL    HW131613   4.493   1.142   5.490 -1.1737  0.3529 -0.4586
 6659SOL    HW231614   4.439   1.007   5.444 -0.2814 -0.5147  1.2313
 6660SOL     OW31615   4.241   1.698  16.136  0.0967 -0.2947 -0.2372
 6660SOL    HW131616   4.305   1.627  16.136  1.3832  0.8544  1.7977
 6660SOL    HW231617   4.263   1.746  16.216 -1.1807 -2.1458  1.2335
 6661SOL     OW31618   0.726   0.072   5.851 -0.1169  0.1391 -0.5646
 6661SOL    HW131619   0.688   4.737   5.805 -0.9759  0.4937 -0.4154
 6661SOL    HW231620   0.820   0.057   5.841 -0.0786 -0.0174  0.0351
 6662SOL     OW31621   0.030   2.439   4.891  0.6722  0.0643 -0.4514
 6662SOL    HW131622   0.108   2.397   4.929 -0.5616 -0.9884  0.9268
 6662SOL    HW231623   4.727   2.358   4.864 -1.3964  1.8301 -2.3321
 6663SOL     OW31624   2.640   3.010  10.923 -0.1991  0.8805  0.1892
 6663SOL    HW131625   2.676   2.992  10.836  0.5334  1.8751  0.2885
 6663SOL    HW231626   2.706   3.038  10.986 -2.9633  1.1250  2.9504
 6664SOL     OW31627   0.817   4.372  10.308 -0.3559  0.1090 -0.2835
 6664SOL    HW131628   0.723   4.366  10.320 -0.0472 -0.8023  1.7466
 6664SOL    HW231629   0.820   4.380  10.213  4.4417  0.3458 -0.1529
 6665SOL     OW31630   3.791   3.582   9.920  0.2991  0.5633 -0.9534
 6665SOL    HW131631   3.774   3.633   9.841 -0.4992 -0.0067 -1.1516
 6665SOL    HW231632   3.789   3.493   9.885 -4.2367  0.4208 -0.3378
 6666SOL     OW31633   0.907   2.549   6.431 -0.0703  0.4411  0.3524
 6666SOL    HW131634   0.912   2.454   6.441 -1.3640  0.4453  1.0821
 6666SOL    HW231635   0.930   2.565   6.340 -0.5437 -0.8724 -0.0055
 6667SOL     OW31636   3.499   0.819   5.045 -0.2628 -0.3271 -0.6809
 6667SOL    HW131637   3.508   0.830   4.951 -1.7289 -0.2483 -0.8131
 6667SOL    HW231638   3.502   0.912   5.065  0.8696 -0.3328 -0.8098
 6668SOL     OW31639   4.494   0.809   7.373  1.0173  0.1282 -0.0937
 6668SOL    HW131640   4.491   0.897   7.410 -2.0935  1.1800 -2.8697
 6668SOL    HW231641   4.463   0.818   7.283 -0.7589  1.1440  0.6217
 6669SOL     OW31642   0.452   0.083   2.914  0.3141 -0.0458  0.4908
 6669SOL    HW131643   0.368   0.112   2.949  0.1141 -0.9813  0.7785
 6669SOL    HW231644   0.469   0.163   2.863  0.3424  1.0959  2.2803
 6670SOL     OW31645   1.973   4.271   1.122  0.4247 -0.0873  0.0597
 6670SOL    HW131646   2.016   4.310   1.046  0.5307 -2.2735 -0.9876
 6670SOL    HW231647   2.024   4.190   1.119 -0.4571 -0.6127 -0.3442
 6671SOL     OW31648   4.299   0.377  12.205 -0.2157  0.3308 -0.8511
 6671SOL    HW131649   4.255   0.408  12.284  0.5596  0.8380 -0.6315
 6671SOL    HW231650   4.366   0.443  12.187  0.0093 -0.0858 -1.5496
 6672SOL     OW31651   3.582   2.764   0.103  0.6272  0.1390 -0.3643
 6672SOL    HW131652   3.552   2.848   0.139 -1.9985  0.1895 -2.6669
 6672SOL    HW231653   3.661   2.760   0.157  1.7172 -0.7869 -2.0298
 6673SOL     OW31654   1.064   1.672   2.467 -0.1768  0.4634 -0.4216
 6673SOL    HW131655   1.157   1.675   2.489 -0.1075 -0.9150 -0.5509
 6673SOL    HW231656   1.064   1.584   2.428  2.6608 -0.5134  1.8338
 6674SOL     OW31657   1.506   1.060   7.986  0.4482 -0.2318  0.1272
 6674SOL    HW131658   1.477   0.986   8.038  0.5082  0.2671  0.8769
 6674SOL    HW231659   1.595   1.033   7.962  1.0267  0.5979  1.3086
 6675SOL     OW31660   3.511   3.451   9.327  0.0857 -0.2787  0.3214
 6675SOL    HW131661   3.596   3.492   9.314  0.6908 -1.2215  1.4053
 6675SOL    HW231662   3.451   3.498   9.268  0.8051 -0.8103 -0.8337
 6676SOL     OW31663   4.531   3.531   7.321  0.3797  0.6052 -0.0217
 6676SOL    HW131664   4.472   3.519   7.247  0.0055  1.3358  0.1594
 6676SOL    HW231665   4.618   3.500   7.297 -1.7653 -4.2940 -1.3254
 6677SOL     OW31666   3.905   4.657   8.771  0.1956 -0.0693  0.4845
 6677SOL    HW131667   3.950   4.585   8.815 -0.3726 -1.7155 -1.6727
 6677SOL    HW231668   3.848   4.689   8.840  0.5427 -1.4203  1.3915
 6678SOL     OW31669   2.188   2.215   5.910  0.1864 -0.4058 -0.1049
 6678SOL    HW131670   2.128   2.140   5.907  0.0158 -0.3375  1.3694
 6678SOL    HW231671   2.225   2.224   5.822  0.6985 -1.9537 -0.0402
 6679SOL     OW31672   4.733   2.558   5.541  0.2323  0.2817 -0.3824
 6679SOL    HW131673   4.662   2.588   5.597 -0.1531  1.0690 -1.2898
 6679SOL    HW231674   0.052   2.633   5.536 -0.0985  0.7022  2.0859
 6680SOL     OW31675   3.236   3.274   1.478 -0.1062  0.3143 -0.5987
 6680SOL    HW131676   3.147   3.238   1.477  0.7559 -1.8339 -0.5913
 6680SOL    HW231677   3.256   3.264   1.571 -1.5309 -1.8799 -0.5273
 6681SOL     OW31678   4.540   4.314   8.136 -0.3252  0.0446  0.1424
 6681SOL    HW131679   4.461   4.362   8.160 -0.5460 -0.3422  0.1787
 6681SOL    HW231680   4.580   4.312   8.224 -1.5892  1.1947  0.7392
 6682SOL     OW31681   0.540   2.159   7.210 -0.1392  0.6587  0.1079
 6682SOL    HW131682   0.571   2.215   7.282 -0.8608  1.0470  0.1174
 6682SOL    HW231683   0.616   2.116   7.172 -1.9996 -2.3123 -0.2455
 6683SOL     OW31684   3.520   0.205  15.394 -0.2593  0.2919  0.0026
 6683SOL    HW131685   3.527   0.130  15.334  1.7287  0.5578 -0.0900
 6683SOL    HW231686   3.425   0.197  15.409 -0.1470  0.5529  0.8544
 6684SOL     OW31687   2.537   4.246  10.325 -0.1196  0.2831  0.0599
 6684SOL    HW131688   2.522   4.284  10.412 -0.6944 -1.4723  0.7476
 6684SOL    HW231689   2.609   4.296  10.287 -1.5183  1.9489 -0.4019
 6685SOL     OW31690   1.319   3.904   3.379 -0.0090  0.2619 -0.1768
 6685SOL    HW131691   1.393   3.940   3.331  0.1353  1.0010  0.5885
 6685SOL    HW231692   1.260   3.978   3.366 -0.1246  0.3191  0.6327
 6686SOL     OW31693   2.197   0.394  16.970 -0.8021  0.0824  0.6209
 6686SOL    HW131694   2.150   0.333  17.027 -2.0489  0.3497 -0.1275
 6686SOL    HW231695   2.185   0.358  16.882  0.0896  2.1988 -0.3743
 6687SOL     OW31696   1.138   3.916   1.093  0.7115 -0.3221  0.0552
 6687SOL    HW131697   1.189   3.978   1.042 -0.9225  0.3735 -0.7159
 6687SOL    HW231698   1.129   3.966   1.174 -1.6626  1.2011 -1.1739
 6688SOL     OW31699   1.138   1.264  11.060  0.1700  0.1486 -0.2602
 6688SOL    HW131700   1.222   1.238  11.097  0.1806 -0.4721 -0.7144
 6688SOL    HW231701   1.178   1.309  10.986  2.7483 -1.6940  0.0082
 6689SOL     OW31702   3.575   4.545  16.805 -0.0865  0.1410  0.1484
 6689SOL    HW131703   3.519   4.469  16.823 -1.0082  0.2264 -2.3754
 6689SOL    HW231704   3.566   4.550  16.710  1.5806 -0.0920 -0.0337
 6690SOL     OW31705   2.926   4.180   8.433 -0.2225 -0.5869 -0.7774
 6690SOL    HW131706   3.021   4.173   8.443 -0.2553  0.6192  0.3106
 6690SOL    HW231707   2.901   4.090   8.414 -1.2083 -0.6443  0.8357
 6691SOL     OW31708   3.857   4.572   6.023 -0.2669  0.3092  0.0127
 6691SOL    HW131709   3.948   4.547   6.037 -0.1202  2.3290  2.8055
 6691SOL    HW231710   3.824   4.482   6.017 -0.9428  0.6952 -1.7535
 6692SOL     OW31711   4.330   0.943   0.835  0.0751 -0.1834  0.0387
 6692SOL    HW131712   4.335   0.901   0.749 -0.5940  0.8958 -0.5382
 6692SOL    HW231713   4.252   0.998   0.822  0.4139  0.4071  0.4867
 6693SOL     OW31714   1.716   0.328  17.747 -0.1558  0.4768  0.6419
 6693SOL    HW131715   1.773   0.284   0.053  0.6250  0.3258 -0.1868
 6693SOL    HW231716   1.637   0.328   0.045 -0.1850  1.5960  0.6004
 6694SOL     OW31717   2.779   1.513   4.971 -0.1667  0.5931  0.7049
 6694SOL    HW131718   2.809   1.603   4.967  0.3942  0.3058 -1.5630
 6694SOL    HW231719   2.700   1.526   4.918 -0.1974  0.9845  0.8483
 6695SOL     OW31720   0.916   0.395   2.329 -0.2174  0.2108 -0.0084
 6695SOL    HW131721   0.912   0.490   2.330  1.7465  0.3048 -0.1520
 6695SOL    HW231722   0.907   0.375   2.236 -0.5994  3.2148 -0.5920
 6696SOL     OW31723   3.529   1.796  17.306  0.2712 -0.1140  0.1723
 6696SOL    HW131724   3.437   1.774  17.294  0.4665 -0.3803 -0.7932
 6696SOL    HW231725   3.558   1.708  17.328  0.5577 -0.1280 -0.2609
 6697SOL     OW31726   0.021   4.136   2.197  0.2161  0.0725 -0.4053
 6697SOL    HW131727   0.022   4.203   2.266  1.7374 -1.8471  1.4016
 6697SOL    HW231728   0.047   4.059   2.247  3.4189  1.7140  0.5229
 6698SOL     OW31729   0.955   4.434   3.963  0.2958 -0.2283  0.0283
 6698SOL    HW131730   0.932   4.341   3.970 -0.2569 -0.1792 -1.1339
 6698SOL    HW231731   0.883   4.489   3.996 -0.3154  0.5702 -2.6914
 6699SOL     OW31732   3.993   0.908   7.896 -0.1301 -0.4867  0.7372
 6699SOL    HW131733   4.010   0.978   7.958 -1.6741  0.3536  0.2243
 6699SOL    HW231734   3.916   0.870   7.937  0.6092  0.8240  3.3164
 6700SOL     OW31735   0.705   2.981   2.281  0.6968  0.0167  1.0186
 6700SOL    HW131736   0.703   3.074   2.305  2.4033 -0.6428  3.6260
 6700SOL    HW231737   0.611   2.968   2.272  0.9353 -0.9248 -0.1906
 6701SOL     OW31738   1.518   1.556  12.685  0.1961 -0.0991  0.3892
 6701SOL    HW131739   1.547   1.644  12.711 -0.7627 -0.4357  2.6066
 6701SOL    HW231740   1.485   1.580  12.598  1.3940  3.2850  0.8431
 6702SOL     OW31741   2.736   1.384   5.229 -0.3946  0.4762  0.0334
 6702SOL    HW131742   2.645   1.408   5.213 -0.7389 -0.4826  0.5285
 6702SOL    HW231743   2.773   1.449   5.170 -0.7379  0.0338 -0.6685
 6703SOL     OW31744   3.279   0.852  14.131 -0.1131  0.1520 -0.0525
 6703SOL    HW131745   3.310   0.931  14.088 -0.3963 -0.8539 -2.0985
 6703SOL    HW231746   3.183   0.857  14.131 -0.2196 -2.1056 -1.2383
 6704SOL     OW31747   4.599   3.992   7.381  0.2358 -0.0929  0.0166
 6704SOL    HW131748   4.639   4.000   7.295  1.0054 -1.3479  0.2550
 6704SOL    HW231749   4.639   3.913   7.416  2.7243  1.4585  0.6209
 6705SOL     OW31750   3.255   0.198   7.950 -0.0885 -0.4068  0.1559
 6705SOL    HW131751   3.263   0.114   7.996  0.5350  0.7896  2.2482
 6705SOL    HW231752   3.329   0.239   7.995  0.7379  1.1432 -2.6326
 6706SOL     OW31753   0.243   1.773   3.083  0.0452  0.2094  0.1801
 6706SOL    HW131754   0.228   1.755   2.990 -1.0484 -3.0993  0.9938
 6706SOL    HW231755   0.337   1.763   3.097  0.3010  1.1992 -0.7866
 6707SOL     OW31756   4.181   3.960   4.159  0.0026 -0.2706 -0.3463
 6707SOL    HW131757   4.243   3.960   4.086  1.4688  1.6904  0.8882
 6707SOL    HW231758   4.131   4.033   4.122  0.4058  1.0053  1.6154
 6708SOL     OW31759   1.602   0.420   1.573  0.0614 -0.4201 -0.0743
 6708SOL    HW131760   1.522   0.439   1.524 -0.5936  0.6654  1.4274
 6708SOL    HW231761   1.584   0.457   1.659  0.4627 -0.6581  0.1109
 6709SOL     OW31762   1.257   2.805   5.179 -0.4932 -0.4865  0.1721
 6709SOL    HW131763   1.241   2.848   5.263  0.2453  0.7443 -0.3184
 6709SOL    HW231764   1.345   2.842   5.170 -1.9503  3.0897  0.4967
 6710SOL     OW31765   3.153   1.141   6.581 -0.6180  0.3147 -0.4091
 6710SOL    HW131766   3.172   1.054   6.617  0.3009  0.2611 -1.0305
 6710SOL    HW231767   3.239   1.181   6.594  0.0231 -1.0874 -0.3738
 6711SOL     OW31768   1.501   2.889   5.286 -0.9928  0.3193  0.2809
 6711SOL    HW131769   1.576   2.873   5.344 -2.2406  0.9972  2.1030
 6711SOL    HW231770   1.540   2.962   5.239 -2.4765  0.5037 -0.6813
 6712SOL     OW31771   4.310   3.107   3.581 -0.1533  0.1664 -0.1270
 6712SOL    HW131772   4.249   3.081   3.513 -2.1994  0.1923  1.7176
 6712SOL    HW231773   4.258   3.155   3.646  1.2296  3.4134 -1.3930
 6713SOL     OW31774   4.099   2.834  10.006 -0.0383 -0.2359  1.0019
 6713SOL    HW131775   4.162   2.890   9.962  0.5512 -1.9954 -0.3914
 6713SOL    HW231776   4.148   2.752  10.018 -0.0211 -0.5525 -1.1752
 6714SOL     OW31777   4.262   3.081   7.076 -0.3358  0.4626 -0.2510
 6714SOL    HW131778   4.209   3.005   7.101 -1.2902  0.8052 -1.2328
 6714SOL    HW231779   4.335   3.072   7.138 -1.5770 -0.8167  1.0191
 6715SOL     OW31780   2.675   0.644   8.447  0.0477  0.0487 -0.2120
 6715SOL    HW131781   2.745   0.703   8.420  0.2543 -0.3224 -0.4920
 6715SOL    HW231782   2.718   0.563   8.475 -0.2073 -0.1017 -0.2520
 6716SOL     OW31783   0.601   3.426   8.093 -0.2996  0.1975 -0.1058
 6716SOL    HW131784   0.595   3.354   8.030 -3.7059  0.9041 -0.6020
 6716SOL    HW231785   0.647   3.375   8.160 -1.5213 -0.0930  0.5117
 6717SOL     OW31786   3.168   2.701   1.008 -0.4832 -0.2415 -0.1101
 6717SOL    HW131787   3.096   2.639   1.005  1.3661 -2.3643 -0.7667
 6717SOL    HW231788   3.136   2.761   0.940 -1.5309 -0.4683  0.1909
 6718SOL     OW31789   4.640   0.885   0.437 -0.0485 -0.1983 -0.1130
 6718SOL    HW131790   4.623   0.930   0.354 -1.2727 -0.2204  0.1153
 6718SOL    HW231791   4.688   0.958   0.474  2.0605 -0.8176 -1.6704
 6719SOL     OW31792   2.148   2.940  12.833 -0.8175  0.3528 -0.2520
 6719SOL    HW131793   2.237   2.906  12.841 -1.3079 -1.4620 -2.5286
 6719SOL    HW231794   2.102   2.857  12.819  2.3325 -1.3682 -0.3706
 6720SOL     OW31795   4.686   0.760   5.760  0.0878 -0.2483 -0.0219
 6720SOL    HW131796   4.608   0.792   5.804 -1.8146 -4.0202 -0.7073
 6720SOL    HW231797   4.643   0.701   5.699  2.3125  0.8691 -2.6960
 6721SOL     OW31798   0.538   3.340   4.994 -0.8272 -0.0917 -0.0995
 6721SOL    HW131799   0.467   3.277   5.007  0.0122 -1.2658 -1.1695
 6721SOL    HW231800   0.591   3.280   4.941 -0.5223 -1.1838  1.4374
 6722SOL     OW31801   1.920   2.973   6.519  0.0077  0.9831  0.0074
 6722SOL    HW131802   1.977   3.015   6.455 -0.5165 -0.8620 -1.6916
 6722SOL    HW231803   1.986   2.956   6.586 -0.8005 -1.9670  0.0495
 6723SOL     OW31804   3.693   4.461  10.711  0.2170  0.1017 -0.0884
 6723SOL    HW131805   3.740   4.524  10.765  0.8504  0.3005 -0.8771
 6723SOL    HW231806   3.656   4.403  10.779  2.3139 -0.5050  0.5177
 6724SOL     OW31807   2.777   0.257   2.087 -0.4531  0.0776 -0.6071
 6724SOL    HW131808   2.715   0.192   2.054 -0.5228 -0.6290  0.8851
 6724SOL    HW231809   2.748   0.246   2.178  2.4891 -0.2585  0.3142
 6725SOL     OW31810   4.695   0.334   5.980  0.1272  0.2514 -0.0702
 6725SOL    HW131811   0.049   0.317   5.994 -0.1489  0.8472  2.6018
 6725SOL    HW231812   4.694   0.429   5.988 -0.1600  0.3322 -1.1078
 6726SOL     OW31813   3.273   1.548   7.826  0.7285 -0.1315  0.8075
 6726SOL    HW131814   3.184   1.552   7.792  1.6428 -1.2278 -1.7346
 6726SOL    HW231815   3.303   1.634   7.795  2.3180 -2.1082 -3.0804
 6727SOL     OW31816   1.038   1.723   7.942  0.0168  0.3162  0.5830
 6727SOL    HW131817   1.113   1.782   7.933  0.1709  0.1966  1.0719
 6727SOL    HW231818   1.085   1.645   7.972  1.2695  0.3422 -1.3272
 6728SOL     OW31819   2.067   3.642   8.533  0.4221  0.0790  0.4340
 6728SOL    HW131820   2.015   3.620   8.611 -0.4363  1.3033  0.2088
 6728SOL    HW231821   2.102   3.554   8.522  2.5199  0.9950 -0.1700
 6729SOL     OW31822   1.962   1.906   4.008 -0.5709  0.1953 -0.1681
 6729SOL    HW131823   1.964   1.825   4.058  0.9032 -1.3905 -2.7867
 6729SOL    HW231824   1.975   1.872   3.919  1.8428  0.6778 -0.0016
 6730SOL     OW31825   2.188   4.490   2.843  0.4014  0.1624  0.1878
 6730SOL    HW131826   2.228   4.431   2.779  0.0008 -1.5299  1.4901
 6730SOL    HW231827   2.265   4.540   2.870  0.3123 -0.3958  1.4775
 6731SOL     OW31828   4.220   1.564   7.265 -0.0951  0.0669  0.1437
 6731SOL    HW131829   4.307   1.595   7.290 -0.2989  1.6997 -1.1039
 6731SOL    HW231830   4.162   1.627   7.307 -0.3879  0.4258 -0.7805
 6732SOL     OW31831   3.596   1.674   6.330  0.7391 -0.7221 -0.9975
 6732SOL    HW131832   3.609   1.665   6.235 -1.6569  0.0762 -1.4213
 6732SOL    HW231833   3.655   1.749   6.339  0.1549 -0.4514  0.4561
 6733SOL     OW31834   2.112   3.981   7.492  0.2441 -0.3542  0.3792
 6733SOL    HW131835   2.017   3.986   7.501  0.1228  0.3881 -1.2646
 6733SOL    HW231836   2.133   3.890   7.471  0.5092 -0.2030 -0.0227
 6734SOL     OW31837   0.009   0.425   1.322 -0.0477 -0.2201  0.2318
 6734SOL    HW131838   4.708   0.412   1.408 -1.5531 -0.6592 -0.5368
 6734SOL    HW231839   4.675   0.460   1.272  0.8339  0.5440 -0.5277
 6735SOL     OW31840   4.259   0.589   9.093 -0.3056 -0.0777  0.1397
 6735SOL    HW131841   4.322   0.640   9.044 -0.4764  0.3795  0.3959
 6735SOL    HW231842   4.288   0.592   9.184 -1.2267  0.5406  0.4159
 6736SOL     OW31843   2.602   4.592   0.805  0.3386  0.1590 -0.3293
 6736SOL    HW131844   2.669   4.588   0.736 -0.6422 -1.5843 -1.1821
 6736SOL    HW231845   2.525   4.599   0.750 -1.2481  0.5139  1.9550
 6737SOL     OW31846   0.736   0.664  12.006  0.1757  0.4818 -0.1066
 6737SOL    HW131847   0.811   0.625  11.960  1.6053 -0.3396  2.8756
 6737SOL    HW231848   0.775   0.743  12.043  0.8883 -0.9342  2.1727
 6738SOL     OW31849   1.917   2.561   9.403 -0.0877  0.0555 -0.0812
 6738SOL    HW131850   1.836   2.512   9.414  0.2553 -0.7986 -1.4389
 6738SOL    HW231851   1.870   2.644   9.399 -0.8265 -0.3604 -0.0876
 6739SOL     OW31852   1.610   1.079   5.325  0.2765 -0.4962 -0.0283
 6739SOL    HW131853   1.669   1.112   5.393  0.7485  0.8725 -1.1001
 6739SOL    HW231854   1.637   0.987   5.331 -1.8327 -1.0954  0.1404
 6740SOL     OW31855   0.782   3.764   6.522 -0.6390 -0.3099 -0.1711
 6740SOL    HW131856   0.727   3.829   6.478  0.8134  0.4085 -0.9149
 6740SOL    HW231857   0.768   3.697   6.454  1.2485 -0.2932 -0.5852
 6741SOL     OW31858   3.506   0.194   2.318  0.3546 -0.6520  0.1291
 6741SOL    HW131859   3.424   0.194   2.268  1.9084  2.5625 -2.4113
 6741SOL    HW231860   3.564   0.235   2.254 -0.9619  1.2395  0.1547
 6742SOL     OW31861   4.680   0.486  17.253  0.1353  0.2664 -0.4250
 6742SOL    HW131862   4.600   0.438  17.233 -0.7959  1.2744  0.8763
 6742SOL    HW231863   4.679   0.555  17.186  0.9193 -1.0306 -1.7645
 6743SOL     OW31864   1.714   0.166   9.742  0.2952  0.2178 -0.1360
 6743SOL    HW131865   1.740   0.126   9.825 -0.1581  0.2418  0.0186
 6743SOL    HW231866   1.634   0.114   9.732  2.6713 -2.8461 -3.2131
 6744SOL     OW31867   3.552   3.219   0.938  0.2731 -0.3656 -0.6654
 6744SOL    HW131868   3.612   3.145   0.930 -4.1395 -3.8397 -1.9149
 6744SOL    HW231869   3.600   3.284   0.989  0.8987 -2.5713  1.5867
 6745SOL     OW31870   4.124   4.517   6.113 -0.1117 -0.0413  0.6858
 6745SOL    HW131871   4.148   4.496   6.023  0.3709 -0.9822  1.0260
 6745SOL    HW231872   4.199   4.481   6.161  0.2158 -0.1474  0.0815
 6746SOL     OW31873   4.318   2.835   6.397  0.0450  0.4956  0.6121
 6746SOL    HW131874   4.299   2.917   6.443 -0.5792  0.8043 -0.2154
 6746SOL    HW231875   4.385   2.859   6.333 -2.2764  1.9638 -1.2451
 6747SOL     OW31876   4.652   2.807   3.119 -0.3215 -0.5272  0.2070
 6747SOL    HW131877   4.704   2.729   3.140 -0.0063 -0.4726 -0.3715
 6747SOL    HW231878   4.688   2.874   3.177  0.2181 -0.2210 -0.4830
 6748SOL     OW31879   4.405   3.080   1.055  0.0152  0.0482  0.3517
 6748SOL    HW131880   4.387   3.155   1.112 -1.3082  0.1628 -0.2093
 6748SOL    HW231881   4.428   3.011   1.117 -1.2613 -0.5243  0.1895
 6749SOL     OW31882   0.370   0.770   4.668  0.3640 -1.0497  0.4153
 6749SOL    HW131883   0.286   0.735   4.638  1.0842 -2.2546 -0.2526
 6749SOL    HW231884   0.376   0.844   4.607  2.3879 -1.9402 -0.4668
 6750SOL     OW31885   3.481   3.842   1.721  0.1841  0.1051 -0.4986
 6750SOL    HW131886   3.480   3.924   1.671  0.8101 -0.7886 -1.9482
 6750SOL    HW231887   3.476   3.772   1.657  1.6254  0.5534 -1.0978
 6751SOL     OW31888   4.561   0.773   3.436 -0.3899 -0.3783 -0.5907
 6751SOL    HW131889   4.617   0.710   3.482  2.8933  3.7221  0.9979
 6751SOL    HW231890   4.604   0.855   3.460  0.2399 -1.0185  0.4849
 6752SOL     OW31891   0.773   1.892  14.157 -0.1358 -0.7363 -0.0451
 6752SOL    HW131892   0.848   1.834  14.143  0.9666  0.1570  2.0462
 6752SOL    HW231893   0.697   1.834  14.162 -1.4735  0.8362 -2.3461
 6753SOL     OW31894   0.866   4.075  13.393 -0.2645 -0.1521 -0.0892
 6753SOL    HW131895   0.944   4.031  13.358 -0.5296 -0.3872 -0.3895
 6753SOL    HW231896   0.865   4.165  13.360  0.8528 -0.3754 -0.7572
 6754SOL     OW31897   3.639   4.587   5.517  0.0111  0.8123 -0.1643
 6754SOL    HW131898   3.612   4.673   5.549 -0.6582  1.0517 -1.3560
 6754SOL    HW231899   3.705   4.563   5.582 -1.6565  1.3080  1.7125
 6755SOL     OW31900   3.520   1.725   3.324 -0.6033 -0.9622 -0.1726
 6755SOL    HW131901   3.524   1.819   3.309 -0.5542 -0.8566  0.5180
 6755SOL    HW231902   3.589   1.687   3.270 -0.6497 -0.3223 -0.6780
 6756SOL     OW31903   1.200   2.675   6.312  0.0272 -0.8399 -0.1551
 6756SOL    HW131904   1.251   2.710   6.239 -0.4925  0.6432  0.1761
 6756SOL    HW231905   1.154   2.606   6.265  1.4406 -1.0109 -1.2764
 6757SOL     OW31906   2.444   0.087   2.326  0.6141 -0.7582 -0.6383
 6757SOL    HW131907   2.364   0.064   2.373  0.8034  0.3774  0.2527
 6757SOL    HW231908   2.430   0.176   2.293 -0.3109  0.1903  2.2802
 6758SOL     OW31909   0.467   0.635   0.709  0.2448  0.8214  0.0355
 6758SOL    HW131910   0.400   0.605   0.647  0.5260 -0.7332  0.4817
 6758SOL    HW231911   0.543   0.589   0.672  0.8376  0.7719  1.3099
 6759SOL     OW31912   2.302   3.704   0.131 -0.5616  0.2205 -0.1176
 6759SOL    HW131913   2.272   3.784   0.087  1.1152 -0.0649 -1.7883
 6759SOL    HW231914   2.354   3.669   0.058 -2.9264 -2.8479 -0.2748
 6760SOL     OW31915   2.472   1.098   8.918  0.2447  0.0925 -0.2254
 6760SOL    HW131916   2.398   1.154   8.891  0.9089  0.3169 -1.5895
 6760SOL    HW231917   2.425   1.015   8.925 -0.4552  0.6156  1.4594
 6761SOL     OW31918   2.730   3.778  15.078  0.0506 -0.7655  0.8376
 6761SOL    HW131919   2.658   3.795  15.017 -0.7254 -1.9150  1.4307
 6761SOL    HW231920   2.788   3.850  15.054  2.0199 -2.0142  1.8313
 6762SOL     OW31921   0.061   0.343   4.955 -0.2344 -0.1401 -0.7924
 6762SOL    HW131922   4.732   0.299   4.904 -0.1517 -1.6002  0.3410
 6762SOL    HW231923   0.142   0.298   4.933 -0.3767 -0.3959 -0.7905
 6763SOL     OW31924   0.624   0.567  15.011 -0.0622  0.0257  0.2134
 6763SOL    HW131925   0.715   0.542  14.996 -0.5003 -0.4314 -1.7397
 6763SOL    HW231926   0.627   0.624  15.088  2.7368 -1.5381  1.2381
 6764SOL     OW31927   2.088   4.675   6.129 -0.3102  0.1492  0.0731
 6764SOL    HW131928   2.108   0.029   6.121  1.3897 -0.0775  1.6470
 6764SOL    HW231929   2.165   4.636   6.089 -1.7709  0.3713 -2.9442
 6765SOL     OW31930   2.747   4.455   5.309  0.2104  0.1504  0.4090
 6765SOL    HW131931   2.681   4.525   5.317  0.6683  0.4718  1.3441
 6765SOL    HW231932   2.813   4.485   5.371  1.5648 -0.0693 -0.9462
 6766SOL     OW31933   2.714   2.496   2.218 -0.4477  0.1507 -0.1000
 6766SOL    HW131934   2.699   2.512   2.311 -1.3455  0.3751 -0.2875
 6766SOL    HW231935   2.809   2.502   2.209 -0.6217  1.3209 -1.1377
 6767SOL     OW31936   0.398   2.122   5.395  0.3231  0.1887 -0.0338
 6767SOL    HW131937   0.315   2.161   5.424 -0.2249 -0.9165 -0.1050
 6767SOL    HW231938   0.464   2.191   5.401 -0.1588  0.8636 -2.3084
 6768SOL     OW31939   4.128   1.678   9.390  0.0845 -0.0726  0.0040
 6768SOL    HW131940   4.136   1.611   9.321  0.4676 -0.1260  0.1021
 6768SOL    HW231941   4.183   1.749   9.358  0.3069  0.0127  0.5682
 6769SOL     OW31942   0.879   2.827   5.712 -0.0907  0.8667  0.0535
 6769SOL    HW131943   0.927   2.869   5.641 -0.5313  0.2289 -0.6126
 6769SOL    HW231944   0.948   2.774   5.752  1.1808  2.2297 -0.3000
 6770SOL     OW31945   2.103   0.393   5.530  0.1154  0.2639  0.2654
 6770SOL    HW131946   2.067   0.468   5.482 -0.6909 -0.0332  0.4088
 6770SOL    HW231947   2.197   0.410   5.540  0.6483 -0.9874 -2.8105
 6771SOL     OW31948   2.032   0.354   4.164  0.2612 -0.0943 -0.2993
 6771SOL    HW131949   2.104   0.292   4.176 -0.9471 -1.5044 -0.4697
 6771SOL    HW231950   1.990   0.321   4.085 -0.7495  0.8914 -0.1817
 6772SOL     OW31951   2.261   0.352   7.513 -0.1681 -0.1752 -0.4322
 6772SOL    HW131952   2.294   0.341   7.424 -0.0582  1.1954 -0.5515
 6772SOL    HW231953   2.185   0.407   7.498 -1.4967 -1.8823  0.0183
 6773SOL     OW31954   0.592   3.805  13.707 -0.3532  0.0846  0.2722
 6773SOL    HW131955   0.566   3.850  13.788 -0.7590 -1.8449  1.2135
 6773SOL    HW231956   0.657   3.738  13.730 -2.6243 -1.9341  0.8551
 6774SOL     OW31957   1.109   2.125   4.163  0.0125 -0.6843 -1.1666
 6774SOL    HW131958   1.054   2.197   4.129 -0.5625 -1.6265 -2.2227
 6774SOL    HW231959   1.050   2.070   4.214 -1.1786 -0.2673 -2.1005
 6775SOL     OW31960   2.974   3.249   4.501 -0.0719  0.3065 -0.3464
 6775SOL    HW131961   2.925   3.326   4.528  1.6239  1.2175  0.1322
 6775SOL    HW231962   2.914   3.188   4.457 -0.9656 -0.2478  1.6367
 6776SOL     OW31963   1.381   4.221   4.055  0.5255  0.2005 -0.2417
 6776SOL    HW131964   1.460   4.258   4.015 -1.4522  0.6501 -3.7561
 6776SOL    HW231965   1.388   4.130   4.026 -0.9776 -0.0530  0.1845
 6777SOL     OW31966   0.362   3.747   3.828  0.0041  0.0095 -0.1315
 6777SOL    HW131967   0.388   3.839   3.827 -0.2449  0.0804 -0.1858
 6777SOL    HW231968   0.272   3.752   3.794  0.7709 -1.7174 -2.4692
 6778SOL     OW31969   1.999   0.263   2.283  0.4607  0.4398  0.1103
 6778SOL    HW131970   1.926   0.214   2.320  1.3857 -0.4907  0.7277
 6778SOL    HW231971   1.990   0.235   2.192 -0.0883 -0.1523  0.3475
 6779SOL     OW31972   4.256   1.140   4.496 -0.2693 -0.2430  0.2994
 6779SOL    HW131973   4.333   1.165   4.548  0.8945 -0.9915 -1.0760
 6779SOL    HW231974   4.190   1.149   4.565 -1.0814  1.4306 -0.6909
 6780SOL     OW31975   1.901   1.173  14.054 -0.6021 -0.6600  0.0727
 6780SOL    HW131976   1.938   1.195  14.139  1.1024 -0.1705 -0.7834
 6780SOL    HW231977   1.906   1.258  14.011  2.8999  0.6495  3.0761
 6781SOL     OW31978   4.549   1.519   6.671 -0.3751 -0.5924  0.2495
 6781SOL    HW131979   4.475   1.481   6.625  0.2877  0.1590 -1.4143
 6781SOL    HW231980   4.604   1.522   6.593 -0.6755  2.5307  0.1810
 6782SOL     OW31981   0.516   1.481   9.078 -0.0436  0.2871 -0.5335
 6782SOL    HW131982   0.588   1.495   9.017 -0.2498 -0.7470 -1.0029
 6782SOL    HW231983   0.498   1.570   9.111 -0.6288 -0.6252  1.6273
 6783SOL     OW31984   0.726   1.866  12.406 -0.7717 -0.1354  0.2498
 6783SOL    HW131985   0.817   1.842  12.394 -0.9437 -0.3727 -0.5541
 6783SOL    HW231986   0.708   1.826  12.491 -0.0837 -2.5583 -0.7783
 6784SOL     OW31987   1.205   2.740   2.496  0.2103 -0.2716  0.2553
 6784SOL    HW131988   1.244   2.691   2.424 -0.3790 -2.9346  1.7214
 6784SOL    HW231989   1.278   2.793   2.529 -1.4370  3.2632 -1.8627
 6785SOL     OW31990   1.201   1.208   3.912  0.7546 -0.0286  0.4756
 6785SOL    HW131991   1.292   1.198   3.885  0.9066  0.5206  0.7971
 6785SOL    HW231992   1.202   1.210   4.008 -0.1765 -0.9566  0.5159
 6786SOL     OW31993   1.833   3.949  16.710  0.1465  0.1529  0.5280
 6786SOL    HW131994   1.749   3.904  16.702  1.5023 -1.9907 -1.7953
 6786SOL    HW231995   1.832   3.953  16.805 -0.2933  0.4533  0.5070
 6787SOL     OW31996   0.084   3.192   2.482  0.6225  0.4486 -0.4189
 6787SOL    HW131997   0.097   3.098   2.494  1.2474  0.9170  2.4970
 6787SOL    HW231998   0.152   3.205   2.416  0.3285  0.6584 -0.6797
 6788SOL     OW31999   3.301   4.555   3.353 -0.0657 -0.0486 -0.1295
 6788SOL    HW132000   3.329   4.466   3.333  1.6880  0.0712  1.7854
 6788SOL    HW232001   3.303   4.562   3.448 -1.6967  0.5572 -0.1479
 6789SOL     OW32002   2.651   3.105   1.668  0.6829 -0.6722 -0.1116
 6789SOL    HW132003   2.679   3.195   1.681  0.3736 -0.4878 -0.7195
 6789SOL    HW232004   2.606   3.110   1.583  0.0869 -0.5136  0.2123
 6790SOL     OW32005   4.253   4.475   0.347  0.4241 -0.0532  0.3142
 6790SOL    HW132006   4.242   4.482   0.252 -0.6486  1.9268  0.5828
 6790SOL    HW232007   4.338   4.433   0.359 -0.3880 -1.4342  1.3408
 6791SOL     OW32008   2.085   3.378   8.763  0.0142  0.3833 -0.8625
 6791SOL    HW132009   1.996   3.360   8.734  0.0512  0.4781 -1.0385
 6791SOL    HW232010   2.078   3.472   8.779 -0.4679  0.2894 -0.5570
 6792SOL     OW32011   0.944   4.455   9.646 -0.4418  0.2912  0.6956
 6792SOL    HW132012   1.000   4.378   9.656  0.9668  0.9881 -1.6970
 6792SOL    HW232013   0.861   4.408   9.636 -0.5022  0.4837  0.2753
 6793SOL     OW32014   2.822   4.299   7.093  0.1330  0.1876  0.5789
 6793SOL    HW132015   2.819   4.208   7.064 -0.3637  0.0062  1.1843
 6793SOL    HW232016   2.865   4.336   7.016 -1.4207  2.2846  0.7241
 6794SOL     OW32017   2.557   2.469  11.403 -0.5373  0.2185  0.1765
 6794SOL    HW132018   2.607   2.520  11.466 -0.7849  1.1750 -0.3962
 6794SOL    HW232019   2.591   2.504  11.321  0.8167  1.0924  1.1104
 6795SOL     OW32020   3.109   3.237   1.928 -0.3436  0.1990 -0.4213
 6795SOL    HW132021   3.083   3.328   1.942 -2.3813 -0.7777  2.0459
 6795SOL    HW232022   3.049   3.218   1.856  2.1690 -0.7216 -2.2688
 6796SOL     OW32023   1.459   0.590   2.157  0.0775 -0.4521  0.2070
 6796SOL    HW132024   1.467   0.495   2.157  2.7078 -0.2266 -1.1030
 6796SOL    HW232025   1.413   0.606   2.239 -0.9956  1.8240 -0.8313
 6797SOL     OW32026   1.606   2.289   3.096  0.1886  0.1865 -0.2617
 6797SOL    HW132027   1.669   2.242   3.041  1.5169 -0.2726  1.6671
 6797SOL    HW232028   1.608   2.374   3.051  1.9125 -0.3938 -1.2820
 6798SOL     OW32029   0.528   0.753  11.682 -0.2800 -0.3094 -0.2070
 6798SOL    HW132030   0.520   0.680  11.621 -1.2851 -0.6950  0.3864
 6798SOL    HW232031   0.498   0.725  11.768  0.8289 -0.2025  0.2166
 6799SOL     OW32032   3.040   1.685   6.557  0.5791 -0.1859  0.1869
 6799SOL    HW132033   3.124   1.641   6.543  0.6493  0.3902 -1.0921
 6799SOL    HW232034   3.050   1.768   6.512 -0.4512 -1.3580 -2.2019
 6800SOL     OW32035   1.398   3.540  12.124 -0.5634 -0.2643 -0.2927
 6800SOL    HW132036   1.305   3.544  12.103 -0.1006 -0.1172 -2.3609
 6800SOL    HW232037   1.436   3.625  12.102  0.0264 -0.4894 -0.1437
 6801SOL     OW32038   4.117   1.546   5.101  0.3502  0.1016 -0.3395
 6801SOL    HW132039   4.130   1.452   5.115  0.0173  0.1519  0.3251
 6801SOL    HW232040   4.050   1.560   5.169 -0.0570  2.9370 -1.3297
 6802SOL     OW32041   3.723   2.271  13.326  0.3466 -0.0145 -0.2818
 6802SOL    HW132042   3.702   2.301  13.414  1.1474 -2.0771  0.6073
 6802SOL    HW232043   3.701   2.350  13.276  3.3137  0.1140 -1.3708
 6803SOL     OW32044   3.118   3.607   0.661 -0.0866 -0.1371  0.2331
 6803SOL    HW132045   3.042   3.654   0.697 -0.6973 -0.7953 -0.2151
 6803SOL    HW232046   3.088   3.607   0.570  2.0886  0.9154 -0.4954
 6804SOL     OW32047   1.613   1.751   0.372 -0.3635 -0.0148  0.1441
 6804SOL    HW132048   1.638   1.843   0.376  0.1786 -0.1838  0.5776
 6804SOL    HW232049   1.608   1.719   0.462 -2.4766  0.2629  0.1339
 6805SOL     OW32050   2.679   3.548   3.862  0.3771  0.1865  0.4691
 6805SOL    HW132051   2.725   3.618   3.815 -1.8537  0.8005 -0.8039
 6805SOL    HW232052   2.587   3.564   3.841  0.2202  0.6701  1.5179
 6806SOL     OW32053   2.813   3.536  16.794  0.3356 -0.5349 -0.1212
 6806SOL    HW132054   2.723   3.505  16.799  0.9450 -1.6878  3.4449
 6806SOL    HW232055   2.802   3.629  16.814 -2.0590 -0.7436 -0.5764
 6807SOL     OW32056   2.147   3.545   1.481  0.1524 -0.0105  0.3429
 6807SOL    HW132057   2.110   3.525   1.394  2.2672  0.4155 -0.6564
 6807SOL    HW232058   2.162   3.453   1.504  2.2643  0.7575  2.0032
 6808SOL     OW32059   4.379   0.966  12.265  0.4437 -0.2836 -0.4626
 6808SOL    HW132060   4.296   0.987  12.307 -0.3559 -1.9289 -1.1886
 6808SOL    HW232061   4.363   0.893  12.204 -0.6453  0.8124 -1.4819
 6809SOL     OW32062   4.692   1.045   5.251 -0.6121 -0.1604 -0.6138
 6809SOL    HW132063   4.710   1.046   5.157  1.7357 -0.2929 -0.1882
 6809SOL    HW232064   0.035   1.086   5.279 -1.2662 -0.9799  2.4479
 6810SOL     OW32065   2.695   4.287  17.611 -0.2707  0.3843 -0.1383
 6810SOL    HW132066   2.748   4.256  17.538  0.8722 -0.0074  0.8584
 6810SOL    HW232067   2.610   4.300  17.569  0.2772  0.6217 -1.1656
 6811SOL     OW32068   2.062   1.986  12.184 -0.3835 -0.1418  0.5734
 6811SOL    HW132069   1.990   1.971  12.245 -2.0198 -0.8900 -1.5181
 6811SOL    HW232070   2.138   1.970  12.240 -0.7961 -0.2926  1.0919
 6812SOL     OW32071   0.708   1.500   4.987 -0.3795 -0.6811  0.7726
 6812SOL    HW132072   0.674   1.521   5.074  0.3344  1.3625  0.5501
 6812SOL    HW232073   0.626   1.505   4.937 -0.4818 -1.5836  0.8535
 6813SOL     OW32074   3.597   2.731  16.014 -0.6640 -0.2383  0.0122
 6813SOL    HW132075   3.588   2.824  15.992  2.1415  0.5898  2.3977
 6813SOL    HW232076   3.543   2.724  16.093  0.2977  2.3923  0.9205
 6814SOL     OW32077   0.093   2.362   3.366 -0.3711  0.3929 -0.1056
 6814SOL    HW132078   0.055   2.413   3.438  0.8753 -0.8043  1.3821
 6814SOL    HW232079   0.096   2.272   3.397 -0.3038  0.5065  0.2274
 6815SOL     OW32080   4.456   1.164   5.099  0.5830  0.1805 -0.2110
 6815SOL    HW132081   4.477   1.219   5.024  3.0531 -1.1625 -0.4831
 6815SOL    HW232082   4.534   1.180   5.152  0.5773  0.9901 -0.4565
 6816SOL     OW32083   4.640   2.981   6.042  0.0293  0.5282  0.5143
 6816SOL    HW132084   4.690   2.963   5.962 -2.5007 -1.3787 -0.6163
 6816SOL    HW232085   4.717   3.008   6.093 -0.0197 -0.1057  0.9187
 6817SOL     OW32086   4.145   2.082   5.242  0.0581  0.3031 -0.0759
 6817SOL    HW132087   4.096   2.162   5.262 -0.1649  0.2412 -0.3704
 6817SOL    HW232088   4.210   2.128   5.190  1.5498 -1.0251  0.6142
 6818SOL     OW32089   3.390   0.577  16.717  0.2880 -0.3294  0.4172
 6818SOL    HW132090   3.473   0.623  16.727  0.0870 -0.0881  0.9789
 6818SOL    HW232091   3.351   0.604  16.634  0.0063 -2.3135 -0.1085
 6819SOL     OW32092   1.729   3.734   8.953  0.0567  0.1089  0.3803
 6819SOL    HW132093   1.718   3.805   8.889 -0.7782 -0.0801  0.3216
 6819SOL    HW232094   1.671   3.776   9.016 -1.9372  0.0352 -1.4324
 6820SOL     OW32095   3.774   0.603  12.440 -0.0649  0.4537  0.3473
 6820SOL    HW132096   3.832   0.535  12.475 -1.3420 -0.2617  1.0706
 6820SOL    HW232097   3.734   0.560  12.365  0.0716  1.7472 -0.4708
 6821SOL     OW32098   0.120   1.058   8.048 -0.5230 -0.1215 -0.4098
 6821SOL    HW132099   0.055   1.030   8.112  0.6937  0.2782  1.0095
 6821SOL    HW232100   0.083   1.029   7.965 -0.1961 -1.0166 -0.2371
 6822SOL     OW32101   3.371   1.315   6.626  0.3957 -0.0134 -0.8258
 6822SOL    HW132102   3.416   1.338   6.707 -1.4483 -3.9767  1.3248
 6822SOL    HW232103   3.335   1.402   6.608  1.5507  0.7406  0.5295
 6823SOL     OW32104   1.095   1.117  12.233  0.0960 -0.5079 -0.3531
 6823SOL    HW132105   1.081   1.105  12.139  2.0895  0.2283 -0.7431
 6823SOL    HW232106   1.131   1.032  12.258 -1.9789 -2.0414 -2.5551
 6824SOL     OW32107   4.379   3.397   8.723 -0.0546 -0.0406 -0.3313
 6824SOL    HW132108   4.329   3.316   8.711 -0.6219  0.1160  1.0290
 6824SOL    HW232109   4.311   3.465   8.721  0.9239  0.9894  2.1642
 6825SOL     OW32110   1.682   3.680   8.192  0.1426 -0.0684  0.5313
 6825SOL    HW132111   1.747   3.646   8.130  0.6598  1.7448  0.0723
 6825SOL    HW232112   1.709   3.772   8.193  0.1290 -0.0312 -1.7362
 6826SOL     OW32113   1.587   0.757   9.081 -0.0521 -0.3416  0.2447
 6826SOL    HW132114   1.611   0.819   9.011 -1.2290  1.4727  1.4300
 6826SOL    HW232115   1.656   0.767   9.145 -0.7579  1.8099  0.6841
 6827SOL     OW32116   0.346   2.534   7.300  0.1139 -0.1273  0.5171
 6827SOL    HW132117   0.271   2.541   7.360 -0.0410  3.4145 -0.0682
 6827SOL    HW232118   0.338   2.444   7.269  0.4240 -0.6262  1.8950
 6828SOL     OW32119   0.102   2.633   6.754  0.0030  0.3102  0.4026
 6828SOL    HW132120   0.115   2.598   6.842 -0.0760 -0.3887  0.1376
 6828SOL    HW232121   0.154   2.574   6.700  0.1084 -0.6642  1.5716
 6829SOL     OW32122   2.942   2.589   3.535 -0.2491  0.3570 -0.2576
 6829SOL    HW132123   2.895   2.562   3.457  0.9083 -1.1876 -0.4136
 6829SOL    HW232124   2.873   2.574   3.600  0.3008  0.5873  0.3789
 6830SOL     OW32125   3.694   3.744   7.060  0.2116 -0.2514  0.0391
 6830SOL    HW132126   3.679   3.705   7.146  0.2833  2.5491  1.3242
 6830SOL    HW232127   3.706   3.836   7.082  0.1149 -0.2368  0.0281
 6831SOL     OW32128   3.110   2.826  10.576  0.5167 -0.0797  0.4740
 6831SOL    HW132129   3.152   2.807  10.492 -0.9226 -1.0949 -0.0094
 6831SOL    HW232130   3.134   2.919  10.582 -1.9599  0.7313 -1.9144
 6832SOL     OW32131   4.557   2.263   1.851  0.9248  0.4052  0.3415
 6832SOL    HW132132   4.643   2.227   1.871  0.7193  0.3090  1.0556
 6832SOL    HW232133   4.584   2.286   1.762  0.9174 -1.5165 -0.1422
 6833SOL     OW32134   2.243   0.464   5.111 -0.2489 -0.1468  0.2347
 6833SOL    HW132135   2.317   0.403   5.110  0.2943  0.5223  0.0849
 6833SOL    HW232136   2.181   0.395   5.089  0.5856 -1.3436  1.5468
 6834SOL     OW32137   3.006   0.197  12.228 -0.0705  0.7165 -0.7046
 6834SOL    HW132138   2.980   0.219  12.139  0.1480 -0.1951 -0.9961
 6834SOL    HW232139   3.100   0.178  12.227  0.4585  3.1481  1.7132
 6835SOL     OW32140   4.042   0.218   8.780 -0.0468 -0.1226  0.0456
 6835SOL    HW132141   4.016   0.126   8.781  0.3026 -0.2043  2.9713
 6835SOL    HW232142   4.111   0.224   8.846 -0.7825  0.8772  0.7193
 6836SOL     OW32143   4.494   1.035  11.094 -0.2587  0.5710 -0.2066
 6836SOL    HW132144   4.454   1.120  11.114  0.9913  1.2177 -0.3743
 6836SOL    HW232145   4.511   1.001  11.182  2.2715  1.9226 -0.1491
 6837SOL     OW32146   0.337   3.116   5.765 -0.7524 -0.4628  0.2577
 6837SOL    HW132147   0.270   3.160   5.712 -0.3672  0.8762  0.8728
 6837SOL    HW232148   0.388   3.197   5.770 -2.7028  0.7819 -0.1805
 6838SOL     OW32149   1.567   4.604   0.690 -0.8234  0.0311 -0.4168
 6838SOL    HW132150   1.510   4.544   0.643 -2.8819  2.4216 -0.9962
 6838SOL    HW232151   1.515   4.619   0.769  0.0253 -2.3914  0.5824
 6839SOL     OW32152   0.419   3.224   4.041 -0.0933  0.4822 -0.5469
 6839SOL    HW132153   0.409   3.266   4.127 -1.9027  1.3037 -1.1514
 6839SOL    HW232154   0.514   3.215   4.040 -0.0200  1.5653 -2.4413
 6840SOL     OW32155   2.032   3.048   9.928  0.3182  0.3346 -0.5511
 6840SOL    HW132156   2.048   2.964   9.971  0.0325 -0.1499 -1.3875
 6840SOL    HW232157   2.105   3.060   9.868  0.8938 -0.8763 -0.1021
 6841SOL     OW32158   0.930   3.617  15.601 -0.4417  0.0057 -0.3876
 6841SOL    HW132159   0.840   3.649  15.596 -0.7521 -0.5833  1.2868
 6841SOL    HW232160   0.963   3.679  15.536 -0.1817  0.2542 -0.0148
 6842SOL     OW32161   1.178   1.575   4.869  0.5476  0.3079  0.6077
 6842SOL    HW132162   1.186   1.494   4.820 -1.6578 -0.7010  1.9087
 6842SOL    HW232163   1.083   1.590   4.872  0.5991  1.1498 -1.9305
 6843SOL     OW32164   3.446   1.063   3.416  0.7021 -0.0368 -0.2047
 6843SOL    HW132165   3.529   1.111   3.422 -0.0726  1.4934 -1.6899
 6843SOL    HW232166   3.426   1.022   3.499  3.0679 -1.0311 -0.1273
 6844SOL     OW32167   4.554   1.196   9.603 -0.2768 -0.6323  0.6214
 6844SOL    HW132168   4.639   1.218   9.564 -1.3335 -1.6915 -2.3042
 6844SOL    HW232169   4.509   1.183   9.519  1.1530  1.7834 -0.5053
 6845SOL     OW32170   3.087   2.185   5.691 -0.0137 -0.0911  0.6408
 6845SOL    HW132171   3.170   2.170   5.737 -0.4846  0.8483  1.7850
 6845SOL    HW232172   3.113   2.225   5.608 -0.5511  0.0764  0.5530
 6846SOL     OW32173   0.368   2.868  10.685 -0.2597 -0.6676  0.5522
 6846SOL    HW132174   0.336   2.840  10.599  0.0683  1.0127 -0.1312
 6846SOL    HW232175   0.388   2.957  10.654  0.3205 -1.0460 -0.1603
 6847SOL     OW32176   4.536   1.594   2.490 -0.3346 -0.0276 -0.2820
 6847SOL    HW132177   4.543   1.570   2.582  0.4402  0.4348 -0.2175
 6847SOL    HW232178   4.451   1.637   2.494  0.3870  1.4574 -1.0768
 6848SOL     OW32179   2.349   2.797   3.967  0.3492  0.1457 -0.4374
 6848SOL    HW132180   2.323   2.790   3.875 -1.4023 -0.9311  0.1504
 6848SOL    HW232181   2.416   2.729   3.970  2.2753  2.1395  1.6180
 6849SOL     OW32182   0.237   2.896   6.794  0.4010  0.4289  0.2734
 6849SOL    HW132183   0.211   2.947   6.718  0.8750  0.6615  0.2725
 6849SOL    HW232184   0.199   2.811   6.769  2.2014  0.0315 -1.0718
 6850SOL     OW32185   3.756   2.431   7.877 -0.2559  0.6713 -0.0952
 6850SOL    HW132186   3.838   2.456   7.835  0.9353  0.6689  2.2162
 6850SOL    HW232187   3.757   2.484   7.957  0.8131  0.7867 -0.1845
 6851SOL     OW32188   3.640   3.763   2.843  0.7052 -0.4051 -0.0579
 6851SOL    HW132189   3.734   3.761   2.859  0.3447 -0.1535  2.1111
 6851SOL    HW232190   3.645   3.839   2.785  0.6227 -0.5584 -0.2648
 6852SOL     OW32191   1.239   1.778   4.681  0.0535 -0.1701  0.2319
 6852SOL    HW132192   1.206   1.780   4.591 -3.1929  0.7229  1.4769
 6852SOL    HW232193   1.202   1.702   4.725 -2.2740 -0.4565 -2.2236
 6853SOL     OW32194   4.566   1.146  14.432 -0.3298 -0.3625  0.3237
 6853SOL    HW132195   4.633   1.116  14.495 -1.2262  0.9123  1.8723
 6853SOL    HW232196   4.619   1.175  14.358  1.6287 -3.0081  0.6396
 6854SOL     OW32197   1.102   3.369   6.528 -0.2899 -0.2754  0.9938
 6854SOL    HW132198   1.054   3.292   6.559  0.9621 -1.4083  0.1074
 6854SOL    HW232199   1.183   3.357   6.577  0.5138 -0.3205 -0.3405
 6855SOL     OW32200   1.581   3.346  13.234 -0.6451  0.3646 -0.5767
 6855SOL    HW132201   1.570   3.432  13.194  0.6778  0.9437  0.3167
 6855SOL    HW232202   1.608   3.299  13.155  1.8179  0.7630  0.0181
 6856SOL     OW32203   2.654   0.837   7.019 -0.2449 -0.1896  0.4578
 6856SOL    HW132204   2.609   0.805   6.941  1.2350 -0.0330 -0.4583
 6856SOL    HW232205   2.580   0.849   7.079  0.8091  2.0013  1.3108
 6857SOL     OW32206   0.553   3.749   4.095 -0.6370 -0.3298 -0.1275
 6857SOL    HW132207   0.504   3.762   4.013  1.4574 -2.2183 -1.6899
 6857SOL    HW232208   0.511   3.671   4.130  0.4489 -1.7596 -2.0058
 6858SOL     OW32209   2.344   0.850   5.024  0.0636  0.0369  0.0999
 6858SOL    HW132210   2.390   0.895   5.094 -0.8293 -1.1912  1.4820
 6858SOL    HW232211   2.272   0.803   5.066 -0.6233 -1.5774 -2.8850
 6859SOL     OW32212   3.508   1.991   8.878  0.0693  0.0851  0.0205
 6859SOL    HW132213   3.427   2.012   8.831  0.2624  1.7286  0.4414
 6859SOL    HW232214   3.498   1.904   8.916  0.5116  0.0347  0.0216
 6860SOL     OW32215   2.805   4.733   5.671 -0.0622 -0.2142 -0.4105
 6860SOL    HW132216   2.859   4.690   5.604  0.7314  1.1208 -0.6217
 6860SOL    HW232217   2.844   0.079   5.688 -1.3596  0.3182 -0.1719
 6861SOL     OW32218   2.501   2.065   3.692 -0.0675  0.1210 -0.0844
 6861SOL    HW132219   2.444   2.011   3.747 -2.3687  3.6632  0.9939
 6861SOL    HW232220   2.565   2.000   3.662 -0.7195 -1.2341  1.4420
 6862SOL     OW32221   4.502   1.588  12.356  0.7385 -0.2714  0.0293
 6862SOL    HW132222   4.565   1.533  12.309 -1.2985 -1.6886 -1.0337
 6862SOL    HW232223   4.463   1.524  12.415 -1.0510  0.2671 -0.5594
 6863SOL     OW32224   0.345   3.234  14.208  0.2729  0.1866 -0.0599
 6863SOL    HW132225   0.269   3.250  14.152 -0.6057 -0.7840  0.8634
 6863SOL    HW232226   0.359   3.326  14.231  0.2160 -0.0510  0.9322
 6864SOL     OW32227   0.542   4.273   7.483 -0.6209 -0.6597 -0.1950
 6864SOL    HW132228   0.545   4.217   7.560 -1.3154  1.9677  1.7331
 6864SOL    HW232229   0.591   4.225   7.416 -0.5062  0.3940 -0.8725
 6865SOL     OW32230   4.471   2.129   8.697  0.1938 -0.2726  0.1836
 6865SOL    HW132231   4.492   2.212   8.741 -2.5073  0.0366  0.8810
 6865SOL    HW232232   4.545   2.110   8.640  0.6170  0.7258  0.3987
 6866SOL     OW32233   0.410   4.211   8.496  0.6085  0.7728 -0.3883
 6866SOL    HW132234   0.353   4.250   8.563 -0.2954 -1.5843  0.2019
 6866SOL    HW232235   0.476   4.279   8.485  1.5748  0.0363  0.8280
 6867SOL     OW32236   4.224   3.511   7.921 -0.0211  0.3556 -0.1789
 6867SOL    HW132237   4.290   3.534   7.985 -0.0554  0.5766 -0.2240
 6867SOL    HW232238   4.194   3.423   7.946 -0.4000 -0.0043 -1.8306
 6868SOL     OW32239   3.733   4.375   2.631  0.0930  0.7649 -0.3057
 6868SOL    HW132240   3.739   4.392   2.537  0.6910 -1.8181 -0.7566
 6868SOL    HW232241   3.652   4.324   2.639  0.5871 -0.1387 -0.9683
 6869SOL     OW32242   4.662   0.624   9.235 -0.0527 -0.0468 -0.1405
 6869SOL    HW132243   4.688   0.623   9.143  3.8424 -3.4589  0.9423
 6869SOL    HW232244   0.003   0.603   9.283  0.6158  0.5257 -1.0079
 6870SOL     OW32245   2.907   2.752  13.586 -0.1282  0.4873 -0.1223
 6870SOL    HW132246   2.998   2.721  13.584 -1.1207 -2.5983  2.9174
 6870SOL    HW232247   2.854   2.685  13.543  0.7666  0.7938 -1.6887
 6871SOL     OW32248   3.486   0.561   6.315 -0.6426  0.0669  0.3077
 6871SOL    HW132249   3.532   0.502   6.375  0.8773  0.7136 -0.2131
 6871SOL    HW232250   3.427   0.609   6.373 -0.1780  0.9586  0.0372
 6872SOL     OW32251   2.563   4.352   4.150  0.7423  0.0818 -0.0188
 6872SOL    HW132252   2.646   4.397   4.130 -0.6882  2.3808 -0.7740
 6872SOL    HW232253   2.581   4.278   4.093  0.3671 -0.8055  1.0262
 6873SOL     OW32254   2.160   3.995   9.062  0.3181  0.2803 -0.4634
 6873SOL    HW132255   2.126   3.950   9.140  3.4415 -0.7542  0.2819
 6873SOL    HW232256   2.193   4.077   9.099 -0.4523 -0.3807  1.7147
 6874SOL     OW32257   2.639   2.590   9.970  0.1055 -0.8049  0.2630
 6874SOL    HW132258   2.561   2.546  10.002  0.0458 -0.4936  0.5502
 6874SOL    HW232259   2.671   2.645  10.042 -1.5578  0.1132  0.2923
 6875SOL     OW32260   0.257   3.020   8.004 -0.5269 -0.0727 -0.0453
 6875SOL    HW132261   0.273   3.104   8.047 -0.1780 -0.9620  1.5905
 6875SOL    HW232262   0.329   2.959   8.021  1.8153  2.6068 -0.4079
 6876SOL     OW32263   1.438   4.566   8.392 -0.7942 -0.2676 -0.4481
 6876SOL    HW132264   1.530   4.588   8.381 -1.2207  1.4105 -0.6666
 6876SOL    HW232265   1.434   4.519   8.476  0.7665 -0.8747 -0.7183
 6877SOL     OW32266   3.532   0.198   9.013 -0.5185  0.4636 -0.3821
 6877SOL    HW132267   3.576   0.171   9.094 -0.8449  0.6085 -0.1551
 6877SOL    HW232268   3.444   0.206   9.048 -0.3212 -0.0357  0.2302
 6878SOL     OW32269   1.965   1.672   6.751  0.1920  0.2825  0.8357
 6878SOL    HW132270   1.975   1.755   6.798  1.9307  0.0384  0.8695
 6878SOL    HW232271   2.010   1.615   6.813  0.6824 -0.2590 -0.0312
 6879SOL     OW32272   1.958   3.982  17.330  0.7633 -0.1754  0.3907
 6879SOL    HW132273   1.936   4.054  17.270  1.4424  0.6111  1.0825
 6879SOL    HW232274   1.924   3.906  17.283 -2.2091  0.9904  0.6236
 6880SOL     OW32275   2.930   2.861  12.300  0.0826  0.4026 -0.1727
 6880SOL    HW132276   2.851   2.904  12.334  2.2226  3.0006  1.5126
 6880SOL    HW232277   2.930   2.887  12.208  1.6340  0.6303 -0.0935
 6881SOL     OW32278   2.093   0.203  14.158 -0.2257 -0.0733 -0.0619
 6881SOL    HW132279   2.146   0.172  14.085  2.1208 -1.7790  2.3517
 6881SOL    HW232280   2.102   0.298  14.157  1.1386 -0.2017  0.5206
 6882SOL     OW32281   3.439   2.334   4.318  0.2348 -0.0278  1.1634
 6882SOL    HW132282   3.507   2.400   4.302 -0.3431  0.2498 -0.1644
 6882SOL    HW232283   3.485   2.254   4.294 -2.2984 -1.4541  1.1554
 6883SOL     OW32284   2.534   4.434   4.660 -0.0039 -0.0653 -0.0567
 6883SOL    HW132285   2.606   4.440   4.723 -1.3557 -0.2373  1.5112
 6883SOL    HW232286   2.562   4.470   4.577 -1.1842  1.8176  0.3607
 6884SOL     OW32287   2.526   1.060   6.837 -0.1280 -0.1662  0.4654
 6884SOL    HW132288   2.565   1.147   6.824  0.3141 -0.3571  0.5304
 6884SOL    HW232289   2.449   1.078   6.891  0.1612  1.3692  0.3621
 6885SOL     OW32290   1.984   0.823   2.351 -0.2383  0.2316 -0.8002
 6885SOL    HW132291   1.919   0.826   2.421  1.7687 -1.4516  1.1334
 6885SOL    HW232292   2.028   0.905   2.372  0.1003 -0.6912  2.0815
 6886SOL     OW32293   3.348   4.344   1.859  0.4430 -0.0661  0.0035
 6886SOL    HW132294   3.369   4.316   1.948  0.7422  1.5286  0.4259
 6886SOL    HW232295   3.253   4.331   1.860  0.4092 -0.0118 -1.5404
 6887SOL     OW32296   1.175   1.634   4.055  0.7686  0.2536 -0.1919
 6887SOL    HW132297   1.184   1.729   4.043  0.4610  0.4062  0.7813
 6887SOL    HW232298   1.147   1.594   3.973  1.0427 -0.8175  0.2409
 6888SOL     OW32299   2.196   2.858   3.445  0.0436 -0.1155 -0.4092
 6888SOL    HW132300   2.217   2.946   3.414  1.7522 -0.1286  0.7133
 6888SOL    HW232301   2.154   2.817   3.369  0.5333 -0.1376 -0.6683
 6889SOL     OW32302   4.049   3.798   7.619  0.0742  0.1465 -0.2328
 6889SOL    HW132303   4.111   3.871   7.611 -0.7581  0.8139 -0.6577
 6889SOL    HW232304   4.104   3.722   7.600 -2.6722 -1.8404 -0.3523
 6890SOL     OW32305   0.357   1.805   2.091 -0.0594  0.0134 -0.3585
 6890SOL    HW132306   0.291   1.850   2.038 -0.1902 -3.2019 -2.8954
 6890SOL    HW232307   0.364   1.846   2.178  2.2259  2.3815 -1.6685
 6891SOL     OW32308   0.222   4.285   4.041 -0.1950 -0.0745 -0.1926
 6891SOL    HW132309   0.194   4.360   3.989  0.0074  0.1552  0.0330
 6891SOL    HW232310   0.185   4.300   4.128  2.1654  0.5927  0.6916
 6892SOL     OW32311   4.354   0.562   6.466 -0.6163  0.4898 -0.2775
 6892SOL    HW132312   4.346   0.657   6.481  1.6537  0.6635 -0.1556
 6892SOL    HW232313   4.321   0.565   6.376 -0.9248  1.1594 -0.1447
 6893SOL     OW32314   3.014   2.858   9.918  0.5610 -0.1680 -0.8493
 6893SOL    HW132315   3.016   2.927   9.984  0.9188 -0.0705 -0.9639
 6893SOL    HW232316   3.082   2.875   9.853  1.7232 -1.5720 -0.0000
 6894SOL     OW32317   3.847   2.922   7.066 -0.5786  0.2423  0.1929
 6894SOL    HW132318   3.810   3.011   7.064 -0.5183  0.2562 -0.3249
 6894SOL    HW232319   3.917   2.932   7.130 -0.1022 -0.5601 -0.2047
 6895SOL     OW32320   4.605   4.196  10.942 -0.2189  0.5664 -0.2991
 6895SOL    HW132321   4.531   4.249  10.914  0.2576 -0.1642 -2.9474
 6895SOL    HW232322   4.627   4.248  11.019 -0.2017 -1.0289  0.7649
 6896SOL     OW32323   4.467   3.165  11.144 -0.2761  0.1082 -0.1712
 6896SOL    HW132324   4.532   3.221  11.187 -0.7804 -0.1347  0.8929
 6896SOL    HW232325   4.486   3.075  11.172  1.8371  1.3763  2.5123
 6897SOL     OW32326   0.478   2.447   5.226 -0.1013 -0.4688  0.4833
 6897SOL    HW132327   0.531   2.396   5.287  0.2871  0.1471  0.6599
 6897SOL    HW232328   0.427   2.500   5.287 -2.6031 -0.7692 -1.2978
 6898SOL     OW32329   0.464   2.140   5.791  0.2181 -0.1003  0.0683
 6898SOL    HW132330   0.377   2.178   5.782 -0.3811 -1.4095  0.3108
 6898SOL    HW232331   0.517   2.213   5.758  0.1492  0.3966  1.0655
 6899SOL     OW32332   2.185   3.099  16.196 -0.2204  0.2862 -0.0052
 6899SOL    HW132333   2.136   3.017  16.188  1.1232 -0.6561  1.5662
 6899SOL    HW232334   2.277   3.076  16.207 -0.1527 -0.3508 -1.8379
 6900SOL     OW32335   1.293   0.132   1.672 -0.5082  0.0147 -0.0163
 6900SOL    HW132336   1.382   0.155   1.697  0.0488 -2.2817  0.0726
 6900SOL    HW232337   1.297   0.082   1.591  1.8645 -0.2098  0.2515
 6901SOL     OW32338   0.778   1.109   0.654  0.1103 -0.6823  0.1410
 6901SOL    HW132339   0.765   1.109   0.748  0.9238 -0.5486  0.2542
 6901SOL    HW232340   0.873   1.092   0.651  0.3824  1.1669 -2.3555
 6902SOL     OW32341   2.800   4.656   1.966  0.1389  0.7784 -0.5000
 6902SOL    HW132342   2.823   4.564   1.952 -2.7127  0.4157 -2.8746
 6902SOL    HW232343   2.732   4.664   1.899  0.5501  3.4509 -0.5830
 6903SOL     OW32344   2.005   1.805   3.729  0.2582 -0.3062  0.3249
 6903SOL    HW132345   2.061   1.728   3.741 -1.9786 -2.1118 -0.9114
 6903SOL    HW232346   1.940   1.764   3.672 -0.1624  0.2205  0.4236
 6904SOL     OW32347   4.472   1.380  17.347  0.0285  0.1669 -0.2137
 6904SOL    HW132348   4.413   1.353  17.418 -1.1080  0.8321 -0.8993
 6904SOL    HW232349   4.557   1.382  17.391  0.5679 -3.0658 -1.1638
 6905SOL     OW32350   2.823   0.100   8.630 -0.0433 -0.0173  0.0634
 6905SOL    HW132351   2.897   0.161   8.632 -0.9206  0.9973  1.2235
 6905SOL    HW232352   2.800   0.102   8.723 -1.2724  2.4071 -0.3044
 6906SOL     OW32353   3.171   2.681   3.315 -0.2567 -0.4071 -0.0626
 6906SOL    HW132354   3.124   2.615   3.264 -1.6367  1.1312 -0.7730
 6906SOL    HW232355   3.255   2.639   3.334  0.4192  1.2044  0.4596
 6907SOL     OW32356   3.220   0.619   4.506 -0.1416  0.2217 -0.0654
 6907SOL    HW132357   3.305   0.661   4.520  0.8407 -0.6772 -3.3079
 6907SOL    HW232358   3.170   0.635   4.586  0.6608  0.3543  0.4123
 6908SOL     OW32359   3.014   3.869   0.867  0.3928  0.9419  0.2854
 6908SOL    HW132360   3.047   3.954   0.839  0.8252  1.3911  2.1834
 6908SOL    HW232361   3.050   3.853   0.954  0.3849 -0.5127  0.0294
 6909SOL     OW32362   1.350   4.380   0.095  0.4051  0.1293 -0.0081
 6909SOL    HW132363   1.385   4.364   0.007  0.5786  1.0201 -0.0967
 6909SOL    HW232364   1.324   4.472   0.088 -1.6058 -0.3006  1.7512
 6910SOL     OW32365   0.463   3.856  14.199 -0.3890 -0.1769  0.5317
 6910SOL    HW132366   0.391   3.913  14.224 -0.3475 -0.6668  1.7868
 6910SOL    HW232367   0.446   3.781  14.257 -0.4627 -0.8193 -0.3083
 6911SOL     OW32368   0.332   2.928   2.439 -0.0685  0.3702 -0.5181
 6911SOL    HW132369   0.378   2.947   2.357 -1.4169 -0.9595 -1.5593
 6911SOL    HW232370   0.373   2.844   2.461 -0.4242 -0.0375 -1.4572
 6912SOL     OW32371   2.714   2.909   5.286 -0.2654 -0.0892  0.0833
 6912SOL    HW132372   2.680   2.997   5.268  0.4461  0.7446  2.7621
 6912SOL    HW232373   2.634   2.869   5.319 -0.0950 -0.8906 -0.5029
 6913SOL     OW32374   4.015   1.979   3.744 -0.1037 -0.1876  0.7370
 6913SOL    HW132375   4.039   2.072   3.739 -1.5278  0.0248 -1.8872
 6913SOL    HW232376   4.037   1.943   3.659  1.3022  1.2462  0.5031
 6914SOL     OW32377   3.243   3.567   4.970  0.1283  0.2222 -0.3614
 6914SOL    HW132378   3.173   3.567   5.035  0.5751 -2.5578  0.1217
 6914SOL    HW232379   3.184   3.568   4.895 -0.4740  0.2175  0.1135
 6915SOL     OW32380   3.059   2.751  11.741  0.2886  0.3642  0.1538
 6915SOL    HW132381   2.976   2.762  11.696  0.2964 -0.3530 -0.0393
 6915SOL    HW232382   3.048   2.794  11.826 -1.6736 -0.8256  0.4964
 6916SOL     OW32383   1.275   2.606   7.371  0.1376 -0.0387  0.0789
 6916SOL    HW132384   1.244   2.672   7.434 -0.2527  0.7609 -0.9445
 6916SOL    HW232385   1.214   2.611   7.297  0.4747  0.6728 -0.1482
 6917SOL     OW32386   3.438   0.155  12.489  0.0786 -0.2436 -0.3604
 6917SOL    HW132387   3.390   0.208  12.552 -0.5464  1.1978 -2.0422
 6917SOL    HW232388   3.520   0.138  12.535 -0.9277 -0.5044  1.3305
 6918SOL     OW32389   4.239   4.394   3.456 -0.3078  0.3744  0.4642
 6918SOL    HW132390   4.274   4.366   3.371  1.7051 -0.7038  1.6504
 6918SOL    HW232391   4.246   4.490   3.451  1.5179  0.1756 -0.7847
 6919SOL     OW32392   4.541   2.518   5.313  0.3398 -0.2552 -0.5112
 6919SOL    HW132393   4.519   2.612   5.309 -2.3541 -0.9602 -2.3417
 6919SOL    HW232394   4.601   2.525   5.387  1.2490  1.5754 -1.4067
 6920SOL     OW32395   2.760   2.697   5.744 -0.3771  0.2559 -0.1487
 6920SOL    HW132396   2.793   2.620   5.789 -0.5311 -1.3726 -2.8396
 6920SOL    HW232397   2.759   2.758   5.817  0.1788 -0.0822  0.1353
 6921SOL     OW32398   3.067   1.255   3.038 -0.2206 -0.2223 -0.2800
 6921SOL    HW132399   3.037   1.302   3.116 -0.1962 -0.5756 -0.0610
 6921SOL    HW232400   3.017   1.299   2.969 -0.0046 -2.6048 -1.9471
 6922SOL     OW32401   1.756   1.094   4.396 -0.3365  0.3970  0.3582
 6922SOL    HW132402   1.678   1.119   4.446  0.5723 -0.6436  2.3026
 6922SOL    HW232403   1.784   1.011   4.436 -2.7962  0.3743  1.9940
 6923SOL     OW32404   4.205   4.661   3.277  0.0670 -0.0292 -0.1579
 6923SOL    HW132405   4.186   4.608   3.199 -1.0526  2.2480 -1.4245
 6923SOL    HW232406   4.131   4.720   3.292 -0.7255 -0.8717 -0.7847
 6924SOL     OW32407   2.629   2.104  16.385  0.5427  0.7876 -0.6273
 6924SOL    HW132408   2.608   2.055  16.464  1.5752 -0.9217 -1.4179
 6924SOL    HW232409   2.544   2.122  16.346 -1.0541 -0.3923  2.3100
 6925SOL     OW32410   3.287   0.106   2.177 -0.1343 -0.1650 -0.2390
 6925SOL    HW132411   3.298   0.187   2.127 -0.9832 -1.2446 -2.1853
 6925SOL    HW232412   3.324   0.044   2.114 -0.1886 -1.3218  0.8754
 6926SOL     OW32413   1.774   1.000   5.968  0.2517 -0.3680 -0.9183
 6926SOL    HW132414   1.855   0.980   6.015 -0.2830 -1.6236 -0.5178
 6926SOL    HW232415   1.710   0.937   6.003  0.8557 -0.3073  0.2857
 6927SOL     OW32416   2.113   0.803   5.944 -0.5656  0.7199  0.4718
 6927SOL    HW132417   2.049   0.859   5.988 -3.1052  0.6423 -3.1622
 6927SOL    HW232418   2.076   0.717   5.922 -1.2511  1.3765 -0.9128
 6928SOL     OW32419   3.680   3.132   6.763 -0.8066  0.1065  0.9594
 6928SOL    HW132420   3.695   3.048   6.720  1.1517  0.2864  1.2559
 6928SOL    HW232421   3.704   3.198   6.699 -0.0040 -0.2604  0.8802
 6929SOL     OW32422   1.249   4.007   1.776 -0.0740  0.6414  0.3859
 6929SOL    HW132423   1.196   3.932   1.803 -2.0499  1.3065 -1.6571
 6929SOL    HW232424   1.321   3.958   1.735 -1.6579 -0.2681 -1.3189
 6930SOL     OW32425   3.732   3.315   6.575 -0.3746  0.0811  0.0677
 6930SOL    HW132426   3.754   3.324   6.482 -0.0377 -0.1798  0.1230
 6930SOL    HW232427   3.693   3.403   6.579  0.2045  0.3763 -0.6892
 6931SOL     OW32428   1.847   0.635   7.546 -0.1195  0.1104  0.1468
 6931SOL    HW132429   1.755   0.659   7.535 -0.4181 -0.6715  0.9761
 6931SOL    HW232430   1.861   0.681   7.628  0.4605 -1.8133  1.1225
 6932SOL     OW32431   1.182   0.104   2.129  0.3862  0.6855 -0.3888
 6932SOL    HW132432   1.174   0.079   2.037  0.2170  0.4309 -0.3024
 6932SOL    HW232433   1.093   0.082   2.154  0.0783  0.5579 -1.5788
 6933SOL     OW32434   2.471   3.987   7.922 -0.0201  0.0786  0.0050
 6933SOL    HW132435   2.557   3.946   7.921  0.7515  1.6473  1.1286
 6933SOL    HW232436   2.460   3.991   7.827 -0.5174 -2.2651 -0.0269
 6934SOL     OW32437   1.471   0.751  11.599  0.4987 -0.3582 -0.4051
 6934SOL    HW132438   1.557   0.788  11.616 -1.0519  2.1273  2.1546
 6934SOL    HW232439   1.450   0.732  11.690  0.3229  0.4752 -0.2749
 6935SOL     OW32440   0.319   2.566   6.485 -0.4784  0.4742  0.1195
 6935SOL    HW132441   0.354   2.590   6.571 -2.3537  0.7188  0.8324
 6935SOL    HW232442   0.393   2.522   6.444 -2.9198 -1.7087 -1.9304
 6936SOL     OW32443   2.465   4.350  17.459  0.2969 -0.0868 -0.0289
 6936SOL    HW132444   2.469   4.444  17.472 -0.3705  0.1780 -1.6912
 6936SOL    HW232445   2.455   4.346  17.364  1.6613  1.2762 -0.2221
 6937SOL     OW32446   2.156   1.843  15.524 -0.0042  0.4092  0.2329
 6937SOL    HW132447   2.176   1.760  15.568  1.7997  0.8301  0.2113
 6937SOL    HW232448   2.175   1.900  15.599  1.5037 -1.8500  1.5567
 6938SOL     OW32449   2.276   0.413   9.264 -0.2649  0.1360 -0.0931
 6938SOL    HW132450   2.347   0.388   9.324 -1.6739 -1.2611  1.0150
 6938SOL    HW232451   2.266   0.337   9.206  0.9897 -1.8210  2.2266
 6939SOL     OW32452   4.526   3.673   3.625  0.0620  0.2993  0.1312
 6939SOL    HW132453   4.526   3.666   3.529 -2.0939 -0.2751  0.1770
 6939SOL    HW232454   4.554   3.584   3.646  3.1327  1.5344  1.3600
 6940SOL     OW32455   3.145   3.079   0.073  0.0507 -0.1004  0.4648
 6940SOL    HW132456   3.171   3.075  17.737 -0.3285 -0.7553  0.3895
 6940SOL    HW232457   3.104   2.993   0.081 -1.0794  0.7404  3.8171
 6941SOL     OW32458   1.138   0.068   1.876  0.0506 -0.2858  0.2954
 6941SOL    HW132459   1.088   0.129   1.822  2.5190  1.3369 -0.1769
 6941SOL    HW232460   1.211   0.053   1.816  1.7537  2.7292  1.5641
 6942SOL     OW32461   1.233   1.454  15.539 -0.1547 -0.1344 -0.3007
 6942SOL    HW132462   1.247   1.520  15.470  0.3297  0.8211  0.7230
 6942SOL    HW232463   1.262   1.504  15.615  3.8159  1.8549 -3.0834
 6943SOL     OW32464   2.522   3.755   8.631 -0.3311  0.3310 -0.1297
 6943SOL    HW132465   2.549   3.731   8.542 -3.3676 -0.5001 -0.8112
 6943SOL    HW232466   2.436   3.714   8.642 -0.6633  1.2633  0.6982
 6944SOL     OW32467   3.739   2.379   5.100 -0.1664  0.2397 -0.4056
 6944SOL    HW132468   3.702   2.335   5.023 -1.5383  0.0505  0.3488
 6944SOL    HW232469   3.667   2.376   5.163 -0.6280  1.2951 -0.8787
 6945SOL     OW32470   0.102   2.822   5.474 -0.8567 -0.0523  0.4208
 6945SOL    HW132471   0.085   2.872   5.395  2.0364  1.3133  0.6711
 6945SOL    HW232472   0.150   2.887   5.525 -2.1612  1.5786 -0.4206
 6946SOL     OW32473   3.692   0.169  12.625 -0.1502 -0.8982 -0.0519
 6946SOL    HW132474   3.733   0.242  12.577 -0.6784  0.6656  1.8628
 6946SOL    HW232475   3.725   0.178  12.714  3.1153 -2.2210 -1.1448
 6947SOL     OW32476   2.875   3.643  10.017 -0.0816  0.1326 -0.6015
 6947SOL    HW132477   2.889   3.600  10.101 -0.3170  0.9176 -0.1538
 6947SOL    HW232478   2.791   3.687  10.027  0.3996  1.0958 -0.7629
 6948SOL     OW32479   1.747   3.602   6.643  0.5318  0.1202  0.1415
 6948SOL    HW132480   1.728   3.509   6.656  1.4465  0.1752  1.9171
 6948SOL    HW232481   1.755   3.638   6.731 -1.8396 -0.6890  0.6922
 6949SOL     OW32482   0.813   1.355   2.966 -0.0840  0.3307 -0.0987
 6949SOL    HW132483   0.769   1.409   2.901  0.6445 -0.2170 -1.0461
 6949SOL    HW232484   0.777   1.275   2.926  2.4374 -0.9078  0.0785
 6950SOL     OW32485   1.970   2.451   8.616  0.9064  0.8392  0.0631
 6950SOL    HW132486   1.879   2.421   8.615  0.6651  1.6727 -3.1818
 6950SOL    HW232487   1.979   2.461   8.711 -2.9721 -0.7712  0.6185
 6951SOL     OW32488   3.456   2.596  13.185  0.2786  0.2545 -0.0390
 6951SOL    HW132489   3.468   2.505  13.158 -0.1656  0.0050  0.6094
 6951SOL    HW232490   3.544   2.599  13.223  0.3633  1.1541 -0.3152
 6952SOL     OW32491   1.247   3.677  10.821 -0.5244 -0.2649  0.3011
 6952SOL    HW132492   1.222   3.760  10.781 -0.7732 -0.6831 -0.4129
 6952SOL    HW232493   1.334   3.695  10.857 -0.4436 -0.4229  0.1850
 6953SOL     OW32494   1.516   2.122   4.153  0.2004  0.1170  0.0921
 6953SOL    HW132495   1.578   2.144   4.222 -0.8565  0.1837  1.0150
 6953SOL    HW232496   1.583   2.094   4.090  0.2849  0.7244 -0.0867
 6954SOL     OW32497   0.894   3.513   1.239  0.4902  0.4071 -0.2142
 6954SOL    HW132498   0.916   3.581   1.175  1.5367  2.2200  2.0970
 6954SOL    HW232499   0.823   3.473   1.188  0.9211  0.4962 -0.8844
 6955SOL     OW32500   2.398   2.654   2.676 -0.0997 -0.7173 -0.3618
 6955SOL    HW132501   2.443   2.736   2.696  1.3917 -1.6606  0.2111
 6955SOL    HW232502   2.463   2.595   2.637  0.3508 -0.4945  0.0551
 6956SOL     OW32503   0.875   1.623  15.693  0.1221  0.3709 -0.5932
 6956SOL    HW132504   0.798   1.681  15.687 -0.8219 -1.0527 -2.1742
 6956SOL    HW232505   0.912   1.641  15.607  2.5071 -1.3897  0.0766
 6957SOL     OW32506   3.278   3.102   3.579 -0.3623  0.4643  0.2778
 6957SOL    HW132507   3.227   3.152   3.643 -2.4306 -1.4481  0.1465
 6957SOL    HW232508   3.250   3.013   3.602 -1.3039 -0.3755 -4.2559
 6958SOL     OW32509   3.048   1.556   4.744 -0.0113 -0.5664 -0.0485
 6958SOL    HW132510   3.068   1.571   4.837  1.5204 -1.2524 -0.2528
 6958SOL    HW232511   3.013   1.467   4.746 -0.4960 -0.4240 -2.1589
 6959SOL     OW32512   1.889   0.615   6.228 -0.0778 -0.5607  0.1243
 6959SOL    HW132513   1.959   0.677   6.209 -1.3552  1.3847  1.8064
 6959SOL    HW232514   1.851   0.663   6.301  0.9658 -0.5288  0.6570
 6960SOL     OW32515   0.917   4.015   9.664 -0.0031  0.4596 -0.2669
 6960SOL    HW132516   0.928   3.927   9.699  0.4917  1.3096  1.7176
 6960SOL    HW232517   0.894   3.997   9.573  1.0902 -0.8835 -0.2703
 6961SOL     OW32518   0.606   1.436  10.111 -0.3466 -0.3890  0.4302
 6961SOL    HW132519   0.559   1.433  10.194 -0.0081 -1.6400  0.5680
 6961SOL    HW232520   0.568   1.353  10.082  0.9667  0.0155 -2.4987
 6962SOL     OW32521   2.888   2.704   4.132  0.1895 -0.3746 -0.4653
 6962SOL    HW132522   2.861   2.612   4.121  0.9861 -0.3504 -2.5238
 6962SOL    HW232523   2.960   2.703   4.195  1.0299  0.7431 -1.4112
 6963SOL     OW32524   3.394   3.154   6.783  0.5152  0.7248 -0.4190
 6963SOL    HW132525   3.343   3.156   6.865  0.3695  0.9108 -0.5150
 6963SOL    HW232526   3.482   3.163   6.818  0.1418  0.4215  0.6195
 6964SOL     OW32527   1.338   3.765  13.703  0.2519  0.4894 -0.1301
 6964SOL    HW132528   1.433   3.776  13.692  0.5765  0.1137  2.1997
 6964SOL    HW232529   1.326   3.845  13.755  0.4601  1.4433 -1.5705
 6965SOL     OW32530   3.972   2.666   6.585  0.2434 -0.3234 -0.3347
 6965SOL    HW132531   3.883   2.640   6.559  1.2606 -2.0567 -2.0559
 6965SOL    HW232532   3.988   2.615   6.664 -0.4395  0.9715  0.6273
 6966SOL     OW32533   0.116   2.591   6.101 -0.2608  0.0713  0.2994
 6966SOL    HW132534   0.124   2.682   6.130  0.3288  1.0737 -2.9470
 6966SOL    HW232535   0.201   2.574   6.061 -0.4504  1.0868 -0.5600
 6967SOL     OW32536   0.288   2.189   2.408  0.4790  0.3940 -0.1562
 6967SOL    HW132537   0.283   2.100   2.372 -0.3715 -0.5926  2.3896
 6967SOL    HW232538   0.237   2.182   2.489 -0.6526 -1.2132 -0.9986
 6968SOL     OW32539   0.732   4.347  15.561  0.3421 -0.2387 -0.3303
 6968SOL    HW132540   0.692   4.262  15.582  3.1808 -1.2106  1.0270
 6968SOL    HW232541   0.691   4.370  15.478  0.4579  1.8281  0.1669
 6969SOL     OW32542   4.459   0.198   1.696 -0.2870  0.5088  0.2422
 6969SOL    HW132543   4.417   0.279   1.666  0.6751  1.4513  1.4897
 6969SOL    HW232544   4.450   0.134   1.625 -0.4981 -1.0742  1.7277
 6970SOL     OW32545   2.150   3.011   3.997  0.1682  0.6119  0.4355
 6970SOL    HW132546   2.231   2.961   4.001 -1.3557 -1.9704 -0.9010
 6970SOL    HW232547   2.179   3.102   4.008  2.2417  0.0656 -0.4684
 6971SOL     OW32548   4.426   2.573   8.101  0.4363 -0.1709  0.3202
 6971SOL    HW132549   4.450   2.480   8.094 -0.4085 -0.2707 -1.4825
 6971SOL    HW232550   4.375   2.584   8.020  0.6263  2.9860  0.6464
 6972SOL     OW32551   2.722   1.944   1.619 -0.1230 -0.6083  0.0724
 6972SOL    HW132552   2.709   2.025   1.667  0.5389  0.0026 -0.7933
 6972SOL    HW232553   2.787   1.895   1.670 -0.0551 -0.7423 -0.1431
 6973SOL     OW32554   2.856   4.285  11.013 -0.0311 -0.2233  0.2206
 6973SOL    HW132555   2.871   4.302  10.920 -1.1859 -0.8836 -0.0948
 6973SOL    HW232556   2.787   4.349  11.034  2.2387  2.1931  0.3310
 6974SOL     OW32557   2.278   2.536   8.687  0.3509 -0.6475 -0.1505
 6974SOL    HW132558   2.247   2.544   8.777 -0.6942  0.1408 -0.5654
 6974SOL    HW232559   2.333   2.614   8.685 -1.1799  0.4478  0.2803
 6975SOL     OW32560   4.728   1.564   4.524 -0.5165 -0.5445 -0.1068
 6975SOL    HW132561   0.077   1.559   4.489 -0.5660  1.3287 -0.4777
 6975SOL    HW232562   4.704   1.655   4.507  0.7571 -0.0805  0.5778
 6976SOL     OW32563   2.946   3.634  12.498 -0.2933  0.3189 -0.5118
 6976SOL    HW132564   2.935   3.647  12.404 -2.4329  1.1158 -0.1461
 6976SOL    HW232565   2.933   3.720  12.538 -2.6282 -1.0629  1.7369
 6977SOL     OW32566   4.095   1.476   0.501 -0.1056  0.0301  0.3800
 6977SOL    HW132567   4.087   1.497   0.594  0.4374 -0.1290  0.4636
 6977SOL    HW232568   4.036   1.539   0.460 -0.4942  0.0939  1.0343
 6978SOL     OW32569   4.014   2.573  17.305  0.1704  0.1365  0.0235
 6978SOL    HW132570   4.038   2.507  17.370 -0.0864 -2.0185 -2.0537
 6978SOL    HW232571   3.919   2.560  17.306 -0.0282  1.6029  0.7320
 6979SOL     OW32572   3.361   4.452  13.383  0.1803  0.0491  0.4540
 6979SOL    HW132573   3.362   4.539  13.343 -0.7773  0.7206  1.8918
 6979SOL    HW232574   3.325   4.391  13.319 -1.2869  0.0111  1.3224
 6980SOL     OW32575   3.464   0.157   3.710  0.6706  1.1161  0.3856
 6980SOL    HW132576   3.534   0.108   3.667  0.8490  1.0274  0.7755
 6980SOL    HW232577   3.509   0.241   3.699  0.7926  1.2047  1.5419
 6981SOL     OW32578   2.241   3.240  13.425  0.3620  0.1604 -0.3219
 6981SOL    HW132579   2.249   3.145  13.415  2.6323  0.4258 -1.1706
 6981SOL    HW232580   2.146   3.249  13.421  0.0685 -2.3239  1.6690
 6982SOL     OW32581   2.643   4.150   5.014  0.2935  0.5291  0.4270
 6982SOL    HW132582   2.658   4.157   4.920  1.3408  1.2506  0.6520
 6982SOL    HW232583   2.630   4.241   5.042 -1.4038  0.3387  0.2480
 6983SOL     OW32584   0.184   3.214   2.906 -0.4404  0.5092 -0.2461
 6983SOL    HW132585   0.171   3.289   2.847 -0.5888  1.2389  0.7063
 6983SOL    HW232586   0.211   3.152   2.838 -0.2132  0.8057 -0.4253
 6984SOL     OW32587   4.384   3.705  12.186  0.2910 -0.5857  0.4718
 6984SOL    HW132588   4.464   3.756  12.194  0.2982 -1.1266  3.8593
 6984SOL    HW232589   4.396   3.670  12.098  0.6211 -0.3413  0.4204
 6985SOL     OW32590   1.095   0.084   2.656 -0.4170  0.0445  0.0883
 6985SOL    HW132591   1.020   0.095   2.598  0.9105  1.0015 -1.4405
 6985SOL    HW232592   1.179   0.104   2.615  0.1470 -1.7091  0.3742
 6986SOL     OW32593   0.452   1.553  11.237  0.1205 -0.0429 -0.2283
 6986SOL    HW132594   0.412   1.467  11.253  1.4319 -0.8514 -1.3288
 6986SOL    HW232595   0.523   1.558  11.301  1.4409  0.6914 -1.7544
 6987SOL     OW32596   2.371   3.666   9.817  0.6542 -0.0197  0.0925
 6987SOL    HW132597   2.341   3.576   9.804  0.2875 -0.1363  1.6837
 6987SOL    HW232598   2.403   3.690   9.730 -1.0908 -0.5410 -0.6818
 6988SOL     OW32599   0.360   3.003   4.882 -0.8867 -0.2205 -0.2644
 6988SOL    HW132600   0.343   2.953   4.962 -1.7088 -0.5821 -0.6578
 6988SOL    HW232601   0.441   3.041   4.916  0.8081 -3.0377 -1.0587
 6989SOL     OW32602   4.343   3.983   3.870  0.1406 -0.5346 -0.5216
 6989SOL    HW132603   4.323   4.066   3.828  2.4921 -0.1705 -0.9460
 6989SOL    HW232604   4.318   3.924   3.799 -1.2116 -1.6963  0.9269
 6990SOL     OW32605   4.532   4.707   2.431 -0.2385 -0.7146 -0.2359
 6990SOL    HW132606   4.552   4.669   2.346  1.8773  1.1081 -0.5436
 6990SOL    HW232607   4.617   0.003   2.457 -0.8706  0.0790  0.7330
 6991SOL     OW32608   0.478   3.777   6.964 -0.0918  0.6131 -0.1664
 6991SOL    HW132609   0.399   3.766   7.016  0.0902  1.7275  0.3582
 6991SOL    HW232610   0.543   3.730   7.017 -1.0395  0.9567  1.3030
 6992SOL     OW32611   4.547   3.584   1.912  0.7618  0.3830  0.2140
 6992SOL    HW132612   4.529   3.576   1.819  0.8933 -0.1211  0.2306
 6992SOL    HW232613   4.541   3.493   1.941 -1.8145  0.4561 -0.1257
 6993SOL     OW32614   3.967   0.121   3.660  0.1182 -0.5310 -0.0872
 6993SOL    HW132615   3.960   0.210   3.694 -0.8493 -0.0450 -1.5898
 6993SOL    HW232616   4.050   0.133   3.613  0.2570  0.7816  0.4811
 6994SOL     OW32617   3.759   1.157  13.509 -0.4507  0.5817  0.9137
 6994SOL    HW132618   3.682   1.170  13.564  0.3755  0.4587  2.0986
 6994SOL    HW232619   3.727   1.124  13.426 -0.1656  0.9316  0.6641
 6995SOL     OW32620   3.390   1.984  14.887  0.3208 -0.3574  0.6644
 6995SOL    HW132621   3.470   1.994  14.939  1.8942  1.7493 -2.1480
 6995SOL    HW232622   3.416   2.028  14.806 -0.1227 -0.6929  0.3347
 6996SOL     OW32623   1.234   4.502   3.709  0.1292  0.7306  0.1169
 6996SOL    HW132624   1.169   4.492   3.639  0.4218  1.6341 -0.2807
 6996SOL    HW232625   1.193   4.560   3.773  0.6311  1.7275 -0.4638
 6997SOL     OW32626   4.724   2.259   9.659  0.3846  0.3375  0.6124
 6997SOL    HW132627   0.014   2.195   9.724 -0.0575 -2.2806 -1.7743
 6997SOL    HW232628   4.642   2.216   9.637  1.1991 -1.7872  1.7026
 6998SOL     OW32629   3.493   0.443   4.739 -0.4108 -0.0209  0.5374
 6998SOL    HW132630   3.520   0.404   4.822 -0.5390  1.0956  1.1099
 6998SOL    HW232631   3.400   0.455   4.760  0.1619  1.3357  2.2927
 6999SOL     OW32632   1.453   3.724   6.709 -1.0028 -0.0741 -0.1475
 6999SOL    HW132633   1.455   3.802   6.764 -0.4338 -0.8589  0.9411
 6999SOL    HW232634   1.521   3.739   6.643 -0.2475 -0.6585  0.4979
 7000SOL     OW32635   2.126   4.025   1.119  0.2274 -0.0670  0.0913
 7000SOL    HW132636   2.213   4.001   1.149  0.2394  0.1576  0.2432
 7000SOL    HW232637   2.131   4.014   1.025  0.8424 -1.3779  0.2917
 7001SOL     OW32638   3.286   3.186   2.214 -0.1759  0.0431 -0.8288
 7001SOL    HW132639   3.335   3.184   2.132  0.0179  1.8141 -0.7649
 7001SOL    HW232640   3.199   3.156   2.185 -0.7667  1.4141 -0.4850
 7002SOL     OW32641   3.635   0.364  15.595 -0.7479 -0.1961  0.6937
 7002SOL    HW132642   3.598   0.286  15.554 -0.5165  0.8203 -1.4398
 7002SOL    HW232643   3.596   0.441  15.556  0.0196  0.2503  0.8101
 7003SOL     OW32644   2.181   2.655   4.817  0.1829 -0.0882  0.8605
 7003SOL    HW132645   2.212   2.734   4.772  2.4118 -1.8172 -0.5676
 7003SOL    HW232646   2.163   2.696   4.902 -1.5299 -1.6669  1.2553
 7004SOL     OW32647   2.519   0.761   2.068 -0.4174  0.1421 -0.0420
 7004SOL    HW132648   2.519   0.752   1.972 -1.4691  0.8031 -0.0949
 7004SOL    HW232649   2.502   0.670   2.089 -2.9432  0.3665 -1.1660
 7005SOL     OW32650   3.712   0.499   1.654 -0.4625 -0.5409  0.2851
 7005SOL    HW132651   3.684   0.429   1.595 -1.4046 -0.0403  0.1420
 7005SOL    HW232652   3.760   0.440   1.713 -1.9672  0.6994  2.7326
 7006SOL     OW32653   2.033   4.352  16.919 -0.6098  0.2944  0.5729
 7006SOL    HW132654   2.044   4.322  16.829  0.6263 -0.4538  0.9668
 7006SOL    HW232655   2.085   4.432  16.928  0.1848  0.1069 -2.4266
 7007SOL     OW32656   0.054   4.628   0.961 -0.0234  0.5719  0.0412
 7007SOL    HW132657   0.011   4.657   0.880 -0.7669  0.6479  0.4646
 7007SOL    HW232658   0.144   4.613   0.932 -0.6532 -0.1486 -1.5594
 7008SOL     OW32659   1.015   0.534  11.617 -0.2359 -0.2270  0.3478
 7008SOL    HW132660   1.105   0.560  11.599 -1.0721  1.3297 -1.6235
 7008SOL    HW232661   0.970   0.572  11.542 -1.6107 -2.2720  0.1494
 7009SOL     OW32662   1.357   3.309   3.836 -0.6724  0.1486 -0.2129
 7009SOL    HW132663   1.413   3.255   3.780  0.3974  2.4639 -1.3958
 7009SOL    HW232664   1.375   3.391   3.790 -0.1608 -0.3828 -0.9567
 7010SOL     OW32665   4.690   3.076   4.350 -0.2246 -0.5123 -0.6847
 7010SOL    HW132666   4.695   3.160   4.304 -0.0967  0.4716  1.1356
 7010SOL    HW232667   0.020   3.025   4.308 -1.2476 -1.5797 -1.0865
 7011SOL     OW32668   2.115   2.777   6.093 -0.0011 -0.4086  0.2148
 7011SOL    HW132669   2.175   2.840   6.053 -0.5672  0.4268  0.6795
 7011SOL    HW232670   2.038   2.833   6.104 -0.7360 -1.2338 -0.6774
 7012SOL     OW32671   3.911   0.625   5.124  0.1968  0.5210  1.0899
 7012SOL    HW132672   3.954   0.665   5.048 -2.3628  1.3697  0.0909
 7012SOL    HW232673   3.885   0.538   5.091  0.9681  1.3978 -1.8269
 7013SOL     OW32674   0.881   3.677   0.775  0.6620  0.2472 -0.1511
 7013SOL    HW132675   0.817   3.690   0.705  0.0716  0.5089  0.4385
 7013SOL    HW232676   0.830   3.669   0.856  0.2101  1.0886 -0.3591
 7014SOL     OW32677   2.743   0.829  10.331 -0.0685  0.2713  0.0266
 7014SOL    HW132678   2.733   0.820  10.426  0.1318  1.6800  0.1731
 7014SOL    HW232679   2.731   0.923  10.320  1.4521  0.4132 -0.3911
 7015SOL     OW32680   2.707   1.670   6.261 -0.0069 -0.3359 -0.6397
 7015SOL    HW132681   2.789   1.628   6.287 -0.2834 -1.9283 -2.3735
 7015SOL    HW232682   2.648   1.622   6.319  0.9078  1.6291  1.9102
 7016SOL     OW32683   1.537   4.314   7.385  0.1682 -0.0058  0.4423
 7016SOL    HW132684   1.471   4.368   7.343 -1.0353 -2.2134 -0.5351
 7016SOL    HW232685   1.587   4.374   7.440 -0.1694 -1.1634  2.0246
 7017SOL     OW32686   4.154   3.390  14.588  0.2540 -1.0364 -0.7361
 7017SOL    HW132687   4.088   3.459  14.596 -1.4302 -2.2502 -4.1970
 7017SOL    HW232688   4.122   3.328  14.654  0.0055  0.6292  0.7125
 7018SOL     OW32689   2.414   0.210   4.482  0.1925  0.2032 -0.1497
 7018SOL    HW132690   2.364   0.288   4.456  1.4126  0.5353 -1.4855
 7018SOL    HW232691   2.425   0.171   4.396 -1.6097 -1.5787  0.4442
 7019SOL     OW32692   3.069   1.132   5.006  0.0003  0.2280  0.4628
 7019SOL    HW132693   2.974   1.125   4.992 -0.1985  0.0067  1.9167
 7019SOL    HW232694   3.089   1.071   5.077  0.0017 -1.3162 -0.8811
 7020SOL     OW32695   0.926   4.157   4.007  0.1446  0.2766 -0.4529
 7020SOL    HW132696   0.965   4.082   3.962 -3.5479 -2.3436  0.7419
 7020SOL    HW232697   0.951   4.139   4.098  1.1062 -1.4610 -1.0676
 7021SOL     OW32698   2.672   3.947   2.773  0.3276  0.1983  0.0969
 7021SOL    HW132699   2.618   4.025   2.786  1.1781  0.6718  0.7982
 7021SOL    HW232700   2.600   3.886   2.758 -1.0400  1.7735  0.3653
 7022SOL     OW32701   1.744   2.656   8.008 -0.0811  0.0941 -0.2868
 7022SOL    HW132702   1.658   2.660   8.050 -0.5009 -1.0747 -1.0253
 7022SOL    HW232703   1.798   2.699   8.074 -1.7011  0.2077  0.9346
 7023SOL     OW32704   0.114   1.490   4.766 -0.3244  0.3825 -0.1077
 7023SOL    HW132705   0.055   1.476   4.691  1.7968 -0.3717 -1.6333
 7023SOL    HW232706   0.123   1.586   4.761  0.1197  0.3453  0.0307
 7024SOL     OW32707   3.387   1.712   3.537  0.8488 -0.4337 -0.1285
 7024SOL    HW132708   3.314   1.749   3.488  0.2128 -0.8847  0.4967
 7024SOL    HW232709   3.450   1.715   3.464  0.2648  4.0544 -0.4575
 7025SOL     OW32710   2.281   2.763   5.317  0.1269 -0.0702  0.1045
 7025SOL    HW132711   2.222   2.824   5.361 -2.5593 -2.1524 -0.5613
 7025SOL    HW232712   2.279   2.676   5.356 -1.4699  0.1477  0.5095
 7026SOL     OW32713   0.918   0.088  11.563 -0.5132  0.4892 -0.1221
 7026SOL    HW132714   0.981   0.134  11.620  0.2573  0.8194 -1.2284
 7026SOL    HW232715   0.980   0.057  11.497  0.7958 -0.6822  1.6505
 7027SOL     OW32716   3.933   4.688   6.452  0.1103 -0.6998  0.0923
 7027SOL    HW132717   3.872   4.700   6.525  0.5729 -0.5976  0.4615
 7027SOL    HW232718   3.921   4.596   6.431  1.4688 -0.8710  0.0728
 7028SOL     OW32719   4.554   4.540   2.211 -0.1523 -1.1337 -0.1956
 7028SOL    HW132720   4.505   4.559   2.131 -2.0419 -2.2834  0.6908
 7028SOL    HW232721   4.491   4.476   2.243 -0.5508 -1.2127 -1.1337
 7029SOL     OW32722   1.548   2.533  10.011  0.1307  0.0847  0.1638
 7029SOL    HW132723   1.481   2.475  10.046  0.9110 -2.7988 -3.2243
 7029SOL    HW232724   1.488   2.576   9.950  1.5587  0.8866 -0.6555
 7030SOL     OW32725   4.616   1.267   6.426  0.3128 -0.2960  0.5109
 7030SOL    HW132726   4.528   1.302   6.440  0.5287 -0.4603  2.2780
 7030SOL    HW232727   4.601   1.215   6.348 -2.2651  0.9449  0.1835
 7031SOL     OW32728   3.208   0.022   9.324  0.0265  0.2181  0.2678
 7031SOL    HW132729   3.168   4.681   9.290  0.6921  0.7342 -1.7020
 7031SOL    HW232730   3.213   4.734   9.416  1.1669  2.0770  0.7535
 7032SOL     OW32731   0.474   4.038   5.483  0.1324 -0.2461  0.4855
 7032SOL    HW132732   0.489   4.072   5.394 -1.5135  1.0227  0.7087
 7032SOL    HW232733   0.561   4.014   5.516 -0.8428 -2.6680  1.2731
 7033SOL     OW32734   3.635   2.827   7.862  0.2887  0.0506  0.1567
 7033SOL    HW132735   3.704   2.844   7.797 -0.7443  1.5511 -0.5513
 7033SOL    HW232736   3.684   2.765   7.915  1.0857 -0.7660 -1.5408
 7034SOL     OW32737   1.589   0.805   6.726  0.1484 -0.1774  0.0417
 7034SOL    HW132738   1.634   0.720   6.733 -1.3970 -0.9445  0.5346
 7034SOL    HW232739   1.517   0.796   6.788  1.4519  1.5520  1.7871
 7035SOL     OW32740   0.992   3.020   1.878 -0.2175 -0.3454  0.4928
 7035SOL    HW132741   0.961   3.058   1.961  1.4186  2.8172 -0.3171
 7035SOL    HW232742   1.008   3.103   1.834  0.2226 -0.3557  0.6318
 7036SOL     OW32743   2.849   3.266   2.636  0.2429 -0.0481 -0.5371
 7036SOL    HW132744   2.905   3.303   2.567 -0.2743  0.6611 -0.5808
 7036SOL    HW232745   2.839   3.335   2.702  0.2099 -2.1476  1.6138
 7037SOL     OW32746   1.868   2.883   9.690  0.3358 -0.0033 -0.6500
 7037SOL    HW132747   1.783   2.841   9.678  0.5026  0.2402 -2.5916
 7037SOL    HW232748   1.912   2.813   9.738 -0.9486  0.0372  0.5888
 7038SOL     OW32749   0.358   1.918   2.351 -0.1062  0.0762 -0.0013
 7038SOL    HW132750   0.347   1.830   2.387 -0.3181  0.0636 -0.0938
 7038SOL    HW232751   0.442   1.936   2.392  0.2280 -2.5052  0.4428
 7039SOL     OW32752   2.909   1.677   8.530 -0.0167  0.3299  0.0690
 7039SOL    HW132753   2.824   1.705   8.496 -0.3903 -0.0680  0.6985
 7039SOL    HW232754   2.897   1.684   8.624 -2.0333  0.9799 -0.2469
 7040SOL     OW32755   0.065   2.174  10.455  0.7682 -0.2663 -0.4464
 7040SOL    HW132756   0.103   2.258  10.483  1.7092 -0.4548 -1.1408
 7040SOL    HW232757   0.101   2.125  10.529 -1.1031  0.0509  0.6766
 7041SOL     OW32758   1.532   3.923  16.972  0.1447 -0.1725 -0.7424
 7041SOL    HW132759   1.496   3.876  16.897  0.2914 -0.7430 -0.4519
 7041SOL    HW232760   1.557   4.012  16.944 -1.0901  0.7138  0.9342
 7042SOL     OW32761   3.595   0.548   4.506  0.8847 -0.1240 -0.6228
 7042SOL    HW132762   3.517   0.535   4.452  0.7608  1.3529 -0.7991
 7042SOL    HW232763   3.568   0.513   4.591 -0.3932 -1.0062 -1.3890
 7043SOL     OW32764   0.373   2.336   3.997 -0.1494 -0.2356 -0.5658
 7043SOL    HW132765   0.440   2.401   3.979 -0.0733  0.5145  2.4237
 7043SOL    HW232766   0.326   2.350   3.915 -0.2223 -0.4907 -0.5688
 7044SOL     OW32767   2.777   1.053   2.619  0.0798  0.2588 -0.3547
 7044SOL    HW132768   2.747   1.056   2.528  3.1151  1.5238 -1.3285
 7044SOL    HW232769   2.864   1.014   2.618  1.0681  2.3522  2.0986
 7045SOL     OW32770   1.839   2.903   1.714 -0.1088 -0.4730  0.3532
 7045SOL    HW132771   1.903   2.970   1.691 -0.4949 -0.1374  0.2493
 7045SOL    HW232772   1.887   2.834   1.760  1.8852 -0.1876 -1.3269
 7046SOL     OW32773   3.163   3.579   8.857 -0.1165  0.3956  0.0531
 7046SOL    HW132774   3.073   3.553   8.839  0.4358 -1.7863  0.4297
 7046SOL    HW232775   3.184   3.631   8.779  0.6742 -0.7767 -0.5112
 7047SOL     OW32776   2.053   2.810   4.206  0.0863  0.6119  0.7126
 7047SOL    HW132777   1.968   2.854   4.199  0.2822  1.0866  1.3050
 7047SOL    HW232778   2.089   2.821   4.118 -0.6816  3.5540  0.7772
 7048SOL     OW32779   0.918   2.591   0.288  0.0187  0.3390 -0.0563
 7048SOL    HW132780   0.920   2.650   0.363  0.2730  0.5634 -0.2377
 7048SOL    HW232781   0.952   2.649   0.219 -1.8518  1.2795 -0.2073
 7049SOL     OW32782   2.243   3.329  17.536 -0.0856 -0.5028 -0.0631
 7049SOL    HW132783   2.150   3.349  17.523 -0.4694 -0.5011  2.8601
 7049SOL    HW232784   2.233   3.293  17.624  0.9095 -0.2375  0.1593
 7050SOL     OW32785   3.108   2.194   2.930  0.5466 -0.3763 -0.4760
 7050SOL    HW132786   3.144   2.106   2.939 -0.6128 -0.6944  1.0852
 7050SOL    HW232787   3.018   2.181   2.958  0.3194  0.5804 -0.7795
 7051SOL     OW32788   2.637   1.478   0.865 -0.2494  0.1789  0.0255
 7051SOL    HW132789   2.548   1.462   0.834  0.2584 -1.9333 -0.3262
 7051SOL    HW232790   2.694   1.405   0.840 -0.5242  0.9791 -2.8974
 7052SOL     OW32791   4.289   1.939   7.399 -0.1616 -0.1671 -0.4469
 7052SOL    HW132792   4.206   1.897   7.375  0.1757 -0.0248 -1.8446
 7052SOL    HW232793   4.280   2.020   7.350 -0.0289  1.9186  2.9826
 7053SOL     OW32794   2.137   1.705  14.909  0.0186 -0.6469 -0.3170
 7053SOL    HW132795   2.159   1.792  14.877 -1.4007 -0.3349 -0.4193
 7053SOL    HW232796   2.079   1.720  14.983  1.5456  0.3475  0.6775
 7054SOL     OW32797   1.140   2.161   7.482  0.1790 -0.6875  0.6481
 7054SOL    HW132798   1.104   2.239   7.524 -0.7087  0.0240 -1.4406
 7054SOL    HW232799   1.086   2.156   7.404  1.2494  4.2555 -0.4331
 7055SOL     OW32800   3.917   0.010  15.155 -0.4435  0.5062 -0.6187
 7055SOL    HW132801   3.955   4.720  15.238 -0.7716  3.2334  0.5002
 7055SOL    HW232802   3.952   4.684  15.095 -4.0280 -1.6139 -0.4121
 7056SOL     OW32803   4.674   1.362   5.658 -0.4945  0.2562 -0.3079
 7056SOL    HW132804   4.710   1.274   5.658 -0.7861  0.1335 -1.0248
 7056SOL    HW232805   4.608   1.350   5.589 -2.2427  1.4410  1.1541
 7057SOL     OW32806   1.838   1.521  10.170 -0.2644  0.2311 -0.3672
 7057SOL    HW132807   1.868   1.611  10.160  0.1600  0.1857  0.5317
 7057SOL    HW232808   1.854   1.486  10.082  0.9282  0.4841 -0.2630
 7058SOL     OW32809   0.802   2.910   6.855  0.2868  0.1835  0.0387
 7058SOL    HW132810   0.770   2.907   6.765 -0.6191 -1.8067  0.4298
 7058SOL    HW232811   0.883   2.960   6.843  0.4869 -0.0405  0.4534
 7059SOL     OW32812   0.119   3.180   1.204 -0.2379 -0.0803 -0.3402
 7059SOL    HW132813   0.061   3.159   1.130  0.7063 -2.2804 -0.4439
 7059SOL    HW232814   0.127   3.097   1.251  1.0547 -0.3045 -0.9541
 7060SOL     OW32815   4.220   1.611   4.859 -0.1416 -0.0767  0.5585
 7060SOL    HW132816   4.180   1.589   4.943  1.0020 -1.7019  0.6785
 7060SOL    HW232817   4.296   1.655   4.899  0.6961 -1.0961  0.0846
 7061SOL     OW32818   1.536   4.239   3.712 -0.5987  0.2388  0.2481
 7061SOL    HW132819   1.490   4.204   3.635 -1.1598  0.0841  0.6510
 7061SOL    HW232820   1.499   4.177   3.775  0.5240 -0.1330  0.5421
 7062SOL     OW32821   3.631   3.929   0.608  0.1029 -0.3759  0.2209
 7062SOL    HW132822   3.599   3.950   0.696 -1.6005 -0.1980 -0.4612
 7062SOL    HW232823   3.618   4.018   0.576 -0.1604  0.0357  1.4728
 7063SOL     OW32824   2.974   1.932   3.171 -0.1753 -0.1028  0.0292
 7063SOL    HW132825   2.893   1.888   3.196  0.6012 -1.6562 -0.2010
 7063SOL    HW232826   2.972   1.990   3.247 -1.9583 -1.5836  1.1151
 7064SOL     OW32827   1.166   4.205   8.330  0.6647  0.2987 -0.2236
 7064SOL    HW132828   1.128   4.292   8.336  0.7625  0.3784 -0.7680
 7064SOL    HW232829   1.225   4.224   8.257  2.8166 -0.2156  1.3698
 7065SOL     OW32830   3.022   1.998  14.869 -0.2142  0.0167  0.4720
 7065SOL    HW132831   3.081   1.923  14.859 -0.3271 -0.0844  0.5621
 7065SOL    HW232832   3.077   2.062  14.824  1.0224 -2.0098 -0.9512
 7066SOL     OW32833   3.476   3.379   1.348  0.4455 -0.1130 -0.1750
 7066SOL    HW132834   3.522   3.440   1.406  0.1019  0.4682 -0.5134
 7066SOL    HW232835   3.406   3.346   1.405  0.6451  0.2704  0.2837
 7067SOL     OW32836   2.786   2.718   7.722 -0.0717 -0.7370 -0.1099
 7067SOL    HW132837   2.796   2.654   7.794  0.1818 -0.1649  0.3638
 7067SOL    HW232838   2.875   2.722   7.686 -0.1331  1.8499  0.0636
 7068SOL     OW32839   0.105   1.322   4.983 -0.7263  0.2802 -0.0773
 7068SOL    HW132840   0.149   1.380   5.045  3.1198 -2.3610 -0.3428
 7068SOL    HW232841   0.122   1.367   4.899 -0.7392 -0.0240 -0.2428
 7069SOL     OW32842   2.000   2.680   1.834 -0.5471  0.0224  0.1857
 7069SOL    HW132843   2.079   2.628   1.842 -0.0257  0.7742 -0.0538
 7069SOL    HW232844   1.935   2.617   1.864 -0.3286 -0.8419 -1.1869
 7070SOL     OW32845   2.439   4.541   5.613  0.6957  0.0581 -0.4427
 7070SOL    HW132846   2.477   4.587   5.689 -0.5563  1.6316 -0.7708
 7070SOL    HW232847   2.463   4.588   5.533 -1.6115  0.1010 -1.0873
 7071SOL     OW32848   0.961   2.381   8.467  0.5975 -0.2536 -0.2085
 7071SOL    HW132849   0.925   2.356   8.552 -0.6417  4.1315  0.5907
 7071SOL    HW232850   0.947   2.475   8.476  0.3812 -0.2761 -0.3171
 7072SOL     OW32851   4.405   3.329   2.459  0.1557 -0.2844 -0.4966
 7072SOL    HW132852   4.435   3.383   2.533 -0.8963 -2.4370  1.5100
 7072SOL    HW232853   4.394   3.240   2.493 -0.9763 -0.4781 -1.3819
 7073SOL     OW32854   0.780   0.211   8.515 -0.5053  0.3843 -0.0478
 7073SOL    HW132855   0.833   0.258   8.451 -1.8835 -0.4518 -1.8228
 7073SOL    HW232856   0.813   0.253   8.594 -0.2662  0.5625 -0.2432
 7074SOL     OW32857   2.317   3.158  15.894 -0.0477 -0.1202 -0.0259
 7074SOL    HW132858   2.248   3.222  15.878  0.3095 -0.4511 -2.8217
 7074SOL    HW232859   2.344   3.174  15.985 -0.6420  1.8189 -0.1954
 7075SOL     OW32860   4.162   4.046   7.606  0.2633  0.7772 -0.4378
 7075SOL    HW132861   4.219   4.096   7.665  0.0804 -0.4397  0.7744
 7075SOL    HW232862   4.215   4.053   7.527  1.4583  2.3798  0.5028
 7076SOL     OW32863   3.960   4.327   5.640  0.2140 -0.6503  0.1065
 7076SOL    HW132864   4.034   4.281   5.600 -0.3859 -1.2707 -0.2920
 7076SOL    HW232865   3.902   4.258   5.672 -2.1404  0.7833 -1.1237
 7077SOL     OW32866   4.403   1.546   0.793 -0.2656  0.4384 -0.1811
 7077SOL    HW132867   4.416   1.597   0.712  0.7766 -0.0977 -0.3453
 7077SOL    HW232868   4.370   1.468   0.748  0.5066 -0.9129  1.6254
 7078SOL     OW32869   2.061   3.509  10.518  0.1451  0.6679 -0.3557
 7078SOL    HW132870   1.974   3.513  10.559  1.1715 -1.2632  1.9730
 7078SOL    HW232871   2.094   3.586  10.563  1.2811  0.1150 -0.2668
 7079SOL     OW32872   0.986   1.417   6.389 -0.1699  0.6295 -0.3744
 7079SOL    HW132873   1.018   1.498   6.348  0.7912  1.1808  1.4652
 7079SOL    HW232874   0.937   1.457   6.460 -2.0114 -0.3795 -1.0941
 7080SOL     OW32875   2.906   4.052  13.007 -0.2222 -0.2488 -0.4887
 7080SOL    HW132876   2.918   4.012  12.920  4.1493 -1.6213  0.7645
 7080SOL    HW232877   2.998   4.069  13.026 -0.4765  1.6075 -1.0061
 7081SOL     OW32878   2.282   0.916   8.530  0.2284 -0.5563 -0.4406
 7081SOL    HW132879   2.194   0.934   8.495  0.1955 -0.2756 -0.2159
 7081SOL    HW232880   2.269   0.835   8.579 -0.3734  0.2208  0.6933
 7082SOL     OW32881   4.295   0.640  17.615  0.2214 -0.2090  0.2066
 7082SOL    HW132882   4.204   0.671  17.625  0.1767  0.1981 -1.6029
 7082SOL    HW232883   4.297   0.623  17.521 -0.8228 -0.0526  0.1482
 7083SOL     OW32884   1.841   0.064  11.710 -0.0671 -0.0991 -0.2249
 7083SOL    HW132885   1.851   0.055  11.805  0.4735 -0.8512 -0.3594
 7083SOL    HW232886   1.931   0.049  11.683 -0.6246  0.0898 -2.1973
 7084SOL     OW32887   3.815   2.371   6.303 -0.5627 -0.6042  0.0606
 7084SOL    HW132888   3.799   2.279   6.283  0.8375 -0.8175 -0.1195
 7084SOL    HW232889   3.760   2.421   6.243 -1.4169 -1.4020  0.1857
 7085SOL     OW32890   2.756   3.458   4.480  0.0602 -0.2840  0.1692
 7085SOL    HW132891   2.756   3.549   4.452  0.5393 -0.8560 -1.6716
 7085SOL    HW232892   2.724   3.418   4.399 -0.4088 -1.3542  0.8757
 7086SOL     OW32893   4.274   2.692   0.481 -0.0284  0.0907  0.1808
 7086SOL    HW132894   4.246   2.616   0.532 -0.8399 -0.0727 -0.5070
 7086SOL    HW232895   4.329   2.657   0.411  0.0642 -1.1106  0.8562
 7087SOL     OW32896   3.348   0.739   8.260 -0.4293  0.7936  0.0975
 7087SOL    HW132897   3.375   0.778   8.343 -0.8076  1.8044 -0.2566
 7087SOL    HW232898   3.362   0.645   8.276  0.8003  1.0608  0.5569
 7088SOL     OW32899   3.050   0.622   2.189 -0.1412  0.4226 -0.0940
 7088SOL    HW132900   3.146   0.618   2.192 -0.1804  0.8014  1.8781
 7088SOL    HW232901   3.026   0.530   2.191 -1.7312  0.8625  0.8087
 7089SOL     OW32902   3.670   0.512  14.680  0.1267 -0.2220 -0.0625
 7089SOL    HW132903   3.599   0.564  14.719  0.5527  1.0916 -1.0343
 7089SOL    HW232904   3.629   0.483  14.598 -2.0567 -1.7914  1.5654
 7090SOL     OW32905   2.418   0.082   6.775 -0.5742  0.0392 -0.1822
 7090SOL    HW132906   2.377   4.735   6.781  3.2019 -1.7251 -0.5208
 7090SOL    HW232907   2.378   0.112   6.694 -1.2360  1.7082  0.7527
 7091SOL     OW32908   2.192   1.711   4.192  0.0985  0.3854  0.1146
 7091SOL    HW132909   2.205   1.799   4.158 -0.4370  0.6489  0.5898
 7091SOL    HW232910   2.232   1.734   4.276 -0.0753  0.5492  0.1526
 7092SOL     OW32911   4.469   1.828  11.204 -0.3141 -0.2354  0.6594
 7092SOL    HW132912   4.468   1.778  11.285 -0.8501 -0.6413  0.3986
 7092SOL    HW232913   4.558   1.865  11.210  0.2265 -1.5167  0.5153
 7093SOL     OW32914   3.769   1.495   1.505  0.4734 -0.3972 -0.6992
 7093SOL    HW132915   3.682   1.520   1.537  0.8712 -1.8299  1.5266
 7093SOL    HW232916   3.738   1.460   1.422  1.6479 -0.8748 -0.9277
 7094SOL     OW32917   0.799   4.090   5.973 -0.2714  0.1323 -0.4619
 7094SOL    HW132918   0.748   4.010   5.965 -1.6095  1.0612 -1.3167
 7094SOL    HW232919   0.753   4.153   5.917 -0.8114 -1.5334 -1.9001
 7095SOL     OW32920   4.236   2.564  12.515  0.3927  0.2557 -0.6276
 7095SOL    HW132921   4.321   2.521  12.519 -1.0788 -2.6102  0.2641
 7095SOL    HW232922   4.230   2.552  12.421 -1.3888  0.9628 -0.6113
 7096SOL     OW32923   0.407   2.729   0.910  0.3905 -0.2732 -0.4003
 7096SOL    HW132924   0.363   2.707   0.829 -1.8598  0.2187  0.7033
 7096SOL    HW232925   0.386   2.823   0.904  1.3437 -0.2184 -2.7584
 7097SOL     OW32926   0.164   4.343   3.273 -0.4297  0.1500 -0.2345
 7097SOL    HW132927   0.149   4.375   3.184  0.8726  0.6499 -0.2788
 7097SOL    HW232928   0.245   4.293   3.262  0.4796  1.1564  1.9302
 7098SOL     OW32929   3.844   4.718   8.218  0.0098  0.3653  0.7237
 7098SOL    HW132930   3.906   4.677   8.278 -1.4821 -1.8655  0.7449
 7098SOL    HW232931   3.894   4.709   8.137 -0.9633  1.6954 -0.0242
 7099SOL     OW32932   1.214   1.639   0.399  0.0047 -0.3947 -1.0678
 7099SOL    HW132933   1.214   1.702   0.472  0.6594 -1.9652  0.2793
 7099SOL    HW232934   1.214   1.557   0.447  1.6363 -1.3499 -2.6854
 7100SOL     OW32935   2.487   1.261   1.596  0.1381  0.4959  0.3054
 7100SOL    HW132936   2.545   1.187   1.578  0.0297  0.3225  0.6680
 7100SOL    HW232937   2.531   1.330   1.546  0.3494 -1.1869 -1.8100
 7101SOL     OW32938   1.267   4.513   9.060 -0.4106  0.5919 -0.1615
 7101SOL    HW132939   1.304   4.463   9.133  0.9731 -1.3026 -2.1494
 7101SOL    HW232940   1.284   4.604   9.084 -0.7355  0.7452 -0.5163
 7102SOL     OW32941   1.041   1.029  17.291  0.2865 -0.0156  0.1303
 7102SOL    HW132942   0.996   0.968  17.349 -0.9531  2.8041  2.1080
 7102SOL    HW232943   0.980   1.102  17.291 -0.3938 -0.5731 -2.9963
 7103SOL     OW32944   2.999   2.460   7.571 -0.7288 -0.0919 -0.0654
 7103SOL    HW132945   3.006   2.532   7.633 -1.4952 -0.2921  0.2475
 7103SOL    HW232946   3.073   2.400   7.584 -1.7119 -1.7025 -1.7015
 7104SOL     OW32947   4.466   3.902  13.113 -0.0797  0.1935  0.0354
 7104SOL    HW132948   4.416   3.870  13.038 -1.0049 -1.1519  1.2199
 7104SOL    HW232949   4.441   3.994  13.100  1.6613  0.3364 -2.3936
 7105SOL     OW32950   3.527   2.213   9.054  0.5856 -0.0475 -0.4386
 7105SOL    HW132951   3.439   2.209   9.092  0.9784 -0.4247  0.4356
 7105SOL    HW232952   3.519   2.130   9.006  0.5458  0.1557 -0.7870
 7106SOL     OW32953   2.944   3.421   6.672 -0.3340 -0.1042  0.7025
 7106SOL    HW132954   2.902   3.377   6.598  1.4591  1.8430 -1.4789
 7106SOL    HW232955   2.921   3.355   6.738 -0.5540  0.0025  0.7318
 7107SOL     OW32956   1.366   2.893  14.093  0.0340 -0.1139  0.0999
 7107SOL    HW132957   1.405   2.950  14.026  2.1328 -1.4605  0.1723
 7107SOL    HW232958   1.390   2.810  14.052  1.9675 -0.1304  1.2733
 7108SOL     OW32959   3.859   2.684   7.979  0.4583 -0.2597  1.0517
 7108SOL    HW132960   3.934   2.627   7.996  0.7132 -0.2106  0.0902
 7108SOL    HW232961   3.869   2.743   8.054  0.1715  1.7122 -0.4443
 7109SOL     OW32962   2.747   1.399   9.426 -0.3336 -0.2448  1.0054
 7109SOL    HW132963   2.713   1.320   9.383  0.6887 -0.3447  0.3798
 7109SOL    HW232964   2.682   1.461   9.393 -0.5408  0.1018  2.0769
 7110SOL     OW32965   1.034   1.459  10.722 -0.4395 -0.0539  0.4834
 7110SOL    HW132966   1.094   1.397  10.763 -0.5864  0.5031  1.5332
 7110SOL    HW232967   1.016   1.416  10.638  1.7499  0.6750 -0.3514
 7111SOL     OW32968   1.914   4.141   4.211 -0.2709 -0.6431  0.0647
 7111SOL    HW132969   1.942   4.068   4.155 -0.7457 -1.1771  0.5241
 7111SOL    HW232970   1.819   4.145   4.207 -0.3930 -1.6090  2.3140
 7112SOL     OW32971   3.565   3.150   8.448  0.9408  0.1372 -0.2913
 7112SOL    HW132972   3.626   3.220   8.472  1.1501 -0.2644  0.3341
 7112SOL    HW232973   3.552   3.111   8.534  1.4840 -1.6971 -1.0345
 7113SOL     OW32974   3.372   3.783   7.946 -0.8597  0.2419  0.1540
 7113SOL    HW132975   3.433   3.852   7.971 -0.7936 -0.0060  0.6926
 7113SOL    HW232976   3.346   3.751   8.032 -0.1935  3.3602  1.5199
 7114SOL     OW32977   1.551   3.605   2.870 -0.0290  0.2619  0.8606
 7114SOL    HW132978   1.515   3.670   2.811  0.3416 -0.4932 -0.2032
 7114SOL    HW232979   1.516   3.528   2.825  1.6507  0.0298 -0.0609
 7115SOL     OW32980   3.171   1.553  15.548  0.1268 -0.1557  0.6106
 7115SOL    HW132981   3.136   1.613  15.614  0.0912  1.5733 -0.9924
 7115SOL    HW232982   3.242   1.512  15.598  0.4355 -1.0652 -0.5691
 7116SOL     OW32983   1.742   2.668   4.434  0.1011  0.2410 -0.3633
 7116SOL    HW132984   1.836   2.652   4.434  0.1185  0.4102  2.7733
 7116SOL    HW232985   1.730   2.720   4.513  2.0760  2.3508 -1.4488
 7117SOL     OW32986   1.333   4.487   5.892 -0.1434 -0.1824  0.0442
 7117SOL    HW132987   1.428   4.484   5.899 -0.2189 -1.6391  0.3712
 7117SOL    HW232988   1.311   4.395   5.900  2.7292 -0.9877 -1.1274
 7118SOL     OW32989   2.469   2.106  11.739  0.5016  0.3055 -0.5199
 7118SOL    HW132990   2.537   2.122  11.674  1.0736 -0.3385 -0.0790
 7118SOL    HW232991   2.495   2.019  11.768  1.9630  1.1019  0.5402
 7119SOL     OW32992   1.209   2.545   5.082  0.2574  0.3218  0.1530
 7119SOL    HW132993   1.225   2.630   5.123 -1.2872  1.3487 -1.3646
 7119SOL    HW232994   1.125   2.564   5.041 -1.2983 -1.2365  2.6387
 7120SOL     OW32995   4.460   2.279   8.116 -0.2619 -0.2375 -0.3804
 7120SOL    HW132996   4.386   2.218   8.118 -0.6388  0.1883 -1.1868
 7120SOL    HW232997   4.485   2.275   8.208 -0.7164 -2.5638 -0.3545
 7121SOL     OW32998   3.245   2.558   1.882  0.2475 -0.2243 -0.3160
 7121SOL    HW132999   3.195   2.490   1.837 -0.7068 -0.4504  1.0997
 7121SOL    HW233000   3.200   2.561   1.967 -2.1744  0.9784 -1.6395
 7122SOL     OW33001   1.075   2.597  17.652  0.4367  0.2171  0.1945
 7122SOL    HW133002   1.028   2.676  17.676 -0.2752  0.5527 -2.3519
 7122SOL    HW233003   1.104   2.610  17.561 -2.3297 -2.4157 -1.0611
 7123SOL     OW33004   2.727   2.606   1.682 -0.7297 -0.3937 -0.6327
 7123SOL    HW133005   2.636   2.633   1.669 -0.0912  1.7382 -0.5273
 7123SOL    HW233006   2.734   2.648   1.768 -0.6593 -3.0903  0.6835
 7124SOL     OW33007   2.588   1.177   6.269  0.3026 -0.4837  0.1294
 7124SOL    HW133008   2.534   1.127   6.208 -1.0584  1.7587 -0.4910
 7124SOL    HW233009   2.666   1.121   6.264  0.4917 -0.5454  3.5778
 7125SOL     OW33010   3.931   4.197   4.629  0.5553 -0.5976 -0.0923
 7125SOL    HW133011   3.925   4.226   4.720  2.2415  0.9868 -0.4830
 7125SOL    HW233012   3.881   4.116   4.629 -1.8945  0.9235 -1.4653
 7126SOL     OW33013   3.857   3.106   1.318 -0.1606  0.2156 -0.1145
 7126SOL    HW133014   3.846   3.015   1.290  1.4373  0.0827 -0.2756
 7126SOL    HW233015   3.920   3.142   1.256 -0.4551  0.3922 -0.3105
 7127SOL     OW33016   3.413   0.789  15.248  0.3393  0.1311 -0.3308
 7127SOL    HW133017   3.467   0.849  15.299 -0.1958  1.1989 -1.0307
 7127SOL    HW233018   3.463   0.708  15.246  2.8417  1.6676  0.0187
 7128SOL     OW33019   1.190   2.765  12.814 -0.1114  0.2505 -0.0023
 7128SOL    HW133020   1.122   2.698  12.806 -1.3362  1.2221  2.4192
 7128SOL    HW233021   1.267   2.718  12.785 -0.4892  1.0791 -2.3373
 7129SOL     OW33022   0.051   4.286   8.065 -0.3713 -0.7904 -0.3840
 7129SOL    HW133023   4.696   4.298   8.074 -0.7608 -3.9458 -0.3179
 7129SOL    HW233024   0.055   4.263   7.972 -0.0325 -2.1096 -0.0400
 7130SOL     OW33025   0.716   1.531   7.422 -0.2283 -0.4981  0.3852
 7130SOL    HW133026   0.684   1.543   7.511 -1.7859  1.2925 -0.4258
 7130SOL    HW233027   0.635   1.497   7.385  1.2964 -2.1102 -1.4773
 7131SOL     OW33028   3.276   4.380  12.904  0.4900  0.3609 -0.1627
 7131SOL    HW133029   3.328   4.444  12.953 -0.5135  0.1729  1.1419
 7131SOL    HW233030   3.188   4.412  12.924 -0.0722 -0.9213 -0.5791
 7132SOL     OW33031   2.751   2.066   7.809  0.2952 -0.3531 -0.3035
 7132SOL    HW133032   2.693   2.061   7.885 -1.4616  0.6338 -1.5781
 7132SOL    HW233033   2.836   2.091   7.846  0.5000 -2.1760  0.4476
 7133SOL     OW33034   0.058   1.356   6.034 -0.1443 -0.0223 -0.2462
 7133SOL    HW133035   4.709   1.372   6.066 -0.7367  0.9233 -2.3468
 7133SOL    HW233036   0.074   1.271   6.076 -2.6670  0.3772  1.5535
 7134SOL     OW33037   2.347   2.279   8.784  0.5475 -0.3797 -0.1802
 7134SOL    HW133038   2.332   2.207   8.723  1.4981  1.5882 -2.6933
 7134SOL    HW233039   2.330   2.355   8.729 -2.2999 -0.6422  0.3372
 7135SOL     OW33040   1.213   2.961   8.344 -0.0076  0.2572  0.5071
 7135SOL    HW133041   1.141   3.001   8.393 -0.0367  0.1088  0.5848
 7135SOL    HW233042   1.284   2.988   8.402  2.1102 -0.8485 -1.5793
 7136SOL     OW33043   3.191   4.643   4.786 -0.5872 -0.7432 -0.1429
 7136SOL    HW133044   3.103   4.607   4.796 -0.8282 -0.6005 -1.7910
 7136SOL    HW233045   3.201   4.629   4.692  0.3038 -1.9675  0.1286
 7137SOL     OW33046   2.707   0.762  14.547 -0.1546 -0.1441 -0.3423
 7137SOL    HW133047   2.640   0.696  14.565 -0.3586 -0.3950 -2.0423
 7137SOL    HW233048   2.786   0.709  14.556 -0.1202 -0.4391 -2.4456
 7138SOL     OW33049   2.973   3.932  11.558 -0.1465  0.1115  0.0481
 7138SOL    HW133050   3.028   3.947  11.481  0.2275  0.8398  0.4635
 7138SOL    HW233051   2.889   3.923  11.512  0.3996  0.5814 -1.0457
 7139SOL     OW33052   4.502   3.459   5.508  0.5445 -0.1468  0.0996
 7139SOL    HW133053   4.409   3.474   5.524  0.6476 -1.5374  1.9457
 7139SOL    HW233054   4.531   3.445   5.598  0.4616  0.4437  0.2180
 7140SOL     OW33055   1.794   3.672  14.355 -0.2144 -0.4110  0.5980
 7140SOL    HW133056   1.887   3.647  14.360 -0.4709 -1.4765  0.0396
 7140SOL    HW233057   1.782   3.755  14.308  0.3525 -1.0357 -0.6731
 7141SOL     OW33058   1.093   4.266  14.753 -0.2190 -0.2743  0.6060
 7141SOL    HW133059   1.034   4.220  14.693  2.2219 -0.9381 -1.2499
 7141SOL    HW233060   1.029   4.309  14.810 -0.8764  2.1876 -1.9924
 7142SOL     OW33061   0.868   2.011   1.894  0.1266  0.2398  0.7136
 7142SOL    HW133062   0.881   2.018   1.800  2.0377 -1.2349  0.8495
 7142SOL    HW233063   0.955   1.989   1.928 -1.0087 -2.9555  1.5594
 7143SOL     OW33064   3.513   3.016   9.587 -0.3110  0.1589 -0.1479
 7143SOL    HW133065   3.547   2.928   9.601  1.6667  1.2885  2.2211
 7143SOL    HW233066   3.541   3.036   9.498  4.5545 -0.4249  1.2283
 7144SOL     OW33067   0.016   2.799   2.036  0.2982 -1.0914  0.3168
 7144SOL    HW133068   0.098   2.752   2.020  0.2968 -0.9331 -0.1550
 7144SOL    HW233069   0.034   2.826   2.126 -0.5687 -1.7494  0.6844
 7145SOL     OW33070   4.489   0.975  11.657  0.0419  0.1838 -0.2151
 7145SOL    HW133071   4.470   1.005  11.746 -0.4091  1.1467 -0.6516
 7145SOL    HW233072   4.560   1.037  11.642  1.5955 -1.9520 -1.8113
 7146SOL     OW33073   0.465   2.568   2.775  0.2092 -0.2065 -0.2814
 7146SOL    HW133074   0.558   2.550   2.789  0.2125  0.2149  0.2565
 7146SOL    HW233075   0.445   2.574   2.869  1.4985 -0.1125 -0.0061
 7147SOL     OW33076   1.555   1.657   7.641  0.1347  0.6246 -0.3082
 7147SOL    HW133077   1.585   1.707   7.565 -0.4601  4.1380  1.7598
 7147SOL    HW233078   1.632   1.648   7.697 -0.8160 -1.1819  0.6915
 7148SOL     OW33079   0.612   4.101   4.593 -0.4578 -0.0146  0.2137
 7148SOL    HW133080   0.692   4.094   4.645  0.1967 -3.1616 -1.2295
 7148SOL    HW233081   0.619   4.026   4.535  2.6952 -0.1790  0.7751
 7149SOL     OW33082   1.251   2.439   5.833  0.1465  0.1568 -0.1038
 7149SOL    HW133083   1.179   2.377   5.820 -1.4887  2.1597 -0.5785
 7149SOL    HW233084   1.275   2.441   5.741  1.4336 -0.6821  0.1970
 7150SOL     OW33085   2.273   0.454   1.633 -0.1470 -0.4454  0.3780
 7150SOL    HW133086   2.342   0.466   1.568  1.4255  0.4743  2.1982
 7150SOL    HW233087   2.317   0.456   1.718 -1.9423  2.7985  1.2376
 7151SOL     OW33088   1.872   3.422   4.342 -0.0529 -0.9878 -0.4561
 7151SOL    HW133089   1.849   3.342   4.388  0.1366 -0.3336  0.7761
 7151SOL    HW233090   1.965   3.414   4.361 -0.2832 -0.8846  0.6889
 7152SOL     OW33091   3.555   1.971   1.179 -0.5202 -0.2083 -0.1548
 7152SOL    HW133092   3.580   1.915   1.105  2.0367  3.7171 -2.2141
 7152SOL    HW233093   3.459   1.974   1.171 -0.5037 -0.2421 -0.3748
 7153SOL     OW33094   3.331   1.909   4.383  0.1437 -0.3622  0.1557
 7153SOL    HW133095   3.375   1.837   4.339 -0.4627 -0.6425  0.0197
 7153SOL    HW233096   3.282   1.854   4.444  0.7207  0.6540  1.5552
 7154SOL     OW33097   3.618   4.673   0.118 -0.5516  0.6546 -0.0720
 7154SOL    HW133098   3.655   0.016   0.089 -1.1385  0.6103 -0.9490
 7154SOL    HW233099   3.695   4.619   0.102  0.4437  1.0324  3.4514
 7155SOL     OW33100   3.926   1.539   2.790  0.1045 -1.2207 -0.1577
 7155SOL    HW133101   3.847   1.588   2.813  1.5081  1.3823 -0.9657
 7155SOL    HW233102   3.948   1.489   2.869  1.8220  1.8743  1.3146
 7156SOL     OW33103   2.001   1.154   3.222  0.3231  0.6459 -0.1987
 7156SOL    HW133104   2.050   1.206   3.286 -1.5264  0.7834  1.0874
 7156SOL    HW233105   1.912   1.164   3.254 -0.4617  0.9351 -2.4655
 7157SOL     OW33106   3.741   2.693   7.509  0.1216 -0.3655 -0.0078
 7157SOL    HW133107   3.701   2.621   7.557  0.2100 -1.3784 -1.4379
 7157SOL    HW233108   3.701   2.680   7.423  1.6670 -0.9186 -0.6616
 7158SOL     OW33109   1.077   1.726   4.454 -0.2005 -0.1512 -0.0866
 7158SOL    HW133110   1.074   1.651   4.394 -1.0617 -1.0617  1.0804
 7158SOL    HW233111   1.001   1.711   4.511  0.5614 -0.0174  0.9690
 7159SOL     OW33112   1.764   2.511  11.664 -0.1402 -0.0220 -0.0740
 7159SOL    HW133113   1.852   2.502  11.701 -1.3376 -1.5223  2.3256
 7159SOL    HW233114   1.780   2.586  11.606 -1.7418  0.2081 -0.2215
 7160SOL     OW33115   2.278   1.671   7.543 -0.6875  0.0166 -0.4719
 7160SOL    HW133116   2.367   1.701   7.527 -0.8802  0.7666 -0.1813
 7160SOL    HW233117   2.290   1.599   7.604 -0.6648 -0.1908 -0.7250
 7161SOL     OW33118   1.537   2.487  10.428  0.5561 -0.1945 -0.1586
 7161SOL    HW133119   1.595   2.513  10.500 -1.4479 -0.8825  1.6939
 7161SOL    HW233120   1.581   2.421  10.375  0.2546 -1.1613  0.7753
 7162SOL     OW33121   3.770   0.267   7.667  0.4524  0.3227  0.6045
 7162SOL    HW133122   3.862   0.244   7.656  1.1685  2.7055  1.6757
 7162SOL    HW233123   3.730   0.223   7.592  0.1455  1.2786  0.2016
 7163SOL     OW33124   0.845   4.073   1.922 -0.2989 -0.5475  0.2264
 7163SOL    HW133125   0.925   4.126   1.923 -1.0932  0.6421 -0.1214
 7163SOL    HW233126   0.833   4.054   2.015 -1.3728  0.3079  0.2536
 7164SOL     OW33127   0.885   2.835  13.607 -0.1131 -0.1405 -0.6737
 7164SOL    HW133128   0.963   2.886  13.629 -2.0181  3.0146 -1.1568
 7164SOL    HW233129   0.922   2.766  13.553  1.3269 -0.8329  1.1971
 7165SOL     OW33130   2.818   3.981   1.192  0.2342  0.3070  0.3507
 7165SOL    HW133131   2.909   3.979   1.162 -0.7492  1.3801 -2.6730
 7165SOL    HW233132   2.812   3.938   1.278  0.2414 -0.1148  0.1382
 7166SOL     OW33133   2.105   4.056   7.137 -0.5390 -0.0094 -0.1197
 7166SOL    HW133134   2.085   4.102   7.055  0.9277 -1.2753 -1.1910
 7166SOL    HW233135   2.196   4.029   7.122 -0.9643 -1.2120 -0.5566
 7167SOL     OW33136   3.994   0.212   9.994 -0.4489  0.4496 -0.8717
 7167SOL    HW133137   4.065   0.276   9.993 -0.3532  0.4185  2.1146
 7167SOL    HW233138   3.994   0.177   9.905  0.1866 -0.4613 -0.5122
 7168SOL     OW33139   1.993   3.576   2.057 -0.2519 -0.2006 -0.3508
 7168SOL    HW133140   1.942   3.650   2.088 -2.9098 -2.0641 -0.2289
 7168SOL    HW233141   2.033   3.605   1.975  1.1444 -0.5193  0.2190
 7169SOL     OW33142   2.623   0.498   7.259  0.2664  0.0717 -0.0633
 7169SOL    HW133143   2.558   0.498   7.189 -0.3270 -2.2472  0.4966
 7169SOL    HW233144   2.593   0.569   7.316 -1.1151  0.3927 -1.2023
 7170SOL     OW33145   2.032   2.900   5.398  0.3563 -0.0842  0.8844
 7170SOL    HW133146   1.980   2.820   5.404 -0.6526  0.3548 -2.0245
 7170SOL    HW233147   1.963   2.963   5.417 -0.8361 -0.5548 -1.8621
 7171SOL     OW33148   2.790   2.388   2.816  0.1115 -0.0863 -0.7273
 7171SOL    HW133149   2.811   2.461   2.875 -1.2196 -0.8282  0.6597
 7171SOL    HW233150   2.704   2.410   2.781  1.1721  2.0675 -2.0054
 7172SOL     OW33151   3.457   1.124   4.567  0.1313  0.4222  0.0774
 7172SOL    HW133152   3.441   1.202   4.621  1.4124 -0.0052  1.0717
 7172SOL    HW233153   3.411   1.138   4.485 -1.4445 -2.4276  0.5131
 7173SOL     OW33154   0.822   4.636   9.811  0.0840 -0.5243  0.1630
 7173SOL    HW133155   0.753   4.643   9.745 -2.5591  0.8012  3.0524
 7173SOL    HW233156   0.883   4.579   9.764 -0.0746  0.0068 -0.6901
 7174SOL     OW33157   1.465   3.694   7.888 -0.0151  0.1213 -0.6125
 7174SOL    HW133158   1.547   3.643   7.892 -0.0884  0.1225  1.2311
 7174SOL    HW233159   1.509   3.771   7.925 -2.1568  1.0163  0.0397
 7175SOL     OW33160   3.824   4.609   4.908  0.0118 -0.0315 -0.3808
 7175SOL    HW133161   3.887   4.676   4.881  1.4669 -0.1295  2.8022
 7175SOL    HW233162   3.764   4.662   4.960  1.4904  2.9060 -1.6538
 7176SOL     OW33163   3.598   4.654   2.410 -0.0895 -0.0202  0.5088
 7176SOL    HW133164   3.655   4.670   2.485  0.1345  1.5336 -0.0041
 7176SOL    HW233165   3.566   0.004   2.398 -0.3511 -0.1908 -0.0620
 7177SOL     OW33166   4.283   2.656  10.073  0.6085  0.0774 -0.0193
 7177SOL    HW133167   4.354   2.641  10.011 -0.0390 -2.9945  0.0031
 7177SOL    HW233168   4.316   2.607  10.148 -0.6851 -0.0353  0.4810
 7178SOL     OW33169   4.203   4.503   8.886 -0.5324 -0.3958  0.2241
 7178SOL    HW133170   4.263   4.546   8.947 -0.7703 -1.2922  1.1013
 7178SOL    HW233171   4.126   4.485   8.940 -0.1388 -1.6570  0.3764
 7179SOL     OW33172   2.232   2.341   2.879 -0.1671 -0.5198  0.2423
 7179SOL    HW133173   2.232   2.355   2.785 -0.0637 -0.3092  0.2746
 7179SOL    HW233174   2.211   2.247   2.879  3.3221 -1.2900  0.2533
 7180SOL     OW33175   4.255   3.037   2.319 -0.2241 -0.7025  0.3090
 7180SOL    HW133176   4.213   3.042   2.404 -1.4229  2.6013 -0.4978
 7180SOL    HW233177   4.235   3.127   2.292 -0.4385 -0.8832 -0.1424
 7181SOL     OW33178   3.464   0.565   5.068  0.0576 -0.2296  0.0695
 7181SOL    HW133179   3.488   0.651   5.034  0.8749  0.7187  3.0875
 7181SOL    HW233180   3.404   0.585   5.140 -2.5214 -1.6551 -1.6947
 7182SOL     OW33181   0.252   1.567   1.188 -0.4107 -0.1688 -0.0952
 7182SOL    HW133182   0.253   1.603   1.100 -0.6555 -1.5377 -0.6479
 7182SOL    HW233183   0.160   1.542   1.189 -0.1431 -1.1773 -0.6758
 7183SOL     OW33184   1.363   2.011   3.305  0.4749  0.0469  0.6651
 7183SOL    HW133185   1.271   1.985   3.308 -0.1657  2.3526  1.0246
 7183SOL    HW233186   1.347   2.099   3.339  0.2921  1.5097 -3.1660
 7184SOL     OW33187   1.052   4.348   7.988  0.5635 -0.3639 -0.0943
 7184SOL    HW133188   1.103   4.278   7.948  2.3014 -0.3407  2.0959
 7184SOL    HW233189   1.014   4.306   8.066  1.0153 -1.5073 -0.4853
 7185SOL     OW33190   3.890   2.550   2.755  0.1868 -0.0469 -0.0735
 7185SOL    HW133191   3.869   2.478   2.695 -1.8494 -0.8840  1.6474
 7185SOL    HW233192   3.820   2.525   2.815  1.2670 -1.8409  0.4459
 7186SOL     OW33193   4.697   4.688   6.214 -0.0296 -0.2419 -0.2129
 7186SOL    HW133194   0.014   4.638   6.273  1.1670  0.9377 -0.3779
 7186SOL    HW233195   4.727   0.035   6.241 -0.7192 -0.7008  2.0201
 7187SOL     OW33196   1.103   0.600   7.836  0.0899  0.1137 -0.1613
 7187SOL    HW133197   1.067   0.604   7.925  0.8624  0.4376  0.1307
 7187SOL    HW233198   1.039   0.651   7.786  0.5842  0.8621 -0.0306
 7188SOL     OW33199   0.442   4.154  12.164  0.0488 -0.0237  0.0073
 7188SOL    HW133200   0.422   4.243  12.191 -0.2575 -0.0573 -0.1041
 7188SOL    HW233201   0.354   4.127  12.136  0.0241 -1.2405  1.2573
 7189SOL     OW33202   2.503   1.877   5.414 -0.5324  0.1946 -0.1089
 7189SOL    HW133203   2.575   1.814   5.409 -0.0858  0.7438 -0.5799
 7189SOL    HW233204   2.536   1.945   5.472  0.3275 -0.0529 -0.3027
 7190SOL     OW33205   0.355   4.314  12.873  0.1187 -0.0055 -0.1839
 7190SOL    HW133206   0.450   4.329  12.871 -0.0489  0.8565 -1.6088
 7190SOL    HW233207   0.323   4.400  12.846 -0.8784  0.3449  2.0559
 7191SOL     OW33208   4.692   2.162   3.682 -0.2799  0.3333  0.3181
 7191SOL    HW133209   4.600   2.145   3.662  0.4579 -2.6702 -0.4968
 7191SOL    HW233210   4.732   2.155   3.596 -0.7286 -1.7126  0.2790
 7192SOL     OW33211   0.665   2.687   7.651 -0.0531  0.2152 -0.1790
 7192SOL    HW133212   0.624   2.630   7.586 -1.2433  1.6996 -0.7175
 7192SOL    HW233213   0.740   2.631   7.675  0.0180  0.5308  0.3475
 7193SOL     OW33214   1.419   2.798   7.856 -0.4321 -0.6423  0.1626
 7193SOL    HW133215   1.433   2.715   7.810 -1.5992 -0.8781  0.2240
 7193SOL    HW233216   1.468   2.860   7.803 -0.4537 -0.5098  0.2985
 7194SOL     OW33217   4.703   4.362  11.138 -0.5086  0.0876 -0.9430
 7194SOL    HW133218   0.055   4.387  11.123  0.2660 -1.1615  1.7282
 7194SOL    HW233219   4.710   4.318  11.223  0.9971  1.4005 -0.3871
 7195SOL     OW33220   1.727   3.908   3.946  0.4934  0.1488  0.4040
 7195SOL    HW133221   1.810   3.953   3.958  0.6547 -0.1096  0.2523
 7195SOL    HW233222   1.723   3.865   4.032  1.2907 -1.8456 -0.5479
 7196SOL     OW33223   0.846   1.590   2.623  0.2023  0.3033  0.0818
 7196SOL    HW133224   0.821   1.526   2.556 -3.6579  2.7834 -0.7925
 7196SOL    HW233225   0.915   1.633   2.572 -0.1553  0.0957 -0.5767
 7197SOL     OW33226   1.503   4.119   8.488  0.7462  0.7516  0.1563
 7197SOL    HW133227   1.506   4.174   8.565 -3.1327 -1.2879  1.7248
 7197SOL    HW233228   1.412   4.113   8.461  0.2870  2.6242  1.3717
 7198SOL     OW33229   2.268   1.966   3.552 -0.1118  0.1748  0.4695
 7198SOL    HW133230   2.360   1.948   3.570 -0.2851 -1.7322 -0.5040
 7198SOL    HW233231   2.278   2.030   3.482 -0.9539  0.1638  0.3360
 7199SOL     OW33232   2.016   4.618   8.738 -0.1835 -0.3498 -0.4388
 7199SOL    HW133233   1.953   4.653   8.802 -0.2412 -1.7336  0.2597
 7199SOL    HW233234   2.091   4.677   8.734 -1.0306  0.7537 -0.3969
 7200SOL     OW33235   1.174   4.493   1.861 -0.1478 -0.0748  0.2184
 7200SOL    HW133236   1.117   4.525   1.931  1.9420  0.6512  1.5794
 7200SOL    HW233237   1.224   4.433   1.917  3.9320  2.0128 -1.1872
 7201SOL     OW33238   2.734   3.841  14.589  0.1455 -0.0669 -1.1281
 7201SOL    HW133239   2.818   3.844  14.544  1.0549 -1.7096  0.4175
 7201SOL    HW233240   2.735   3.745  14.587 -0.5881 -0.0711 -1.4067
 7202SOL     OW33241   2.936   0.899   2.961  0.2251  0.5876 -0.3804
 7202SOL    HW133242   2.923   0.813   2.921  1.2095  0.4923 -0.4874
 7202SOL    HW233243   2.990   0.950   2.901 -0.5231  0.5683 -1.0733
 7203SOL     OW33244   1.428   0.671   6.947 -0.1062  0.4041 -0.2209
 7203SOL    HW133245   1.443   0.750   6.998 -1.1405  1.2878 -1.2982
 7203SOL    HW233246   1.334   0.656   6.961 -0.4553  1.3291 -1.6530
 7204SOL     OW33247   2.276   4.222   3.465 -0.2917  0.2375 -0.9342
 7204SOL    HW133248   2.362   4.259   3.444  0.2828  0.3253  1.6242
 7204SOL    HW233249   2.302   4.142   3.510 -0.8168 -0.6391 -2.1823
 7205SOL     OW33250   0.806   0.382   0.459 -0.0191 -0.9288 -0.8248
 7205SOL    HW133251   0.812   0.293   0.424  3.1346 -1.4561  1.0673
 7205SOL    HW233252   0.770   0.432   0.386  1.1456  1.6868  0.3714
 7206SOL     OW33253   3.905   2.612  13.682  0.1771 -0.1441 -0.0650
 7206SOL    HW133254   3.834   2.553  13.709  1.5948 -0.2141  3.3795
 7206SOL    HW233255   3.938   2.639  13.767  2.1685  0.4783 -1.0480
 7207SOL     OW33256   4.410   2.911  16.202  0.0846 -0.0546 -0.5545
 7207SOL    HW133257   4.329   2.864  16.224  0.5089 -0.0329  1.0544
 7207SOL    HW233258   4.397   2.975  16.272  0.8875 -0.5053  0.0052
 7208SOL     OW33259   4.275   4.629  10.259 -0.0878  0.1707 -0.6178
 7208SOL    HW133260   4.336   4.700  10.277 -0.9250  0.9285 -0.7756
 7208SOL    HW233261   4.197   4.666  10.300  0.6747 -1.5184  2.4293
 7209SOL     OW33262   0.122   0.087   2.768  0.0090  0.7428  0.2591
 7209SOL    HW133263   0.042   0.092   2.820 -0.1577  1.1151 -0.0409
 7209SOL    HW233264   0.179   0.037   2.827 -2.0415 -1.0067  0.7362
 7210SOL     OW33265   4.094   1.302  15.507  0.5393 -0.3093  0.2686
 7210SOL    HW133266   4.140   1.334  15.429  2.8301 -0.4847  1.5466
 7210SOL    HW233267   4.012   1.288  15.458  0.7067  4.4439 -1.3294
 7211SOL     OW33268   3.273   1.421   8.081  0.6496 -0.2424  0.1757
 7211SOL    HW133269   3.360   1.382   8.089 -0.1835 -2.8261 -3.0968
 7211SOL    HW233270   3.293   1.477   8.005 -3.2209 -1.2479 -1.5824
 7212SOL     OW33271   1.528   4.696  12.192 -0.4626  0.1848 -0.1693
 7212SOL    HW133272   1.497   0.008  12.117  1.4515  0.5088 -0.7480
 7212SOL    HW233273   1.471   4.620  12.186 -2.8242  1.9396 -0.1320
 7213SOL     OW33274   2.743   3.394   5.195 -0.1796 -0.4725 -0.1069
 7213SOL    HW133275   2.798   3.430   5.125  0.9530  0.0045  1.0172
 7213SOL    HW233276   2.724   3.306   5.163 -2.0820  0.4386 -1.4205
 7214SOL     OW33277   1.161   1.666   3.291  0.2506 -0.2240  0.0131
 7214SOL    HW133278   1.168   1.761   3.293  1.9667 -0.3100 -2.7250
 7214SOL    HW233279   1.066   1.650   3.287  0.0483  1.0302 -0.0010
 7215SOL     OW33280   0.390   2.026   7.489 -0.0767  0.0686  0.2953
 7215SOL    HW133281   0.452   2.053   7.422  0.5584 -3.1468 -0.4082
 7215SOL    HW233282   0.391   1.931   7.477 -1.1733 -0.0260  0.9147
 7216SOL     OW33283   1.871   2.446  17.364 -0.0780  0.2904  0.1747
 7216SOL    HW133284   1.890   2.385  17.292  1.0278 -1.2888  1.8313
 7216SOL    HW233285   1.898   2.522  17.313 -0.0860  1.2327  1.5904
 7217SOL     OW33286   1.604   4.168  16.866  0.2864 -0.3094  0.4183
 7217SOL    HW133287   1.575   4.226  16.937 -0.6231 -0.0187 -0.1846
 7217SOL    HW233288   1.595   4.227  16.791  1.7062  0.4983  0.8992
 7218SOL     OW33289   4.076   3.062   4.465  0.1453  0.7534 -0.4888
 7218SOL    HW133290   4.118   3.129   4.411  0.9457  1.4459  1.0096
 7218SOL    HW233291   4.103   3.084   4.554  2.2872  0.0526 -0.9735
 7219SOL     OW33292   1.512   4.503   3.710  0.6737 -0.3573 -0.0259
 7219SOL    HW133293   1.417   4.508   3.705  0.6446 -0.4613  0.4096
 7219SOL    HW233294   1.526   4.408   3.709  0.4655 -0.3824 -0.5823
 7220SOL     OW33295   4.633   2.837   0.241 -0.7412 -0.1923 -0.5899
 7220SOL    HW133296   4.697   2.900   0.206  0.2355 -1.1662 -0.5614
 7220SOL    HW233297   4.597   2.884   0.316  0.4739  2.9252 -1.9581
 7221SOL     OW33298   3.381   4.353   2.700 -0.1195 -0.0191 -0.2392
 7221SOL    HW133299   3.425   4.398   2.628 -0.4577  1.1238  0.2768
 7221SOL    HW233300   3.458   4.313   2.740  1.6601  2.4212 -1.2353
 7222SOL     OW33301   4.486   1.752  17.379 -0.0615  0.1365  0.1627
 7222SOL    HW133302   4.493   1.680  17.441 -1.0729 -2.1607 -2.3924
 7222SOL    HW233303   4.564   1.808  17.377  0.5307 -0.6541  0.9624
 7223SOL     OW33304   2.404   2.666   3.540  0.1881  0.2448  0.1835
 7223SOL    HW133305   2.433   2.724   3.469  0.3357 -0.9330 -0.7069
 7223SOL    HW233306   2.361   2.731   3.597 -1.4217  0.3741 -1.1908
 7224SOL     OW33307   0.808   2.336   3.277 -0.1960  0.1024 -0.4656
 7224SOL    HW133308   0.897   2.309   3.300 -0.3831  0.2858  0.4465
 7224SOL    HW233309   0.822   2.379   3.192 -2.5188  1.6663 -0.0327
 7225SOL     OW33310   2.162   2.180  11.299 -0.1059  0.1703  0.0195
 7225SOL    HW133311   2.103   2.185  11.225  0.1604  1.7235 -0.0807
 7225SOL    HW233312   2.182   2.272  11.316  0.3748 -0.3503  2.3036
 7226SOL     OW33313   0.773   1.400  15.436 -0.0624 -0.3159  0.2568
 7226SOL    HW133314   0.842   1.360  15.384  0.3042  0.1222  0.4049
 7226SOL    HW233315   0.789   1.494  15.439 -1.9155 -0.0106  0.6547
 7227SOL     OW33316   4.545   0.227   4.889  0.0036  0.0783 -0.3435
 7227SOL    HW133317   4.461   0.194   4.857  1.0019 -3.3704  0.5572
 7227SOL    HW233318   4.537   0.223   4.985  0.7049 -1.6428 -0.3590
 7228SOL     OW33319   2.221   3.641  16.893 -0.2246  0.0344 -0.2735
 7228SOL    HW133320   2.289   3.574  16.894 -1.0661 -0.8205  0.0085
 7228SOL    HW233321   2.266   3.720  16.921  1.1396 -1.2323  1.1472
 7229SOL     OW33322   3.656   1.640   5.599  0.5097 -0.9654 -0.1921
 7229SOL    HW133323   3.593   1.576   5.632  0.0525 -0.5589 -0.2838
 7229SOL    HW233324   3.604   1.676   5.528  0.6529 -1.7817 -0.7091
 7230SOL     OW33325   1.393   1.981   7.535  0.3717  0.3062 -0.3526
 7230SOL    HW133326   1.313   2.027   7.507 -0.8550 -1.6885 -0.1878
 7230SOL    HW233327   1.441   2.041   7.591 -0.8216 -0.5372  1.5627
 7231SOL     OW33328   1.647   3.196  13.008 -0.2483  0.3639 -0.4169
 7231SOL    HW133329   1.629   3.177  12.916 -0.7968  4.0898 -1.0587
 7231SOL    HW233330   1.637   3.110  13.050  0.7045  0.2982 -0.3233
 7232SOL     OW33331   3.164   0.659  15.256 -0.3418  0.3574  0.5920
 7232SOL    HW133332   3.256   0.684  15.244 -0.3476 -0.5306 -1.2224
 7232SOL    HW233333   3.133   0.651  15.166 -0.8309 -0.1138  0.7996
 7233SOL     OW33334   1.530   1.278   6.450  0.0358 -0.1572 -0.0151
 7233SOL    HW133335   1.532   1.233   6.535 -1.2758 -1.1327 -0.4903
 7233SOL    HW233336   1.437   1.294   6.432 -0.3233 -1.1844  0.8951
 7234SOL     OW33337   1.458   4.603  16.495 -0.3386  0.9580  0.3559
 7234SOL    HW133338   1.520   4.588  16.425 -0.9328 -0.1400  0.0607
 7234SOL    HW233339   1.372   4.600  16.454 -0.6000 -0.7259  0.9919
 7235SOL     OW33340   0.900   2.805   7.092 -0.0697  0.0625 -0.0110
 7235SOL    HW133341   0.933   2.858   7.164  2.6920 -1.2796 -0.3139
 7235SOL    HW233342   0.894   2.871   7.022 -1.5461  0.1683  0.2099
 7236SOL     OW33343   4.314   0.110   9.773  0.3613 -0.0240 -0.0400
 7236SOL    HW133344   4.230   0.066   9.782  0.3605 -0.2727 -1.2985
 7236SOL    HW233345   4.371   0.044   9.734  2.1122  0.9187  0.9072
 7237SOL     OW33346   2.882   1.212   8.255  0.3986 -0.3284 -0.8124
 7237SOL    HW133347   2.857   1.123   8.276 -1.4658  0.3560 -0.1692
 7237SOL    HW233348   2.975   1.218   8.232  0.6290 -1.6394 -0.2198
 7238SOL     OW33349   0.366   3.742  13.564  0.3977  0.0985 -0.1369
 7238SOL    HW133350   0.351   3.716  13.655  0.6459 -1.2171 -0.4729
 7238SOL    HW233351   0.452   3.784  13.561 -0.4056  1.4892 -3.9016
 7239SOL     OW33352   3.381   3.016   6.561  0.2621  0.2752  0.0618
 7239SOL    HW133353   3.389   3.066   6.642 -3.0951 -1.6099  1.5718
 7239SOL    HW233354   3.436   2.940   6.581 -1.8496 -0.5679  2.6661
 7240SOL     OW33355   0.883   3.477  14.544 -0.4987 -0.4192  0.0863
 7240SOL    HW133356   0.956   3.416  14.549 -1.6739 -1.8356 -0.2019
 7240SOL    HW233357   0.818   3.435  14.488 -1.6821  1.5984 -0.0653
 7241SOL     OW33358   1.358   1.749  14.653 -0.0169  0.4110  0.2908
 7241SOL    HW133359   1.380   1.668  14.699 -1.5085  0.3171  0.8474
 7241SOL    HW233360   1.438   1.800  14.642  0.8467 -0.7658  1.1024
 7242SOL     OW33361   1.508   3.082   3.991 -0.0619  0.1848  0.7562
 7242SOL    HW133362   1.518   3.071   3.897  1.5722  0.2861  0.9206
 7242SOL    HW233363   1.441   3.150   3.997 -1.6999 -1.4274  0.8006
 7243SOL     OW33364   0.389   2.955   5.532  0.3510 -0.6348  0.1645
 7243SOL    HW133365   0.387   3.010   5.610  0.0899 -0.6524  0.1716
 7243SOL    HW233366   0.442   2.880   5.561  1.1715 -0.0567  0.1425
 7244SOL     OW33367   0.270   2.739   1.978  0.3056 -1.1159  0.5764
 7244SOL    HW133368   0.328   2.815   1.965 -0.2221 -0.7176  0.5495
 7244SOL    HW233369   0.319   2.675   1.927  0.3892  1.3036 -2.4324
 7245SOL     OW33370   0.163   0.680   6.230  0.2153  0.1373 -0.3022
 7245SOL    HW133371   0.078   0.716   6.256  0.3083 -1.1305  1.7818
 7245SOL    HW233372   0.191   0.735   6.157 -0.5220 -0.2867 -0.9031
 7246SOL     OW33373   1.413   3.424   9.695  0.4156 -0.0023 -0.2447
 7246SOL    HW133374   1.368   3.441   9.777 -0.4546 -0.9131 -0.5278
 7246SOL    HW233375   1.469   3.353   9.726  1.3630  1.8097  2.1282
 7247SOL     OW33376   0.673   0.325  15.608 -0.0863 -0.6890  0.4307
 7247SOL    HW133377   0.713   0.404  15.574  0.1649 -1.4389 -1.0166
 7247SOL    HW233378   0.583   0.344  15.580 -0.3493 -3.7753 -0.8905
 7248SOL     OW33379   0.385   0.640  16.505 -0.4079  0.7529  0.0193
 7248SOL    HW133380   0.290   0.635  16.520 -0.1761  0.9618  1.5949
 7248SOL    HW233381   0.422   0.651  16.593 -1.4445  1.5518  0.3711
 7249SOL     OW33382   2.527   0.417   6.316  0.0768 -0.2947  0.3376
 7249SOL    HW133383   2.503   0.422   6.224  0.8972 -1.5115  0.0548
 7249SOL    HW233384   2.442   0.402   6.356  0.4789 -0.8637  0.9927
 7250SOL     OW33385   0.884   4.566  15.625 -0.0971  0.5423 -0.3855
 7250SOL    HW133386   0.880   4.471  15.624 -1.3999  0.5982 -0.5324
 7250SOL    HW233387   0.814   4.590  15.564  1.3155 -0.6467 -2.4656
 7251SOL     OW33388   0.097   3.043   6.595  0.5055 -0.5293  0.1557
 7251SOL    HW133389   0.018   2.990   6.586 -0.7038  1.3701 -0.3111
 7251SOL    HW233390   0.066   3.106   6.659 -0.9891 -0.2642 -0.8409
 7252SOL     OW33391   1.109   4.426   8.854  0.4877  0.0789 -0.3646
 7252SOL    HW133392   1.065   4.346   8.882  1.3784 -0.7283 -1.2708
 7252SOL    HW233393   1.166   4.440   8.929  2.2111 -2.6198 -1.1612
 7253SOL     OW33394   2.038   3.567  13.109  0.2861 -0.2238 -0.1766
 7253SOL    HW133395   2.015   3.548  13.200  1.3219  1.7007  0.4781
 7253SOL    HW233396   2.030   3.485  13.061 -1.3153 -1.1749  1.7085
 7254SOL     OW33397   2.539   0.286  12.673 -0.1500  0.4651 -0.1293
 7254SOL    HW133398   2.513   0.378  12.672 -0.5868  0.3408  0.1573
 7254SOL    HW233399   2.608   0.282  12.739 -1.4517  1.6857  1.2666
 7255SOL     OW33400   2.145   2.819   7.950 -0.1899 -0.4265 -0.1886
 7255SOL    HW133401   2.100   2.746   7.993  1.1847 -0.7946  0.6231
 7255SOL    HW233402   2.072   2.846   7.895  0.4437  0.0539 -0.7861
 7256SOL     OW33403   0.383   0.102   3.991 -0.3669  0.1284 -0.5259
 7256SOL    HW133404   0.300   0.086   3.947 -0.8490 -0.0365  0.4344
 7256SOL    HW233405   0.370   0.185   4.038 -0.3738  1.9320 -3.7421
 7257SOL     OW33406   3.634   4.491  13.681  0.7321  0.2147 -0.2931
 7257SOL    HW133407   3.586   4.562  13.723 -1.5767 -0.4913 -1.6928
 7257SOL    HW233408   3.568   4.422  13.665  1.2710 -0.2423 -0.5344
 7258SOL     OW33409   2.397   2.490  10.026  0.4123  0.0571  0.6034
 7258SOL    HW133410   2.346   2.540   9.962 -1.1334 -1.0104  1.0134
 7258SOL    HW233411   2.329   2.426  10.047  1.2592 -0.9538  0.2547
 7259SOL     OW33412   3.652   0.760   5.277 -0.0569  0.3276  0.4877
 7259SOL    HW133413   3.729   0.711   5.248  0.0296  0.5193  0.3924
 7259SOL    HW233414   3.603   0.769   5.195  0.4524 -4.9357 -0.4458
 7260SOL     OW33415   1.903   3.680  17.097 -0.2470 -0.6499 -0.3579
 7260SOL    HW133416   1.914   3.745  17.027 -0.5566 -1.7828 -1.4582
 7260SOL    HW233417   1.985   3.684  17.147 -0.4253 -0.8223 -0.0515
 7261SOL     OW33418   2.692   1.218   7.648  0.4260 -0.0025  0.6720
 7261SOL    HW133419   2.630   1.224   7.721 -1.8097  1.1356 -1.3090
 7261SOL    HW233420   2.776   1.221   7.695  0.5739 -0.0048  0.4051
 7262SOL     OW33421   0.320   0.617   1.163 -0.2375  0.4221  0.1639
 7262SOL    HW133422   0.385   0.675   1.123  0.1027 -0.6067 -0.7542
 7262SOL    HW233423   0.252   0.619   1.096  1.2952 -1.3785 -1.4339
 7263SOL     OW33424   0.820   0.870  15.105  0.4487 -0.2504 -0.0411
 7263SOL    HW133425   0.726   0.857  15.104  0.3099  0.6040  1.5625
 7263SOL    HW233426   0.837   0.847  15.196  0.6549  0.1452  0.0229
 7264SOL     OW33427   4.501   0.112  16.547  0.3017  0.4267 -0.0408
 7264SOL    HW133428   4.512   0.029  16.502  2.4669  0.0376  1.2164
 7264SOL    HW233429   4.458   0.162  16.477  0.3831  1.6088  0.7391
 7265SOL     OW33430   2.795   1.240   3.930  0.2487 -0.5537  0.2578
 7265SOL    HW133431   2.722   1.179   3.946  0.9779 -2.1969 -2.7315
 7265SOL    HW233432   2.770   1.301   3.999 -0.0830  0.1092 -0.4556
 7266SOL     OW33433   2.844   2.725   4.751  0.2444 -0.2286  0.1985
 7266SOL    HW133434   2.882   2.648   4.794 -0.9931 -0.9795 -0.0819
 7266SOL    HW233435   2.780   2.751   4.817  0.2750  0.6672 -0.1247
 7267SOL     OW33436   2.074   3.355  15.483 -1.1948  0.1580  0.1633
 7267SOL    HW133437   2.103   3.267  15.458 -0.2076 -0.4660  3.4026
 7267SOL    HW233438   2.095   3.402  15.403 -1.6055 -1.1321 -0.6965
 7268SOL     OW33439   4.537   1.128  11.868 -0.5044 -0.0926 -0.2652
 7268SOL    HW133440   4.566   1.193  11.932  0.7037 -0.5560 -0.3355
 7268SOL    HW233441   4.569   1.168  11.787  0.6163  0.1345  0.2807
 7269SOL     OW33442   3.512   0.321   7.099  0.3232 -0.3039  0.1659
 7269SOL    HW133443   3.449   0.392   7.110  1.7685  0.9584  0.3493
 7269SOL    HW233444   3.466   0.243   7.130  0.7282 -0.8964 -0.7254
 7270SOL     OW33445   1.926   4.108   2.794 -0.7427  0.1572  0.0868
 7270SOL    HW133446   1.909   4.116   2.888 -3.3484 -0.7464 -0.2980
 7270SOL    HW233447   1.998   4.170   2.786  0.3478 -1.0467  0.6619
 7271SOL     OW33448   0.778   1.114   5.885 -0.4881  0.4645 -0.4703
 7271SOL    HW133449   0.816   1.064   5.958  0.7165  1.1066 -0.6529
 7271SOL    HW233450   0.761   1.203   5.918  0.3967  0.1697  0.8061
 7272SOL     OW33451   4.606   1.395   7.505  0.2164  0.2771  0.0879
 7272SOL    HW133452   4.636   1.313   7.465  1.0161  1.0240 -0.8279
 7272SOL    HW233453   4.632   1.461   7.441  0.4972 -0.9880 -1.1024
 7273SOL     OW33454   1.968   3.820  16.407  0.1283  0.0999  0.1245
 7273SOL    HW133455   1.964   3.785  16.496 -0.1639 -1.2307 -0.4051
 7273SOL    HW233456   1.981   3.742  16.353  2.1115  0.0882  0.6223
 7274SOL     OW33457   3.224   1.796   8.119  0.6475 -0.1584 -0.3476
 7274SOL    HW133458   3.250   1.829   8.205 -1.9479 -0.1144  0.4185
 7274SOL    HW233459   3.295   1.732   8.110  0.2030 -0.6537 -0.2967
 7275SOL     OW33460   3.697   0.258  10.524 -0.0315 -1.0007 -0.2661
 7275SOL    HW133461   3.709   0.312  10.446 -1.9310  1.1274  0.9211
 7275SOL    HW233462   3.696   0.326  10.592 -2.9023 -1.2089 -0.1039
 7276SOL     OW33463   4.511   1.653  16.367 -0.2284 -0.1386  0.5473
 7276SOL    HW133464   4.542   1.608  16.445 -1.0664 -0.8815  0.4439
 7276SOL    HW233465   4.451   1.722  16.397  0.8684  0.7538  0.7059
 7277SOL     OW33466   3.953   0.560  12.774  0.0823 -0.1278 -0.1632
 7277SOL    HW133467   3.920   0.650  12.765 -3.7451 -1.7067 -1.7762
 7277SOL    HW233468   4.040   0.583  12.807  1.3495  0.2904 -3.7482
 7278SOL     OW33469   0.899   1.461   0.791 -0.3638  0.1233 -0.4101
 7278SOL    HW133470   0.856   1.501   0.866  0.5759 -0.4712  0.4409
 7278SOL    HW233471   0.824   1.452   0.732 -1.2426  1.4657  0.5174
 7279SOL     OW33472   0.357   2.849   1.150 -0.1232  0.0978 -0.3922
 7279SOL    HW133473   0.330   2.757   1.142  1.6759 -0.7163  2.7657
 7279SOL    HW233474   0.448   2.844   1.119  1.3666  1.9994  3.6250
 7280SOL     OW33475   3.578   1.470   4.540  0.2908 -0.0193 -0.4154
 7280SOL    HW133476   3.592   1.407   4.469  2.4239 -1.3808  1.2113
 7280SOL    HW233477   3.493   1.443   4.573  0.5569  0.9159  1.0289
 7281SOL     OW33478   1.780   2.188  13.010 -0.3580 -0.0562  0.3274
 7281SOL    HW133479   1.847   2.225  12.953 -0.2269  0.3996  0.7761
 7281SOL    HW233480   1.812   2.220  13.094 -3.0644  0.1241  1.2956
 7282SOL     OW33481   4.564   3.937  12.260  0.3483  0.2437 -0.0431
 7282SOL    HW133482   4.507   3.998  12.213  0.5664  0.4212 -0.0771
 7282SOL    HW233483   4.643   3.933  12.206 -0.2595 -0.7316 -0.8750
 7283SOL     OW33484   4.106   3.858   4.605  0.2782  0.3094 -0.3346
 7283SOL    HW133485   4.025   3.831   4.648  0.2897  0.0583 -0.4736
 7283SOL    HW233486   4.075   3.901   4.525  1.3455  1.0258 -0.3631
 7284SOL     OW33487   2.153   2.318   9.648  0.8922 -0.0727  0.3566
 7284SOL    HW133488   2.217   2.348   9.584  1.1158  2.7117  1.8656
 7284SOL    HW233489   2.098   2.259   9.598  1.1760  1.0940 -1.3246
 7285SOL     OW33490   4.256   1.758  16.409 -0.5880 -0.1090  0.0277
 7285SOL    HW133491   4.291   1.766  16.497  1.0280  2.7090 -0.8476
 7285SOL    HW233492   4.194   1.831  16.400 -0.5101 -0.0886 -0.3748
 7286SOL     OW33493   3.524   3.193  13.497 -1.3276  1.1513 -0.7732
 7286SOL    HW133494   3.579   3.269  13.479 -1.8302  1.5966 -0.3940
 7286SOL    HW233495   3.588   3.153  13.556 -2.6379 -2.1823 -1.6020
 7287SOL     OW33496   0.413   1.745   7.427  0.4634 -0.3064 -0.0368
 7287SOL    HW133497   0.404   1.676   7.492  0.1182  0.5195  0.7983
 7287SOL    HW233498   0.344   1.721   7.365 -2.2875  1.4549  2.3367
 7288SOL     OW33499   1.828   1.026   6.801 -0.6433  0.0813  0.2512
 7288SOL    HW133500   1.874   0.998   6.881  1.8557  0.2912 -1.1200
 7288SOL    HW233501   1.735   1.012   6.819 -0.7452  1.5228  0.8008
 7289SOL     OW33502   0.492   0.395   7.665 -0.1220  0.0642 -0.5572
 7289SOL    HW133503   0.527   0.332   7.728 -1.6032 -0.0463  0.1574
 7289SOL    HW233504   0.565   0.438   7.621  1.2452 -1.5597  0.1632
 7290SOL     OW33505   1.063   0.497   4.716 -0.0536  0.3545 -0.0172
 7290SOL    HW133506   1.009   0.425   4.681  3.3457 -2.5883  0.7989
 7290SOL    HW233507   1.131   0.487   4.650 -0.0432 -3.2957  0.5423
 7291SOL     OW33508   1.038   0.635   7.464 -0.1861 -0.0662 -0.1175
 7291SOL    HW133509   1.064   0.603   7.378 -0.1181  1.5295 -0.6955
 7291SOL    HW233510   1.116   0.683   7.492  0.8699 -1.3933 -0.8045
 7292SOL     OW33511   3.542   4.413  10.352 -0.0725 -0.2021 -0.7414
 7292SOL    HW133512   3.544   4.505  10.375  0.4234 -0.3713 -0.1361
 7292SOL    HW233513   3.629   4.385  10.378 -0.9732 -1.5400  0.8266
 7293SOL     OW33514   1.250   2.121   2.158 -0.0791 -0.0671 -0.5805
 7293SOL    HW133515   1.221   2.166   2.078  0.8211  1.4475 -0.0534
 7293SOL    HW233516   1.177   2.146   2.214 -2.4509  0.2987 -3.7850
 7294SOL     OW33517   2.663   0.522   2.899 -0.2407  0.1409 -0.5159
 7294SOL    HW133518   2.681   0.510   2.993 -0.5442 -0.6645 -0.5591
 7294SOL    HW233519   2.692   0.436   2.868  1.8763  0.9660 -0.8220
 7295SOL     OW33520   4.210   1.883   5.430  0.1879 -0.2576 -0.1648
 7295SOL    HW133521   4.180   1.962   5.383 -0.9800  0.2425  1.3981
 7295SOL    HW233522   4.249   1.831   5.361 -1.2072 -2.9119  1.0608
 7296SOL     OW33523   3.342   4.282   4.895  0.0963  0.2053  0.4779
 7296SOL    HW133524   3.333   4.207   4.954  0.8968  0.1363  0.5127
 7296SOL    HW233525   3.349   4.356   4.956 -0.2960  1.2317 -0.7201
 7297SOL     OW33526   0.431   2.620   8.616  0.1470  0.1343 -0.2037
 7297SOL    HW133527   0.464   2.568   8.543  1.2172 -1.0940  1.1848
 7297SOL    HW233528   0.498   2.596   8.680  0.8264  0.9759 -0.5993
 7298SOL     OW33529   1.646   1.382   1.882  0.4133 -0.5577 -0.2333
 7298SOL    HW133530   1.729   1.384   1.834  0.2248  0.0626 -0.5384
 7298SOL    HW233531   1.648   1.288   1.898  1.7941 -0.7753 -1.6478
 7299SOL     OW33532   2.421   2.954  10.609  0.2983  0.0139 -0.1018
 7299SOL    HW133533   2.331   2.982  10.596  0.6354  0.2789 -1.8654
 7299SOL    HW233534   2.470   3.016  10.555 -1.0865  2.5624  1.6000
 7300SOL     OW33535   2.231   4.682   0.384  0.4627  0.3871 -0.0920
 7300SOL    HW133536   2.178   4.613   0.424 -0.4448  1.6324  0.8545
 7300SOL    HW233537   2.300   4.631   0.341  1.4586  0.5999  1.2673
 7301SOL     OW33538   0.664   3.593   5.812  0.9155  0.6256  0.2832
 7301SOL    HW133539   0.746   3.594   5.763  0.0494  3.7005 -1.1087
 7301SOL    HW233540   0.684   3.511   5.856 -1.1253 -0.0077  0.0178
 7302SOL     OW33541   0.749   1.552  16.083  0.3785 -0.3134  0.2730
 7302SOL    HW133542   0.728   1.504  16.003 -0.5830  1.0150 -0.2797
 7302SOL    HW233543   0.834   1.587  16.057  0.8162 -1.4343  0.2137
 7303SOL     OW33544   2.248   0.103   8.084 -0.1452 -0.0112  0.3652
 7303SOL    HW133545   2.331   0.145   8.059  0.6854 -2.7062 -1.4220
 7303SOL    HW233546   2.200   0.107   8.001  0.5898  1.3821  0.0070
 7304SOL     OW33547   2.605   4.089  16.919  0.4012 -0.2833 -0.6586
 7304SOL    HW133548   2.631   4.164  16.867  1.3531 -1.1281 -1.4052
 7304SOL    HW233549   2.521   4.115  16.957 -0.1061 -2.7274 -0.0926
 7305SOL     OW33550   3.102   0.438  12.683  0.4502  0.3432  0.4005
 7305SOL    HW133551   3.034   0.434  12.751 -2.1782  0.2777 -2.1878
 7305SOL    HW233552   3.069   0.378  12.615  1.1815 -0.6708  0.9414
 7306SOL     OW33553   0.778   3.758   0.220  0.0174 -0.7000 -0.1676
 7306SOL    HW133554   0.700   3.736   0.271  1.3771 -1.3476  1.6405
 7306SOL    HW233555   0.838   3.781   0.290  1.4958 -0.2515 -1.5807
 7307SOL     OW33556   1.933   2.366   4.563  1.0253 -0.3770  0.4413
 7307SOL    HW133557   2.001   2.323   4.511 -0.8407 -0.7493 -1.6810
 7307SOL    HW233558   1.926   2.444   4.508 -1.2339 -1.0106 -0.1493
 7308SOL     OW33559   4.011   3.193   7.734 -0.4784  0.0841  0.2699
 7308SOL    HW133560   3.964   3.116   7.764 -0.9789  0.0441 -0.6221
 7308SOL    HW233561   4.008   3.170   7.641  1.5226 -2.1360  0.7797
 7309SOL     OW33562   4.404   2.808   1.859  0.4483 -0.3707  0.3021
 7309SOL    HW133563   4.470   2.877   1.870 -2.0877  1.5787  2.9784
 7309SOL    HW233564   4.373   2.790   1.947  1.2134  0.0236  0.6572
 7310SOL     OW33565   1.442   1.552   1.921 -0.0260  0.0063 -0.1355
 7310SOL    HW133566   1.471   1.632   1.878 -1.4278  1.2267  1.1566
 7310SOL    HW233567   1.520   1.497   1.915  1.3307  1.5115  3.7120
 7311SOL     OW33568   2.143   0.774   1.663 -0.3484 -0.5056  0.1908
 7311SOL    HW133569   2.139   0.775   1.567 -0.3774  0.5249  0.2024
 7311SOL    HW233570   2.066   0.718   1.672 -0.1136 -1.0605 -1.2946
 7312SOL     OW33571   1.757   2.503   6.668 -0.2132  0.6871 -0.6963
 7312SOL    HW133572   1.731   2.548   6.748 -1.1246 -1.3497  0.1497
 7312SOL    HW233573   1.818   2.566   6.628  1.6960 -0.1450  0.9364
 7313SOL     OW33574   2.552   1.291   7.871 -0.6269 -0.2334 -0.3545
 7313SOL    HW133575   2.468   1.257   7.899 -1.2776  1.6829  0.0001
 7313SOL    HW233576   2.533   1.384   7.877 -1.3514 -0.1943 -3.1963
 7314SOL     OW33577   2.364   2.366   3.132  0.0673  0.2379 -0.7310
 7314SOL    HW133578   2.317   2.342   3.052 -1.2771  0.9699 -0.1603
 7314SOL    HW233579   2.303   2.427   3.173 -1.5531 -1.5864 -0.4598
 7315SOL     OW33580   4.380   0.344   5.248  0.4030  0.0804 -0.2238
 7315SOL    HW133581   4.316   0.330   5.318  1.8379  0.6591  1.1814
 7315SOL    HW233582   4.412   0.256   5.230  1.0568 -0.0826  1.7512
 7316SOL     OW33583   2.746   0.474   4.341 -0.1053  0.2790  0.0597
 7316SOL    HW133584   2.789   0.560   4.340  1.7776 -0.6756 -0.3766
 7316SOL    HW233585   2.664   0.493   4.296 -1.0600 -0.5211  1.4770
 7317SOL     OW33586   0.737   4.156   2.391  0.6249  0.4473 -0.2345
 7317SOL    HW133587   0.764   4.160   2.483 -0.8990 -2.2589  0.3335
 7317SOL    HW233588   0.696   4.070   2.399  1.0539  0.2842  0.2416
 7318SOL     OW33589   0.912   1.879  10.988 -0.7338 -0.0698  0.6014
 7318SOL    HW133590   0.901   1.830  11.070 -1.2415 -1.2361 -0.1707
 7318SOL    HW233591   0.828   1.925  10.995 -1.0844 -0.5715 -0.3465
 7319SOL     OW33592   2.490   1.224  15.001 -0.2040  0.3984  0.0046
 7319SOL    HW133593   2.579   1.250  14.976  1.3031 -0.7494  4.0892
 7319SOL    HW233594   2.514   1.240  15.093 -1.4872  1.1936  0.1973
 7320SOL     OW33595   2.404   3.506   7.850 -0.2579 -0.3255 -0.1311
 7320SOL    HW133596   2.428   3.495   7.758 -0.1908  0.8247 -0.2473
 7320SOL    HW233597   2.447   3.431   7.892 -2.4329 -2.2679 -1.3373
 7321SOL     OW33598   0.891   0.697   4.771 -0.2729 -0.0552  0.1215
 7321SOL    HW133599   0.940   0.772   4.738 -0.5648  0.0281 -0.1266
 7321SOL    HW233600   0.950   0.622   4.763  0.8399  0.7666  0.6756
 7322SOL     OW33601   3.302   3.735   0.874 -0.7073  0.1835  0.1588
 7322SOL    HW133602   3.275   3.820   0.841  0.5300  0.5126  0.0008
 7322SOL    HW233603   3.233   3.678   0.839  0.6395 -2.0816  1.1503
 7323SOL     OW33604   2.639   0.837   1.400  0.1496 -0.1718 -0.8375
 7323SOL    HW133605   2.577   0.769   1.427 -3.0544  1.8840 -2.9046
 7323SOL    HW233606   2.587   0.901   1.350  0.3444 -0.0707 -0.9119
 7324SOL     OW33607   0.197   3.117   7.630  0.2345 -0.0358  0.2619
 7324SOL    HW133608   0.256   3.057   7.676 -1.8633 -0.6958  2.1260
 7324SOL    HW233609   0.269   3.160   7.583  0.7964 -0.7910  0.4299
 7325SOL     OW33610   4.707   4.523  12.782 -0.1560  0.0286  0.0232
 7325SOL    HW133611   0.021   4.447  12.762  1.5208  1.7532 -1.9947
 7325SOL    HW233612   0.029   4.591  12.755 -1.2338  0.7883 -0.5285
 7326SOL     OW33613   1.110   4.680  11.380  0.2397  0.3544  0.6561
 7326SOL    HW133614   1.059   4.604  11.351  3.1520 -1.7400  1.1275
 7326SOL    HW233615   1.142   4.723  11.301  0.1494 -1.5549 -0.4087
 7327SOL     OW33616   4.648   1.377   8.754  0.3146 -0.0492 -0.6190
 7327SOL    HW133617   4.698   1.371   8.672 -3.1487  1.0924 -2.7986
 7327SOL    HW233618   4.566   1.357   8.709  0.3402 -0.3779 -0.5243
 7328SOL     OW33619   2.362   2.450   5.886 -0.2166 -0.0774 -0.1518
 7328SOL    HW133620   2.289   2.413   5.935  1.0902 -2.1452  0.2540
 7328SOL    HW233621   2.318   2.482   5.808 -2.1293  1.8428  1.7111
 7329SOL     OW33622   4.301   3.955  16.117  0.1463  0.3112 -0.1198
 7329SOL    HW133623   4.290   3.952  16.022  0.1494  0.5158 -0.1251
 7329SOL    HW233624   4.212   3.952  16.152  0.5614 -1.7941  0.7408
 7330SOL     OW33625   2.995   1.555  16.670  0.1983 -0.1953  0.1014
 7330SOL    HW133626   3.013   1.527  16.580 -3.1477 -1.7283 -0.0723
 7330SOL    HW233627   3.075   1.602  16.694 -0.7077  0.4699  1.7461
 7331SOL     OW33628   0.824   0.840   0.242 -0.4239 -0.3000 -0.0962
 7331SOL    HW133629   0.889   0.904   0.271  0.1229 -1.9648  2.3940
 7331SOL    HW233630   0.781   0.838   0.328  1.4071  1.1582  0.8485
 7332SOL     OW33631   1.229   0.594  16.331 -0.0792  0.0784 -0.1821
 7332SOL    HW133632   1.232   0.688  16.313 -0.8601 -0.4108 -2.9125
 7332SOL    HW233633   1.227   0.594  16.426  2.3377 -0.0735 -0.1226
 7333SOL     OW33634   3.150   2.800   3.556 -0.8534 -0.4581  0.2154
 7333SOL    HW133635   3.185   2.746   3.485  1.4460 -2.2320  2.6774
 7333SOL    HW233636   3.081   2.741   3.588 -2.2380  1.4854  0.7654
 7334SOL     OW33637   1.044   1.261  17.129 -0.3898  0.7901 -0.1200
 7334SOL    HW133638   0.958   1.256  17.172 -0.8756  0.4020 -1.1376
 7334SOL    HW233639   1.035   1.211  17.048  0.5390  2.0293 -0.9819
 7335SOL     OW33640   0.690   2.607   8.054  0.2857 -0.0717  0.1424
 7335SOL    HW133641   0.761   2.553   8.019  0.0984 -0.5158  0.4601
 7335SOL    HW233642   0.669   2.572   8.140  0.0674 -1.6650 -0.5689
 7336SOL     OW33643   3.824   4.046   5.221  0.1607  0.4823  0.3286
 7336SOL    HW133644   3.814   4.030   5.127 -0.0194  0.0361  0.4242
 7336SOL    HW233645   3.782   4.132   5.229 -2.0389 -0.4623 -0.8864
 7337SOL     OW33646   4.357   2.638   6.582 -0.7102  0.2531  0.0418
 7337SOL    HW133647   4.333   2.704   6.517  0.6298 -0.9266 -1.6211
 7337SOL    HW233648   4.452   2.633   6.573 -0.8860 -0.7166 -1.1591
 7338SOL     OW33649   1.418   2.518   3.549 -0.8365  0.4116  0.2047
 7338SOL    HW133650   1.394   2.599   3.595 -2.6095  0.0612 -0.0933
 7338SOL    HW233651   1.464   2.475   3.622 -1.6220 -3.1225 -1.4032
 7339SOL     OW33652   0.798   4.272   7.686 -0.3869  0.0454  0.2609
 7339SOL    HW133653   0.791   4.344   7.749 -0.1017 -0.0347  0.3839
 7339SOL    HW233654   0.714   4.226   7.689  0.1839 -1.0187 -0.3135
 7340SOL     OW33655   2.459   2.003  17.439 -0.5387 -0.2347 -0.9925
 7340SOL    HW133656   2.552   1.995  17.459 -1.4317 -4.2485  1.5823
 7340SOL    HW233657   2.441   2.071  17.505  1.1355  0.9214 -1.7243
 7341SOL     OW33658   4.560   4.618   3.852 -0.3627  0.2856 -0.3485
 7341SOL    HW133659   4.556   4.538   3.800  0.4141  1.2001 -1.8003
 7341SOL    HW233660   4.555   4.595   3.945  0.6609 -0.4265 -0.4733
 7342SOL     OW33661   2.246   2.250  11.014  0.2854 -0.2381  0.3201
 7342SOL    HW133662   2.244   2.328  10.959  1.0085 -0.3935  0.0799
 7342SOL    HW233663   2.151   2.246  11.020  0.1567  0.4631 -1.3103
 7343SOL     OW33664   1.346   2.725  10.359  0.6140 -0.0684  0.4124
 7343SOL    HW133665   1.297   2.715  10.277  0.0969  2.1787  0.4422
 7343SOL    HW233666   1.408   2.653  10.358  0.7457  0.0587 -0.9763
 7344SOL     OW33667   0.851   3.682   1.981  0.4722 -0.4098 -0.1351
 7344SOL    HW133668   0.860   3.777   1.978  1.5673 -0.4624  2.1637
 7344SOL    HW233669   0.856   3.657   1.888 -2.4198 -0.2279 -0.3418
 7345SOL     OW33670   3.130   3.827   9.366  0.5637 -0.3376  0.3198
 7345SOL    HW133671   3.052   3.877   9.341 -1.3542 -2.3589  2.2482
 7345SOL    HW233672   3.095   3.773   9.437  0.6818 -1.4030 -0.4340
 7346SOL     OW33673   3.748   1.553   3.477  0.4389 -0.1964  0.3140
 7346SOL    HW133674   3.797   1.512   3.405 -0.7558 -0.4351 -0.3581
 7346SOL    HW233675   3.714   1.626   3.426  0.6038  0.9651  1.8828
 7347SOL     OW33676   1.098   3.808   1.424  0.4229 -0.1298  0.0013
 7347SOL    HW133677   1.165   3.772   1.482  1.2857  0.6634 -0.4981
 7347SOL    HW233678   1.130   3.898   1.418  2.0096 -0.8189 -2.1084
 7348SOL     OW33679   0.934   2.456   7.018 -0.5164 -0.6758 -0.4952
 7348SOL    HW133680   0.945   2.462   6.923 -1.0063  0.0409 -0.5044
 7348SOL    HW233681   0.841   2.471   7.033 -1.1738 -2.3166 -2.8079
 7349SOL     OW33682   1.562   3.923   8.004 -0.0033  0.1573 -0.0312
 7349SOL    HW133683   1.564   3.962   8.092  0.4307  0.6083 -0.2388
 7349SOL    HW233684   1.656   3.918   7.986  0.0384 -0.2339  0.2946
 7350SOL     OW33685   2.728   3.852  17.013 -0.8123  0.3487  1.0164
 7350SOL    HW133686   2.698   3.941  17.027 -2.9240 -0.1723 -0.2068
 7350SOL    HW233687   2.790   3.868  16.941 -0.9814  1.2294  1.0662
 7351SOL     OW33688   4.354   2.677   7.516 -0.1404  0.1202  0.3051
 7351SOL    HW133689   4.395   2.734   7.450 -1.8651 -1.1868 -1.8707
 7351SOL    HW233690   4.353   2.729   7.596 -1.8022 -1.5678  1.3606
 7352SOL     OW33691   1.543   0.811  13.065  0.6493 -0.0941  0.0113
 7352SOL    HW133692   1.552   0.743  13.132  1.1035 -0.5935 -0.5582
 7352SOL    HW233693   1.508   0.880  13.120  0.0174 -1.1508  0.9333
 7353SOL     OW33694   4.371   2.152   2.958 -0.0824 -0.8234 -0.0537
 7353SOL    HW133695   4.307   2.089   2.993 -0.9189 -0.4692 -0.9325
 7353SOL    HW233696   4.444   2.127   3.015 -0.9468  0.9794  1.8404
 7354SOL     OW33697   2.971   3.298  13.486  0.1120  0.2198  0.2455
 7354SOL    HW133698   3.035   3.368  13.472  1.0541 -0.3644  1.6646
 7354SOL    HW233699   3.020   3.219  13.461  2.1053  1.2749  0.7834
 7355SOL     OW33700   2.692   0.456   2.400  0.1692  0.1055 -0.0246
 7355SOL    HW133701   2.597   0.460   2.401  0.2243  1.1720  0.0350
 7355SOL    HW233702   2.716   0.379   2.349 -0.0900  0.8163 -1.2079
 7356SOL     OW33703   1.882   3.164   0.551  0.0130 -0.3254  0.2400
 7356SOL    HW133704   1.827   3.230   0.593 -0.7727 -0.9049  0.1177
 7356SOL    HW233705   1.960   3.165   0.607 -0.6428 -0.6007  1.1495
 7357SOL     OW33706   4.613   1.209  11.619 -0.1107  0.3226  0.1167
 7357SOL    HW133707   4.679   1.205  11.550 -1.0485 -0.5996 -0.7300
 7357SOL    HW233708   4.573   1.295  11.608  0.0093  0.0865 -2.0788
 7358SOL     OW33709   1.128   1.016  15.504  0.4862 -0.1127  0.0407
 7358SOL    HW133710   1.125   0.956  15.429  0.6752 -0.0205 -0.0412
 7358SOL    HW233711   1.194   0.966  15.552 -0.0550 -0.4490  0.4302
 7359SOL     OW33712   3.457   3.571  16.631 -0.3382 -0.3633 -0.1945
 7359SOL    HW133713   3.525   3.505  16.625 -1.5060 -1.5052 -1.1014
 7359SOL    HW233714   3.455   3.610  16.543 -1.2336 -0.1693 -0.0982
 7360SOL     OW33715   0.855   3.352   7.678  0.1540 -0.4029 -0.3900
 7360SOL    HW133716   0.932   3.372   7.731 -1.5428 -0.3658  2.0241
 7360SOL    HW233717   0.872   3.408   7.601  0.9021 -0.3717 -0.2091
 7361SOL     OW33718   4.029   1.530  14.164 -0.0007  0.0643  0.1539
 7361SOL    HW133719   3.993   1.441  14.161 -0.1925  0.1444  0.0632
 7361SOL    HW233720   4.111   1.521  14.116 -1.2375  0.8363 -2.1328
 7362SOL     OW33721   0.571   0.911  16.868  0.0330 -0.0791  0.0006
 7362SOL    HW133722   0.542   1.001  16.849 -2.5684 -1.0248 -0.5884
 7362SOL    HW233723   0.551   0.894  16.960  0.5840 -0.1511  0.1038
 7363SOL     OW33724   0.866   3.988   1.267  0.0208 -0.2167 -0.2643
 7363SOL    HW133725   0.944   3.944   1.301  1.7363  0.7856 -2.8902
 7363SOL    HW233726   0.856   4.058   1.331  0.1395  1.4752 -2.1158
 7364SOL     OW33727   2.523   1.542   3.124 -0.0432  1.0347  0.3947
 7364SOL    HW133728   2.553   1.470   3.180 -0.3505  0.4954 -0.1396
 7364SOL    HW233729   2.509   1.484   3.049 -1.9802 -0.0625  1.5798
 7365SOL     OW33730   3.597   3.578   5.498 -0.6541  0.3208 -0.2022
 7365SOL    HW133731   3.629   3.638   5.565 -2.3468 -0.7649  1.5605
 7365SOL    HW233732   3.598   3.491   5.538  0.2349  0.6743  0.5367
 7366SOL     OW33733   4.272   3.437   3.463  0.4669 -0.0480 -0.0659
 7366SOL    HW133734   4.188   3.403   3.434  0.0124  0.2759  0.8404
 7366SOL    HW233735   4.245   3.512   3.518  1.5544  0.6031 -0.4256
 7367SOL     OW33736   2.762   4.396  15.766 -0.4228  0.2492 -0.5310
 7367SOL    HW133737   2.790   4.311  15.799  2.4582  1.8773  1.2854
 7367SOL    HW233738   2.668   4.382  15.780 -0.6942 -0.1549 -2.8472
 7368SOL     OW33739   3.418   1.453   7.171 -0.3223 -0.2148  0.3071
 7368SOL    HW133740   3.411   1.512   7.246  1.4891 -1.4890  1.4543
 7368SOL    HW233741   3.509   1.462   7.143 -1.1292 -0.2040 -2.3799
 7369SOL     OW33742   0.534   0.056  14.758 -0.1423  0.1033  0.0561
 7369SOL    HW133743   0.554   0.144  14.789 -2.1891  1.3309 -2.1447
 7369SOL    HW233744   0.546   0.071  14.664 -1.4138  0.2530 -0.0787
 7370SOL     OW33745   3.861   2.306   6.976  0.1516  0.1160 -0.2542
 7370SOL    HW133746   3.878   2.238   6.911  2.1203  0.4726 -0.1112
 7370SOL    HW233747   3.769   2.296   7.001  0.8708 -1.5323  1.6747
 7371SOL     OW33748   0.633   0.131  13.362 -0.1499 -1.0227  0.2468
 7371SOL    HW133749   0.541   0.125  13.335 -0.1439  0.0711  0.0064
 7371SOL    HW233750   0.661   0.040  13.351 -0.2486 -0.8448 -1.4773
 7372SOL     OW33751   0.003   0.593   5.977 -0.1571 -0.0794 -0.2862
 7372SOL    HW133752   0.078   0.645   6.008  0.8385 -0.8817 -1.3585
 7372SOL    HW233753   4.721   0.629   5.891 -1.6897  0.0081  0.1327
 7373SOL     OW33754   3.424   2.306   8.056 -0.0425  0.0799 -0.1105
 7373SOL    HW133755   3.370   2.228   8.061  1.0179 -0.6309  0.3280
 7373SOL    HW233756   3.513   2.272   8.050 -0.0332  0.1088 -0.1417
 7374SOL     OW33757   3.255   0.223   8.605  0.7518  0.0157  0.4416
 7374SOL    HW133758   3.346   0.192   8.603  0.3844 -0.9619 -0.4340
 7374SOL    HW233759   3.230   0.214   8.514  0.7694 -0.9236  0.5364
 7375SOL     OW33760   0.395   0.682  16.257  0.3392  1.5580 -0.1573
 7375SOL    HW133761   0.390   0.646  16.345 -1.3435  0.8522 -0.5488
 7375SOL    HW233762   0.452   0.618  16.215 -1.8823 -0.1419 -0.5872
 7376SOL     OW33763   2.172   1.892   6.079  0.5123 -0.0871 -0.0452
 7376SOL    HW133764   2.240   1.883   6.012  0.2804  1.4596 -0.4828
 7376SOL    HW233765   2.103   1.940   6.033  1.9863  1.5761 -0.5256
 7377SOL     OW33766   0.122   1.996   4.040 -0.0374  0.0861 -0.4939
 7377SOL    HW133767   0.081   2.067   3.990 -2.4364 -2.7231 -2.5572
 7377SOL    HW233768   0.143   1.939   3.965  0.5019  0.9149 -0.9701
 7378SOL     OW33769   2.387   2.188   1.336 -0.3134 -0.6561 -0.0485
 7378SOL    HW133770   2.429   2.110   1.300  0.5513 -0.3454  0.2723
 7378SOL    HW233771   2.318   2.145   1.386  0.0751 -0.6403  0.5062
 7379SOL     OW33772   4.443   4.401   8.621 -0.5219 -0.1559  0.0869
 7379SOL    HW133773   4.357   4.442   8.613 -0.4654 -0.1646 -0.5477
 7379SOL    HW233774   4.501   4.465   8.580 -1.2886 -0.9327 -2.1832
 7380SOL     OW33775   2.371   3.979   7.131 -0.5138 -0.0540 -0.2499
 7380SOL    HW133776   2.414   4.030   7.062  1.8979 -2.5825 -0.6257
 7380SOL    HW233777   2.371   3.889   7.097  2.5891  0.9631 -2.8931
 7381SOL     OW33778   3.317   4.488   1.010  0.1669  0.4215 -0.4401
 7381SOL    HW133779   3.347   4.495   1.101 -1.1767 -0.2121  0.0611
 7381SOL    HW233780   3.225   4.474   1.033  0.6978 -0.7879  0.8814
 7382SOL     OW33781   2.227   3.034   9.738 -0.2031 -0.2436 -0.4904
 7382SOL    HW133782   2.245   2.950   9.696  1.2511 -0.3713  0.3846
 7382SOL    HW233783   2.316   3.047   9.772 -0.8425 -0.8700  1.4269
 7383SOL     OW33784   4.424   1.103   4.112 -0.0322  0.0713 -0.3609
 7383SOL    HW133785   4.481   1.160   4.061 -3.5684  3.0986 -0.8505
 7383SOL    HW233786   4.471   1.020   4.102 -1.4478 -0.4831 -2.3598
 7384SOL     OW33787   1.937   2.882   5.002  0.3991 -0.1097  0.6674
 7384SOL    HW133788   1.926   2.874   5.097  0.3432  0.0744  0.6769
 7384SOL    HW233789   2.012   2.823   4.996  1.2191  0.8426  1.4399
 7385SOL     OW33790   2.640   3.201   5.524 -0.2327  0.4615 -0.2824
 7385SOL    HW133791   2.657   3.108   5.534 -2.4895  0.2209  1.2579
 7385SOL    HW233792   2.729   3.230   5.502  0.3210 -0.5847  0.5921
 7386SOL     OW33793   0.925   0.420  13.222  0.3605 -0.5233 -0.9593
 7386SOL    HW133794   0.897   0.455  13.138 -0.0924 -0.0846 -0.6253
 7386SOL    HW233795   1.003   0.373  13.194  1.3370 -0.7782  2.1075
 7387SOL     OW33796   3.185   2.192   7.236 -0.3858 -0.2184 -0.1639
 7387SOL    HW133797   3.191   2.179   7.331 -0.2382  2.0077  0.1383
 7387SOL    HW233798   3.099   2.233   7.233 -0.3749 -0.2547 -1.0007
 7388SOL     OW33799   3.414   3.284   8.268  0.4247 -0.4238 -0.8822
 7388SOL    HW133800   3.482   3.347   8.294 -0.7837  0.2147  0.7528
 7388SOL    HW233801   3.438   3.213   8.328  0.2541 -0.1407 -0.4799
 7389SOL     OW33802   1.427   3.535  12.752 -0.7384  0.2845  0.3192
 7389SOL    HW133803   1.512   3.568  12.783 -0.6403 -0.7799  1.1572
 7389SOL    HW233804   1.455   3.475  12.683 -0.9758  0.6466 -0.0891
 7390SOL     OW33805   0.954   0.635  14.519 -0.6681  0.1166 -0.2140
 7390SOL    HW133806   0.973   0.556  14.468 -2.6719  0.0901 -0.9290
 7390SOL    HW233807   1.037   0.681  14.506  0.6744 -2.2646 -0.1409
 7391SOL     OW33808   3.966   2.282   2.453 -0.6188  0.5455  0.2750
 7391SOL    HW133809   3.921   2.295   2.537 -1.5243  1.4334 -0.3465
 7391SOL    HW233810   3.979   2.187   2.452 -0.6492  0.5381  0.7025
 7392SOL     OW33811   4.427   2.001  15.660  0.9785  0.2849 -0.2927
 7392SOL    HW133812   4.382   1.921  15.631  0.6321 -0.0774  1.2766
 7392SOL    HW233813   4.515   1.978  15.629  1.3197 -0.0111  0.8800
 7393SOL     OW33814   0.028   3.434   6.262 -0.1863  0.2336 -0.4288
 7393SOL    HW133815   4.737   3.355   6.306  3.2396 -1.2443 -0.7133
 7393SOL    HW233816   4.735   3.501   6.322  1.8875  0.3809  0.5094
 7394SOL     OW33817   2.260   2.894   5.627 -0.1295  0.1606  0.3255
 7394SOL    HW133818   2.167   2.903   5.604  0.1500  1.4721 -0.3302
 7394SOL    HW233819   2.294   2.946   5.554 -2.2147  0.5907 -0.3554
 7395SOL     OW33820   0.649   4.597   5.703  0.0446  0.1623  0.0576
 7395SOL    HW133821   0.612   4.542   5.773 -1.2064  1.4914  0.4432
 7395SOL    HW233822   0.702   4.529   5.662 -1.6779 -0.3161 -1.3787
 7396SOL     OW33823   2.680   0.222   9.244  0.6187 -0.0447 -0.4650
 7396SOL    HW133824   2.763   0.183   9.272  0.9364  0.7453 -0.3236
 7396SOL    HW233825   2.705   0.304   9.202  0.8045  0.9507  1.6173
 7397SOL     OW33826   0.745   2.796   0.188  0.7070  0.8384  1.0913
 7397SOL    HW133827   0.768   2.889   0.195 -1.7396  1.4911  0.3186
 7397SOL    HW233828   0.783   2.775   0.273 -0.8679 -0.3063  1.4879
 7398SOL     OW33829   3.924   1.067   7.531 -0.2347  0.3278 -0.0599
 7398SOL    HW133830   3.849   1.081   7.589  0.7170 -0.5452  1.3957
 7398SOL    HW233831   3.888   1.040   7.447 -0.9645  2.2380 -0.3731
 7399SOL     OW33832   3.340   4.292   3.057  0.2915  0.2753 -0.1524
 7399SOL    HW133833   3.381   4.287   3.143 -0.2721 -3.9407 -0.1483
 7399SOL    HW233834   3.258   4.340   3.069  1.5942  2.3987  0.2740
 7400SOL     OW33835   0.043   4.653   9.111 -0.1539 -0.2340 -0.4882
 7400SOL    HW133836   0.036   4.719   9.042  0.3156  1.1406  0.7585
 7400SOL    HW233837   0.013   4.703   9.187 -1.3540  1.5233 -2.1290
 7401SOL     OW33838   2.234   4.164  16.454  0.5168  0.0257  0.2112
 7401SOL    HW133839   2.303   4.194  16.514  0.4173  1.4643 -0.3932
 7401SOL    HW233840   2.167   4.125  16.510  0.0938 -0.6311 -0.7574
 7402SOL     OW33841   0.769   0.843   8.299  0.3384  0.1185 -1.0791
 7402SOL    HW133842   0.773   0.872   8.208  1.0483 -1.3603 -1.5235
 7402SOL    HW233843   0.684   0.799   8.295 -0.0964  0.5462  3.3313
 7403SOL     OW33844   4.511   4.086   7.919  0.1308 -0.3775 -1.0114
 7403SOL    HW133845   4.473   3.999   7.931  0.0298 -0.5977 -2.8972
 7403SOL    HW233846   4.517   4.125   8.006 -1.7639  1.6390 -1.7975
 7404SOL     OW33847   3.972   1.114  10.434  0.2280 -0.0031 -0.2871
 7404SOL    HW133848   4.035   1.066  10.487 -0.5962  0.5738  1.2109
 7404SOL    HW233849   3.928   1.158  10.506  0.3563  0.9270 -0.7694
 7405SOL     OW33850   3.583   1.492   1.956 -0.4381  0.3481  0.2265
 7405SOL    HW133851   3.568   1.530   1.869  0.3971 -0.0173 -0.0774
 7405SOL    HW233852   3.501   1.511   2.002 -1.2634 -1.1057 -0.6434
 7406SOL     OW33853   3.956   1.661   3.872  0.2281 -0.0305 -0.4854
 7406SOL    HW133854   3.919   1.691   3.789  1.3083  0.7153 -0.7074
 7406SOL    HW233855   3.900   1.589   3.899 -0.6784  0.4960 -0.9600
 7407SOL     OW33856   3.165   1.641   3.281  0.2160  0.0511  0.0086
 7407SOL    HW133857   3.169   1.736   3.292 -1.0727  0.1564 -0.4733
 7407SOL    HW233858   3.257   1.617   3.293  0.5850  2.1700  1.3387
 7408SOL     OW33859   0.391   4.211   3.217 -0.4322 -0.0544 -0.1878
 7408SOL    HW133860   0.446   4.213   3.295 -0.7587 -0.1366  0.0463
 7408SOL    HW233861   0.385   4.119   3.194  0.3892  0.1967 -1.3690
 7409SOL     OW33862   2.338   2.428  12.340 -0.0860 -0.0883  0.1097
 7409SOL    HW133863   2.258   2.461  12.382 -0.2645 -1.9549  1.2710
 7409SOL    HW233864   2.369   2.361  12.402 -0.3433 -0.5504 -0.2634
 7410SOL     OW33865   4.116   2.316  10.493  0.3324  0.9560 -0.4150
 7410SOL    HW133866   4.082   2.281  10.576  1.2385  1.7802  0.3032
 7410SOL    HW233867   4.042   2.292  10.437  0.2408  0.4328 -0.0722
 7411SOL     OW33868   1.351   1.027   4.323 -0.3367  0.9456  0.0029
 7411SOL    HW133869   1.408   1.083   4.376 -1.0560  0.2490  1.5359
 7411SOL    HW233870   1.262   1.040   4.357  0.3276 -1.5937  2.7291
 7412SOL     OW33871   0.898   0.209   7.738  0.0005 -0.0004  0.2957
 7412SOL    HW133872   0.843   0.189   7.813  2.3599 -0.1921  1.9717
 7412SOL    HW233873   0.881   0.303   7.732 -0.0294  0.1026  2.1457
 7413SOL     OW33874   3.488   3.359  14.229  0.1331  0.1866  0.1905
 7413SOL    HW133875   3.479   3.264  14.220 -0.6703  0.1451  1.3545
 7413SOL    HW233876   3.399   3.386  14.254  0.5729  0.1274  1.8087
 7414SOL     OW33877   3.032   0.128   2.339 -0.7558  0.1142  0.3284
 7414SOL    HW133878   3.114   0.112   2.293 -1.4472 -0.2959 -0.7853
 7414SOL    HW233879   2.980   0.053   2.309 -0.8578 -0.4533  1.9577
 7415SOL     OW33880   1.277   4.678   6.189  0.7303 -0.5800 -0.2133
 7415SOL    HW133881   1.311   4.591   6.166 -1.2485 -1.2922 -0.5014
 7415SOL    HW233882   1.185   4.653   6.201  0.6292 -1.6349 -3.2965
 7416SOL     OW33883   0.793   2.271   1.830  0.3471  0.3920 -0.0365
 7416SOL    HW133884   0.755   2.314   1.907 -2.5717 -1.5285 -0.4090
 7416SOL    HW233885   0.797   2.179   1.855  0.9567  1.2470  3.0458
 7417SOL     OW33886   1.943   4.253   4.733  0.2937  0.4402 -0.2677
 7417SOL    HW133887   1.936   4.158   4.736  0.4720  0.4449  0.2505
 7417SOL    HW233888   1.958   4.258   4.638 -0.8230 -1.7926 -0.5650
 7418SOL     OW33889   3.941   2.001   2.432  0.2746  0.4016 -0.7664
 7418SOL    HW133890   3.965   1.989   2.340  0.3589  1.0435 -0.8289
 7418SOL    HW233891   3.909   1.912   2.448  1.0253  0.6993  2.3941
 7419SOL     OW33892   0.848   1.117   2.656  0.0086 -0.2855 -0.4159
 7419SOL    HW133893   0.939   1.110   2.683  0.2658 -0.0544 -1.2513
 7419SOL    HW233894   0.839   1.208   2.627 -1.1898 -0.2436  0.0781
 7420SOL     OW33895   3.385   4.243  15.550 -0.1837  0.4866 -0.2107
 7420SOL    HW133896   3.333   4.268  15.626  1.9713  2.2438  0.6898
 7420SOL    HW233897   3.321   4.258  15.481 -2.4534 -1.0756  1.5359
 7421SOL     OW33898   0.695   1.510   6.645 -0.2248  0.4606 -1.2817
 7421SOL    HW133899   0.698   1.593   6.597 -0.8376 -0.5953 -3.1491
 7421SOL    HW233900   0.618   1.471   6.603 -1.4805 -0.2235  1.6830
 7422SOL     OW33901   1.949   0.210   3.310  0.3117 -0.0448 -0.0643
 7422SOL    HW133902   1.950   0.264   3.232  2.2110 -1.6965 -1.1961
 7422SOL    HW233903   1.855   0.203   3.321  0.3958 -0.6941  0.2349
 7423SOL     OW33904   2.039   2.085   3.655 -0.3469 -0.5486  0.1615
 7423SOL    HW133905   2.010   2.016   3.715 -0.3325 -1.8131 -1.3079
 7423SOL    HW233906   2.112   2.035   3.621 -0.4451 -1.1385  0.8248
 7424SOL     OW33907   1.627   1.737   9.362  0.0171  0.1090 -0.2426
 7424SOL    HW133908   1.537   1.768   9.355 -1.1786 -2.8038  2.1618
 7424SOL    HW233909   1.635   1.663   9.302 -0.9804  0.1128 -0.3791
 7425SOL     OW33910   3.266   1.654   2.987  0.0231  0.2700  0.2616
 7425SOL    HW133911   3.172   1.638   2.993 -0.3187  2.3924  0.4043
 7425SOL    HW233912   3.302   1.570   3.016  0.6066  0.4336  0.0159
 7426SOL     OW33913   2.745   0.749   4.155 -1.3200 -0.0773 -0.3217
 7426SOL    HW133914   2.776   0.773   4.068 -0.5147  2.3415  0.6472
 7426SOL    HW233915   2.694   0.675   4.122 -2.6535  0.7073 -0.0301
 7427SOL     OW33916   3.567   3.163  11.800  0.4370 -0.4653 -0.3893
 7427SOL    HW133917   3.632   3.225  11.834 -1.0257  0.8890 -0.0668
 7427SOL    HW233918   3.490   3.219  11.811 -0.7701 -2.3270  0.5662
 7428SOL     OW33919   2.797   2.386  15.749  0.2339 -0.7858 -0.1656
 7428SOL    HW133920   2.743   2.360  15.824  2.8505  1.3737  2.4805
 7428SOL    HW233921   2.863   2.316  15.752 -0.0087 -1.0885 -2.0546
 7429SOL     OW33922   1.213   3.604   9.223  0.0899  0.1031 -0.1001
 7429SOL    HW133923   1.272   3.546   9.271 -0.1210  0.4971  0.6444
 7429SOL    HW233924   1.229   3.688   9.266  1.3990 -0.6383  0.8706
 7430SOL     OW33925   0.827   1.697   4.607 -0.4070 -0.6077  0.5088
 7430SOL    HW133926   0.858   1.675   4.695  1.1071  0.1756  0.1582
 7430SOL    HW233927   0.817   1.792   4.604 -0.5950 -0.6867 -1.0360
 7431SOL     OW33928   2.316   3.961   5.390  0.0703  0.0137 -0.3078
 7431SOL    HW133929   2.340   3.875   5.424  0.5554  0.5517  0.7383
 7431SOL    HW233930   2.397   4.010   5.380 -1.3229  2.0675 -1.6002
 7432SOL     OW33931   2.497   2.668   0.734  0.2360 -0.4065 -0.0811
 7432SOL    HW133932   2.589   2.695   0.740  0.6181 -1.7782  0.1269
 7432SOL    HW233933   2.468   2.690   0.646 -1.3211 -1.3562  0.1964
 7433SOL     OW33934   3.743   1.255   3.954 -0.0040  0.3134  0.3426
 7433SOL    HW133935   3.673   1.281   4.012 -0.4740  1.8627 -0.9240
 7433SOL    HW233936   3.803   1.328   3.968 -0.1203  0.3318  0.7316
 7434SOL     OW33937   1.925   4.673  11.437  0.0206  0.2990  0.4547
 7434SOL    HW133938   1.885   4.591  11.468 -1.5581  0.9485  0.1698
 7434SOL    HW233939   1.896   4.683  11.346 -0.2190  2.4455  0.7823
 7435SOL     OW33940   2.652   2.422   6.651 -0.5967  0.0860  0.2421
 7435SOL    HW133941   2.571   2.470   6.671 -0.3048  0.5540  0.3089
 7435SOL    HW233942   2.633   2.330   6.669 -0.6073 -0.0762 -0.5928
 7436SOL     OW33943   2.615   1.973   4.799 -0.0624  0.5121  0.0960
 7436SOL    HW133944   2.559   1.932   4.865  1.6066 -1.0459  0.5327
 7436SOL    HW233945   2.611   2.065   4.823 -0.6046  0.2900  0.8773
 7437SOL     OW33946   0.364   3.437   3.867  1.1285 -0.4497 -0.0762
 7437SOL    HW133947   0.335   3.347   3.857 -2.6454  1.2276 -4.0111
 7437SOL    HW233948   0.295   3.486   3.823  0.5055 -1.2943 -0.0211
 7438SOL     OW33949   4.012   3.096   2.047 -0.2174 -0.4900  0.4229
 7438SOL    HW133950   4.012   3.043   2.127 -1.3599 -1.3494 -0.1349
 7438SOL    HW233951   3.935   3.060   2.001  0.0149 -0.8083  0.2824
 7439SOL     OW33952   0.835   3.534   2.210  1.0737  0.1620 -0.3614
 7439SOL    HW133953   0.829   3.460   2.150 -2.1669  0.2640 -0.1493
 7439SOL    HW233954   0.842   3.605   2.146  0.5782 -0.8543 -1.5601
 7440SOL     OW33955   2.186   3.277   4.737  0.1756  0.2402 -0.2100
 7440SOL    HW133956   2.147   3.250   4.820 -0.5588  0.4399 -0.4906
 7440SOL    HW233957   2.275   3.244   4.746  0.5709  0.8451 -2.0127
 7441SOL     OW33958   0.438   1.251  15.875 -0.2138  0.0532 -0.1371
 7441SOL    HW133959   0.492   1.320  15.835  1.8087  0.1070  2.6879
 7441SOL    HW233960   0.442   1.282  15.965 -1.5294 -0.8473  0.2301
 7442SOL     OW33961   3.432   0.548   7.252 -0.1057  0.3941 -0.3141
 7442SOL    HW133962   3.437   0.616   7.319 -2.9758  0.2286  0.0392
 7442SOL    HW233963   3.337   0.546   7.253 -0.1171  0.7361 -0.4642
 7443SOL     OW33964   3.523   4.073  15.840 -0.2345  0.4868  0.4038
 7443SOL    HW133965   3.544   4.154  15.885 -0.1785  0.7661 -0.1314
 7443SOL    HW233966   3.600   4.016  15.847 -0.1101  0.6967  0.7321
 7444SOL     OW33967   0.643   0.944  15.580  0.4776  0.0251 -0.7677
 7444SOL    HW133968   0.738   0.930  15.588  0.7389  0.5363 -2.8388
 7444SOL    HW233969   0.635   1.010  15.511 -0.5600  0.6339 -0.0582
 7445SOL     OW33970   2.963   1.631   3.005  0.5714  0.0791 -0.3040
 7445SOL    HW133971   2.930   1.720   2.997  1.6590  0.5868  0.9328
 7445SOL    HW233972   2.912   1.591   3.076 -1.3126  2.5771 -0.2295
 7446SOL     OW33973   4.562   1.464   5.205  0.4565 -0.1050  0.1990
 7446SOL    HW133974   4.605   1.547   5.188  0.0912 -0.5377 -2.7643
 7446SOL    HW233975   4.523   1.442   5.121 -1.7357  0.0622  1.1709
 7447SOL     OW33976   1.489   0.776   1.041 -0.2897 -0.3996 -0.4825
 7447SOL    HW133977   1.546   0.850   1.059 -2.4399  1.2699 -0.5171
 7447SOL    HW233978   1.428   0.792   1.113 -0.2633 -0.9926 -0.3273
 7448SOL     OW33979   0.511   1.247   9.208  0.9519  0.6961 -0.7452
 7448SOL    HW133980   0.493   1.333   9.169  0.2509  0.7581 -0.2873
 7448SOL    HW233981   0.506   1.185   9.135 -2.6865 -0.5838  0.6153
 7449SOL     OW33982   4.049   1.205   0.480  0.6684 -0.5324  0.1556
 7449SOL    HW133983   4.094   1.191   0.397 -0.3479  0.2539 -0.5352
 7449SOL    HW233984   4.035   1.300   0.478 -0.1774 -0.6247  2.3207
 7450SOL     OW33985   0.224   0.977   2.892 -0.2786 -0.2412 -0.3628
 7450SOL    HW133986   0.310   0.962   2.853  0.6903 -1.2992  2.1830
 7450SOL    HW233987   0.242   1.052   2.949  0.2547 -2.0814  1.8958
 7451SOL     OW33988   4.124   2.553   5.370  0.0404 -0.4120 -0.2937
 7451SOL    HW133989   4.148   2.593   5.453 -0.7493  0.0506 -0.2857
 7451SOL    HW233990   4.055   2.612   5.339  1.5405  0.7024 -1.4860
 7452SOL     OW33991   3.441   1.646   2.144  0.0473 -0.3340  0.0185
 7452SOL    HW133992   3.355   1.624   2.181  0.2501 -0.9926  0.1001
 7452SOL    HW233993   3.413   1.717   2.086  2.0725  0.7349  0.3482
 7453SOL     OW33994   1.159   1.313   8.339 -0.5970 -0.6818 -0.2721
 7453SOL    HW133995   1.182   1.221   8.328  0.9960 -0.1169 -1.7248
 7453SOL    HW233996   1.137   1.340   8.249  0.2802 -1.9362 -0.8530
 7454SOL     OW33997   2.403   3.891   5.900 -0.5342  0.2649  0.3565
 7454SOL    HW133998   2.464   3.916   5.969  0.0115 -0.1243  0.0144
 7454SOL    HW233999   2.452   3.902   5.819  0.5857 -0.9519  0.8662
 7455SOL     OW34000   3.069   4.498   5.776  0.6689  0.2468  0.0711
 7455SOL    HW134001   3.021   4.574   5.744 -1.3294 -0.8939  0.3103
 7455SOL    HW234002   3.150   4.501   5.725  0.5862  1.4737  0.0193
 7456SOL     OW34003   2.912   0.143  14.357 -0.0404 -0.0918 -0.2513
 7456SOL    HW134004   2.843   0.095  14.312  0.3731  0.7461 -1.7906
 7456SOL    HW234005   2.945   0.071  14.412  2.1237  0.0545 -1.3399
 7457SOL     OW34006   0.377   3.749  15.655  0.5393  0.2589 -0.0980
 7457SOL    HW134007   0.391   3.716  15.567  1.8220  0.8442 -0.1120
 7457SOL    HW234008   0.300   3.697  15.678 -0.2804  1.0669 -1.0374
 7458SOL     OW34009   0.935   2.875   3.902  0.8860  0.4253 -0.0207
 7458SOL    HW134010   0.858   2.913   3.943 -0.8639 -0.8400 -2.1487
 7458SOL    HW234011   0.956   2.942   3.837 -2.2315  2.8875  1.5093
 7459SOL     OW34012   1.128   3.921   7.068 -0.6045 -0.3327  0.2900
 7459SOL    HW134013   1.149   3.830   7.045  0.8957 -0.3946  1.9071
 7459SOL    HW234014   1.034   3.905   7.077 -0.7890  1.2761  1.3114
 7460SOL     OW34015   2.058   3.265   0.994  0.5358 -0.6439  0.3014
 7460SOL    HW134016   2.119   3.330   1.028 -0.4035  0.3229  0.1410
 7460SOL    HW234017   2.067   3.288   0.901 -1.2940 -3.5521 -0.5828
 7461SOL     OW34018   1.722   0.885   2.503 -0.3443  0.1583 -0.1756
 7461SOL    HW134019   1.670   0.806   2.520  0.6875 -0.2163  1.3015
 7461SOL    HW234020   1.746   0.910   2.592  0.6703 -2.3310  0.2642
 7462SOL     OW34021   4.272   4.039   6.213 -0.3604 -0.4752  0.4084
 7462SOL    HW134022   4.188   4.016   6.175 -1.1908 -0.3874  2.1727
 7462SOL    HW234023   4.266   4.135   6.207  0.3015 -0.3517  1.7678
 7463SOL     OW34024   0.368   0.164  11.551  0.0001  0.2004  0.0666
 7463SOL    HW134025   0.329   0.101  11.611  0.7868 -1.3584 -1.0704
 7463SOL    HW234026   0.462   0.154  11.565  0.0950 -1.4783 -1.8231
 7464SOL     OW34027   2.058   3.761   3.726 -0.0391 -0.2847 -0.3068
 7464SOL    HW134028   2.029   3.851   3.736 -2.0452 -1.3847  4.0122
 7464SOL    HW234029   1.975   3.713   3.727  0.9421 -1.9418  2.7998
 7465SOL     OW34030   2.267   0.512   8.545 -0.6096  0.3085  0.1496
 7465SOL    HW134031   2.303   0.570   8.479  1.8971  0.1215  1.3535
 7465SOL    HW234032   2.238   0.581   8.604 -0.0045 -0.3413  1.2027
 7466SOL     OW34033   1.105   1.444   6.004 -0.0494  0.1164  0.3198
 7466SOL    HW134034   1.029   1.493   6.036  1.3902  2.7457 -0.2778
 7466SOL    HW234035   1.149   1.519   5.963  2.3088 -1.2280  0.4260
 7467SOL     OW34036   3.463   2.059   7.308 -0.1874  1.1953  0.2132
 7467SOL    HW134037   3.386   2.073   7.364 -0.6186 -0.6874  0.0890
 7467SOL    HW234038   3.425   2.080   7.223 -1.1097 -0.1560  0.2919
 7468SOL     OW34039   2.986   0.540  11.118 -0.1688  0.0744 -0.6581
 7468SOL    HW134040   3.021   0.604  11.180  0.4304 -1.3197  0.4427
 7468SOL    HW234041   2.924   0.484  11.166  1.0072  0.1461  0.9244
 7469SOL     OW34042   2.038   3.670   7.214  0.0744 -0.3212 -0.3636
 7469SOL    HW134043   1.979   3.725   7.162  0.0237 -1.0344 -1.0521
 7469SOL    HW234044   1.979   3.617   7.266 -0.4855  2.2640  1.6643
 7470SOL     OW34045   3.566   2.699   4.962  0.3501  0.8437  0.3902
 7470SOL    HW134046   3.653   2.739   4.970  0.3239  1.0970 -0.4817
 7470SOL    HW234047   3.540   2.755   4.888 -0.2327 -0.3083 -0.2724
 7471SOL     OW34048   3.698   2.203   8.002 -0.6251 -0.0724  0.1884
 7471SOL    HW134049   3.744   2.276   7.959 -2.6195 -0.3065 -2.3131
 7471SOL    HW234050   3.773   2.154   8.034  0.6663  1.5978 -0.2498
 7472SOL     OW34051   3.350   3.285  10.643  0.5038  0.0570  0.2131
 7472SOL    HW134052   3.302   3.363  10.669  1.9565  1.5557 -1.6356
 7472SOL    HW234053   3.417   3.325  10.588  1.2748 -1.0830  0.3240
 7473SOL     OW34054   0.456   1.212  17.011 -0.0571 -0.1398 -0.5100
 7473SOL    HW134055   0.468   1.233  16.918  1.8718 -0.8867 -0.4225
 7473SOL    HW234056   0.395   1.138  17.007 -0.5916  0.1516  2.5223
 7474SOL     OW34057   0.660   0.081   3.842 -0.0116 -0.4406 -0.3310
 7474SOL    HW134058   0.637   4.732   3.816  0.2029  0.2996 -3.0020
 7474SOL    HW234059   0.573   0.112   3.864  0.2666 -0.3250  0.6025
 7475SOL     OW34060   2.576   3.011  17.089  0.7979  0.2581 -0.1405
 7475SOL    HW134061   2.493   3.060  17.094  1.4935  1.7637 -3.1952
 7475SOL    HW234062   2.580   2.993  17.183 -0.6114 -0.3618 -0.1951
 7476SOL     OW34063   0.696   2.567   0.023  0.3218  0.2705  0.0390
 7476SOL    HW134064   0.711   2.582  17.685 -1.8903  2.7723  0.0821
 7476SOL    HW234065   0.715   2.652   0.063 -0.9158  1.6287 -2.2492
 7477SOL     OW34066   1.445   2.379   8.292  0.8849  0.0398  0.1953
 7477SOL    HW134067   1.429   2.395   8.385 -1.0684 -0.5253 -0.0370
 7477SOL    HW234068   1.497   2.299   8.301 -0.9783 -1.3290 -1.2234
 7478SOL     OW34069   3.813   3.966   7.995  0.0270  0.1297 -0.0814
 7478SOL    HW134070   3.862   4.034   7.948 -0.4327 -0.2594 -1.1313
 7478SOL    HW234071   3.811   3.896   7.930 -0.1728  0.1794 -0.1300
 7479SOL     OW34072   0.935   0.263   7.372  0.3428 -0.0331  0.0905
 7479SOL    HW134073   0.969   0.202   7.437 -2.2605  0.2551  1.7095
 7479SOL    HW234074   0.859   0.218   7.338  1.5014  1.2879 -4.2246
 7480SOL     OW34075   4.310   3.845   8.138 -0.7978  0.1463  0.3231
 7480SOL    HW134076   4.389   3.897   8.149  1.1588 -2.5167 -1.2253
 7480SOL    HW234077   4.348   3.768   8.095  0.5144  1.2916 -0.5609
 7481SOL     OW34078   1.263   1.797   8.169 -0.4933  0.4712 -0.3644
 7481SOL    HW134079   1.190   1.788   8.230 -0.3081 -1.6647 -0.4549
 7481SOL    HW234080   1.250   1.713   8.123  3.1553  1.3774 -2.9637
 7482SOL     OW34081   2.766   1.995  17.637 -0.3680 -0.6157  0.1819
 7482SOL    HW134082   2.775   2.056  17.711  2.6801 -0.1141 -0.5833
 7482SOL    HW234083   2.675   1.973  17.656 -1.0205  1.1323 -0.8622
 7483SOL     OW34084   2.640   1.433   6.627  0.0569 -0.4215 -0.1911
 7483SOL    HW134085   2.714   1.486   6.658 -1.7255  0.2930  2.7971
 7483SOL    HW234086   2.608   1.407   6.713 -0.6091  1.7804  0.2145
 7484SOL     OW34087   1.195   3.665   1.198  0.6572  0.3396  0.4758
 7484SOL    HW134088   1.140   3.644   1.122  0.5501  0.0597  0.6312
 7484SOL    HW234089   1.148   3.727   1.254  0.9799  1.9688 -1.0514
 7485SOL     OW34090   2.340   4.232   4.662  0.5241  0.3863 -0.1654
 7485SOL    HW134091   2.403   4.302   4.681 -1.0753  1.8831 -0.3846
 7485SOL    HW234092   2.298   4.232   4.748 -1.5457  0.9614 -1.1691
 7486SOL     OW34093   0.715   3.360   5.976 -0.0987  0.1188  0.3995
 7486SOL    HW134094   0.780   3.394   6.038  1.6441 -2.2407 -0.1625
 7486SOL    HW234095   0.737   3.267   5.973  3.6348  1.0821 -1.5607
 7487SOL     OW34096   3.860   4.413   6.432  0.1305  0.0731  0.4001
 7487SOL    HW134097   3.940   4.364   6.452 -0.2722 -0.5966  0.3670
 7487SOL    HW234098   3.803   4.350   6.388 -1.3747  2.5061 -1.1616
 7488SOL     OW34099   3.744   3.946  15.800 -0.1371  0.6352  0.0656
 7488SOL    HW134100   3.833   3.975  15.824 -0.9878  1.5083  2.2356
 7488SOL    HW234101   3.766   3.866  15.753 -0.2940  0.5732  0.1005
 7489SOL     OW34102   2.306   0.911   1.035  0.1935 -0.2053 -0.3505
 7489SOL    HW134103   2.287   0.871   0.950  2.4387 -0.0858 -0.8968
 7489SOL    HW234104   2.214   0.925   1.060  0.0266 -0.6306 -0.7207
 7490SOL     OW34105   3.677   0.408  10.759 -0.1856 -0.0129 -0.2039
 7490SOL    HW134106   3.748   0.428  10.820  1.1286 -1.0635 -1.3804
 7490SOL    HW234107   3.632   0.491  10.772  0.0676  0.5919 -3.0192
 7491SOL     OW34108   0.685   3.679   8.145 -0.3107 -0.0960 -0.4308
 7491SOL    HW134109   0.678   3.673   8.050 -0.6867 -0.0916 -0.4011
 7491SOL    HW234110   0.633   3.604   8.172 -0.0647 -0.9137 -2.3064
 7492SOL     OW34111   4.544   4.231   9.580  0.0341  0.4850 -0.0541
 7492SOL    HW134112   4.507   4.294   9.642  0.9448  1.6378 -0.6658
 7492SOL    HW234113   4.489   4.251   9.505  0.6764 -0.1317 -0.6870
 7493SOL     OW34114   2.761   4.330   8.239 -0.0091 -0.0316 -0.0121
 7493SOL    HW134115   2.773   4.249   8.190 -0.2919 -0.4528  0.6124
 7493SOL    HW234116   2.822   4.305   8.308  0.6819 -2.7624 -1.6542
 7494SOL     OW34117   0.832   2.361   8.731 -0.1518  0.1578 -0.2352
 7494SOL    HW134118   0.917   2.393   8.762  1.0257 -0.6278 -2.6599
 7494SOL    HW234119   0.800   2.316   8.809 -0.5555  1.2724  0.2438
 7495SOL     OW34120   1.563   0.808   2.966 -1.1075  0.1165  0.7280
 7495SOL    HW134121   1.569   0.755   3.047 -2.8688  0.0273  0.7942
 7495SOL    HW234122   1.627   0.874   2.992 -0.2053 -0.2981 -0.4572
 7496SOL     OW34123   0.257   1.060   9.137  0.5595  0.3780  0.3441
 7496SOL    HW134124   0.338   1.039   9.091 -0.0905  0.7693 -0.9924
 7496SOL    HW234125   0.251   0.998   9.209 -0.0617 -0.6028 -0.5605
 7497SOL     OW34126   4.616   2.058  17.212 -0.2599 -0.5611 -0.1016
 7497SOL    HW134127   4.624   2.022  17.300 -0.9440 -2.8126 -0.9434
 7497SOL    HW234128   4.669   2.137  17.221  1.1834 -1.5154 -0.2081
 7498SOL     OW34129   3.657   0.226   7.387 -0.2976  0.2939 -0.3550
 7498SOL    HW134130   3.618   0.312   7.401 -2.7901 -0.7286 -0.8361
 7498SOL    HW234131   3.725   0.226   7.321  0.6568 -0.3386  0.6263
 7499SOL     OW34132   0.288   4.246  10.154 -0.2606  0.2779 -0.7981
 7499SOL    HW134133   0.209   4.296  10.132 -1.2846  0.2954  2.8824
 7499SOL    HW234134   0.339   4.295  10.219  0.3024  0.0682 -1.0864
 7500SOL     OW34135   2.348   2.954   6.333  0.7968 -0.5608  0.1598
 7500SOL    HW134136   2.315   2.874   6.375 -1.1197  0.3861  0.4675
 7500SOL    HW234137   2.396   2.918   6.258 -2.0683  0.2938 -2.0966
 7501SOL     OW34138   0.780   1.730   1.778  0.8314  0.0412  0.3113
 7501SOL    HW134139   0.785   1.825   1.763  0.6715  0.0782  0.4943
 7501SOL    HW234140   0.815   1.722   1.866  0.7253 -0.7694  0.2737
 7502SOL     OW34141   2.221   1.865   4.820  0.1372 -0.3694 -0.2171
 7502SOL    HW134142   2.257   1.808   4.752 -0.8251 -2.0949  0.7116
 7502SOL    HW234143   2.205   1.937   4.759 -0.0409  0.1035  0.3987
 7503SOL     OW34144   0.933   2.894   0.922  0.0789 -0.2016  0.0236
 7503SOL    HW134145   0.978   2.884   0.838  1.1632 -0.6473  0.6645
 7503SOL    HW234146   1.001   2.858   0.978  0.0452 -2.5204 -1.4301
 7504SOL     OW34147   2.464   2.966   7.451 -0.4674 -0.0145 -0.0985
 7504SOL    HW134148   2.547   2.988   7.495 -0.0057 -1.8723 -0.0116
 7504SOL    HW234149   2.471   3.009   7.366  0.6965  0.3122  0.1570
 7505SOL     OW34150   2.070   4.514   5.744 -0.1328 -0.6551  0.4673
 7505SOL    HW134151   2.020   4.432   5.746  2.8645 -2.4618  0.7944
 7505SOL    HW234152   2.137   4.513   5.812 -0.8597 -1.7423  1.1558
 7506SOL     OW34153   1.469   1.531  15.332  0.2001  0.3231 -0.1342
 7506SOL    HW134154   1.546   1.559  15.284 -1.6310  1.2904 -2.5294
 7506SOL    HW234155   1.419   1.612  15.342  1.6237  0.9139  2.2246
 7507SOL     OW34156   1.234   2.040   6.348  0.2867 -0.9837 -0.0631
 7507SOL    HW134157   1.298   1.980   6.387  3.2357  0.5047 -2.6854
 7507SOL    HW234158   1.230   2.110   6.413 -0.5414 -1.3445  0.2804
 7508SOL     OW34159   1.263   4.278   2.795 -0.1209 -0.0479 -0.4711
 7508SOL    HW134160   1.264   4.214   2.866 -0.7695 -1.9433 -2.1860
 7508SOL    HW234161   1.352   4.275   2.761  0.0474  0.2655 -0.0567
 7509SOL     OW34162   0.427   0.310   4.778  0.3289  0.4694  0.4825
 7509SOL    HW134163   0.498   0.355   4.734  0.3080  0.6557  0.6386
 7509SOL    HW234164   0.437   0.339   4.869 -2.5547  2.2395  0.2585
 7510SOL     OW34165   3.469   1.133  15.171 -0.4376  0.0776  0.5680
 7510SOL    HW134166   3.505   1.165  15.254 -0.8834  3.0554 -0.3750
 7510SOL    HW234167   3.534   1.074  15.134  0.3853  2.0062 -1.0890
 7511SOL     OW34168   3.374   4.587   6.769  0.3683  0.4960 -0.5062
 7511SOL    HW134169   3.407   4.611   6.856 -0.8560 -2.3729  0.7545
 7511SOL    HW234170   3.442   4.522   6.751  1.0336  1.3649 -1.1502
 7512SOL     OW34171   0.680   3.423   5.208  0.5548 -0.0279  0.1844
 7512SOL    HW134172   0.624   3.390   5.139 -0.3223  0.7693  0.5187
 7512SOL    HW234173   0.638   3.394   5.289  0.8230  1.0651  0.7186
 7513SOL     OW34174   1.637   0.334   5.554 -0.4794  0.0513 -0.2525
 7513SOL    HW134175   1.663   0.242   5.542  0.1785  0.3245 -0.9097
 7513SOL    HW234176   1.692   0.354   5.629 -0.5432  1.0435 -0.4759
 7514SOL     OW34177   0.758   3.350   2.038  0.2199  0.4386  0.1235
 7514SOL    HW134178   0.800   3.265   2.054 -0.3701  0.6899  2.8906
 7514SOL    HW234179   0.676   3.314   2.003 -0.0651 -1.5287  2.8605
 7515SOL     OW34180   1.452   4.077   3.196  0.1907  0.5740 -0.1430
 7515SOL    HW134181   1.396   4.063   3.119  1.1170 -2.1609 -0.3385
 7515SOL    HW234182   1.533   4.032   3.170  0.2293 -0.3129  1.5126
 7516SOL     OW34183   0.502   1.071   9.009  0.0156 -0.3155  0.2412
 7516SOL    HW134184   0.482   1.123   8.931  1.4582 -0.3998 -0.1766
 7516SOL    HW234185   0.560   1.002   8.979  0.8071  0.7372 -0.6675
 7517SOL     OW34186   4.587   3.030   9.855  0.1390 -0.5414 -0.5737
 7517SOL    HW134187   4.537   2.976   9.794 -1.8249  0.4463  0.1336
 7517SOL    HW234188   4.611   3.112   9.811  0.6958  0.0087  0.7484
 7518SOL     OW34189   4.238   2.407   4.302  0.5397 -0.8758  1.1290
 7518SOL    HW134190   4.210   2.497   4.318 -0.1344 -0.7178 -0.8927
 7518SOL    HW234191   4.156   2.358   4.295  0.4410 -0.5904  0.1826
 7519SOL     OW34192   3.135   0.994   3.516  0.6055 -0.0353  0.2994
 7519SOL    HW134193   3.051   0.960   3.549  1.2251 -1.1619  0.6989
 7519SOL    HW234194   3.140   0.971   3.424  1.4691  0.1383  0.3059
 7520SOL     OW34195   0.751   4.598   4.415 -0.1973 -0.1667  0.0673
 7520SOL    HW134196   0.738   4.608   4.320 -0.1460  1.7343  0.2581
 7520SOL    HW234197   0.703   4.517   4.428 -0.6863  0.2234  0.6535
 7521SOL     OW34198   3.776   1.906   6.342  0.5636  0.3023 -0.0243
 7521SOL    HW134199   3.869   1.903   6.364  0.9380 -1.5565 -1.8460
 7521SOL    HW234200   3.747   1.997   6.350  0.1362  0.0279  1.5884
 7522SOL     OW34201   4.650   3.444   7.083  0.0958  0.2000  0.2782
 7522SOL    HW134202   4.690   3.357   7.080 -0.1510  0.1140 -0.4776
 7522SOL    HW234203   4.559   3.416   7.068 -0.4334  1.4763  1.1413
 7523SOL     OW34204   0.894   0.733   5.069  0.0257  0.1459 -0.0636
 7523SOL    HW134205   0.980   0.705   5.101 -0.4372 -0.1122  0.9465
 7523SOL    HW234206   0.905   0.733   4.974  1.6332 -1.3482  0.1161
 7524SOL     OW34207   2.087   3.856  15.937  0.1363 -0.7321 -0.4299
 7524SOL    HW134208   2.096   3.892  16.025 -0.1685 -1.0489 -0.2685
 7524SOL    HW234209   2.028   3.924  15.905  1.6356  0.8929  0.2347
 7525SOL     OW34210   0.550   4.244   1.159 -0.0208 -0.4447  0.2751
 7525SOL    HW134211   0.551   4.247   1.063  1.4443 -1.8194  0.2422
 7525SOL    HW234212   0.456   4.247   1.178  0.5643 -0.2030  3.1415
 7526SOL     OW34213   1.829   2.568   2.958  0.0047  0.0396  0.0818
 7526SOL    HW134214   1.755   2.627   2.942 -0.0791  0.0235  0.3985
 7526SOL    HW234215   1.835   2.579   3.053  0.1000 -2.7856  0.3817
 7527SOL     OW34216   0.628   2.732   5.224  0.3619  0.2461 -0.3015
 7527SOL    HW134217   0.685   2.781   5.166  2.3994 -2.1994 -0.3322
 7527SOL    HW234218   0.598   2.664   5.164 -0.2326 -0.0765  0.3541
 7528SOL     OW34219   3.425   2.316   7.061 -0.0175  0.1269 -0.3149
 7528SOL    HW134220   3.460   2.228   7.048 -1.3241 -0.3361 -0.7652
 7528SOL    HW234221   3.342   2.299   7.106  0.5835 -0.8054  0.4397
 7529SOL     OW34222   3.051   1.367   3.787  0.1053 -0.7133 -0.4688
 7529SOL    HW134223   2.965   1.356   3.828 -0.0377  0.8644 -0.3574
 7529SOL    HW234224   3.043   1.460   3.766  1.5639 -0.4155  0.3347
 7530SOL     OW34225   2.007   3.664   5.738  0.3413 -0.8118  0.4763
 7530SOL    HW134226   1.982   3.754   5.718  2.6609  0.1557  1.8421
 7530SOL    HW234227   1.978   3.616   5.660  0.2006 -0.5706  0.3822
 7531SOL     OW34228   0.344   2.958   3.143 -0.7797 -0.2094  0.0259
 7531SOL    HW134229   0.422   2.952   3.198 -0.2656 -1.7730 -0.8767
 7531SOL    HW234230   0.326   3.052   3.149 -0.5818 -0.3144  2.2616
 7532SOL     OW34231   0.066   4.214   4.804 -0.0168 -0.1176  0.2927
 7532SOL    HW134232   0.151   4.197   4.764 -0.1225  0.1897 -0.0572
 7532SOL    HW234233   0.074   4.308   4.824 -3.3432 -0.1588  1.8721
 7533SOL     OW34234   3.973   0.350   5.392 -0.0896 -0.3357  0.0750
 7533SOL    HW134235   3.966   0.443   5.370 -0.5405 -0.6391 -1.0560
 7533SOL    HW234236   4.055   0.339   5.440  2.2927  0.5473 -3.7727
 7534SOL     OW34237   0.417   2.464   7.583  0.3989 -0.4349 -0.3073
 7534SOL    HW134238   0.389   2.549   7.550 -0.2201 -0.6381 -0.3079
 7534SOL    HW234239   0.345   2.402   7.570 -1.9411  1.6415  2.7808
 7535SOL     OW34240   1.073   3.410   3.530 -0.2554 -0.3616  0.1949
 7535SOL    HW134241   1.110   3.499   3.527  0.4419 -0.6841 -1.2079
 7535SOL    HW234242   1.022   3.414   3.610  0.9994  0.0810  0.9709
 7536SOL     OW34243   3.292   0.860   2.926 -0.2890  0.6432 -0.4680
 7536SOL    HW134244   3.304   0.889   3.017  2.0142 -1.2944 -0.1688
 7536SOL    HW234245   3.226   0.919   2.891 -0.2741  1.6689  1.2001
 7537SOL     OW34246   1.944   3.963   7.784  0.6542 -0.3107 -0.8726
 7537SOL    HW134247   2.031   3.931   7.761  0.8054  0.3570 -1.2215
 7537SOL    HW234248   1.970   3.994   7.870 -2.4347  1.2683 -0.4890
 7538SOL     OW34249   4.232   1.680   3.469  0.4115  0.1113 -0.1882
 7538SOL    HW134250   4.164   1.699   3.533  1.1213 -0.2759  0.6731
 7538SOL    HW234251   4.259   1.772   3.456  2.6902 -0.6120 -0.6186
 7539SOL     OW34252   1.112   0.874   4.700  0.0786  0.0912  0.3298
 7539SOL    HW134253   1.120   0.962   4.663 -1.0843 -0.4095 -1.1015
 7539SOL    HW234254   1.178   0.830   4.646  0.6008 -0.5913  1.5306
 7540SOL     OW34255   2.347   0.929   3.587 -0.3929  0.0006  0.4167
 7540SOL    HW134256   2.344   1.004   3.646 -0.1945 -0.4505  1.0009
 7540SOL    HW234257   2.438   0.943   3.561 -0.7086  0.1433 -0.6414
 7541SOL     OW34258   1.441   0.859   7.312 -0.3160 -0.1679  0.0681
 7541SOL    HW134259   1.440   0.896   7.224 -0.7296  3.1226  1.4763
 7541SOL    HW234260   1.452   0.940   7.363 -1.1776 -1.9260  3.0503
 7542SOL     OW34261   2.151   0.639   3.313  0.0967 -0.1690  0.1002
 7542SOL    HW134262   2.089   0.648   3.385  0.8585  0.8966  0.6279
 7542SOL    HW234263   2.137   0.725   3.272 -1.2332 -0.8865 -0.9118
 7543SOL     OW34264   0.253   3.262  10.621  0.3190  0.1827  0.5086
 7543SOL    HW134265   0.230   3.355  10.627 -0.4277  0.0142  0.2212
 7543SOL    HW234266   0.165   3.228  10.603  1.2205 -1.6331 -0.4441
 7544SOL     OW34267   0.808   0.845  11.612  0.1656  0.0909 -0.3281
 7544SOL    HW134268   0.834   0.773  11.555 -0.9955 -1.5465  1.2176
 7544SOL    HW234269   0.716   0.825  11.629  0.1842 -0.3583 -0.7664
 7545SOL     OW34270   3.826   0.462   3.584  0.1669 -0.0665 -0.1167
 7545SOL    HW134271   3.891   0.437   3.649 -0.4752 -0.4991  0.3633
 7545SOL    HW234272   3.742   0.437   3.621 -0.2319  2.4764  0.7167
 7546SOL     OW34273   1.882   2.529  10.323  0.0355  0.3138  0.0534
 7546SOL    HW134274   1.836   2.451  10.356 -1.6327  1.6296  0.8430
 7546SOL    HW234275   1.820   2.602  10.325 -0.9410 -0.5521  1.7261
 7547SOL     OW34276   4.507   1.187   9.900  0.0562 -0.3341  0.3378
 7547SOL    HW134277   4.517   1.171   9.806  0.2475  2.0504 -0.0525
 7547SOL    HW234278   4.441   1.256   9.895  0.2506 -0.0950  0.9920
 7548SOL     OW34279   1.685   4.693   3.755  0.0354 -0.5173  0.7149
 7548SOL    HW134280   1.727   4.660   3.834 -3.3222  2.9451  3.9586
 7548SOL    HW234281   1.632   4.616   3.735 -1.4300  0.5133  0.6033
 7549SOL     OW34282   1.617   0.876   3.252 -0.1665  0.1338 -0.5244
 7549SOL    HW134283   1.610   0.822   3.330 -2.2739 -1.8266 -2.0542
 7549SOL    HW234284   1.712   0.881   3.251 -0.2098  0.8678 -0.9880
 7550SOL     OW34285   3.801   0.412   0.105 -0.0748  0.2489  0.9191
 7550SOL    HW134286   3.822   0.389   0.196 -0.0907 -0.4537  0.7460
 7550SOL    HW234287   3.841   0.499   0.107 -0.9834  0.7015 -0.5273
 7551SOL     OW34288   4.356   1.980   4.923 -0.0557  0.5215  0.0443
 7551SOL    HW134289   4.410   1.909   4.958 -2.1254 -0.1809  1.8018
 7551SOL    HW234290   4.404   1.989   4.841  0.5550  2.9986  0.6718
 7552SOL     OW34291   3.559   4.282   2.882  0.4376  0.1173 -0.2680
 7552SOL    HW134292   3.482   4.268   2.937 -0.1363 -0.3543 -1.2041
 7552SOL    HW234293   3.626   4.285   2.951 -0.6348 -0.4749  0.8055
 7553SOL     OW34294   3.997   1.055   4.976  0.5050 -0.0945 -0.2187
 7553SOL    HW134295   4.066   1.026   4.916  0.9753  3.7579 -1.4985
 7553SOL    HW234296   4.009   0.987   5.042 -0.4104 -1.3078 -1.2888
 7554SOL     OW34297   0.797   0.180  17.102  0.1850 -0.2102  0.4139
 7554SOL    HW134298   0.750   0.102  17.074  1.7645 -0.7990 -0.6119
 7554SOL    HW234299   0.887   0.149  17.094  0.5069  1.3853 -2.2729
 7555SOL     OW34300   0.378   2.358  14.728  0.3735 -0.4357  0.1925
 7555SOL    HW134301   0.370   2.374  14.634  0.9890 -0.6174  0.1061
 7555SOL    HW234302   0.314   2.288  14.741 -1.6925  0.8879 -2.9186
 7556SOL     OW34303   0.695   2.636   2.620 -0.0776  0.3445 -0.0202
 7556SOL    HW134304   0.742   2.576   2.679 -1.3637 -0.7851 -0.1269
 7556SOL    HW234305   0.764   2.660   2.559 -1.7834 -1.2990 -2.5729
 7557SOL     OW34306   0.674   4.626   2.208  0.9502 -0.2548  0.6079
 7557SOL    HW134307   0.694   4.649   2.299 -1.7385  0.4673  1.0108
 7557SOL    HW234308   0.701   4.535   2.211  1.4874 -0.1089  0.3074
 7558SOL     OW34309   4.119   2.473   5.086 -0.4383  0.0464  0.2137
 7558SOL    HW134310   4.173   2.395   5.090  0.2698  0.5318  0.0820
 7558SOL    HW234311   4.193   2.533   5.081 -2.6914  2.7098 -1.6745
 7559SOL     OW34312   2.976   3.172   6.094 -0.7586 -0.1329  0.3420
 7559SOL    HW134313   2.963   3.081   6.120  0.3468 -0.8226 -1.5053
 7559SOL    HW234314   3.037   3.170   6.021  1.0760 -0.8545  1.8764
 7560SOL     OW34315   1.462   4.312  10.381  0.2047  0.5507 -0.6201
 7560SOL    HW134316   1.453   4.217  10.370 -0.3474  0.4901  0.3530
 7560SOL    HW234317   1.555   4.327  10.367  0.6440 -0.7494  0.9612
 7561SOL     OW34318   0.418   2.617   1.377 -0.3378 -0.0217  0.0193
 7561SOL    HW134319   0.352   2.598   1.444 -0.5962  3.2656  0.6876
 7561SOL    HW234320   0.390   2.567   1.300 -1.8460  1.1515 -0.1918
 7562SOL     OW34321   0.644   1.776   2.664  0.3573  0.1063 -0.3220
 7562SOL    HW134322   0.738   1.763   2.679  0.3436 -2.4644 -2.5085
 7562SOL    HW234323   0.631   1.706   2.600  1.0036  0.7145 -1.1230
 7563SOL     OW34324   3.756   2.379   3.635 -0.5386 -0.6686 -0.4271
 7563SOL    HW134325   3.847   2.409   3.642 -0.8023  0.4125 -1.5649
 7563SOL    HW234326   3.733   2.387   3.727  0.5336  1.4519 -0.3289
 7564SOL     OW34327   4.399   1.194  12.706  0.5019  0.0258  0.0854
 7564SOL    HW134328   4.454   1.116  12.707 -0.8377 -0.8863  1.8066
 7564SOL    HW234329   4.418   1.232  12.792 -1.5727  2.1908 -0.4313
 7565SOL     OW34330   1.533   3.130   4.492 -0.0657  0.2092 -0.0942
 7565SOL    HW134331   1.492   3.056   4.448  0.9049 -1.1265  1.2575
 7565SOL    HW234332   1.465   3.197   4.503 -0.6127 -0.5743  1.3408
 7566SOL     OW34333   4.479   4.190   5.009  0.8998  0.1345  0.1218
 7566SOL    HW134334   4.497   4.283   5.003 -2.5881  0.7016 -1.9373
 7566SOL    HW234335   4.405   4.194   4.949 -0.8201 -0.4202  2.1758
 7567SOL     OW34336   1.180   3.093   2.647 -0.2309 -0.0358 -0.3602
 7567SOL    HW134337   1.178   3.124   2.738 -1.0061  1.3608 -0.8489
 7567SOL    HW234338   1.272   3.094   2.623 -0.0666 -0.6579  0.2211
 7568SOL     OW34339   0.076   4.043   4.498 -0.2053 -0.1719 -0.2961
 7568SOL    HW134340   0.060   4.004   4.412  1.0244 -1.5596  0.1071
 7568SOL    HW234341   4.732   4.017   4.537 -1.7786  0.7383 -3.0546
 7569SOL     OW34342   4.380   0.373   1.963  0.2128 -0.3883 -0.1300
 7569SOL    HW134343   4.365   0.464   1.988  0.0917 -0.0998 -1.2748
 7569SOL    HW234344   4.441   0.375   1.889  0.7568 -1.2731  0.2950
 7570SOL     OW34345   3.903   2.597   5.142 -0.1362  0.2860 -0.6949
 7570SOL    HW134346   3.851   2.520   5.118  1.0565 -0.5324 -0.6852
 7570SOL    HW234347   3.982   2.568   5.096  1.9617  2.1033  1.7201
 7571SOL     OW34348   4.526   4.406   5.409  0.4154 -0.1058 -0.2199
 7571SOL    HW134349   4.515   4.361   5.492 -1.1648  1.4484  0.4205
 7571SOL    HW234350   4.589   4.351   5.363 -0.2796  0.6600 -2.0939
 7572SOL     OW34351   3.906   3.265  13.734 -0.0064  0.1227  0.2479
 7572SOL    HW134352   3.824   3.241  13.775 -0.5538  0.9368 -0.3480
 7572SOL    HW234353   3.938   3.191  13.683 -1.2445 -0.8784  0.9343
 7573SOL     OW34354   0.829   0.150  15.774  0.2727 -0.3378 -0.0776
 7573SOL    HW134355   0.777   0.214  15.725  1.7566  1.3040  0.4890
 7573SOL    HW234356   0.813   0.191  15.859  0.9427  2.4306 -1.2980
 7574SOL     OW34357   1.493   1.261  15.306  0.0954 -0.4024 -0.0921
 7574SOL    HW134358   1.397   1.260  15.302 -0.0132  2.5488  2.2739
 7574SOL    HW234359   1.508   1.354  15.317  0.2211 -0.5209  0.6959
 7575SOL     OW34360   4.260   1.197   6.165  0.0868 -0.1801  0.2704
 7575SOL    HW134361   4.281   1.125   6.225 -1.5171 -2.2841 -1.7028
 7575SOL    HW234362   4.347   1.234   6.155 -0.1201  0.0486 -0.6790
 7576SOL     OW34363   3.143   2.924   9.681 -1.1582  0.6085  0.4393
 7576SOL    HW134364   3.079   2.909   9.611  0.0013  1.8861 -0.8946
 7576SOL    HW234365   3.209   2.860   9.655 -1.0684  2.3177 -3.4299
 7577SOL     OW34366   3.051   2.727   8.660  0.4456  0.3090  0.1112
 7577SOL    HW134367   3.105   2.790   8.612  0.7803  0.0343  0.1266
 7577SOL    HW234368   3.022   2.669   8.589  2.3824  1.6506 -1.7787
 7578SOL     OW34369   2.432   3.957   5.095 -0.4457 -0.5004 -0.3948
 7578SOL    HW134370   2.461   3.976   5.185 -2.3392 -2.6334  0.6719
 7578SOL    HW234371   2.471   4.029   5.046  0.7910 -1.0765 -0.2639
 7579SOL     OW34372   3.655   0.637  16.913  0.0394 -0.2034  0.1295
 7579SOL    HW134373   3.687   0.595  16.993 -0.8185  0.9569  1.0727
 7579SOL    HW234374   3.733   0.641  16.858  0.2217 -0.8374  0.3357
 7580SOL     OW34375   2.087   0.325   7.955 -0.0555  0.1589  0.4601
 7580SOL    HW134376   2.171   0.324   7.910 -0.2861 -1.1706  0.0600
 7580SOL    HW234377   2.062   0.417   7.954 -1.6804 -0.3221 -1.7933
 7581SOL     OW34378   0.918   1.451   3.693 -0.3844 -0.3797 -0.4076
 7581SOL    HW134379   0.900   1.536   3.652 -0.3445 -0.4998 -0.6778
 7581SOL    HW234380   0.922   1.392   3.617 -1.8604 -1.2901  0.2122
 7582SOL     OW34381   0.362   0.947   3.335  0.0697 -1.1701  0.2637
 7582SOL    HW134382   0.311   0.875   3.296  0.8648 -1.4406 -0.2857
 7582SOL    HW234383   0.303   1.021   3.322 -0.6545 -1.6222  0.9380
 7583SOL     OW34384   2.476   0.508   8.203 -0.2000  0.3611 -0.1332
 7583SOL    HW134385   2.542   0.547   8.261 -0.5987 -1.2549  1.4037
 7583SOL    HW234386   2.400   0.563   8.219 -0.4199  0.5567 -1.8557
 7584SOL     OW34387   3.697   4.204   1.866 -0.1887  0.5408  0.3288
 7584SOL    HW134388   3.652   4.229   1.785  0.5950  0.2135 -0.2077
 7584SOL    HW234389   3.725   4.114   1.855 -0.7250  0.2188  1.5892
 7585SOL     OW34390   2.801   3.314   6.479  0.3912  0.5637 -0.6027
 7585SOL    HW134391   2.784   3.345   6.390 -2.1147  2.6127  0.6040
 7585SOL    HW234392   2.815   3.219   6.476  0.9588  0.5959  1.1914
 7586SOL     OW34393   4.442   0.921  15.989  0.1188 -0.1410  0.4999
 7586SOL    HW134394   4.440   1.009  15.951  0.4548  0.5271  2.0368
 7586SOL    HW234395   4.526   0.887  15.958  0.0889  0.7527 -0.5315
 7587SOL     OW34396   2.983   1.409   8.478  0.8681 -0.3318  0.2669
 7587SOL    HW134397   2.926   1.482   8.500  0.7213 -0.1916 -0.5730
 7587SOL    HW234398   2.927   1.348   8.430  0.4876 -0.2580  0.6174
 7588SOL     OW34399   1.906   4.662   8.149 -0.4447 -0.4888 -0.0304
 7588SOL    HW134400   1.942   4.579   8.181  0.6277 -0.1558 -0.3776
 7588SOL    HW234401   1.814   4.662   8.176 -0.0142 -0.6078  1.4155
 7589SOL     OW34402   1.149   3.454   6.196 -0.3455  0.1758 -0.3100
 7589SOL    HW134403   1.217   3.495   6.249 -1.5014  0.1383  1.1986
 7589SOL    HW234404   1.160   3.503   6.114  1.0861  0.6672  0.1714
 7590SOL     OW34405   2.386   1.337  14.086  0.5736  0.0034 -0.2371
 7590SOL    HW134406   2.455   1.366  14.146 -1.9556  1.3455  2.0312
 7590SOL    HW234407   2.333   1.417  14.082 -0.6951 -0.8923 -1.0555
 7591SOL     OW34408   0.712   1.544   8.904 -0.2884  0.3634  0.2195
 7591SOL    HW134409   0.784   1.484   8.885 -0.2055  0.5133  0.0577
 7591SOL    HW234410   0.678   1.565   8.817  1.6115 -1.5167 -0.9770
 7592SOL     OW34411   4.725   1.495  15.307 -0.1979 -0.4959 -0.1812
 7592SOL    HW134412   4.652   1.440  15.278 -0.8372 -0.1287  0.7509
 7592SOL    HW234413   4.688   1.552  15.374 -1.0009  0.1278 -1.1384
 7593SOL     OW34414   2.316   2.735   6.854 -0.0828  0.4286 -1.2401
 7593SOL    HW134415   2.241   2.701   6.805  1.3150 -0.7942 -2.5339
 7593SOL    HW234416   2.322   2.677   6.930 -0.0538  0.9551 -0.8386
 7594SOL     OW34417   2.347   2.335  11.467  0.1662 -0.1687 -0.1118
 7594SOL    HW134418   2.427   2.384  11.449 -1.5090  2.2812 -0.9476
 7594SOL    HW234419   2.363   2.260  11.411 -0.2839 -0.8440  0.6603
 7595SOL     OW34420   2.559   2.323   8.037 -0.2764  0.1921 -0.2787
 7595SOL    HW134421   2.494   2.277   8.090 -0.1740  0.3409 -0.0261
 7595SOL    HW234422   2.527   2.413   8.045  1.1384  0.7828 -1.2864
 7596SOL     OW34423   2.786   0.455   8.573 -0.5316  0.3803  0.0405
 7596SOL    HW134424   2.763   0.497   8.656  1.2937  0.1856  0.6420
 7596SOL    HW234425   2.831   0.375   8.601 -0.9463  0.0012 -0.3834
 7597SOL     OW34426   3.471   4.619   4.831  0.3850 -0.0570 -0.3467
 7597SOL    HW134427   3.380   4.636   4.806 -0.3341 -0.3811  2.0206
 7597SOL    HW234428   3.512   4.668   4.760 -0.5429 -0.2749 -1.0340
 7598SOL     OW34429   0.693   0.776   3.009 -0.2645 -0.1100 -0.1878
 7598SOL    HW134430   0.770   0.782   2.953 -1.0025 -0.3536 -1.2196
 7598SOL    HW234431   0.691   0.683   3.034 -0.9642  0.2208  0.9727
 7599SOL     OW34432   0.983   4.535   4.585 -0.2805  0.0841 -0.4746
 7599SOL    HW134433   0.904   4.550   4.533  1.0422  2.2751 -1.8672
 7599SOL    HW234434   0.951   4.577   4.665 -1.8209 -3.8517  0.9528
 7600SOL     OW34435   1.833   1.823   5.908  0.2322  0.1228 -0.0739
 7600SOL    HW134436   1.840   1.728   5.898  2.6300  0.2289  0.4336
 7600SOL    HW234437   1.797   1.835   5.821  0.5182  0.5501 -0.1338
 7601SOL     OW34438   2.715   4.193   4.467 -0.2899  0.4073  0.2846
 7601SOL    HW134439   2.785   4.214   4.405  0.5406  0.9618  1.4172
 7601SOL    HW234440   2.666   4.273   4.446 -2.2111 -0.6666  0.6955
 7602SOL     OW34441   0.322   4.021  15.701  0.0977 -0.4915 -0.2580
 7602SOL    HW134442   0.337   3.945  15.644 -2.6005 -0.3811 -1.1437
 7602SOL    HW234443   0.395   4.008  15.761  0.9908  0.0357 -1.2399
 7603SOL     OW34444   4.033   2.688   8.461  0.3110 -0.1761  0.0499
 7603SOL    HW134445   4.007   2.654   8.375 -0.3029 -0.5054  0.3686
 7603SOL    HW234446   3.951   2.738   8.469  1.0412  0.7083  2.0302
 7604SOL     OW34447   1.407   1.499  14.773 -0.2478 -0.1330 -0.7236
 7604SOL    HW134448   1.478   1.435  14.777 -1.8876 -1.7934  2.1519
 7604SOL    HW234449   1.333   1.438  14.767 -0.5787  0.3022 -1.0708
 7605SOL     OW34450   3.269   0.228   3.519 -0.0221 -0.3110 -0.1358
 7605SOL    HW134451   3.207   0.262   3.584 -1.3467  0.3691 -1.7470
 7605SOL    HW234452   3.333   0.189   3.578 -1.0714 -0.8077  0.6830
 7606SOL     OW34453   1.870   4.507  14.412  0.0528  0.1780 -0.3838
 7606SOL    HW134454   1.875   4.584  14.355 -2.8866  1.4885  1.0856
 7606SOL    HW234455   1.814   4.448  14.362 -0.1263 -0.1086  0.1525
 7607SOL     OW34456   1.926   4.024  13.695 -0.3784 -0.0068 -0.2626
 7607SOL    HW134457   1.967   3.963  13.634  0.6570 -1.7891  2.2223
 7607SOL    HW234458   1.942   3.980  13.779  0.7185  0.2002 -0.3675
 7608SOL     OW34459   1.995   0.251   0.761 -0.2407 -0.4789  0.0436
 7608SOL    HW134460   1.977   0.265   0.668  2.2099 -0.4333 -0.4402
 7608SOL    HW234461   1.921   0.197   0.786 -0.8452  1.4120  2.3237
 7609SOL     OW34462   2.656   3.785   9.234 -0.0116 -0.4104  0.5311
 7609SOL    HW134463   2.567   3.800   9.265  0.7635  1.1855  1.9488
 7609SOL    HW234464   2.652   3.809   9.142  1.4123 -1.0514  0.3095
 7610SOL     OW34465   2.111   1.423   2.454 -0.7632 -0.3070 -0.4898
 7610SOL    HW134466   2.165   1.368   2.397  1.5327  2.1637 -0.6710
 7610SOL    HW234467   2.173   1.460   2.518  0.7474 -4.0174  0.1993
 7611SOL     OW34468   4.259   3.023   9.904  0.5700 -0.4205 -0.1189
 7611SOL    HW134469   4.334   3.025   9.963 -0.0905  0.1580  0.7040
 7611SOL    HW234470   4.297   2.977   9.830 -1.8020 -2.1832 -0.2413
 7612SOL     OW34471   1.504   1.869   5.798 -0.1145 -0.3508 -0.2021
 7612SOL    HW134472   1.552   1.803   5.747  0.1529 -0.3836  0.0989
 7612SOL    HW234473   1.524   1.830   5.883  2.6973  0.1528 -0.6235
 7613SOL     OW34474   3.546   4.208   8.777 -0.1353  0.1623 -0.6561
 7613SOL    HW134475   3.575   4.296   8.799  2.2222 -0.6342 -0.5902
 7613SOL    HW234476   3.628   4.160   8.781 -0.6751 -0.5419  1.7739
 7614SOL     OW34477   1.265   2.448  12.832  0.0309  0.0670  0.8156
 7614SOL    HW134478   1.280   2.377  12.769  1.8162  1.5812 -0.4822
 7614SOL    HW234479   1.175   2.437  12.863  0.0568  0.4085  1.0095
 7615SOL     OW34480   3.783   3.697  14.378 -0.4552 -0.0259 -0.1942
 7615SOL    HW134481   3.737   3.754  14.441  0.1423  0.4726 -0.2128
 7615SOL    HW234482   3.710   3.663  14.326 -0.5574 -1.3912  0.8614
 7616SOL     OW34483   1.148   2.932   6.581 -1.0162  0.2756 -0.5689
 7616SOL    HW134484   1.241   2.921   6.564 -0.3220 -0.1040  3.4704
 7616SOL    HW234485   1.111   2.864   6.526 -1.0180 -0.1614 -0.0302
 7617SOL     OW34486   1.091   2.889  13.359  0.6261  0.1105 -0.1690
 7617SOL    HW134487   1.144   2.815  13.330  0.6741  0.6863 -1.5495
 7617SOL    HW234488   1.003   2.857  13.342  0.5766 -0.4900  1.1960
 7618SOL     OW34489   4.358   4.488  16.228  0.3534  0.7180  0.9816
 7618SOL    HW134490   4.315   4.461  16.309 -0.0762 -0.0934  0.4842
 7618SOL    HW234491   4.288   4.522  16.173  0.5030 -0.4669  0.0498
 7619SOL     OW34492   2.361   1.854   3.789  0.4848 -0.2345 -0.7595
 7619SOL    HW134493   2.399   1.767   3.799 -0.2486 -0.3243  1.2433
 7619SOL    HW234494   2.307   1.837   3.712  1.5926  0.1757 -1.6147
 7620SOL     OW34495   1.061   0.509   0.448 -0.3067 -0.0948 -0.6171
 7620SOL    HW134496   0.987   0.451   0.468  0.6519 -1.1319 -0.0877
 7620SOL    HW234497   1.017   0.591   0.426  0.2363  0.3771  0.0852
 7621SOL     OW34498   3.750   3.682   4.133 -0.3537  0.5819 -0.4156
 7621SOL    HW134499   3.759   3.612   4.069  1.2883  1.4299 -1.1179
 7621SOL    HW234500   3.670   3.660   4.180  0.0848 -2.2261 -1.0213
 7622SOL     OW34501   2.759   0.946   6.043  0.0417  0.3517 -0.5269
 7622SOL    HW134502   2.828   1.013   6.046  1.0029 -0.5828 -1.7786
 7622SOL    HW234503   2.698   0.988   5.982 -0.8664  1.7327  1.3154
 7623SOL     OW34504   1.483   2.058   3.606 -0.3633  0.1135  0.3540
 7623SOL    HW134505   1.578   2.055   3.611 -0.3334 -0.2816 -0.3492
 7623SOL    HW234506   1.461   1.972   3.571  0.4909  0.7927 -1.8545
 7624SOL     OW34507   0.681   2.371   6.186 -0.5168  0.2218  0.0512
 7624SOL    HW134508   0.776   2.368   6.187 -0.5755 -0.5607  1.7527
 7624SOL    HW234509   0.668   2.438   6.118  1.1810 -0.5813 -1.0653
 7625SOL     OW34510   4.375   3.117   3.262  0.0646  0.5615  0.4836
 7625SOL    HW134511   4.312   3.184   3.232  0.5464  0.2209 -1.2992
 7625SOL    HW234512   4.415   3.094   3.178 -2.3667 -1.6800 -0.0711
 7626SOL     OW34513   3.134   4.172   7.211  0.5959  0.5751  0.2705
 7626SOL    HW134514   3.185   4.127   7.279 -0.3201  0.1996  0.7109
 7626SOL    HW234515   3.057   4.191   7.264 -1.1621 -1.5706 -1.4975
 7627SOL     OW34516   2.574   4.727   9.151  0.8503 -0.5187  0.1236
 7627SOL    HW134517   2.557   4.676   9.229 -0.4001  1.3188  1.0480
 7627SOL    HW234518   2.616   0.066   9.188 -0.0770  0.2146 -0.3827
 7628SOL     OW34519   3.507   0.013   1.806 -0.0795 -0.1575 -0.0727
 7628SOL    HW134520   3.422   0.052   1.826 -0.4377 -1.0803  0.2173
 7628SOL    HW234521   3.466   4.679   1.760  1.3469  0.8442 -2.9409
 7629SOL     OW34522   3.566   2.393  15.613 -0.1224 -0.3567  0.3437
 7629SOL    HW134523   3.615   2.459  15.663  2.6227 -1.2514 -1.1529
 7629SOL    HW234524   3.477   2.409  15.644 -0.7861 -1.4364 -1.0517
 7630SOL     OW34525   4.441   3.605   4.092 -0.6417 -0.0205 -0.2330
 7630SOL    HW134526   4.378   3.640   4.155  0.7706 -0.0206  1.1787
 7630SOL    HW234527   4.396   3.530   4.054  0.2799 -0.2828 -0.8128
 7631SOL     OW34528   0.637   0.123   4.752 -0.1513  0.2523 -0.8927
 7631SOL    HW134529   0.656   0.129   4.659  4.0841 -0.1054 -0.0562
 7631SOL    HW234530   0.542   0.137   4.748 -0.5135 -2.1383 -0.7956
 7632SOL     OW34531   3.373   2.442   7.817 -0.1400  0.6133 -0.2963
 7632SOL    HW134532   3.366   2.537   7.830  2.5651  0.7827  0.0818
 7632SOL    HW234533   3.410   2.416   7.901 -1.3228 -0.4869 -0.1230
 7633SOL     OW34534   1.774   2.022   3.566 -0.3596 -0.2219  0.0909
 7633SOL    HW134535   1.855   2.071   3.578  0.2863 -0.7433 -2.1312
 7633SOL    HW234536   1.763   2.031   3.472 -1.5928  2.3468  0.4806
 7634SOL     OW34537   1.996   0.551   5.887  0.3008 -0.6425 -0.3583
 7634SOL    HW134538   1.969   0.473   5.840  0.4438 -2.0538  1.9119
 7634SOL    HW234539   1.915   0.581   5.929  2.2686  1.7917  1.7145
 7635SOL     OW34540   3.770   2.899   8.987  0.2197  0.2767 -0.9645
 7635SOL    HW134541   3.792   2.809   9.012 -0.9412  0.9007  2.3354
 7635SOL    HW234542   3.803   2.941   9.067  0.5936 -0.6226 -0.6463
 7636SOL     OW34543   4.190   1.402  11.761 -0.1489  0.2815  0.1404
 7636SOL    HW134544   4.219   1.373  11.675 -0.2721 -4.7761  1.8301
 7636SOL    HW234545   4.266   1.451  11.794 -0.1663  1.2535 -1.2698
 7637SOL     OW34546   4.318   1.447   2.145 -0.2457 -0.2115  0.4710
 7637SOL    HW134547   4.315   1.368   2.199 -0.8652 -1.0798 -0.8233
 7637SOL    HW234548   4.273   1.512   2.200 -1.0742 -1.1166  0.8748
 7638SOL     OW34549   4.187   3.483   4.570 -0.2757 -0.0291  0.2785
 7638SOL    HW134550   4.112   3.542   4.573  0.3045  0.7269 -0.2295
 7638SOL    HW234551   4.260   3.545   4.563  0.0925 -0.2964  1.6625
 7639SOL     OW34552   3.984   2.001   0.289  0.1296  0.3161 -0.7607
 7639SOL    HW134553   3.908   2.060   0.291  0.9068  1.3113 -0.4435
 7639SOL    HW234554   4.005   1.990   0.382  0.5850 -2.5983 -1.2306
 7640SOL     OW34555   1.926   0.912   3.475 -0.7100  0.6124  0.1643
 7640SOL    HW134556   1.992   0.961   3.524  0.7822 -2.0582  0.8077
 7640SOL    HW234557   1.847   0.936   3.523 -0.1386 -0.4818  1.6463
 7641SOL     OW34558   3.290   4.427   6.100  0.0591 -0.2912  0.8647
 7641SOL    HW134559   3.287   4.422   6.195 -2.0073 -0.3306  0.8103
 7641SOL    HW234560   3.376   4.469   6.099 -0.6750  1.2303  1.6012
 7642SOL     OW34561   3.360   3.763   6.231 -0.2509  0.2101  0.4155
 7642SOL    HW134562   3.417   3.698   6.191  0.3456 -0.6919  2.7699
 7642SOL    HW234563   3.276   3.743   6.190 -0.7766 -0.5181  1.8469
 7643SOL     OW34564   0.746   1.468  14.116  0.1770 -0.6219  0.0467
 7643SOL    HW134565   0.736   1.478  14.021  0.4244 -2.2373 -0.1411
 7643SOL    HW234566   0.809   1.538  14.135 -1.4010  0.2563  2.0290
 7644SOL     OW34567   1.469   2.519   5.221 -0.2787 -0.0852  0.1345
 7644SOL    HW134568   1.383   2.499   5.185 -0.0388 -0.7667 -0.0612
 7644SOL    HW234569   1.460   2.475   5.305  0.8577  0.4346  0.5242
 7645SOL     OW34570   4.508   2.653   2.880 -0.0223  0.1126  0.1040
 7645SOL    HW134571   4.508   2.580   2.942  3.3413  1.0852  1.2586
 7645SOL    HW234572   4.594   2.689   2.905  0.4031  0.9696 -2.6473
 7646SOL     OW34573   3.747   1.536   6.681 -0.0715 -0.0415  0.0453
 7646SOL    HW134574   3.748   1.455   6.731 -0.5037  0.5110  0.9420
 7646SOL    HW234575   3.679   1.581   6.731  0.5052 -0.0896  0.8732
 7647SOL     OW34576   4.206   1.801  13.935 -0.4417 -0.1029  0.5395
 7647SOL    HW134577   4.254   1.799  13.853  1.3666  0.6403  1.5765
 7647SOL    HW234578   4.236   1.884  13.971  2.4624 -0.6246 -0.7295
 7648SOL     OW34579   3.788   0.560   7.624 -0.5313  0.3848 -0.4730
 7648SOL    HW134580   3.747   0.474   7.614  1.5788 -0.4967 -1.3130
 7648SOL    HW234581   3.852   0.546   7.693 -1.7874  1.2818  0.8690
 7649SOL     OW34582   1.594   0.207   5.257  0.2464  0.4363  0.7779
 7649SOL    HW134583   1.641   0.285   5.228 -0.9592  0.3011 -1.5939
 7649SOL    HW234584   1.634   0.198   5.343 -0.6027 -0.6145  1.0571
 7650SOL     OW34585   0.419   4.007   3.801  0.2796  0.0567  0.3801
 7650SOL    HW134586   0.336   4.049   3.779  0.6635  2.2228  3.0263
 7650SOL    HW234587   0.471   4.069   3.851  2.0937 -3.3764  2.7448
 7651SOL     OW34588   3.594   1.752   4.588  0.3141 -0.0426  1.0074
 7651SOL    HW134589   3.570   1.665   4.558 -0.5789  1.7172 -3.4605
 7651SOL    HW234590   3.630   1.773   4.502  3.0678  1.1082  2.4248
 7652SOL     OW34591   2.504   0.619   8.985  0.1647 -0.5548 -0.0339
 7652SOL    HW134592   2.409   0.626   8.974  0.0409 -0.7424  0.8766
 7652SOL    HW234593   2.516   0.704   9.026 -1.0107  0.1764 -1.1977
 7653SOL     OW34594   4.318   0.770   6.114  0.2948 -0.0646  0.4805
 7653SOL    HW134595   4.265   0.690   6.106  0.5380 -0.6156  4.1314
 7653SOL    HW234596   4.251   0.839   6.123  3.1692  2.5498  1.6767
 7654SOL     OW34597   0.374   2.900   2.866  0.3715 -0.4885 -0.1958
 7654SOL    HW134598   0.311   2.829   2.869 -0.6829  0.4197 -0.8068
 7654SOL    HW234599   0.383   2.911   2.960 -0.4388 -0.5000 -0.1207
 7655SOL     OW34600   4.136   0.311   6.880 -0.0861 -0.0416  0.3336
 7655SOL    HW134601   4.184   0.298   6.962 -1.2550 -1.2295  0.8218
 7655SOL    HW234602   4.152   0.405   6.867  0.0965  0.0576  1.2689
 7656SOL     OW34603   0.690   4.219   6.601 -0.3657 -0.0146  0.2429
 7656SOL    HW134604   0.778   4.258   6.596 -0.9953  1.4423  0.5821
 7656SOL    HW234605   0.641   4.301   6.600 -0.8443 -0.3414 -2.9144
 7657SOL     OW34606   2.286   2.690   6.323 -0.5045  0.1575 -0.9160
 7657SOL    HW134607   2.357   2.644   6.278  1.0211  0.8645  0.7758
 7657SOL    HW234608   2.227   2.718   6.253 -1.0592  0.6262 -0.2527
 7658SOL     OW34609   1.161   2.890   2.916  0.3014  1.0087 -0.0613
 7658SOL    HW134610   1.065   2.882   2.917  0.4430 -0.7800 -0.0988
 7658SOL    HW234611   1.181   2.868   3.007 -3.2391 -0.6997  0.3176
 7659SOL     OW34612   1.398   0.870   8.467 -0.2801  0.3162  0.5229
 7659SOL    HW134613   1.445   0.832   8.393  1.0101  0.1601  1.4403
 7659SOL    HW234614   1.463   0.933   8.498  0.0114  0.3259 -0.1261
 7660SOL     OW34615   0.568   0.620   8.888  0.9434 -0.4041  0.0372
 7660SOL    HW134616   0.510   0.642   8.961 -0.7527 -0.7208 -1.2166
 7660SOL    HW234617   0.619   0.555   8.936  1.8103  1.0725  1.0949
 7661SOL     OW34618   2.971   0.143   1.903  0.7222  0.2405 -0.3650
 7661SOL    HW134619   2.918   0.063   1.898  2.5190 -1.0266  0.7158
 7661SOL    HW234620   2.916   0.203   1.952 -0.4630  0.0444 -1.4681
 7662SOL     OW34621   0.060   1.980   7.219  0.1897  0.2749  0.1881
 7662SOL    HW134622   0.072   1.920   7.293  1.1282  0.0114 -0.1772
 7662SOL    HW234623   0.038   2.060   7.267 -1.5432 -1.3529  2.0965
 7663SOL     OW34624   4.606   1.532   1.593 -0.2770 -0.3648  0.0477
 7663SOL    HW134625   4.554   1.603   1.631 -0.5998 -0.3305 -0.4578
 7663SOL    HW234626   4.655   1.495   1.667  0.2315 -0.6013 -0.3996
 7664SOL     OW34627   4.455   2.772  10.944 -0.7700 -0.3453 -0.1497
 7664SOL    HW134628   4.392   2.757  10.873 -0.2728  0.0296 -0.6787
 7664SOL    HW234629   4.494   2.855  10.915 -0.1667 -1.5545 -2.8515
 7665SOL     OW34630   1.047   3.029   6.802  0.0314 -0.2818 -0.1521
 7665SOL    HW134631   1.066   3.015   6.709 -2.1781  0.6228 -0.7210
 7665SOL    HW234632   1.126   3.081   6.821  1.8272 -2.4978 -1.6313
 7666SOL     OW34633   3.852   2.256   6.612  0.1014 -0.3682 -0.1558
 7666SOL    HW134634   3.874   2.261   6.519  0.9125 -2.8270 -0.1056
 7666SOL    HW234635   3.783   2.322   6.622  1.3595  0.8236  0.5054
 7667SOL     OW34636   4.147   3.567   7.322 -0.0611 -0.4662 -0.1717
 7667SOL    HW134637   4.066   3.549   7.370  1.8384  1.2272  3.6193
 7667SOL    HW234638   4.142   3.657   7.292 -1.8763  0.2656  2.3403
 7668SOL     OW34639   2.791   0.297   2.989 -0.2599 -0.1673 -1.1528
 7668SOL    HW134640   2.820   0.225   3.045 -1.2578  0.1175 -0.2781
 7668SOL    HW234641   2.871   0.350   2.981  1.0005 -1.4543  3.0034
 7669SOL     OW34642   1.295   2.912   0.166 -0.2438  0.4003  0.2945
 7669SOL    HW134643   1.329   2.900   0.077  0.9438 -1.4578  0.9923
 7669SOL    HW234644   1.342   2.847   0.218 -1.0806 -1.8409 -1.7746
 7670SOL     OW34645   0.854   4.112   4.724 -0.1844 -0.3536  0.4875
 7670SOL    HW134646   0.874   4.022   4.750  1.8087 -0.4274 -1.2720
 7670SOL    HW234647   0.820   4.152   4.804 -1.1389  0.3106 -0.2432
 7671SOL     OW34648   0.267   3.884   4.636  0.4570  0.3650 -0.4325
 7671SOL    HW134649   0.216   3.951   4.591 -0.7988 -0.5682 -0.3961
 7671SOL    HW234650   0.337   3.941   4.668  0.5473 -0.1537  0.2913
 7672SOL     OW34651   2.474   0.581   7.908  0.0860 -0.5217  0.3257
 7672SOL    HW134652   2.437   0.653   7.959 -2.5235 -2.1182  0.6905
 7672SOL    HW234653   2.424   0.503   7.932 -0.0629 -0.5605 -0.1159
 7673SOL     OW34654   3.685   4.713   8.955  0.0968 -0.7519 -0.1486
 7673SOL    HW134655   3.626   0.048   8.959  2.6825  1.3956 -1.9453
 7673SOL    HW234656   3.676   4.671   9.040 -0.2196  0.3606  0.3664
 7674SOL     OW34657   2.996   0.184   5.685 -0.0894 -0.2565  0.3321
 7674SOL    HW134658   2.991   0.276   5.710  0.6054  0.0365 -0.5704
 7674SOL    HW234659   2.998   0.145   5.772  1.2802 -0.0412  0.4030
 7675SOL     OW34660   3.287   0.618   5.301  0.2975  0.5698  0.3535
 7675SOL    HW134661   3.201   0.622   5.261 -0.0337  1.1719  1.1175
 7675SOL    HW234662   3.283   0.531   5.342  0.3308  0.3271 -0.1594
 7676SOL     OW34663   2.228   1.785   9.854  0.0687  0.1856 -0.2175
 7676SOL    HW134664   2.167   1.762   9.924  0.4288 -0.7460 -0.2061
 7676SOL    HW234665   2.263   1.868   9.887 -0.1480 -0.1360  0.8266
 7677SOL     OW34666   1.136   4.166   9.423  0.3202 -0.2145 -0.2320
 7677SOL    HW134667   1.229   4.154   9.442 -0.3220 -0.8308  2.4781
 7677SOL    HW234668   1.102   4.211   9.500  3.7113 -0.0559  1.1812
 7678SOL     OW34669   0.799   0.749  11.154 -0.2351  0.3208  0.0896
 7678SOL    HW134670   0.822   0.823  11.098  0.0873  1.2152  1.4089
 7678SOL    HW234671   0.721   0.712  11.111 -0.0392 -2.1474  1.8643
 7679SOL     OW34672   1.000   2.129  11.688  0.5242 -0.1601 -0.0339
 7679SOL    HW134673   0.917   2.086  11.708  1.8041 -2.4851  0.3228
 7679SOL    HW234674   1.009   2.179  11.769  0.9093  2.1961 -1.5161
 7680SOL     OW34675   2.966   2.750   1.383 -0.5977  0.2307 -0.2521
 7680SOL    HW134676   2.983   2.824   1.441 -0.4587 -0.5149  0.6711
 7680SOL    HW234677   3.042   2.760   1.325  0.3927 -0.0824  1.0008
 7681SOL     OW34678   2.470   0.447  17.268 -0.3539 -0.5047 -0.1035
 7681SOL    HW134679   2.437   0.491  17.346 -0.2758  0.1506 -0.4368
 7681SOL    HW234680   2.420   0.505  17.210 -0.2341  1.4045  1.7315
 7682SOL     OW34681   0.202   2.679   2.977 -0.5110  0.5627  0.5825
 7682SOL    HW134682   0.167   2.591   2.994  2.4333 -0.3087  2.2195
 7682SOL    HW234683   0.281   2.654   3.025  0.8920  4.1285  0.0827
 7683SOL     OW34684   2.872   4.326   5.665  0.0462  0.4849  0.7697
 7683SOL    HW134685   2.928   4.388   5.712  1.3283 -0.4102  0.4170
 7683SOL    HW234686   2.922   4.313   5.584 -2.3365  0.2733 -0.6566
 7684SOL     OW34687   0.100   2.834   2.310 -0.0966 -0.6452 -0.2133
 7684SOL    HW134688   0.186   2.856   2.347  0.4425 -1.5509 -0.9339
 7684SOL    HW234689   0.046   2.840   2.389  2.4237 -1.3781  1.5607
 7685SOL     OW34690   1.452   0.204  14.296 -0.1730  0.5886 -0.6379
 7685SOL    HW134691   1.459   0.128  14.238 -0.9108 -0.5123  0.7175
 7685SOL    HW234692   1.370   0.248  14.275  0.5469  1.4794 -1.5398
 7686SOL     OW34693   2.979   2.168   9.260  0.3963 -1.0251 -0.4689
 7686SOL    HW134694   2.977   2.263   9.276  0.6910 -1.3351  1.3073
 7686SOL    HW234695   2.929   2.163   9.178  1.7210 -0.5369 -1.3227
 7687SOL     OW34696   0.775   2.151   8.918 -0.3115 -0.4244 -0.1530
 7687SOL    HW134697   0.782   2.068   8.965 -0.8810 -0.7149 -0.5771
 7687SOL    HW234698   0.749   2.209   8.989  0.8360 -2.3218  1.8061
 7688SOL     OW34699   4.430   1.895   1.971  0.7811  0.2926  0.3308
 7688SOL    HW134700   4.463   1.978   2.005  3.0262  0.4781 -2.3087
 7688SOL    HW234701   4.500   1.831   1.983  0.1875 -0.6896 -1.4310
 7689SOL     OW34702   0.861   0.824  10.450 -0.1158  0.2228 -0.3315
 7689SOL    HW134703   0.856   0.762  10.523 -1.8143  0.2638 -0.3979
 7689SOL    HW234704   0.777   0.867  10.464 -0.9436 -2.0029  1.7212
 7690SOL     OW34705   3.642   2.455   1.600 -0.3313  0.4186  0.3542
 7690SOL    HW134706   3.706   2.392   1.569 -1.6069 -1.4179  1.4679
 7690SOL    HW234707   3.627   2.406   1.681 -0.1961  0.1035  0.1832
 7691SOL     OW34708   1.846   4.473   4.954  0.0607 -0.3494 -0.2470
 7691SOL    HW134709   1.874   4.421   4.878  1.1998  0.3641 -0.3274
 7691SOL    HW234710   1.922   4.472   5.013 -0.5355 -1.3059  0.4989
 7692SOL     OW34711   3.166   3.876  16.869  0.5200  0.0351 -0.1999
 7692SOL    HW134712   3.174   3.883  16.774 -1.4005  1.5954 -0.2319
 7692SOL    HW234713   3.073   3.893  16.885  0.5108 -1.5027  1.4443
 7693SOL     OW34714   4.145   3.607   9.011  0.0406 -0.2526  0.1842
 7693SOL    HW134715   4.123   3.514   9.019 -0.5421 -0.0174  1.3755
 7693SOL    HW234716   4.057   3.645   9.014  0.2850  0.3355 -0.1089
 7694SOL     OW34717   1.892   2.648   6.477  0.2756 -0.0455  0.3715
 7694SOL    HW134718   1.892   2.601   6.394 -1.1921 -0.5116  0.6382
 7694SOL    HW234719   1.862   2.737   6.456 -0.3571 -0.7098 -1.5793
 7695SOL     OW34720   1.613   0.221   3.822 -0.6350  0.6557  0.3284
 7695SOL    HW134721   1.609   0.243   3.915 -0.4285  2.7770 -0.1676
 7695SOL    HW234722   1.649   0.132   3.819  0.9576  1.2727  1.2289
 7696SOL     OW34723   1.153   0.545   4.049 -0.3341 -0.3077 -0.9534
 7696SOL    HW134724   1.211   0.471   4.032  0.0928  0.0819 -1.2047
 7696SOL    HW234725   1.085   0.507   4.106  1.3046  0.5675  1.5877
 7697SOL     OW34726   0.412   3.693   4.967 -0.0534 -0.0688 -0.0108
 7697SOL    HW134727   0.331   3.743   4.953 -0.7060 -1.1186  0.0075
 7697SOL    HW234728   0.376   3.632   5.032 -0.8432  1.1848  0.7359
 7698SOL     OW34729   0.559   3.286   5.783 -0.3077 -0.2359 -0.3948
 7698SOL    HW134730   0.613   3.326   5.851 -0.5485  0.2838 -0.5070
 7698SOL    HW234731   0.614   3.233   5.725 -0.5348  1.9929 -2.6546
 7699SOL     OW34732   2.062   0.119   7.399 -0.0207  0.3807  0.0526
 7699SOL    HW134733   2.056   0.161   7.485  0.5473 -0.1982  0.3749
 7699SOL    HW234734   1.993   0.154   7.343 -0.6114 -1.7702 -0.5528
 7700SOL     OW34735   3.131   3.734   8.397  0.2755 -0.5463  0.3085
 7700SOL    HW134736   3.193   3.807   8.390  0.6505 -0.8482  0.4456
 7700SOL    HW234737   3.132   3.705   8.489 -0.3372  0.5221  0.6427
 7701SOL     OW34738   0.893   3.252   6.906 -0.0979 -0.2483  0.0003
 7701SOL    HW134739   0.910   3.328   6.962 -1.6165  1.2309 -1.5549
 7701SOL    HW234740   0.937   3.188   6.962  2.6906  1.7335  0.0335
 7702SOL     OW34741   3.645   2.333   3.218  0.1827  0.3332  0.2626
 7702SOL    HW134742   3.728   2.286   3.217 -0.4311 -0.7097 -1.3055
 7702SOL    HW234743   3.666   2.426   3.218 -0.8245  0.5558 -0.6777
 7703SOL     OW34744   0.037   2.070   2.837 -0.0764 -0.2070  0.3009
 7703SOL    HW134745   4.739   2.133   2.776  0.2403 -1.2722 -0.9869
 7703SOL    HW234746   0.131   2.070   2.820 -0.1405  0.3982 -0.0661
 7704SOL     OW34747   4.590   0.785  10.053  0.3277  0.3279 -0.5188
 7704SOL    HW134748   4.539   0.704  10.046 -0.3181  1.0084 -3.4938
 7704SOL    HW234749   4.587   0.799  10.148  0.0861  0.0920 -0.4921
 7705SOL     OW34750   4.422   4.113   2.645  0.0407  0.2156  0.1889
 7705SOL    HW134751   4.451   4.056   2.573 -1.4376 -2.0879  1.4019
 7705SOL    HW234752   4.442   4.200   2.611  0.7970  0.6094  1.6280
 7706SOL     OW34753   3.759   3.752   6.495 -0.2712  0.4749 -0.4932
 7706SOL    HW134754   3.700   3.677   6.483 -0.4113  1.0811 -3.5054
 7706SOL    HW234755   3.798   3.747   6.408  0.4699  1.7486 -0.2177
 7707SOL     OW34756   1.305   3.829  10.545  0.2085 -0.2460 -0.3224
 7707SOL    HW134757   1.236   3.890  10.571  0.7176 -0.1548  0.8616
 7707SOL    HW234758   1.254   3.760  10.504  1.4874 -2.9519  2.5782
 7708SOL     OW34759   2.139   2.968   0.636  0.1854  0.2401 -0.5282
 7708SOL    HW134760   2.088   2.977   0.716  0.2003  2.0588 -0.7226
 7708SOL    HW234761   2.172   2.881   0.656 -3.4979 -0.0964  4.0363
 7709SOL     OW34762   4.728   1.433  10.179 -0.2955 -0.3230 -0.6298
 7709SOL    HW134763   4.679   1.351  10.186 -2.7370  0.9572 -2.7035
 7709SOL    HW234764   4.668   1.484  10.124 -0.6726 -0.7733 -0.6392
 7710SOL     OW34765   4.050   0.330   4.080  0.3396 -0.7544 -0.1684
 7710SOL    HW134766   4.048   0.242   4.117  1.1531 -1.4138 -1.6835
 7710SOL    HW234767   4.101   0.369   4.150  0.4513 -0.6861 -0.2882
 7711SOL     OW34768   3.819   1.760   7.924  0.6657  0.3226  0.2546
 7711SOL    HW134769   3.748   1.696   7.928 -0.7618  1.9357  0.3940
 7711SOL    HW234770   3.890   1.704   7.958  0.4610 -0.3631 -0.4486
 7712SOL     OW34771   1.092   4.272   0.058 -0.0718 -0.0244  0.6796
 7712SOL    HW134772   1.161   4.212   0.085  0.7405  1.3708  1.6690
 7712SOL    HW234773   1.117   4.347   0.112 -1.2661  1.0291 -0.2483
 7713SOL     OW34774   3.429   3.028  15.102 -0.4155 -0.5995 -0.2581
 7713SOL    HW134775   3.514   3.058  15.071 -0.8332 -0.2297 -1.0314
 7713SOL    HW234776   3.425   2.945  15.055 -1.4178 -1.3168  1.0796
 7714SOL     OW34777   0.959   1.718   5.096  0.0351 -0.2987  0.6986
 7714SOL    HW134778   1.036   1.737   5.150  0.2506  0.0465  0.2740
 7714SOL    HW234779   0.904   1.676   5.161  0.3647  0.9134  1.7747
 7715SOL     OW34780   3.168   3.177   5.922 -0.1795  0.2119  0.0929
 7715SOL    HW134781   3.197   3.123   5.848  1.5420  0.7151  0.4015
 7715SOL    HW234782   3.254   3.217   5.928 -0.5033  0.9049  0.0829
 7716SOL     OW34783   3.159   3.239   3.793 -0.1482 -0.5357 -0.2976
 7716SOL    HW134784   3.175   3.162   3.846 -1.5252  0.1634  1.1366
 7716SOL    HW234785   3.212   3.309   3.832 -2.1597  0.3082  0.9062
 7717SOL     OW34786   1.771   4.634   4.000 -0.7047 -0.1864  0.3260
 7717SOL    HW134787   1.815   4.549   3.992 -0.4349 -0.0376  0.2566
 7717SOL    HW234788   1.693   4.601   4.044 -1.6718  0.0173 -1.2413
 7718SOL     OW34789   2.885   2.266  11.511 -0.0826  0.5207  0.0996
 7718SOL    HW134790   2.896   2.312  11.428  1.3581 -0.1028 -0.0572
 7718SOL    HW234791   2.941   2.327  11.558 -0.8914  0.0581  1.6587
 7719SOL     OW34792   1.572   4.336  13.335  0.1575  0.0010  0.1409
 7719SOL    HW134793   1.526   4.290  13.405 -0.9089  0.3798 -0.3137
 7719SOL    HW234794   1.576   4.415  13.388  0.8388  0.3608 -0.4572
 7720SOL     OW34795   4.007   4.518   7.046 -0.2162 -0.1955 -0.1216
 7720SOL    HW134796   4.048   4.601   7.025 -1.0803  0.0986 -0.6531
 7720SOL    HW234797   3.962   4.552   7.124 -0.6864 -0.0414 -0.4560
 7721SOL     OW34798   1.222   1.395   0.992  0.0180  0.5855  0.1602
 7721SOL    HW134799   1.178   1.326   0.944 -1.0549  0.4806  1.2721
 7721SOL    HW234800   1.290   1.349   1.041  0.2709 -0.8870 -1.6046
 7722SOL     OW34801   0.838   2.058   5.821 -0.3486  0.3187 -0.2290
 7722SOL    HW134802   0.746   2.032   5.815 -0.4839  1.1802 -1.8724
 7722SOL    HW234803   0.847   2.081   5.729  0.7802  0.0591 -0.1746
 7723SOL     OW34804   2.788   1.275   5.482 -0.4553 -0.0635 -0.2953
 7723SOL    HW134805   2.856   1.209   5.476  1.0154  1.4437 -0.3182
 7723SOL    HW234806   2.779   1.300   5.390 -1.2576 -1.1228 -0.5043
 7724SOL     OW34807   3.919   4.626   4.316 -0.4694 -0.6244 -0.8858
 7724SOL    HW134808   3.840   4.675   4.293 -1.4074 -1.4738  0.5437
 7724SOL    HW234809   3.876   4.548   4.350 -0.8811 -1.0305 -2.3384
 7725SOL     OW34810   1.536   0.182   1.750 -0.1958  0.3107  0.2159
 7725SOL    HW134811   1.617   0.130   1.749 -0.5501 -0.2376 -0.0535
 7725SOL    HW234812   1.562   0.257   1.697 -0.7230  0.5445  0.2894
 7726SOL     OW34813   0.195   4.691   8.664  0.4021 -0.0920  0.0804
 7726SOL    HW134814   0.170   4.697   8.571  1.6003  2.3501 -0.0822
 7726SOL    HW234815   0.106   4.703   8.697  0.0696 -0.3548 -0.7228
 7727SOL     OW34816   1.064   2.235   5.781 -0.2183 -0.1240 -0.3679
 7727SOL    HW134817   0.984   2.187   5.803 -0.0972  0.5398  1.4922
 7727SOL    HW234818   1.120   2.159   5.767  0.7205  0.2858  1.1816
 7728SOL     OW34819   4.582   1.391   0.885 -0.0110 -0.4861 -0.8900
 7728SOL    HW134820   4.529   1.321   0.923 -1.9064  0.7019 -1.3966
 7728SOL    HW234821   4.520   1.463   0.874  1.0374  0.7110  1.1926
 7729SOL     OW34822   1.918   3.497   2.653  0.1214  0.1487 -0.1694
 7729SOL    HW134823   1.956   3.473   2.568  0.1773  1.6631 -0.5755
 7729SOL    HW234824   1.825   3.501   2.633  0.5088  2.2094 -1.5618
 7730SOL     OW34825   1.655   1.536   6.460  0.3347 -0.0625  0.0771
 7730SOL    HW134826   1.614   1.460   6.502 -0.6053  1.5728  2.1602
 7730SOL    HW234827   1.683   1.585   6.538 -0.0792  1.3444 -0.6666
 7731SOL     OW34828   1.678   3.723  16.112  0.3721  0.1130  0.3951
 7731SOL    HW134829   1.652   3.795  16.053 -2.0883  0.1297  1.5073
 7731SOL    HW234830   1.671   3.766  16.197 -0.7429  1.3680 -0.3089
 7732SOL     OW34831   0.098   1.361   8.507  0.6073  0.7003 -0.2248
 7732SOL    HW134832   0.144   1.281   8.481  0.1376  0.4179 -0.1842
 7732SOL    HW234833   0.080   1.406   8.425 -0.0163 -0.6231 -0.8163
 7733SOL     OW34834   3.135   3.625   6.060  0.0054  0.4268  0.5818
 7733SOL    HW134835   3.080   3.549   6.043  0.7708  0.1507 -0.6550
 7733SOL    HW234836   3.076   3.694   6.030 -1.2542 -0.2844  1.4181
 7734SOL     OW34837   1.542   3.975   7.585 -0.1635  0.1645 -0.5239
 7734SOL    HW134838   1.587   4.059   7.590  1.8036 -1.0130  1.2562
 7734SOL    HW234839   1.453   4.006   7.604 -0.6344 -1.7194  0.3085
 7735SOL     OW34840   1.518   1.569   8.880  0.0798  0.1074  0.0208
 7735SOL    HW134841   1.465   1.507   8.828  1.1363  0.0872 -1.0370
 7735SOL    HW234842   1.461   1.602   8.949  1.2632 -0.9032  1.4706
 7736SOL     OW34843   3.732   2.933   5.900  0.4894 -0.3968 -0.3265
 7736SOL    HW134844   3.748   2.866   5.833 -1.3379  0.0917 -1.2600
 7736SOL    HW234845   3.766   2.883   5.975 -2.6703 -3.0111 -0.6219
 7737SOL     OW34846   1.167   4.079   8.590 -0.1324 -0.5090 -0.1571
 7737SOL    HW134847   1.223   4.023   8.536 -0.6270 -0.2419 -0.9461
 7737SOL    HW234848   1.123   4.142   8.533 -0.4627 -0.1126  0.5435
 7738SOL     OW34849   0.180   2.734   5.791 -0.2190  0.4603  0.4527
 7738SOL    HW134850   0.102   2.747   5.738 -0.0626 -4.8440 -1.0420
 7738SOL    HW234851   0.198   2.813   5.842  1.8071  0.8675 -0.8520
 7739SOL     OW34852   4.602   0.410   5.426  0.2767 -0.2762  0.1843
 7739SOL    HW134853   4.524   0.417   5.371 -0.6335 -0.4530  1.4497
 7739SOL    HW234854   4.640   0.333   5.383 -2.3770 -1.2549 -0.3779
 7740SOL     OW34855   4.501   0.141  14.597 -0.3681 -0.0535  0.2220
 7740SOL    HW134856   4.519   0.225  14.554 -0.7588  1.6162  3.3283
 7740SOL    HW234857   4.563   0.080  14.557  2.7422  1.2269  3.1178
 7741SOL     OW34858   3.301   3.802   5.373 -0.3766 -0.6352  0.4132
 7741SOL    HW134859   3.392   3.794   5.345 -0.0152  1.1210  1.1308
 7741SOL    HW234860   3.279   3.884   5.330  0.5328 -1.3371 -1.3806
 7742SOL     OW34861   2.950   0.326   5.419  0.4191  0.4108  0.3807
 7742SOL    HW134862   3.034   0.368   5.436 -0.2049  1.1576  1.6660
 7742SOL    HW234863   2.950   0.265   5.494 -0.1233 -1.9950 -1.5685
 7743SOL     OW34864   1.550   4.257   2.710  0.2353  0.1942  0.5312
 7743SOL    HW134865   1.544   4.221   2.621  1.5428  0.4576  0.3301
 7743SOL    HW234866   1.630   4.307   2.693  0.3868 -0.7180 -1.4568
 7744SOL     OW34867   3.367   3.978   2.751 -0.2142 -0.3409  0.3121
 7744SOL    HW134868   3.379   4.011   2.840 -0.2839  4.5859 -1.5041
 7744SOL    HW234869   3.288   4.023   2.724  0.9147  1.5004  0.1006
 7745SOL     OW34870   1.695   2.049   4.620 -0.1776  0.0663  0.3221
 7745SOL    HW134871   1.614   1.998   4.619 -1.3100  1.8098  2.2887
 7745SOL    HW234872   1.698   2.063   4.525 -0.5223  3.1331  0.7433
 7746SOL     OW34873   4.420   1.215   8.689 -0.1757  0.6077  0.2847
 7746SOL    HW134874   4.350   1.189   8.750 -0.9261 -0.6727 -1.0919
 7746SOL    HW234875   4.484   1.147   8.710 -1.3098 -0.6453 -0.2770
 7747SOL     OW34876   0.333   0.683  16.957 -0.0636 -0.5976 -0.2279
 7747SOL    HW134877   0.293   0.705  16.873 -1.1553  0.3910  0.5551
 7747SOL    HW234878   0.257   0.648  17.004  0.0933  0.7503  1.0223
 7748SOL     OW34879   0.196   0.922   2.076 -0.0497  0.2769 -0.0490
 7748SOL    HW134880   0.241   1.001   2.107  0.0101  1.3392 -2.8578
 7748SOL    HW234881   0.231   0.855   2.135 -2.7706  1.1186  2.5223
 7749SOL     OW34882   0.572   0.109  12.169 -0.5660  0.1729 -0.2696
 7749SOL    HW134883   0.600   0.162  12.244 -0.8434 -0.1849  0.0808
 7749SOL    HW234884   0.494   0.163  12.155  0.3292  0.9931 -2.1135
 7750SOL     OW34885   3.629   0.417   6.470  0.2134  0.8145  0.0194
 7750SOL    HW134886   3.724   0.416   6.459  0.2662  1.1473  0.4520
 7750SOL    HW234887   3.627   0.417   6.566 -1.5224 -1.1117 -0.0228
 7751SOL     OW34888   0.837   4.481  11.031  0.3782 -0.0547  0.0431
 7751SOL    HW134889   0.774   4.526  10.975  0.4477 -0.2753 -0.2138
 7751SOL    HW234890   0.903   4.550  11.044 -0.4006  0.2592  2.3049
 7752SOL     OW34891   1.783   2.934  15.420  0.3613 -0.2622  0.5808
 7752SOL    HW134892   1.757   2.914  15.330 -1.6477  0.5709  0.9734
 7752SOL    HW234893   1.791   3.028  15.410  1.2277 -0.4672 -0.6655
 7753SOL     OW34894   2.508   3.857  14.921 -0.1456  0.1398  0.2670
 7753SOL    HW134895   2.413   3.859  14.914 -0.1326 -0.6288 -0.0954
 7753SOL    HW234896   2.527   3.910  14.844 -2.7971  0.8026  0.0751
 7754SOL     OW34897   4.171   1.493   8.684 -0.0438  0.2775  0.4082
 7754SOL    HW134898   4.135   1.418   8.731  0.5204  1.6113  2.9725
 7754SOL    HW234899   4.194   1.551   8.757  3.3601  0.7114 -1.0168
 7755SOL     OW34900   0.670   1.729  12.155  0.0641 -0.3111 -0.0178
 7755SOL    HW134901   0.690   1.639  12.182 -1.4357 -0.3489  0.9411
 7755SOL    HW234902   0.664   1.784  12.233 -0.8904  1.7835 -1.5647
 7756SOL     OW34903   3.118   3.371   4.286 -0.5773  0.4852 -0.3261
 7756SOL    HW134904   3.058   3.338   4.219 -0.4350 -1.0857  0.3209
 7756SOL    HW234905   3.090   3.322   4.363 -1.5114 -0.3494 -1.2185
 7757SOL     OW34906   4.307   4.213  12.143  0.2155  0.1427  0.7161
 7757SOL    HW134907   4.312   4.137  12.085  1.6972  0.4065  0.4962
 7757SOL    HW234908   4.364   4.279  12.103 -0.7644 -1.3249 -3.1196
 7758SOL     OW34909   0.759   3.814   2.387  0.1222 -0.0649  0.0042
 7758SOL    HW134910   0.804   3.748   2.336 -1.6606 -0.3521 -1.1818
 7758SOL    HW234911   0.772   3.775   2.474  1.4455 -0.4407 -0.3612
 7759SOL     OW34912   2.773   1.539   7.753  0.1999  0.2635 -0.1519
 7759SOL    HW134913   2.835   1.538   7.680 -0.6443  0.2174 -0.8790
 7759SOL    HW234914   2.688   1.566   7.716 -0.1868  1.1056  1.3582
 7760SOL     OW34915   3.703   4.292   5.225  0.2380 -0.1092  0.0243
 7760SOL    HW134916   3.694   4.330   5.137 -0.7154 -0.6159 -0.1069
 7760SOL    HW234917   3.732   4.374   5.265  0.5023 -0.3626  0.3510
 7761SOL     OW34918   3.511   3.991   8.973  0.3651 -0.6652  0.1778
 7761SOL    HW134919   3.492   4.065   8.916 -1.0963 -0.5728  0.7892
 7761SOL    HW234920   3.428   3.944   8.973  0.9753 -1.7606  1.1220
 7762SOL     OW34921   1.549   0.180   4.092  0.1168 -0.0620 -0.2890
 7762SOL    HW134922   1.538   0.087   4.069 -1.1935 -0.4767  2.0869
 7762SOL    HW234923   1.625   0.176   4.150 -0.4456  2.2917  0.5790
 7763SOL     OW34924   1.196   2.336   4.762 -0.4572  0.3847  0.5400
 7763SOL    HW134925   1.133   2.313   4.831 -0.0124  2.3996  1.5910
 7763SOL    HW234926   1.146   2.339   4.680  1.1306  3.4524 -0.3021
 7764SOL     OW34927   4.184   0.703   7.879 -0.1209 -0.9541  0.0094
 7764SOL    HW134928   4.267   0.737   7.913  0.6092 -0.9849 -1.7737
 7764SOL    HW234929   4.124   0.778   7.870  0.7345 -0.2656  0.0964
 7765SOL     OW34930   2.951   1.339   2.269  1.1272  0.1844 -0.1089
 7765SOL    HW134931   2.997   1.264   2.304 -0.2344 -0.0562  1.1435
 7765SOL    HW234932   2.921   1.302   2.186 -0.2968  1.0433  0.0163
 7766SOL     OW34933   3.895   0.948   9.336 -0.4746 -0.3714  0.5971
 7766SOL    HW134934   3.937   0.921   9.418  2.1359 -0.5239 -0.7973
 7766SOL    HW234935   3.900   0.864   9.291 -2.5794  0.1646 -0.6259
 7767SOL     OW34936   3.639   3.801   8.800  0.2856  0.5306 -0.0867
 7767SOL    HW134937   3.602   3.812   8.887 -1.1110 -0.9849 -0.4692
 7767SOL    HW234938   3.556   3.807   8.753  2.0002  0.5436 -3.0886
 7768SOL     OW34939   0.510   4.282   2.441 -0.0427  0.0302  0.2557
 7768SOL    HW134940   0.493   4.293   2.347  0.1224  1.3599  0.3832
 7768SOL    HW234941   0.595   4.238   2.445  0.1045  0.4892  1.9565
 7769SOL     OW34942   1.943   4.607  15.939  0.4559 -0.5291 -0.3933
 7769SOL    HW134943   1.925   4.640  15.851  0.4641 -2.9019 -1.2928
 7769SOL    HW234944   1.977   4.685  15.982 -1.0966 -0.4584  0.7430
 7770SOL     OW34945   2.933   4.382   6.845 -0.4411 -0.2379 -0.6098
 7770SOL    HW134946   2.905   4.330   6.770 -1.9515 -1.2190  0.6541
 7770SOL    HW234947   3.019   4.411   6.814 -0.6155 -0.5272 -1.3592
 7771SOL     OW34948   2.855   3.399  15.399 -0.0564 -0.0926  0.6637
 7771SOL    HW134949   2.844   3.492  15.378  1.7622 -0.9228 -3.8983
 7771SOL    HW234950   2.864   3.411  15.493  2.3090 -0.2509  0.4717
 7772SOL     OW34951   1.848   2.627   5.421  0.4367  0.4964 -0.0087
 7772SOL    HW134952   1.844   2.536   5.392 -1.4496  0.7360 -0.4921
 7772SOL    HW234953   1.796   2.657   5.347  0.9450  2.8249  0.5786
 7773SOL     OW34954   4.308   2.840   4.602 -0.1935  0.1687  0.1960
 7773SOL    HW134955   4.362   2.918   4.619 -0.4865  0.4542 -0.1959
 7773SOL    HW234956   4.358   2.783   4.544  0.9906  1.6498 -0.2459
 7774SOL     OW34957   1.588   3.340   8.081  0.5562 -0.2066  0.1249
 7774SOL    HW134958   1.620   3.404   8.018 -1.3191 -1.9520 -2.6338
 7774SOL    HW234959   1.547   3.271   8.028 -0.3729 -0.6172  1.3828
 7775SOL     OW34960   0.787   0.133   3.321  0.2416 -0.0758  0.2890
 7775SOL    HW134961   0.800   0.061   3.383 -0.7301  0.7994  1.4955
 7775SOL    HW234962   0.856   0.192   3.352 -0.2248  0.9397 -0.6301
 7776SOL     OW34963   1.560   0.591   4.200 -0.5139  0.3594 -0.1886
 7776SOL    HW134964   1.552   0.686   4.211  2.8539  0.7735 -1.1730
 7776SOL    HW234965   1.506   0.552   4.269 -0.3300 -1.5760 -1.1510
 7777SOL     OW34966   3.256   0.335  15.041  0.1253  0.4069 -0.4532
 7777SOL    HW134967   3.202   0.269  15.084  0.5629  0.7883  0.6846
 7777SOL    HW234968   3.201   0.381  14.977  0.0064  1.0645  0.1248
 7778SOL     OW34969   4.417   1.974   3.984 -0.1825  0.3204  0.2398
 7778SOL    HW134970   4.382   1.984   4.073  2.4350  0.8224  1.2275
 7778SOL    HW234971   4.366   2.041   3.939 -1.6257  0.5790  2.2295
 7779SOL     OW34972   2.012   0.409  14.613  0.0367 -0.0016  0.3543
 7779SOL    HW134973   2.067   0.339  14.577 -0.3459  0.2521 -0.7220
 7779SOL    HW234974   1.935   0.408  14.556 -1.5484  0.0792  2.4766
 7780SOL     OW34975   2.537   1.834   4.135  0.4136  0.2096  0.1606
 7780SOL    HW134976   2.446   1.863   4.136  0.1025 -0.7761  1.2313
 7780SOL    HW234977   2.528   1.772   4.207  0.1132  0.6947  0.5427
 7781SOL     OW34978   3.476   4.010   0.833  0.0884  0.3521  0.3387
 7781SOL    HW134979   3.397   4.006   0.780 -1.2730  0.9311  2.3108
 7781SOL    HW234980   3.442   4.077   0.892 -1.3565  1.5161 -1.8096
 7782SOL     OW34981   3.507   2.753  13.492 -0.1628  0.0963  0.2437
 7782SOL    HW134982   3.485   2.673  13.444  0.4733  0.2794 -0.3527
 7782SOL    HW234983   3.497   2.822  13.426 -1.2746  1.3772  1.7671
 7783SOL     OW34984   3.366   2.494   6.127  0.2411 -0.3472  0.5741
 7783SOL    HW134985   3.320   2.522   6.207  0.3581 -1.3051  0.9759
 7783SOL    HW234986   3.295   2.438   6.095  0.1207 -0.0272  0.2839
 7784SOL     OW34987   1.474   1.244   4.068 -0.6420  0.6086 -0.0113
 7784SOL    HW134988   1.393   1.223   4.115 -0.6373  3.3266  1.2176
 7784SOL    HW234989   1.482   1.340   4.072  1.6534  0.3651  1.1664
 7785SOL     OW34990   4.158   4.586   4.945  0.6620 -0.2995 -0.9540
 7785SOL    HW134991   4.165   4.615   5.036  0.7746 -3.0255 -0.0651
 7785SOL    HW234992   4.111   4.659   4.907  1.7458  1.1692  0.5383
 7786SOL     OW34993   0.494   0.723   0.955  0.1527  0.6757  0.4959
 7786SOL    HW134994   0.457   0.694   0.872  1.2280  1.8827 -0.4014
 7786SOL    HW234995   0.581   0.759   0.936 -0.4406  0.1155 -3.3031
 7787SOL     OW34996   1.399   1.228  10.309 -0.5594  0.7419  0.4719
 7787SOL    HW134997   1.414   1.299  10.246  0.4238  0.5466  0.4913
 7787SOL    HW234998   1.485   1.216  10.348 -1.4077 -3.2840  1.1060
 7788SOL     OW34999   1.055   2.799   0.119 -0.1395 -0.5095 -0.5448
 7788SOL    HW135000   0.990   2.860   0.084 -1.1132 -2.7426 -2.6274
 7788SOL    HW235001   1.132   2.854   0.109  0.2983 -0.8425  0.9773
 7789SOL     OW35002   0.492   1.570   8.422 -0.3096  0.5653 -0.3016
 7789SOL    HW135003   0.490   1.475   8.406 -0.7931  0.4687  0.3173
 7789SOL    HW235004   0.420   1.602   8.367  0.4245  0.1026 -1.5171
 7790SOL     OW35005   0.820   0.470   7.753 -0.0768 -0.3775 -0.0813
 7790SOL    HW135006   0.900   0.523   7.754 -2.4554  3.1949  0.2199
 7790SOL    HW235007   0.790   0.480   7.843 -1.2907 -0.4729 -0.4749
 7791SOL     OW35008   3.588   2.726   8.807 -0.3676 -0.1859  0.1752
 7791SOL    HW135009   3.592   2.722   8.903  2.6633 -1.1429  0.0132
 7791SOL    HW235010   3.494   2.741   8.795 -0.8882 -0.9850  3.0998
 7792SOL     OW35011   2.844   3.663   8.730  0.2230  0.0554 -0.4156
 7792SOL    HW135012   2.826   3.589   8.788  0.1873 -0.0928 -0.6154
 7792SOL    HW235013   2.764   3.664   8.677 -0.3855  1.2269  0.5450
 7793SOL     OW35014   3.625   2.438   8.666  0.2449 -0.4038 -0.2026
 7793SOL    HW135015   3.585   2.482   8.741  0.2304 -2.1199  0.7836
 7793SOL    HW235016   3.675   2.374   8.715  0.2422  0.3115  0.7390
 7794SOL     OW35017   0.793   4.014   3.444  0.4619 -0.7176  0.1786
 7794SOL    HW135018   0.715   3.964   3.465  0.0785 -0.4280 -0.5818
 7794SOL    HW235019   0.789   4.074   3.519 -3.3867  1.2482 -1.6352
 7795SOL     OW35020   3.099   2.467   6.004 -0.0100  0.1192  0.2147
 7795SOL    HW135021   3.054   2.387   5.976 -0.3936 -0.4583  2.4444
 7795SOL    HW235022   3.020   2.520   6.014  1.2434  1.7157  1.4362
 7796SOL     OW35023   0.120   1.524   0.496  0.2606  0.3034 -0.6494
 7796SOL    HW135024   0.144   1.440   0.536 -2.1170  0.0137  0.2144
 7796SOL    HW235025   0.153   1.571   0.573  0.9469 -0.2841 -0.5771
 7797SOL     OW35026   3.984   0.090   3.271 -0.0276 -0.6760 -0.6763
 7797SOL    HW135027   3.995   0.134   3.187  1.5833 -0.6219 -0.4475
 7797SOL    HW235028   3.992   0.172   3.321 -1.0074 -1.6937  1.1344
 7798SOL     OW35029   2.918   1.987   5.567 -0.1199 -0.1725 -0.1792
 7798SOL    HW135030   2.973   2.063   5.588  0.2911  0.1960 -2.6080
 7798SOL    HW235031   2.838   1.993   5.620  0.1517 -0.1827  0.2316
 7799SOL     OW35032   3.109   0.296  13.258  0.4436 -0.3428  0.0527
 7799SOL    HW135033   3.177   0.306  13.324 -1.4838 -1.1855  2.1589
 7799SOL    HW235034   3.050   0.235  13.302 -1.7970  2.4618  1.0051
 7800SOL     OW35035   4.073   0.352   1.505  0.2383  0.1797 -1.1134
 7800SOL    HW135036   4.052   0.302   1.584 -1.6659  1.8992 -0.5375
 7800SOL    HW235037   4.166   0.337   1.520  0.1936  1.9370  0.9182
 7801SOL     OW35038   0.786   1.092   7.450 -0.7092 -0.1436 -0.3426
 7801SOL    HW135039   0.840   1.066   7.375  2.3031 -4.4797  3.3959
 7801SOL    HW235040   0.792   1.008   7.496 -0.7073  0.9946  1.7191
 7802SOL     OW35041   2.576   0.747   0.569  0.4879  0.0844 -0.0022
 7802SOL    HW135042   2.493   0.706   0.592  1.2122 -1.3421  0.0920
 7802SOL    HW235043   2.598   0.718   0.480 -0.1037 -0.3644  0.0012
 7803SOL     OW35044   1.677   2.347   5.071  0.0120  0.2366 -0.1402
 7803SOL    HW135045   1.706   2.339   4.980  2.6990  2.6207  0.5259
 7803SOL    HW235046   1.593   2.393   5.064  0.8007  1.7055  0.1006
 7804SOL     OW35047   1.180   4.310   6.566 -0.2941  0.5174  1.0492
 7804SOL    HW135048   1.214   4.326   6.478 -2.7218  1.5553  0.3186
 7804SOL    HW235049   1.182   4.215   6.577 -0.0179  0.5663  1.4262
 7805SOL     OW35050   2.882   0.349  12.859  0.8657 -0.2551  0.6184
 7805SOL    HW135051   2.911   0.299  12.782 -0.2946 -0.2694  0.1934
 7805SOL    HW235052   2.794   0.317  12.880  0.6467  0.2804  0.5157
 7806SOL     OW35053   3.335   0.906  10.024 -0.4511  0.2174  0.2399
 7806SOL    HW135054   3.424   0.929  10.051 -0.0599  0.2670 -1.0661
 7806SOL    HW235055   3.280   0.940  10.095 -1.1892 -0.9283  0.2227
 7807SOL     OW35056   1.354   0.369   8.210 -0.0003  0.0030 -0.1375
 7807SOL    HW135057   1.431   0.335   8.164  0.6595  0.3778  0.6806
 7807SOL    HW235058   1.289   0.308   8.176 -0.2918 -0.4757  1.2788
 7808SOL     OW35059   3.880   1.738   5.515  0.2929  0.2552  0.2390
 7808SOL    HW135060   3.797   1.700   5.545  1.1550 -0.5610  1.5901
 7808SOL    HW235061   3.853   1.824   5.483  0.0525  0.0587 -0.1003
 7809SOL     OW35062   2.054   0.512   7.445  0.2277  0.3843 -0.3386
 7809SOL    HW135063   2.118   0.582   7.456  0.4495  0.0184  0.6192
 7809SOL    HW235064   1.977   0.546   7.491  0.4444  1.3743 -0.7005
 7810SOL     OW35065   3.893   0.377  12.577 -0.1447  0.3841  0.2485
 7810SOL    HW135066   3.971   0.326  12.559 -0.8342 -1.7503  3.2879
 7810SOL    HW235067   3.914   0.425  12.656 -0.2629  0.3507  0.3011
 7811SOL     OW35068   2.426   0.115  16.635  0.0619  0.2954  0.1331
 7811SOL    HW135069   2.446   0.155  16.720  1.4023  2.1527 -1.0559
 7811SOL    HW235070   2.414   0.191  16.577  1.8458 -0.4372 -1.2093
 7812SOL     OW35071   2.816   0.335  15.420  0.0293  0.7153  0.4177
 7812SOL    HW135072   2.841   0.298  15.335  0.8977 -0.8575  1.3551
 7812SOL    HW235073   2.734   0.289  15.439 -0.2232  1.8535  2.0824
 7813SOL     OW35074   1.559   4.285  16.608  0.0025 -0.0758 -0.3407
 7813SOL    HW135075   1.495   4.302  16.538  1.4801  0.6806 -1.5259
 7813SOL    HW235076   1.598   4.200  16.590  0.1730 -0.0618 -0.0275
 7814SOL     OW35077   4.039   1.957  16.379 -0.5399  0.2685  0.1812
 7814SOL    HW135078   4.063   2.020  16.310  1.6897 -0.9492 -0.1253
 7814SOL    HW235079   3.949   1.982  16.403 -1.0387 -0.4595 -0.9375
 7815SOL     OW35080   1.795   1.645   2.054  0.9816  0.9110 -0.2479
 7815SOL    HW135081   1.854   1.720   2.050  1.9468  0.0717 -1.7948
 7815SOL    HW235082   1.835   1.590   2.121 -0.7947  0.2276  0.2565
 7816SOL     OW35083   3.836   0.814   6.451  0.3532  0.5054 -0.0568
 7816SOL    HW135084   3.778   0.782   6.519  0.6789  1.4820  0.6809
 7816SOL    HW235085   3.785   0.891   6.425 -2.4648 -0.9369  1.3324
 7817SOL     OW35086   1.394   3.811   5.164 -0.5031 -0.1194 -0.3565
 7817SOL    HW135087   1.328   3.745   5.143 -1.6668  0.5254  1.2413
 7817SOL    HW235088   1.382   3.871   5.090 -1.5102  1.3842  1.0260
 7818SOL     OW35089   2.160   2.540   9.261  0.0425 -0.1211  0.3902
 7818SOL    HW135090   2.086   2.545   9.322  0.6087 -1.3897  1.1721
 7818SOL    HW235091   2.237   2.530   9.317 -0.4262 -2.0028  0.6819
 7819SOL     OW35092   0.713   2.893   4.753  0.0890  0.2518 -0.3375
 7819SOL    HW135093   0.660   2.865   4.679  0.9302  0.1679 -0.8984
 7819SOL    HW235094   0.794   2.877   4.706  0.1046  0.5003 -0.3949
 7820SOL     OW35095   4.483   2.712   2.604  0.1040  0.6657 -0.1342
 7820SOL    HW135096   4.467   2.722   2.697 -1.1376  0.1294 -0.2932
 7820SOL    HW235097   4.459   2.620   2.594  2.1938 -0.0127  0.9861
 7821SOL     OW35098   3.474   2.789   3.830 -0.1699 -0.5790 -0.0070
 7821SOL    HW135099   3.557   2.744   3.844  0.2470  1.0060  2.6380
 7821SOL    HW235100   3.499   2.858   3.767  0.5102 -0.2040  0.6670
 7822SOL     OW35101   1.932   3.844   0.497 -0.1221 -0.0239  0.1981
 7822SOL    HW135102   1.979   3.923   0.524 -0.7916  0.6458 -0.6239
 7822SOL    HW235103   2.001   3.799   0.447  0.6421 -0.5511  1.7068
 7823SOL     OW35104   3.847   3.517   4.504  0.3114  0.3196  0.7007
 7823SOL    HW135105   3.856   3.599   4.551  2.1120 -0.3887  1.6216
 7823SOL    HW235106   3.779   3.478   4.559 -0.0973 -1.7138 -1.2603
 7824SOL     OW35107   3.592   0.071   2.822 -0.0398 -0.0664 -0.3629
 7824SOL    HW135108   3.641   0.115   2.891 -0.2463 -3.7227  2.1279
 7824SOL    HW235109   3.538   0.008   2.869 -0.9991  0.9402 -0.1195
 7825SOL     OW35110   0.812   2.468   2.787  0.6779 -0.5955  0.5222
 7825SOL    HW135111   0.790   2.379   2.759 -0.2934  0.2911 -1.4667
 7825SOL    HW235112   0.897   2.487   2.747  0.9152  1.9928  2.2603
 7826SOL     OW35113   1.420   4.219   4.333  0.2503 -0.0491  0.2829
 7826SOL    HW135114   1.364   4.285   4.373  0.4274  0.1211  0.2513
 7826SOL    HW235115   1.403   4.223   4.239  1.0159  0.5735  0.1677
 7827SOL     OW35116   2.765   4.486  11.584 -0.1246  0.0622  0.1549
 7827SOL    HW135117   2.841   4.444  11.624 -1.2845 -1.2384  1.0102
 7827SOL    HW235118   2.751   4.573  11.621 -1.5518  0.9590 -2.5075
 7828SOL     OW35119   0.180   1.564   3.290  0.4059  0.4739 -0.0175
 7828SOL    HW135120   0.229   1.570   3.208  0.0027  0.3552 -0.2689
 7828SOL    HW235121   0.200   1.642   3.342 -1.3895  0.9768 -0.0664
 7829SOL     OW35122   3.569   2.370  13.054 -0.4900 -0.9204  0.1281
 7829SOL    HW135123   3.663   2.384  13.046 -0.5600  0.3779  1.5916
 7829SOL    HW235124   3.550   2.389  12.963 -0.1706 -3.2188 -0.4297
 7830SOL     OW35125   4.250   4.623   1.213 -0.0773  0.6204  0.1887
 7830SOL    HW135126   4.163   4.587   1.226 -0.4182 -0.0054 -3.6773
 7830SOL    HW235127   4.292   4.602   1.296 -2.7352 -1.4524  1.0099
 7831SOL     OW35128   2.624   4.721  17.037  0.0002 -0.1260 -0.2816
 7831SOL    HW135129   2.716   4.733  17.062 -0.5631  0.3641  1.5234
 7831SOL    HW235130   2.599   0.065  17.076 -1.2575 -0.5514 -0.1988
 7832SOL     OW35131   0.860   1.072   8.441  0.4784 -0.4068 -0.9632
 7832SOL    HW135132   0.836   0.987   8.404 -1.6042  0.0176 -0.6130
 7832SOL    HW235133   0.942   1.044   8.480  0.2220  0.7544  0.4146
 7833SOL     OW35134   1.990   3.948  16.948  0.3619  0.1323  0.4309
 7833SOL    HW135135   2.081   3.978  16.948  0.3033  0.2953 -1.9251
 7833SOL    HW235136   1.957   4.005  17.017 -1.7497 -0.5926  0.0119
 7834SOL     OW35137   2.338   1.882   5.860  0.5462  0.6359  0.2445
 7834SOL    HW135138   2.282   1.901   5.785  1.4642  0.0542 -0.5914
 7834SOL    HW235139   2.428   1.898   5.831  1.1304  0.4156  1.9376
 7835SOL     OW35140   1.846   2.545  11.153 -0.1200  0.2445 -0.4114
 7835SOL    HW135141   1.903   2.622  11.154 -1.0574  0.9321 -0.4352
 7835SOL    HW235142   1.894   2.480  11.204  0.3301  0.3449 -0.7104
 7836SOL     OW35143   3.399   2.094  17.048  0.5714 -0.0588  0.2730
 7836SOL    HW135144   3.362   2.166  16.998  1.7566 -2.1352 -3.5730
 7836SOL    HW235145   3.437   2.047  16.974 -0.0626  0.1994 -0.2164
 7837SOL     OW35146   3.860   1.665   4.290 -0.4032 -0.1980  0.2646
 7837SOL    HW135147   3.827   1.608   4.221 -0.3217  1.3463 -1.0423
 7837SOL    HW235148   3.892   1.603   4.356 -1.3819 -0.9070  0.0713
 7838SOL     OW35149   2.497   3.621  16.679 -0.4050  0.1763  0.2803
 7838SOL    HW135150   2.518   3.529  16.668 -3.1491 -0.3436 -0.5360
 7838SOL    HW235151   2.429   3.641  16.615 -0.2257 -0.2251 -0.0362
 7839SOL     OW35152   0.635   1.893   1.195  0.3800  0.0320 -0.2312
 7839SOL    HW135153   0.619   1.801   1.213 -1.2711  0.4164  0.2858
 7839SOL    HW235154   0.561   1.909   1.136  0.6635  0.6966 -0.4142
 7840SOL     OW35155   2.741   1.230   0.815  0.3691 -0.1841 -0.1327
 7840SOL    HW135156   2.793   1.157   0.848  1.4651 -0.1765 -1.8671
 7840SOL    HW235157   2.661   1.188   0.784 -0.0777  0.1994  0.4923
 7841SOL     OW35158   3.501   3.341   7.278 -0.7731 -0.1942 -0.5253
 7841SOL    HW135159   3.460   3.373   7.358 -0.2549  1.8248 -1.0789
 7841SOL    HW235160   3.547   3.411   7.232 -0.6112  0.4401  0.6015
 7842SOL     OW35161   0.168   4.316   4.489 -0.0762  0.0376  0.0320
 7842SOL    HW135162   0.084   4.358   4.507 -0.5143 -0.0241 -1.8956
 7842SOL    HW235163   0.153   4.225   4.515 -0.1116 -0.2665 -1.0716
 7843SOL     OW35164   0.749   0.287   1.848  0.0784  0.3811 -0.4997
 7843SOL    HW135165   0.662   0.250   1.838  1.0584 -2.1021 -0.0614
 7843SOL    HW235166   0.727   0.380   1.843 -1.3550  0.0138 -0.8818
 7844SOL     OW35167   2.957   4.685   7.455 -0.0476 -0.3468 -0.2330
 7844SOL    HW135168   2.969   4.616   7.391 -2.3653 -0.4407 -0.5685
 7844SOL    HW235169   3.035   4.673   7.510 -1.3725 -0.3320  1.6616
 7845SOL     OW35170   3.017   0.234   6.547  0.4847 -0.2789 -0.1730
 7845SOL    HW135171   2.972   0.189   6.620  0.0753 -0.5573 -0.5981
 7845SOL    HW235172   2.953   0.305   6.546  0.9027  0.1066  0.4329
 7846SOL     OW35173   3.639   1.602   2.313 -0.4418 -0.2651  0.4261
 7846SOL    HW135174   3.565   1.608   2.253  2.4074 -0.9448 -3.1791
 7846SOL    HW235175   3.585   1.591   2.391 -0.9804  1.3857  0.2692
 7847SOL     OW35176   1.468   1.442  10.176  0.5323 -0.1959 -0.2400
 7847SOL    HW135177   1.543   1.412  10.124 -0.0446 -1.7119 -0.1993
 7847SOL    HW235178   1.464   1.537  10.187 -0.8993 -0.2268 -0.4748
 7848SOL     OW35179   2.422   0.475   7.009 -0.2252  0.4137 -0.2764
 7848SOL    HW135180   2.434   0.526   6.928 -0.9033  1.4174  0.2525
 7848SOL    HW235181   2.374   0.538   7.063 -2.5886 -1.5570 -0.1155
 7849SOL     OW35182   2.098   0.849   4.227  0.1487  0.8472  0.0458
 7849SOL    HW135183   2.043   0.927   4.238  1.8291  2.1653 -1.1104
 7849SOL    HW235184   2.026   0.785   4.225  0.6933  0.3050 -1.6961
 7850SOL     OW35185   2.833   2.957   4.008  0.1004 -0.1803  0.5196
 7850SOL    HW135186   2.859   2.865   4.010 -0.6136 -0.4386 -1.7732
 7850SOL    HW235187   2.752   2.954   4.058 -0.3506 -0.3961 -0.2085
 7851SOL     OW35188   0.235   0.454  14.472  0.1360  0.5765  0.6673
 7851SOL    HW135189   0.202   0.387  14.412 -0.0333 -0.7565  2.2220
 7851SOL    HW235190   0.157   0.509  14.477 -0.1352  0.3053 -0.6961
 7852SOL     OW35191   1.738   4.375  11.277  0.1013 -0.0094  0.3297
 7852SOL    HW135192   1.814   4.319  11.264  0.1829  0.4169 -0.9996
 7852SOL    HW235193   1.756   4.423  11.359  1.6427  1.8155 -1.0920
 7853SOL     OW35194   1.072   3.797   2.670  0.2431  0.4941  0.5931
 7853SOL    HW135195   1.068   3.741   2.592  0.2032  0.6467  0.4868
 7853SOL    HW235196   0.998   3.757   2.715 -0.8100  1.0042 -0.6973
 7854SOL     OW35197   2.405   2.924   8.984  0.4054 -0.2975 -0.2103
 7854SOL    HW135198   2.487   2.877   8.972  0.1653 -0.0499 -2.8897
 7854SOL    HW235199   2.403   2.920   9.080 -2.5073  0.4033 -0.2518
 7855SOL     OW35200   1.198   2.927   5.889  0.1000  0.0087 -0.2898
 7855SOL    HW135201   1.134   2.961   5.952  0.7938  0.2286  0.2951
 7855SOL    HW235202   1.275   2.898   5.938  1.3088  0.5220 -1.9097
 7856SOL     OW35203   1.453   1.927   4.542  0.6820 -0.4127 -0.5824
 7856SOL    HW135204   1.438   1.994   4.474 -0.8514  1.7494  1.8506
 7856SOL    HW235205   1.361   1.909   4.566  0.3046 -0.2212 -1.8998
 7857SOL     OW35206   0.613   3.066  13.769 -0.3516 -0.6873  0.0090
 7857SOL    HW135207   0.545   3.008  13.735  0.5263 -0.8293 -1.4812
 7857SOL    HW235208   0.588   3.155  13.745 -1.1495 -1.6035 -2.5908
 7858SOL     OW35209   0.613   0.589   4.919 -0.0654  0.0611  0.0632
 7858SOL    HW135210   0.658   0.574   4.836  1.9170 -0.6838  1.2656
 7858SOL    HW235211   0.627   0.681   4.939  0.7343 -0.3655  1.4885
 7859SOL     OW35212   4.434   2.540  11.485  0.4145  0.1211  0.0238
 7859SOL    HW135213   4.497   2.554  11.415  0.0434  1.2207 -0.0869
 7859SOL    HW235214   4.361   2.592  11.453  1.6548  1.1803 -1.0325
 7860SOL     OW35215   4.387   3.307  15.058  0.5438  0.0363 -0.7228
 7860SOL    HW135216   4.452   3.312  14.989 -0.0386  0.8488 -1.2077
 7860SOL    HW235217   4.409   3.225  15.103 -0.9085  0.1307  0.1620
 7861SOL     OW35218   2.293   0.803   7.985  0.6085  0.4117  0.1745
 7861SOL    HW135219   2.287   0.874   8.050  0.2605  2.6214 -2.2682
 7861SOL    HW235220   2.247   0.733   8.030 -0.6583  1.0212 -0.1681
 7862SOL     OW35221   2.205   1.282   5.426 -0.5179 -0.1133  0.2383
 7862SOL    HW135222   2.197   1.259   5.333  1.4202  2.5036 -0.5777
 7862SOL    HW235223   2.242   1.369   5.417  0.2024 -0.5728 -1.2674
 7863SOL     OW35224   0.741   3.900   2.855  0.3655 -0.3124 -0.5410
 7863SOL    HW135225   0.792   3.822   2.877  0.3148  0.6343  2.9334
 7863SOL    HW235226   0.692   3.885   2.936  3.0538 -1.4262  0.8638
 7864SOL     OW35227   2.533   1.362  15.305 -0.0734  0.3589 -0.5760
 7864SOL    HW135228   2.535   1.452  15.274  0.6799  0.2869 -0.7502
 7864SOL    HW235229   2.623   1.339  15.330 -0.4502 -0.0723  0.3655
 7865SOL     OW35230   4.726   3.019   3.256  0.1059  0.2561 -1.0506
 7865SOL    HW135231   0.072   3.005   3.298 -0.4923 -0.6609 -0.1115
 7865SOL    HW235232   4.682   3.081   3.314 -1.2640  1.8857 -3.8430
 7866SOL     OW35233   1.381   3.227   5.900 -0.0055 -0.6374  0.0374
 7866SOL    HW135234   1.290   3.231   5.930  0.2643 -0.8906  0.8711
 7866SOL    HW235235   1.382   3.266   5.812 -3.1340 -0.6595 -0.0214
 7867SOL     OW35236   1.978   2.353  11.485  0.2660 -0.6950 -0.1419
 7867SOL    HW135237   1.895   2.402  11.493  0.6831 -0.2411  1.3777
 7867SOL    HW235238   2.031   2.396  11.551  1.2796  0.0303 -1.4194
 7868SOL     OW35239   0.253   1.875  14.733  0.8731 -0.2793  0.0677
 7868SOL    HW135240   0.273   1.839  14.819  1.1040  0.7733  0.4557
 7868SOL    HW235241   0.227   1.966  14.746 -0.3684 -0.3237 -2.1022
 7869SOL     OW35242   2.723   2.234   1.698  0.7194 -0.4420 -0.2557
 7869SOL    HW135243   2.637   2.276   1.691 -0.8698 -3.5887  0.5956
 7869SOL    HW235244   2.753   2.260   1.785 -0.5910 -0.4657  0.2045
 7870SOL     OW35245   1.347   0.680   7.962  0.2053  0.0850  0.0248
 7870SOL    HW135246   1.381   0.591   7.950 -0.6656 -0.1912 -0.4495
 7870SOL    HW235247   1.256   0.669   7.934 -0.6640  2.3024  2.0111
 7871SOL     OW35248   3.907   1.251   4.638 -0.2141 -0.2767 -0.8261
 7871SOL    HW135249   3.880   1.329   4.589  0.3575 -0.1044 -0.8614
 7871SOL    HW235250   3.991   1.277   4.675 -1.9487 -0.7519  3.4836
 7872SOL     OW35251   1.832   3.708   6.892  0.1755  0.4371  0.0899
 7872SOL    HW135252   1.925   3.707   6.868 -0.0280 -2.0554 -0.5593
 7872SOL    HW235253   1.854   3.758   6.971 -0.9249 -0.9382  1.2458
 7873SOL     OW35254   3.965   3.625   6.658  0.0465 -0.4357  0.0736
 7873SOL    HW135255   3.898   3.661   6.600  0.8567  1.9741  0.6311
 7873SOL    HW235256   3.929   3.664   6.737 -2.4981 -2.4862 -0.0389
 7874SOL     OW35257   2.565   1.503   5.467  0.2601 -0.3619 -0.0902
 7874SOL    HW135258   2.583   1.454   5.547 -2.1095 -0.6266  0.2718
 7874SOL    HW235259   2.623   1.579   5.474  0.1140 -0.2439 -0.1714
 7875SOL     OW35260   2.722   1.214   8.993 -0.2852 -0.0400  0.0733
 7875SOL    HW135261   2.650   1.172   8.946 -1.1576  1.0441  0.4534
 7875SOL    HW235262   2.767   1.262   8.924  0.8518 -0.0136  0.8470
 7876SOL     OW35263   4.524   3.575  11.046  0.0305 -1.0583  0.1127
 7876SOL    HW135264   4.495   3.652  10.998  1.8353 -0.1616  0.4606
 7876SOL    HW235265   4.448   3.568  11.104  0.7039  1.1506  1.2608
 7877SOL     OW35266   4.714   2.464   8.263 -0.1837 -0.0681  0.9100
 7877SOL    HW135267   4.652   2.395   8.285 -1.0339  0.7932  1.2230
 7877SOL    HW235268   4.698   2.472   8.169  2.7542  1.3442  0.5002
 7878SOL     OW35269   3.915   4.421   3.928 -0.1245  0.2456 -0.3359
 7878SOL    HW135270   3.967   4.451   3.853  2.1484 -0.0584  1.1063
 7878SOL    HW235271   3.924   4.506   3.971  2.8810 -0.6883  0.8936
 7879SOL     OW35272   1.824   1.353  16.223 -0.5814 -0.6901 -0.2422
 7879SOL    HW135273   1.788   1.265  16.226 -0.0980 -0.8230  1.5217
 7879SOL    HW235274   1.789   1.390  16.303 -0.4590  1.6179 -1.2395
 7880SOL     OW35275   1.041   1.951   5.926 -0.6449 -0.3434  0.4400
 7880SOL    HW135276   1.079   1.933   5.839 -1.4019  0.4914 -0.0687
 7880SOL    HW235277   0.953   1.980   5.900 -0.2434  0.5193  0.0251
 7881SOL     OW35278   2.058   0.067   9.491  0.1966  0.0804  0.5236
 7881SOL    HW135279   2.068   0.059   9.397  0.1568  2.1674  0.3508
 7881SOL    HW235280   1.977   0.019   9.510 -0.4140  1.3616  1.1028
 7882SOL     OW35281   4.265   2.475   3.438 -0.0226 -0.3904  0.1405
 7882SOL    HW135282   4.214   2.548   3.474 -1.3157 -1.2500  0.0765
 7882SOL    HW235283   4.312   2.518   3.367 -1.1841 -1.4468 -1.2749
 7883SOL     OW35284   1.519   1.863  16.502 -0.7543  0.2968 -0.0855
 7883SOL    HW135285   1.467   1.784  16.489  0.5599 -0.1983 -2.1215
 7883SOL    HW235286   1.466   1.910  16.567 -1.7217 -0.5287 -0.2700
 7884SOL     OW35287   0.478   4.472   8.269 -0.5215  0.7866 -0.1841
 7884SOL    HW135288   0.431   4.553   8.287 -0.1971  0.4940  2.0456
 7884SOL    HW235289   0.423   4.413   8.218 -0.8521  0.1216  0.9235
 7885SOL     OW35290   1.026   3.513   8.286 -0.1997  0.7543 -0.0847
 7885SOL    HW135291   1.069   3.433   8.256 -1.2644 -0.2672  1.0978
 7885SOL    HW235292   1.055   3.574   8.218  1.2911 -2.6465 -2.4887
 7886SOL     OW35293   3.767   2.615   9.114  0.2654  0.0290 -0.1290
 7886SOL    HW135294   3.783   2.534   9.064 -1.1662  0.2399 -0.9447
 7886SOL    HW235295   3.858   2.640   9.125  0.1112  1.2591 -1.6588
 7887SOL     OW35296   4.625   0.035   8.862 -0.0985  0.4972  0.1939
 7887SOL    HW135297   4.633   4.679   8.868  1.7651  0.8612  3.2081
 7887SOL    HW235298   4.538   0.041   8.901 -0.6283  0.8954 -1.0322
 7888SOL     OW35299   0.766   1.977   4.615 -0.9229  0.2537 -0.8362
 7888SOL    HW135300   0.670   1.976   4.623 -0.6165 -1.8465  2.5811
 7888SOL    HW235301   0.790   2.055   4.666 -1.3703  0.1974 -0.5280
 7889SOL     OW35302   3.111   2.175   2.006  0.0687 -0.5861 -0.3821
 7889SOL    HW135303   3.049   2.110   1.973 -1.9666  1.1739  0.0270
 7889SOL    HW235304   3.118   2.237   1.933  0.9761  0.1185  0.3102
 7890SOL     OW35305   4.083   4.296   4.230 -0.4543  0.0897  0.0533
 7890SOL    HW135306   4.117   4.258   4.312  0.1524  1.0402  0.2455
 7890SOL    HW235307   4.001   4.329   4.266 -0.3938 -0.0184  0.2923
 7891SOL     OW35308   2.606   1.075   2.058  0.3158  0.4660 -0.0494
 7891SOL    HW135309   2.526   1.025   2.045 -0.6078  1.5210  1.5494
 7891SOL    HW235310   2.675   1.011   2.041 -0.4182 -0.0259 -1.0758
 7892SOL     OW35311   4.528   3.275  14.680  0.0145 -0.5400  0.3348
 7892SOL    HW135312   4.572   3.280  14.765  2.1601  0.2868 -0.8217
 7892SOL    HW235313   4.576   3.207  14.633  0.4817 -0.3562  0.5444
 7893SOL     OW35314   4.585   3.969   6.993 -0.0947 -0.5557  0.2066
 7893SOL    HW135315   4.520   3.901   7.013 -1.4870  1.1084  1.3439
 7893SOL    HW235316   4.585   3.956   6.898 -0.0282  0.7985  0.0189
 7894SOL     OW35317   0.940   2.983   7.322  0.3640  0.3724  0.7095
 7894SOL    HW135318   0.993   2.999   7.400 -0.9040  2.0018  1.2607
 7894SOL    HW235319   0.891   3.066   7.317  0.8007  0.4199 -3.0255
 7895SOL     OW35320   2.830   2.162   3.004  0.9266 -0.4319  0.5454
 7895SOL    HW135321   2.770   2.150   3.077  0.9248  0.5374  0.7042
 7895SOL    HW235322   2.806   2.250   2.976 -0.1643 -1.1877 -0.8590
 7896SOL     OW35323   0.840   1.969  15.992  0.5213  0.3124  0.0887
 7896SOL    HW135324   0.808   1.904  15.930 -1.2639  0.3524  0.9734
 7896SOL    HW235325   0.762   1.983  16.047  0.0568 -1.6075 -0.0957
 7897SOL     OW35326   2.473   4.549   6.997 -0.3921 -0.2768 -1.0996
 7897SOL    HW135327   2.519   4.488   7.055  0.9020  2.8817  1.1674
 7897SOL    HW235328   2.550   4.598   6.969  0.1002 -1.0806 -1.1621
 7898SOL     OW35329   4.659   2.480   4.305  0.0450 -0.1684  0.1809
 7898SOL    HW135330   4.709   2.399   4.317  1.0056  0.3210 -0.4582
 7898SOL    HW235331   4.712   2.517   4.234 -0.6933  0.7770  0.1276
 7899SOL     OW35332   4.730   2.373   5.877 -0.8217 -0.4627  0.1798
 7899SOL    HW135333   4.695   2.462   5.880 -0.3415 -0.2816  0.4602
 7899SOL    HW235334   4.709   2.340   5.964 -0.7442  1.1035  0.7873
 7900SOL     OW35335   0.787   1.124  14.947  0.5585 -0.0673  0.5214
 7900SOL    HW135336   0.757   1.130  14.856  1.3804 -0.4826  0.2168
 7900SOL    HW235337   0.715   1.085  14.997 -0.4549 -1.0226 -1.6606
 7901SOL     OW35338   3.498   4.012   1.216 -0.3964  0.0605  0.6675
 7901SOL    HW135339   3.570   3.979   1.163 -0.1458 -0.1659  1.1508
 7901SOL    HW235340   3.453   3.932   1.243 -0.3934 -0.2107 -0.1375
 7902SOL     OW35341   3.912   2.022   8.413  0.0086 -0.2003 -0.0768
 7902SOL    HW135342   3.915   2.033   8.508  2.0152 -1.0642 -0.0526
 7902SOL    HW235343   3.997   2.061   8.394  0.4839 -1.0226  0.3322
 7903SOL     OW35344   3.963   4.704   2.138 -0.4517  0.1977  0.0488
 7903SOL    HW135345   3.970   4.632   2.201  0.5649  0.5059  0.2799
 7903SOL    HW235346   3.868   4.717   2.130 -0.5560 -0.4358  0.2827
 7904SOL     OW35347   3.065   4.229   5.004  0.6810  0.7384  0.8177
 7904SOL    HW135348   3.039   4.270   5.086 -2.5994 -0.8786  0.5509
 7904SOL    HW235349   3.116   4.303   4.971 -1.1659  0.7821 -1.9107
 7905SOL     OW35350   4.264   2.879   5.422  0.2392 -0.2663  0.6730
 7905SOL    HW135351   4.251   2.972   5.443  1.5891  0.0064  0.2648
 7905SOL    HW235352   4.177   2.847   5.396  0.3164  0.1688 -0.1394
 7906SOL     OW35353   1.858   4.157   8.602  0.6358 -0.2886 -0.1024
 7906SOL    HW135354   1.832   4.249   8.602  0.4326 -0.3357 -3.0667
 7906SOL    HW235355   1.908   4.156   8.520  1.3564 -1.5193  0.3554
 7907SOL     OW35356   2.999   3.470   7.676  0.4000  0.2329  0.5311
 7907SOL    HW135357   3.061   3.528   7.719  1.6799  0.9098 -2.1912
 7907SOL    HW235358   2.925   3.474   7.737  1.4320  1.7310  1.6689
 7908SOL     OW35359   0.057   0.004   4.355 -0.0061  0.4984 -0.1098
 7908SOL    HW135360   0.062   4.703   4.269 -0.9270 -1.0633  0.5640
 7908SOL    HW235361   4.719   4.701   4.392 -0.1021  1.6916  1.0347
 7909SOL     OW35362   2.153   4.038   5.937 -0.0920  0.6073  0.4123
 7909SOL    HW135363   2.185   3.960   5.983  2.7943  1.2186 -0.5648
 7909SOL    HW235364   2.182   4.011   5.850 -2.5051  0.1074 -0.2321
 7910SOL     OW35365   1.879   4.103   3.366  0.4692  0.3556 -0.6376
 7910SOL    HW135366   1.921   4.017   3.369 -0.5972 -0.1923 -1.4428
 7910SOL    HW235367   1.880   4.124   3.459 -1.1695 -3.7034  0.2530
 7911SOL     OW35368   3.029   2.396   9.471  0.4849  0.3136 -0.2716
 7911SOL    HW135369   2.940   2.427   9.459 -0.7661 -3.5387 -0.7414
 7911SOL    HW235370   3.061   2.459   9.536  0.3067 -0.5963  0.6933
 7912SOL     OW35371   3.453   3.058   5.275  0.0645  0.3279  0.0888
 7912SOL    HW135372   3.409   3.001   5.212 -1.5965  1.3360  0.3491
 7912SOL    HW235373   3.407   3.141   5.270  0.2182  0.6031  3.3963
 7913SOL     OW35374   0.618   0.284   6.799  0.4138  0.1127 -0.0908
 7913SOL    HW135375   0.612   0.277   6.703 -1.7881  0.6503  0.0262
 7913SOL    HW235376   0.618   0.377   6.822  0.1356 -0.4729  2.2550
 7914SOL     OW35377   3.060   2.646   7.740 -0.0496 -0.0630 -0.1250
 7914SOL    HW135378   3.092   2.648   7.831 -0.3292 -3.3822  0.0456
 7914SOL    HW235379   3.093   2.731   7.711 -2.0271  0.9149  0.4767
 7915SOL     OW35380   0.582   2.620   5.750  0.2774  0.2936  0.3801
 7915SOL    HW135381   0.586   2.634   5.656 -0.7474 -0.3015  0.2441
 7915SOL    HW235382   0.585   2.709   5.784  1.2851  0.7540 -0.9341
 7916SOL     OW35383   1.355   3.624   0.036 -0.2437 -0.1214 -0.1387
 7916SOL    HW135384   1.400   3.622  17.708  0.6960  0.3374  0.3582
 7916SOL    HW235385   1.431   3.645   0.089 -0.5935  0.6316  0.0563
 7917SOL     OW35386   2.534   1.757   7.510  0.0822 -1.1121 -0.0575
 7917SOL    HW135387   2.621   1.797   7.509 -0.9746  1.1421 -2.2810
 7917SOL    HW235388   2.556   1.664   7.500  2.3490 -0.6374  0.5858
 7918SOL     OW35389   4.241   3.989   5.108 -0.0071  0.1411 -0.4260
 7918SOL    HW135390   4.321   3.977   5.057 -0.5485 -0.3629 -1.1738
 7918SOL    HW235391   4.276   3.986   5.196 -0.7504  2.8572 -0.0588
 7919SOL     OW35392   3.429   3.988   3.809  0.5004  0.4587  0.0230
 7919SOL    HW135393   3.337   3.963   3.805  0.5363  0.4198 -0.5715
 7919SOL    HW235394   3.422   4.079   3.839 -1.2936 -0.1314  1.4044
 7920SOL     OW35395   4.171   3.564   7.660 -0.2408 -0.0002  0.7775
 7920SOL    HW135396   4.257   3.560   7.618 -1.9896  1.3977 -2.9369
 7920SOL    HW235397   4.194   3.551   7.752 -0.0021 -0.8093  0.6033
 7921SOL     OW35398   0.927   3.566   5.661 -0.0276 -0.4501  0.0545
 7921SOL    HW135399   0.990   3.625   5.619  0.3996 -0.9632 -0.0261
 7921SOL    HW235400   0.988   3.493   5.675  0.2703  0.1164  1.6671
 7922SOL     OW35401   2.082   0.607   6.586  0.0264 -0.1947  0.3660
 7922SOL    HW135402   2.145   0.550   6.631  0.5505 -0.2961 -0.4769
 7922SOL    HW235403   2.035   0.539   6.538 -0.1107  0.6383 -0.6886
 7923SOL     OW35404   3.477   2.039   5.603  0.4615  0.3249  0.0310
 7923SOL    HW135405   3.437   2.109   5.550  0.3594  1.1407  1.1973
 7923SOL    HW235406   3.556   2.023   5.552 -0.6887 -0.2076 -1.5964
 7924SOL     OW35407   2.590   1.902   8.137  0.1781 -0.8341  0.2773
 7924SOL    HW135408   2.683   1.884   8.151 -0.3992 -2.2088  2.3386
 7924SOL    HW235409   2.544   1.872   8.215  0.4889 -2.4338 -0.1488
 7925SOL     OW35410   4.642   0.964   8.190  0.2079  0.0427  0.1144
 7925SOL    HW135411   4.582   0.890   8.196  0.1498  0.0370 -0.5771
 7925SOL    HW235412   4.716   0.944   8.247 -0.6129  0.0052  1.1708
 7926SOL     OW35413   2.659   2.724  17.004 -0.9713 -0.5481 -0.5802
 7926SOL    HW135414   2.647   2.819  17.014  0.9305 -0.5352  1.6392
 7926SOL    HW235415   2.736   2.718  16.947  0.6844 -0.8000  1.6719
 7927SOL     OW35416   1.126   1.758  14.522  0.1581 -0.0211 -0.1680
 7927SOL    HW135417   1.211   1.775  14.561  0.0557 -0.4316  0.2295
 7927SOL    HW235418   1.133   1.665  14.503 -1.5722 -0.5592  1.8456
 7928SOL     OW35419   3.443   2.575  10.741  0.3380 -0.5607 -0.1867
 7928SOL    HW135420   3.531   2.541  10.762 -0.1525 -1.4895  0.3654
 7928SOL    HW235421   3.418   2.552  10.651  1.0461  0.1278 -0.5655
 7929SOL     OW35422   3.737   0.375   8.088 -0.1294 -0.2140 -0.1505
 7929SOL    HW135423   3.741   0.439   8.159  1.7449  0.9756 -1.3320
 7929SOL    HW235424   3.762   0.304   8.148 -1.7118  0.1912  0.9910
 7930SOL     OW35425   1.848   4.608  13.740 -0.3574 -0.2282  0.2131
 7930SOL    HW135426   1.814   4.579  13.655  1.7244 -0.9504 -0.3847
 7930SOL    HW235427   1.771   4.627  13.794  0.1757 -0.2333  0.9744
 7931SOL     OW35428   1.677   1.494   5.994  0.2654 -0.7200 -0.0050
 7931SOL    HW135429   1.705   1.527   6.079 -1.0094 -0.3981  0.2844
 7931SOL    HW235430   1.738   1.422   5.978  1.0374 -0.1392  0.2836
 7932SOL     OW35431   2.315   3.430   5.207 -0.3699 -0.1531 -0.4161
 7932SOL    HW135432   2.386   3.462   5.152 -0.6300  0.6952 -0.2555
 7932SOL    HW235433   2.358   3.419   5.292 -0.9966 -1.1674 -0.2248
 7933SOL     OW35434   2.011   1.596   8.323  0.0520 -0.0214  0.3705
 7933SOL    HW135435   2.000   1.647   8.243  1.0394 -0.3969 -0.0117
 7933SOL    HW235436   2.106   1.594   8.332  0.1951  0.2753 -1.0097
 7934SOL     OW35437   2.174   1.839  11.973 -0.3532  0.8718  0.4292
 7934SOL    HW135438   2.226   1.916  11.994 -2.7115  2.1130  1.6769
 7934SOL    HW235439   2.097   1.844  12.029 -0.7256 -1.2965  0.1078
 7935SOL     OW35440   2.862   4.028   6.933 -0.0990 -1.0199  0.1500
 7935SOL    HW135441   2.823   4.021   6.846 -0.2268 -1.1215  0.2145
 7935SOL    HW235442   2.911   3.947   6.947  0.6822 -0.9682 -2.2712
 7936SOL     OW35443   2.153   4.347   0.938  0.3899 -0.1040  0.1880
 7936SOL    HW135444   2.153   4.427   0.885 -2.7280 -0.0706  0.2242
 7936SOL    HW235445   2.233   4.360   0.990 -0.8584  0.0680  2.0663
 7937SOL     OW35446   2.735   0.464  12.518  0.0279  0.5561  0.2257
 7937SOL    HW135447   2.710   0.374  12.539 -0.1735  0.5603  0.0052
 7937SOL    HW235448   2.706   0.507  12.598  0.6572  1.8416 -0.2405
 7938SOL     OW35449   2.078   0.319  16.717 -0.3382 -0.6465 -0.0351
 7938SOL    HW135450   2.023   0.335  16.641 -0.2046 -0.4372 -0.0889
 7938SOL    HW235451   2.100   0.406  16.751  0.2135 -0.4665 -0.8600
 7939SOL     OW35452   0.290   2.925   4.512 -0.7673 -0.3321  0.4394
 7939SOL    HW135453   0.323   3.013   4.530  2.7501 -1.5135 -0.1467
 7939SOL    HW235454   0.218   2.923   4.575  0.1225  1.2597  1.5031
 7940SOL     OW35455   3.106   1.251   4.437  0.4108 -0.0058 -0.5256
 7940SOL    HW135456   3.078   1.182   4.497 -3.1165  0.8276 -1.2480
 7940SOL    HW235457   3.133   1.202   4.359  0.2205 -0.3960 -0.3448
 7941SOL     OW35458   3.264   2.776   7.550 -0.6923  0.0537  0.0022
 7941SOL    HW135459   3.227   2.847   7.602  0.7797 -0.2864  1.5118
 7941SOL    HW235460   3.336   2.760   7.610 -2.1229 -3.7603  0.7362
 7942SOL     OW35461   4.129   3.529   8.361  0.3993  0.0972 -0.1250
 7942SOL    HW135462   4.147   3.437   8.379  0.3144 -0.0134 -0.5907
 7942SOL    HW235463   4.184   3.544   8.284  0.4754  1.5654  0.2105
 7943SOL     OW35464   4.021   2.126   3.336 -0.3376  0.5663 -0.1287
 7943SOL    HW135465   3.990   2.211   3.305  0.7833  1.1958  0.4875
 7943SOL    HW235466   4.062   2.163   3.414  1.3127 -1.2643 -0.1194
 7944SOL     OW35467   3.755   2.454  17.341 -0.3891 -0.2391 -0.4107
 7944SOL    HW135468   3.735   2.361  17.358 -0.9100 -0.4451 -2.0922
 7944SOL    HW235469   3.674   2.488  17.301 -0.8637 -3.6476 -2.3972
 7945SOL     OW35470   1.521   0.544   1.818 -1.3578  0.2478  0.0608
 7945SOL    HW135471   1.528   0.585   1.904  0.8978  0.6505 -0.3151
 7945SOL    HW235472   1.460   0.472   1.837  0.5753 -0.9399  1.7092
 7946SOL     OW35473   1.764   1.038  16.772  0.1181  0.6483  0.1812
 7946SOL    HW135474   1.749   1.132  16.770 -0.8003  0.5103  1.0043
 7946SOL    HW235475   1.674   1.006  16.768  0.8005 -1.3275  0.7085
 7947SOL     OW35476   3.143   2.127   3.704 -0.1464  0.2361 -0.4886
 7947SOL    HW135477   3.228   2.085   3.695  1.5144  3.3944  0.7352
 7947SOL    HW235478   3.156   2.215   3.670  3.2047  0.0811  0.4290
 7948SOL     OW35479   2.510   3.519   8.186 -0.0349 -0.2571  0.0756
 7948SOL    HW135480   2.458   3.586   8.142 -3.1691 -0.3987  3.5534
 7948SOL    HW235481   2.496   3.436   8.141 -0.1493 -0.1437 -0.0938
 7949SOL     OW35482   3.811   0.482  14.264 -0.0912  0.6274 -0.3456
 7949SOL    HW135483   3.838   0.463  14.354 -0.7348  1.0611 -0.0634
 7949SOL    HW235484   3.755   0.557  14.282  0.9487  1.1098  0.8611
 7950SOL     OW35485   4.637   3.714  13.429  0.1113  0.5036  0.0400
 7950SOL    HW135486   4.630   3.754  13.516 -0.9434  1.4329 -0.4755
 7950SOL    HW235487   4.548   3.737  13.402 -0.2556 -0.8667  0.0650
 7951SOL     OW35488   0.145   1.802  13.728  0.5723 -0.2855 -0.3489
 7951SOL    HW135489   0.145   1.721  13.677 -0.3949 -1.9585  2.3441
 7951SOL    HW235490   0.064   1.838  13.690 -1.4126 -2.9229  1.4089
 7952SOL     OW35491   3.461   1.921   5.026 -0.2226  0.4225  0.2664
 7952SOL    HW135492   3.494   1.979   4.958  0.1972  1.0047  0.9746
 7952SOL    HW235493   3.495   1.837   4.995 -0.5168 -0.2169  1.6684
 7953SOL     OW35494   2.522   4.173   2.743 -0.1068 -0.3994  0.0692
 7953SOL    HW135495   2.470   4.207   2.670  1.4907 -0.9058 -1.3069
 7953SOL    HW235496   2.455   4.174   2.811  0.3176 -0.1543  0.4772
 7954SOL     OW35497   2.103   1.538  17.363 -0.4322 -0.8639 -0.2651
 7954SOL    HW135498   2.108   1.612  17.302 -0.5447 -2.0646 -1.7252
 7954SOL    HW235499   2.017   1.547  17.404 -0.4363 -1.6909 -0.0954
 7955SOL     OW35500   3.382   3.029   9.837  0.1588 -0.0653 -0.3186
 7955SOL    HW135501   3.437   3.047   9.761  1.2591  1.0045  0.7035
 7955SOL    HW235502   3.301   3.022   9.788  1.3616  0.6680 -2.4320
 7956SOL     OW35503   1.075   2.989   8.127 -0.1354 -0.1187 -0.3708
 7956SOL    HW135504   1.111   2.961   8.043  0.7541 -0.9630  0.2783
 7956SOL    HW235505   1.139   2.957   8.191 -2.0537 -0.3907  1.4269
 7957SOL     OW35506   2.347   2.292   8.236 -0.1322 -0.3186  0.3005
 7957SOL    HW135507   2.252   2.297   8.223 -0.1632  1.0138  1.0987
 7957SOL    HW235508   2.371   2.374   8.279  0.5199  0.6553 -1.9166
 7958SOL     OW35509   1.325   0.329   1.876  0.1083  0.0183  0.2047
 7958SOL    HW135510   1.361   0.301   1.961 -1.9645  2.2240  1.7978
 7958SOL    HW235511   1.296   0.246   1.837  0.7825  0.1178 -0.5027
 7959SOL     OW35512   1.425   4.633   5.062  0.8533  0.4786 -0.0624
 7959SOL    HW135513   1.466   4.547   5.064 -1.2808 -0.5776 -1.5397
 7959SOL    HW235514   1.469   4.673   4.987  1.5278  2.2913  1.3179
 7960SOL     OW35515   1.620   2.349   0.612 -0.0709  0.1193 -0.2226
 7960SOL    HW135516   1.626   2.255   0.593 -0.1315 -0.1193  0.9221
 7960SOL    HW235517   1.546   2.357   0.672 -0.4295 -2.2857 -0.3284
 7961SOL     OW35518   1.250   0.339   9.072 -0.1900 -0.0745 -0.4649
 7961SOL    HW135519   1.211   0.376   9.151 -0.7606  0.2804 -0.9087
 7961SOL    HW235520   1.191   0.383   9.010 -0.3666  1.5095  0.8399
 7962SOL     OW35521   3.345   0.924   7.277 -0.0481 -0.3119 -0.0074
 7962SOL    HW135522   3.309   1.011   7.261 -0.3538 -0.1464  1.5756
 7962SOL    HW235523   3.263   0.876   7.262 -0.9351  0.6062  1.8353
 7963SOL     OW35524   3.539   2.358   5.715 -1.1477 -0.4461 -0.0863
 7963SOL    HW135525   3.456   2.331   5.753 -0.6537  1.2185  2.2145
 7963SOL    HW235526   3.539   2.334   5.622  2.7285 -0.0779 -0.2044
 7964SOL     OW35527   4.054   0.448   9.248  0.5271 -0.1191  0.3651
 7964SOL    HW135528   4.036   0.359   9.216 -1.5656  0.0680  0.9774
 7964SOL    HW235529   4.120   0.486   9.190 -0.1361  2.1218  1.0622
 7965SOL     OW35530   2.192   3.807   1.989  0.1994 -0.0152  0.8278
 7965SOL    HW135531   2.245   3.883   1.968  0.1643 -0.6855 -1.6267
 7965SOL    HW235532   2.104   3.845   1.992  0.2060  0.0898 -0.5499
 7966SOL     OW35533   0.256   2.240   9.013 -0.3644  0.6744 -0.2826
 7966SOL    HW135534   0.278   2.285   8.931 -0.8327  0.6175 -0.4419
 7966SOL    HW235535   0.298   2.155   9.003 -0.8095  0.2234  1.6411
 7967SOL     OW35536   2.031   2.989  13.121 -0.4238 -0.1567  0.2518
 7967SOL    HW135537   1.992   3.043  13.052  1.5082 -0.3592 -1.0081
 7967SOL    HW235538   2.123   3.011  13.110 -0.0449 -1.8042  0.1594
 7968SOL     OW35539   0.645   2.677   5.491  0.2991 -0.4855 -0.1081
 7968SOL    HW135540   0.666   2.716   5.407  4.3519 -1.7707  0.3146
 7968SOL    HW235541   0.731   2.695   5.528 -0.5249  1.0959  1.0539
 7969SOL     OW35542   0.869   1.299  11.866 -0.0696  0.1977 -0.4834
 7969SOL    HW135543   0.873   1.311  11.961 -1.6034  1.5765 -0.6022
 7969SOL    HW235544   0.874   1.390  11.837  0.7557  1.3138  3.1454
 7970SOL     OW35545   0.958   2.552  12.700  0.2934  0.3117  0.0410
 7970SOL    HW135546   0.988   2.558  12.610 -3.1399 -0.2206 -1.1432
 7970SOL    HW235547   0.916   2.466  12.697  1.8196 -0.4067 -0.5943
 7971SOL     OW35548   1.613   4.201   5.191 -0.1714  0.3964  0.0736
 7971SOL    HW135549   1.667   4.160   5.259  1.1187  1.5908 -0.2146
 7971SOL    HW235550   1.538   4.143   5.193 -0.4879  0.8321  1.1573
 7972SOL     OW35551   0.083   2.435   8.511  0.6146  0.0215  0.4822
 7972SOL    HW135552   0.077   2.449   8.416  3.4846  1.2929  0.5018
 7972SOL    HW235553   0.086   2.339   8.510  0.2339  0.0401 -1.9582
 7973SOL     OW35554   0.621   1.711  15.702  0.1849 -0.0100 -0.0922
 7973SOL    HW135555   0.570   1.791  15.687  1.2133  0.9063  1.2355
 7973SOL    HW235556   0.627   1.683  15.611 -2.6275 -1.0248  0.0451
 7974SOL     OW35557   1.413   1.248  15.578 -0.1242  0.1470 -0.0275
 7974SOL    HW135558   1.364   1.330  15.575  0.4605  0.4785 -0.4113
 7974SOL    HW235559   1.462   1.254  15.496 -1.2995  1.4693 -0.6288
 7975SOL     OW35560   0.926   2.962   8.765  0.0604 -0.3373 -0.3681
 7975SOL    HW135561   0.919   2.867   8.776  0.2285 -0.5029 -1.7251
 7975SOL    HW235562   0.895   2.990   8.851  0.4724 -0.1390 -0.2863
 7976SOL     OW35563   0.676   0.885   7.160 -0.6056  0.1051  0.2093
 7976SOL    HW135564   0.740   0.861   7.226  0.0356  0.6333 -0.2272
 7976SOL    HW235565   0.721   0.921   7.084 -1.0277 -1.6371 -0.8646
 7977SOL     OW35566   3.572   4.524  15.455  0.1719 -0.4208 -0.3182
 7977SOL    HW135567   3.596   4.575  15.378  0.7575 -1.1939 -0.6446
 7977SOL    HW235568   3.488   4.484  15.433 -0.0981 -0.6648  1.1518
 7978SOL     OW35569   3.812   0.425   3.994  0.1721 -0.4614  0.5337
 7978SOL    HW135570   3.799   0.470   4.078  2.7081 -1.3835  1.4365
 7978SOL    HW235571   3.886   0.371   4.024  1.4375  0.1915 -1.4404
 7979SOL     OW35572   1.947   3.874   4.945 -0.0032  0.1711  0.1643
 7979SOL    HW135573   1.911   3.903   4.861 -2.0403 -1.2744  0.5269
 7979SOL    HW235574   2.018   3.929   4.979  0.7538 -0.6917 -0.0221
 7980SOL     OW35575   3.380   2.745  16.533 -0.3579  0.4224 -0.0542
 7980SOL    HW135576   3.451   2.712  16.589 -0.4547 -1.6294 -1.1314
 7980SOL    HW235577   3.317   2.672  16.531  3.0244 -2.4835 -0.4711
 7981SOL     OW35578   0.504   3.953   2.427 -0.4025  0.4793 -0.5273
 7981SOL    HW135579   0.561   3.885   2.462  0.9908  1.7560 -0.3046
 7981SOL    HW235580   0.482   3.918   2.341 -1.6828 -1.5868  0.6587
 7982SOL     OW35581   0.313   4.108  17.293 -0.1317  0.6703  0.2697
 7982SOL    HW135582   0.292   4.128  17.384  0.5051  0.1419  0.5287
 7982SOL    HW235583   0.376   4.038  17.308  1.5676  1.8374 -1.4236
 7983SOL     OW35584   2.533   2.381   4.467  0.2473 -0.2255 -0.0420
 7983SOL    HW135585   2.520   2.287   4.480  1.2835  0.0027  2.6026
 7983SOL    HW235586   2.572   2.397   4.553 -2.1019  1.5957  0.6649
 7984SOL     OW35587   0.621   0.642  17.340 -0.1270 -0.5823 -0.0605
 7984SOL    HW135588   0.546   0.599  17.381 -0.4271 -1.2572 -1.3077
 7984SOL    HW235589   0.669   0.572  17.295  0.7166  1.1486 -1.8217
 7985SOL     OW35590   3.039   2.110   6.775  0.4020  0.1528 -0.4150
 7985SOL    HW135591   3.063   2.161   6.698 -0.2730  0.5250 -0.3790
 7985SOL    HW235592   2.959   2.070   6.742 -0.1930  1.0673 -0.0724
 7986SOL     OW35593   4.159   2.771   5.805 -0.8315 -0.0500  0.5329
 7986SOL    HW135594   4.105   2.721   5.866 -2.1985  0.2584 -0.4561
 7986SOL    HW235595   4.111   2.853   5.816 -0.2274  0.4981 -0.9992
 7987SOL     OW35596   4.049   2.714   6.339  0.1691 -0.2585  0.2171
 7987SOL    HW135597   4.020   2.699   6.429  0.3156 -0.1039  0.2917
 7987SOL    HW235598   4.140   2.744   6.341 -0.1463  0.8851 -2.1848
 7988SOL     OW35599   4.350   2.609   5.090 -0.0758  0.3692  0.4132
 7988SOL    HW135600   4.423   2.548   5.084 -1.0893 -1.0100  1.8724
 7988SOL    HW235601   4.383   2.675   5.150  0.8346  0.0103  0.3025
 7989SOL     OW35602   1.684   0.969   1.746 -0.3782  0.7862  0.2179
 7989SOL    HW135603   1.616   1.036   1.738 -0.5690  0.6680  0.8951
 7989SOL    HW235604   1.726   1.002   1.826  0.8261 -0.7616  0.2105
 7990SOL     OW35605   4.571   2.211  13.618  0.4863 -0.3123 -0.2954
 7990SOL    HW135606   4.661   2.227  13.589  0.2363 -1.1968 -1.5290
 7990SOL    HW235607   4.584   2.225  13.712 -2.0851  0.1537 -0.0251
 7991SOL     OW35608   2.053   2.859   1.001  0.5266  0.3649  0.1731
 7991SOL    HW135609   1.961   2.876   1.024 -0.2858 -0.9157 -2.2266
 7991SOL    HW235610   2.040   2.806   0.923 -1.7795  3.6063 -1.6124
 7992SOL     OW35611   4.019   1.445   5.848  0.6590  0.2395 -0.4516
 7992SOL    HW135612   3.982   1.529   5.878  1.6456  0.2163  0.8588
 7992SOL    HW235613   3.979   1.434   5.762  2.4798  2.1186 -1.5402
 7993SOL     OW35614   3.213   0.750   4.089  0.4393  0.1800  0.1118
 7993SOL    HW135615   3.155   0.733   4.163  0.3904  0.4622  0.1396
 7993SOL    HW235616   3.267   0.671   4.084  0.6063  0.1204  3.2839
 7994SOL     OW35617   2.547   3.144  15.371  0.8399  0.8007 -0.3335
 7994SOL    HW135618   2.486   3.124  15.441  0.7888  0.0604 -0.5878
 7994SOL    HW235619   2.577   3.056  15.348  1.1782  0.9091 -0.3058
 7995SOL     OW35620   3.627   3.111   7.315 -0.2891  0.0490 -0.4592
 7995SOL    HW135621   3.548   3.068   7.348 -0.4154 -0.0109 -0.8374
 7995SOL    HW235622   3.581   3.191   7.287 -0.8263 -0.0300  0.2114
 7996SOL     OW35623   1.279   2.111   5.272  0.2653  0.0823  0.3358
 7996SOL    HW135624   1.317   2.029   5.242 -0.7732 -0.6280  0.9489
 7996SOL    HW235625   1.278   2.160   5.190 -0.5116 -0.0764  0.2523
 7997SOL     OW35626   3.196   4.115   6.668  0.7113 -0.2919 -0.4932
 7997SOL    HW135627   3.247   4.183   6.623  0.3815  0.9885  1.0757
 7997SOL    HW235628   3.107   4.149   6.658  0.2223 -0.8380  1.9964
 7998SOL     OW35629   4.029   3.708   4.001  0.4342 -0.4404 -0.1236
 7998SOL    HW135630   3.966   3.700   4.072 -1.5663 -0.0549 -1.8385
 7998SOL    HW235631   4.111   3.692   4.048  0.1946 -0.5930  0.2415
 7999SOL     OW35632   1.337   2.139   3.827  0.5561  0.2476 -0.3629
 7999SOL    HW135633   1.359   2.228   3.856  0.9760 -0.2671  0.8792
 7999SOL    HW235634   1.394   2.124   3.751  0.5230 -0.9801 -0.1433
 8000SOL     OW35635   1.322   1.665   3.053  0.7097 -0.2772  0.0751
 8000SOL    HW135636   1.375   1.743   3.069 -2.7653  1.8364  1.1866
 8000SOL    HW235637   1.269   1.658   3.133  1.4642 -2.7190  0.3716
 8001SOL     OW35638   0.945   0.299   4.598  0.1435  0.2798  0.0663
 8001SOL    HW135639   1.009   0.229   4.582  0.6368  0.8410 -0.3905
 8001SOL    HW235640   0.865   0.263   4.558 -0.1275  2.7192 -1.6144
 8002SOL     OW35641   2.584   3.899  16.223  0.3596 -0.6201 -0.4165
 8002SOL    HW135642   2.632   3.972  16.263  1.3195 -0.8703 -1.1179
 8002SOL    HW235643   2.515   3.869  16.281  1.5573 -0.5710  1.0202
 8003SOL     OW35644   3.234   3.553   1.710  0.2453 -0.0272  0.1593
 8003SOL    HW135645   3.282   3.595   1.782  0.7417 -0.1815 -0.0769
 8003SOL    HW235646   3.279   3.468   1.701 -2.3407 -1.5958  2.1207
 8004SOL     OW35647   3.848   3.533  14.898 -0.2002 -0.2352  0.0583
 8004SOL    HW135648   3.874   3.530  14.990  3.3284  2.0313 -0.8757
 8004SOL    HW235649   3.904   3.463  14.863 -0.6395 -0.2608 -0.5856
 8005SOL     OW35650   0.770   3.572  12.539 -0.2591  0.4925  0.2278
 8005SOL    HW135651   0.687   3.619  12.531  0.8509  2.4666  0.3850
 8005SOL    HW235652   0.804   3.569  12.450 -1.9257  2.3584 -0.4843
 8006SOL     OW35653   3.677   4.289   3.955 -0.2657  0.1049 -0.1946
 8006SOL    HW135654   3.765   4.326   3.958 -0.1846 -0.1217  0.2244
 8006SOL    HW235655   3.685   4.251   3.867 -0.5592 -1.6403  0.5287
 8007SOL     OW35656   2.697   3.137   5.068  0.5800  0.2900  0.2033
 8007SOL    HW135657   2.792   3.130   5.077  0.8205  0.3543 -2.0937
 8007SOL    HW235658   2.693   3.092   4.984  2.6257  1.0464 -0.3096
 8008SOL     OW35659   3.988   2.744   2.453  0.5628 -0.5004  0.3436
 8008SOL    HW135660   3.901   2.729   2.491  0.4991  1.7919  1.0757
 8008SOL    HW235661   4.038   2.774   2.528  0.1360 -1.3640  0.9811
 8009SOL     OW35662   2.689   2.842   6.844  0.5159 -0.1253 -0.2097
 8009SOL    HW135663   2.693   2.818   6.936  0.2604  1.0833  0.1229
 8009SOL    HW235664   2.616   2.790   6.810 -0.4748  1.1479 -0.0618
 8010SOL     OW35665   4.722   0.278   5.216  0.2845 -0.1157  0.2240
 8010SOL    HW135666   0.024   0.192   5.221  1.5713  0.5257  0.7947
 8010SOL    HW235667   4.734   0.291   5.122 -0.1372 -0.8948  0.0655
 8011SOL     OW35668   3.728   4.589   7.506 -0.1779  0.0427 -0.2389
 8011SOL    HW135669   3.768   4.621   7.587 -1.3287  0.1766  0.2778
 8011SOL    HW235670   3.640   4.568   7.538  0.8701 -2.8145  0.7944
 8012SOL     OW35671   0.739   4.514   8.185 -0.3997 -0.7053  0.2175
 8012SOL    HW135672   0.650   4.505   8.219 -0.0540  0.8288  1.5013
 8012SOL    HW235673   0.789   4.575   8.239 -2.4742  0.9975  0.2326
 8013SOL     OW35674   2.051   1.862   5.131  0.0102  0.3990 -0.2836
 8013SOL    HW135675   1.976   1.882   5.076  0.5702 -2.4751 -2.0904
 8013SOL    HW235676   2.086   1.782   5.091  1.9306  0.7467  0.6867
 8014SOL     OW35677   0.050   3.592   6.807  0.1445 -0.0857  0.4479
 8014SOL    HW135678   0.075   3.615   6.897 -1.1302  0.0019  0.7733
 8014SOL    HW235679   4.706   3.551   6.830  0.1331  0.5695  1.5904
 8015SOL     OW35680   2.780   4.082   8.946 -0.1064 -0.6066  0.2951
 8015SOL    HW135681   2.724   4.141   8.996  1.7100 -0.1976  1.8772
 8015SOL    HW235682   2.766   4.126   8.863  0.8805  0.7459  0.8395
 8016SOL     OW35683   3.633   4.575   4.007 -0.0159 -0.7010 -0.4617
 8016SOL    HW135684   3.652   4.482   3.992 -1.7133 -1.0560 -0.4456
 8016SOL    HW235685   3.709   4.620   3.970  0.8507 -0.7129  1.3092
 8017SOL     OW35686   3.934   2.920   2.236  0.0885 -0.1000  0.4039
 8017SOL    HW135687   3.954   2.894   2.326  1.0450 -2.0827 -0.3867
 8017SOL    HW235688   3.876   2.853   2.201 -0.7244 -0.2377  1.9875
 8018SOL     OW35689   2.137   2.166   2.334 -0.2648  0.2970  0.6352
 8018SOL    HW135690   2.066   2.102   2.335  1.6237 -1.8100  0.6926
 8018SOL    HW235691   2.093   2.249   2.314  0.1762  0.5708  0.7776
 8019SOL     OW35692   3.441   2.681   9.061  0.4024  0.6969  0.0163
 8019SOL    HW135693   3.487   2.754   9.102  2.2426 -0.2614 -0.3629
 8019SOL    HW235694   3.371   2.673   9.126 -0.1315  0.0449 -0.6409
 8020SOL     OW35695   0.227   0.317  11.771  0.4660  0.5394 -0.2056
 8020SOL    HW135696   0.288   0.281  11.835  1.0844 -1.0017 -1.6516
 8020SOL    HW235697   0.286   0.319  11.696  0.2726 -1.0025 -0.3886
 8021SOL     OW35698   0.348   3.564  15.414 -0.7656 -0.3309  0.4280
 8021SOL    HW135699   0.372   3.584  15.324  0.8041  0.9331  1.1143
 8021SOL    HW235700   0.311   3.479  15.391  0.8313 -0.3222 -2.0879
 8022SOL     OW35701   4.311   2.797   3.061  0.3931  0.0920 -0.1368
 8022SOL    HW135702   4.354   2.737   3.000 -1.9838 -0.2329 -1.5154
 8022SOL    HW235703   4.353   2.880   3.040 -0.4269  0.7614  0.8848
 8023SOL     OW35704   2.879   4.673   2.227  0.6630  0.3690 -0.0593
 8023SOL    HW135705   2.901   4.584   2.200 -0.7822 -0.4639  1.5391
 8023SOL    HW235706   2.826   4.698   2.151  2.4880 -1.6889 -1.9892
 8024SOL     OW35707   2.993   1.119   8.975 -0.5268 -0.1079 -0.2218
 8024SOL    HW135708   2.908   1.087   8.945 -1.2569  1.8760 -0.3015
 8024SOL    HW235709   2.987   1.125   9.070  1.7119  0.6438 -0.1290
 8025SOL     OW35710   1.730   4.484  16.738 -0.3574  0.5799  0.0101
 8025SOL    HW135711   1.808   4.444  16.700  0.7403  2.0843  0.6688
 8025SOL    HW235712   1.657   4.429  16.709 -0.0779  0.4779 -0.4969
 8026SOL     OW35713   3.358   2.851   8.735  0.0776 -0.1564  0.3430
 8026SOL    HW135714   3.313   2.902   8.803  0.3668 -0.1610  0.5372
 8026SOL    HW235715   3.296   2.781   8.714 -0.0286 -0.1835  0.7445
 8027SOL     OW35716   1.461   1.683  10.058  0.2800  0.0240 -0.3560
 8027SOL    HW135717   1.393   1.749  10.070  0.7285  0.1777  1.3003
 8027SOL    HW235718   1.432   1.609  10.005  0.3105  0.2881 -0.7450
 8028SOL     OW35719   3.172   0.514  15.534  0.6676  1.2375  0.6051
 8028SOL    HW135720   3.242   0.553  15.587  1.3216  1.1570 -0.1918
 8028SOL    HW235721   3.185   0.577  15.463  2.0399 -0.5554 -0.7171
 8029SOL     OW35722   3.158   3.912   7.512  0.1878  0.1538 -0.3711
 8029SOL    HW135723   3.147   4.007   7.511  1.6028  0.3499  1.8024
 8029SOL    HW235724   3.066   3.907   7.486  0.1061 -2.7540  0.4913
 8030SOL     OW35725   3.562   3.918   3.215  0.1936 -0.5640 -0.3195
 8030SOL    HW135726   3.551   3.978   3.289 -0.0351 -1.9620  0.7742
 8030SOL    HW235727   3.641   3.948   3.170  0.7943 -2.7586 -0.7108
 8031SOL     OW35728   0.878   1.511  15.013 -0.1522 -0.2162 -0.2076
 8031SOL    HW135729   0.969   1.495  14.991  0.0328  0.4907  0.0342
 8031SOL    HW235730   0.854   1.587  14.959 -2.2278  0.7059  2.0055
 8032SOL     OW35731   2.973   3.192   2.210  0.0057  0.0901  0.0791
 8032SOL    HW135732   2.930   3.252   2.270  0.0093  0.5344 -0.3629
 8032SOL    HW235733   2.912   3.202   2.137  0.6815  0.9046 -0.3805
 8033SOL     OW35734   0.765   2.763   9.317 -0.0338 -0.7150 -0.1520
 8033SOL    HW135735   0.826   2.807   9.376 -0.5664  0.9436 -0.8662
 8033SOL    HW235736   0.715   2.707   9.377  0.5989 -1.3381 -0.2031
 8034SOL     OW35737   3.616   0.151   5.589 -0.2714 -0.3406 -0.2440
 8034SOL    HW135738   3.592   0.184   5.676 -0.0691 -1.2941  0.1711
 8034SOL    HW235739   3.701   0.195   5.591  1.1008 -2.9580 -1.0022
 8035SOL     OW35740   2.313   4.104  14.057 -0.3924  0.0983  0.2480
 8035SOL    HW135741   2.238   4.158  14.034 -1.3690 -2.3862 -2.3862
 8035SOL    HW235742   2.281   4.084  14.145 -0.4412 -0.2897  0.1394
 8036SOL     OW35743   2.962   0.703   2.740 -0.5820  0.1737 -0.1011
 8036SOL    HW135744   2.920   0.635   2.686 -0.4011  0.2389 -0.3248
 8036SOL    HW235745   3.014   0.738   2.668  1.1304 -1.4281  0.3566
 8037SOL     OW35746   2.308   3.677  13.264 -0.2354  0.0258  0.3311
 8037SOL    HW135747   2.393   3.712  13.291 -0.9289  1.0119  1.2487
 8037SOL    HW235748   2.331   3.588  13.239 -0.2231  0.2866 -0.5701
 8038SOL     OW35749   3.605   4.240   3.292 -0.5888 -0.0974 -0.7520
 8038SOL    HW135750   3.667   4.274   3.356 -0.8422  0.8521 -1.0061
 8038SOL    HW235751   3.660   4.232   3.214 -2.4329 -1.0999 -1.9583
 8039SOL     OW35752   2.815   2.583   3.029  0.2591 -0.6267  0.7455
 8039SOL    HW135753   2.797   2.662   3.080 -0.5571 -0.6341  0.4740
 8039SOL    HW235754   2.731   2.540   3.043 -0.3324  0.4826  0.5912
 8040SOL     OW35755   1.903   4.628   2.453 -0.4571  0.1528 -0.4136
 8040SOL    HW135756   1.847   4.705   2.464  0.3738  0.5353  1.2350
 8040SOL    HW235757   1.895   4.620   2.358  3.7549  0.7856 -0.8365
 8041SOL     OW35758   2.565   0.184   7.726 -0.8280 -0.1759 -0.0779
 8041SOL    HW135759   2.585   0.107   7.778  1.3144  0.5556  0.1927
 8041SOL    HW235760   2.597   0.167   7.637 -0.2883  0.0804  0.0641
 8042SOL     OW35761   2.144   4.077   3.161 -0.0406 -0.8518 -0.1781
 8042SOL    HW135762   2.163   3.985   3.139 -0.2533 -0.7748 -0.6876
 8042SOL    HW235763   2.071   4.092   3.102  0.8224 -1.5095 -1.4141
 8043SOL     OW35764   3.738   3.004   0.960  0.0092 -0.0118  0.5314
 8043SOL    HW135765   3.699   2.921   0.989  0.0939 -0.5319 -0.8305
 8043SOL    HW235766   3.770   2.982   0.872 -1.7517 -2.6703  0.5461
 8044SOL     OW35767   1.539   2.113   2.715 -0.6146  0.1433  0.2715
 8044SOL    HW135768   1.511   2.190   2.765  0.5214 -0.2450  1.5235
 8044SOL    HW235769   1.578   2.056   2.782  0.8583  0.6334 -0.1714
 8045SOL     OW35770   2.669   4.678   8.900  0.4491 -0.4297 -0.3103
 8045SOL    HW135771   2.595   4.705   8.845 -1.2851 -3.9542  0.3115
 8045SOL    HW235772   2.628   4.680   8.987 -0.1134  2.3113 -0.6339
 8046SOL     OW35773   1.770   3.508   7.450  0.2476 -0.3518  0.3766
 8046SOL    HW135774   1.758   3.602   7.466  1.4613  0.2302 -2.1248
 8046SOL    HW235775   1.718   3.485   7.373  1.4451 -1.3737 -0.1131
 8047SOL     OW35776   1.576   1.318   5.189  0.1360  0.2894 -0.0697
 8047SOL    HW135777   1.611   1.252   5.248 -0.5502  0.9281  1.0509
 8047SOL    HW235778   1.483   1.315   5.211  0.8706 -0.9812  2.8875
 8048SOL     OW35779   4.389   4.205   7.491 -0.1554  0.5157 -0.1614
 8048SOL    HW135780   4.414   4.291   7.456 -1.5643  1.1178  0.2716
 8048SOL    HW235781   4.445   4.150   7.438  1.2113  0.4806  1.3188
 8049SOL     OW35782   3.718   0.005   6.634 -0.4816 -0.3259  0.0293
 8049SOL    HW135783   3.704   0.094   6.667 -0.8023  0.4423 -2.1754
 8049SOL    HW235784   3.662   0.004   6.557 -2.1450  2.0240  1.1932
 8050SOL     OW35785   1.821   3.840   8.006  0.3554 -0.1846 -0.7099
 8050SOL    HW135786   1.898   3.829   8.062  0.2848  0.8490 -0.4102
 8050SOL    HW235787   1.874   3.842   7.926 -0.4675  1.3114 -1.2144
 8051SOL     OW35788   3.468   2.449   3.895  0.3394  0.0964  0.3794
 8051SOL    HW135789   3.473   2.440   3.800 -3.1154 -1.0362  0.2787
 8051SOL    HW235790   3.408   2.524   3.890  0.6569  0.3804  0.7434
 8052SOL     OW35791   0.814   0.905   8.037 -0.1274  0.1716  0.2291
 8052SOL    HW135792   0.860   0.871   7.960  0.2469 -2.9558  1.8268
 8052SOL    HW235793   0.725   0.933   8.014  0.0582  0.2952 -0.3284
 8053SOL     OW35794   0.634   2.181  15.243  0.5641  0.2087  0.0189
 8053SOL    HW135795   0.597   2.155  15.328  2.3506 -0.0331  0.7126
 8053SOL    HW235796   0.692   2.252  15.267  1.7610 -1.4309  1.9674
 8054SOL     OW35797   0.027   4.460  17.034  0.5554 -0.4119 -0.3198
 8054SOL    HW135798   4.708   4.409  17.090  0.4293  0.0763 -0.0017
 8054SOL    HW235799   0.098   4.476  17.096 -1.4850  0.2472  1.8577
 8055SOL     OW35800   1.071   4.078   7.397  0.1377 -0.2741  0.6641
 8055SOL    HW135801   1.064   4.010   7.464  0.0093 -0.0855  0.8436
 8055SOL    HW235802   1.166   4.082   7.387  0.0314 -1.0856 -0.6656
 8056SOL     OW35803   2.534   0.127   6.375  0.9696  0.0154 -0.4486
 8056SOL    HW135804   2.545   0.218   6.404 -1.6700  0.3593 -0.5890
 8056SOL    HW235805   2.614   0.108   6.325  1.0728 -2.0891  0.5397
 8057SOL     OW35806   3.311   1.997  14.178 -0.1802 -0.0923  0.0515
 8057SOL    HW135807   3.317   2.091  14.193 -0.5474  0.5690 -4.1372
 8057SOL    HW235808   3.222   1.998  14.145 -0.8717 -3.7162  1.8053
 8058SOL     OW35809   0.708   2.458  17.232 -0.1188 -0.0999 -0.1504
 8058SOL    HW135810   0.698   2.368  17.201 -0.3936  0.0141 -0.3893
 8058SOL    HW235811   0.649   2.457  17.307 -0.8631 -0.9588 -0.7439
 8059SOL     OW35812   3.791   2.822  13.418  0.3807  0.1002  0.0757
 8059SOL    HW135813   3.882   2.790  13.417  0.9947  1.8336  0.6477
 8059SOL    HW235814   3.725   2.758  13.393  0.0732  0.5021 -0.1316
 8060SOL     OW35815   0.675   3.590   8.883 -0.1901 -0.0850  0.5043
 8060SOL    HW135816   0.749   3.588   8.945 -2.1920 -1.7075  2.8644
 8060SOL    HW235817   0.721   3.614   8.803  1.2424 -1.1749  0.9913
 8061SOL     OW35818   3.537   1.073   5.150  0.6792 -0.0146  0.3716
 8061SOL    HW135819   3.507   1.148   5.202  2.8216  2.4987 -2.0136
 8061SOL    HW235820   3.585   1.123   5.084 -0.0299 -0.7301 -0.6806
 8062SOL     OW35821   4.174   4.591   2.444  0.5102  0.5610  0.4618
 8062SOL    HW135822   4.250   4.625   2.491  0.0416  1.9818  0.1844
 8062SOL    HW235823   4.118   4.669   2.437 -1.9625 -1.4285 -1.8690
 8063SOL     OW35824   0.396   3.370   5.345 -0.1006 -0.3953 -0.1303
 8063SOL    HW135825   0.340   3.340   5.417  0.1569  0.3331  0.3621
 8063SOL    HW235826   0.460   3.413   5.401 -0.8831  1.0706 -0.3745
 8064SOL     OW35827   4.199   0.602   6.848  0.4087 -0.1009 -0.4481
 8064SOL    HW135828   4.172   0.620   6.938  0.5311  1.1053 -0.6616
 8064SOL    HW235829   4.215   0.691   6.816 -1.3055 -0.5178 -2.4737
 8065SOL     OW35830   3.158   3.060   8.261  0.0818  0.0118  0.0292
 8065SOL    HW135831   3.083   3.006   8.288 -0.9374 -0.0908 -3.0617
 8065SOL    HW235832   3.158   3.047   8.166 -0.3973  3.5028 -0.4343
 8066SOL     OW35833   3.464   3.424   2.590  0.2219  0.8262 -0.1596
 8066SOL    HW135834   3.415   3.344   2.570  1.4049  0.2063 -0.6054
 8066SOL    HW235835   3.553   3.408   2.557  0.7155  3.7323 -0.2778
 8067SOL     OW35836   0.795   1.135   3.574 -0.3373  0.5122 -0.0513
 8067SOL    HW135837   0.879   1.166   3.541 -1.0038  2.5270  0.1085
 8067SOL    HW235838   0.830   1.110   3.660  0.3785 -0.0476 -0.5121
 8068SOL     OW35839   2.274   2.508  12.718  0.4100  0.4895  0.0008
 8068SOL    HW135840   2.224   2.523  12.638  1.3564 -1.3746 -0.9269
 8068SOL    HW235841   2.332   2.440  12.685 -0.9692  0.0841 -1.6206
 8069SOL     OW35842   3.686   2.619   3.175 -0.4699  0.2265 -0.2991
 8069SOL    HW135843   3.762   2.675   3.158  1.2796 -1.0151  3.5208
 8069SOL    HW235844   3.612   2.668   3.139 -0.2579  0.4503 -0.4282
 8070SOL     OW35845   0.115   3.725  12.907 -0.3421 -0.4194 -0.7309
 8070SOL    HW135846   0.121   3.704  13.000  0.0448 -3.4082 -1.4356
 8070SOL    HW235847   0.064   3.805  12.895  1.2302  0.9029  1.2731
 8071SOL     OW35848   3.479   4.607   7.027 -0.0802 -0.0054  0.1977
 8071SOL    HW135849   3.492   4.546   7.099 -2.5065 -1.3616 -0.5081
 8071SOL    HW235850   3.572   4.615   7.008 -0.1593  1.3571  0.3744
 8072SOL     OW35851   4.339   1.498   8.171 -0.5229  0.0902 -0.1706
 8072SOL    HW135852   4.322   1.410   8.206  1.6442 -0.7762 -1.3124
 8072SOL    HW235853   4.393   1.467   8.098 -0.8685  2.3468 -1.3674
 8073SOL     OW35854   4.070   0.588   8.842  0.3833  0.1314  0.3360
 8073SOL    HW135855   4.140   0.620   8.784 -0.0988  1.5132  0.5082
 8073SOL    HW235856   4.124   0.592   8.921  1.3740  0.3558 -0.3409
 8074SOL     OW35857   0.048   3.445   1.270  0.7128  0.5612 -0.2147
 8074SOL    HW135858   4.721   3.409   1.328  1.2931  0.1111  0.1689
 8074SOL    HW235859   0.070   3.363   1.226 -0.7004  1.2196 -2.1818
 8075SOL     OW35860   2.188   3.571   4.657  0.4753 -0.1690 -0.2775
 8075SOL    HW135861   2.233   3.507   4.603 -3.0084 -4.5956  2.0618
 8075SOL    HW235862   2.259   3.615   4.704  0.3034 -2.2203  1.9205
 8076SOL     OW35863   3.782   4.221   3.076 -0.2420  0.2530  0.5112
 8076SOL    HW135864   3.804   4.206   2.984  1.0380  1.4316  0.6250
 8076SOL    HW235865   3.858   4.272   3.104 -0.6316  1.8039 -1.2535
 8077SOL     OW35866   3.156   3.649   7.832 -0.0907 -0.0292 -0.2715
 8077SOL    HW135867   3.142   3.743   7.846  2.7349  0.7268 -2.4154
 8077SOL    HW235868   3.219   3.626   7.901 -1.3489 -1.3642  0.4239
 8078SOL     OW35869   0.933   1.657   6.036 -0.7165 -0.2107 -0.2362
 8078SOL    HW135870   0.838   1.652   6.032 -0.6949 -1.1352  0.4671
 8078SOL    HW235871   0.949   1.743   5.998 -0.6006 -0.2407 -0.2550
 8079SOL     OW35872   3.063   0.840   7.289 -0.1192 -0.5370 -0.3635
 8079SOL    HW135873   2.992   0.789   7.250 -0.6747  0.3769 -0.5506
 8079SOL    HW235874   3.058   0.915   7.229 -1.8954 -0.6903 -0.4185
 8080SOL     OW35875   2.696   1.152  16.680  0.2690 -0.0203  0.5535
 8080SOL    HW135876   2.755   1.210  16.728  2.3835 -2.4623  0.8928
 8080SOL    HW235877   2.610   1.173  16.716 -0.7313 -0.5061 -1.5465
 8081SOL     OW35878   1.015   0.440   6.920  0.0945  0.0934  0.0150
 8081SOL    HW135879   1.029   0.353   6.958  0.9876 -0.0662 -0.6816
 8081SOL    HW235880   1.030   0.421   6.828 -0.2612 -0.9383  0.1671
 8082SOL     OW35881   0.594   4.344   6.858 -0.1618  0.1365  0.3179
 8082SOL    HW135882   0.504   4.369   6.839 -0.5357 -0.7006  1.0068
 8082SOL    HW235883   0.582   4.251   6.838 -0.6822 -0.2419  2.3652
 8083SOL     OW35884   3.502   4.480   8.261 -0.1843 -0.1543 -0.5759
 8083SOL    HW135885   3.495   4.462   8.167 -0.7175 -2.3434 -0.1088
 8083SOL    HW235886   3.523   4.394   8.296 -1.0235  0.9235  2.5601
 8084SOL     OW35887   1.667   2.563   8.450  0.6179 -0.1534 -0.6937
 8084SOL    HW135888   1.714   2.625   8.505 -0.4224 -0.6264  0.7106
 8084SOL    HW235889   1.683   2.489   8.509  1.6282 -0.0922 -0.8758
 8085SOL     OW35890   1.090   0.499   2.003 -0.1579 -0.2896  0.1255
 8085SOL    HW135891   1.031   0.441   2.052 -2.1669  1.1860 -0.5610
 8085SOL    HW235892   1.154   0.435   1.970  0.8335 -0.1270  1.7606
 8086SOL     OW35893   0.508   1.967  12.266  0.3702  0.5701  0.2924
 8086SOL    HW135894   0.583   1.955  12.324 -1.1665 -2.4912  1.6611
 8086SOL    HW235895   0.536   2.031  12.200  1.8401  1.5193  1.8694
 8087SOL     OW35896   0.698   3.681   0.589 -0.6081  0.1016 -0.3536
 8087SOL    HW135897   0.666   3.591   0.598  2.3889 -1.2190 -3.1951
 8087SOL    HW235898   0.622   3.726   0.552 -3.3697 -2.3679  2.2494
 8088SOL     OW35899   1.251   4.035   5.019 -0.3202  0.0115 -0.1664
 8088SOL    HW135900   1.284   4.097   4.954  2.3732 -1.4041 -0.1656
 8088SOL    HW235901   1.255   4.090   5.096 -0.4646 -0.3459  0.0973
 8089SOL     OW35902   1.991   1.000   5.435  0.1283  0.2333 -0.0689
 8089SOL    HW135903   2.036   0.936   5.490  1.0957  0.7379 -0.2779
 8089SOL    HW235904   1.922   1.034   5.492 -0.1266  2.6830 -1.8096
 8090SOL     OW35905   1.640   2.113   8.164  0.3729 -0.0239 -0.4160
 8090SOL    HW135906   1.550   2.080   8.173  0.5225 -0.7079 -1.4569
 8090SOL    HW235907   1.694   2.053   8.214 -0.5679 -0.7039 -0.2106
 8091SOL     OW35908   4.121   1.358   0.928 -0.1141 -0.2347  0.1831
 8091SOL    HW135909   4.029   1.353   0.901  0.2389  0.5958 -1.1334
 8091SOL    HW235910   4.163   1.288   0.878 -1.0862 -0.3407 -0.4839
 8092SOL     OW35911   1.494   0.450   7.898  0.0338 -0.8470  0.5961
 8092SOL    HW135912   1.470   0.358   7.888  0.8941 -1.0845  0.6736
 8092SOL    HW235913   1.582   0.435   7.934  0.9032  1.5479 -0.5657
 8093SOL     OW35914   2.696   4.465  14.027 -0.0211 -0.0707  0.3870
 8093SOL    HW135915   2.662   4.546  13.987 -0.8552 -1.0239 -0.8607
 8093SOL    HW235916   2.627   4.403  14.003  1.1937 -1.1520 -0.3459
 8094SOL     OW35917   4.439   2.161   2.069 -0.2308  0.2446  0.1686
 8094SOL    HW135918   4.347   2.171   2.044  0.1293 -0.9234 -1.5638
 8094SOL    HW235919   4.487   2.193   1.993 -0.5451  1.0410  0.3025
 8095SOL     OW35920   1.414   0.885   3.691  0.0189  0.1639 -0.1465
 8095SOL    HW135921   1.340   0.918   3.641 -0.8131 -1.6819 -0.1127
 8095SOL    HW235922   1.432   0.963   3.743 -0.3537  0.7967 -0.9761
 8096SOL     OW35923   3.534   1.302   5.355  0.0088 -0.0478  0.3336
 8096SOL    HW135924   3.533   1.346   5.440 -0.0712  1.3153 -0.3746
 8096SOL    HW235925   3.623   1.325   5.327  0.3535  2.6109  3.5359
 8097SOL     OW35926   0.282   3.431   8.837  0.0793 -0.0806 -0.0769
 8097SOL    HW135927   0.339   3.442   8.913  0.5903 -3.4171  0.0488
 8097SOL    HW235928   0.308   3.512   8.793  1.9193  0.0795  1.2856
 8098SOL     OW35929   2.074   3.662   4.155 -0.2086 -0.0398 -0.1504
 8098SOL    HW135930   2.140   3.638   4.220 -1.6046  0.2687  1.3898
 8098SOL    HW235931   1.995   3.655   4.210 -0.3158 -1.7048 -0.5314
 8099SOL     OW35932   2.493   1.737   1.750  0.3446 -0.4589  0.5166
 8099SOL    HW135933   2.543   1.817   1.766 -1.6571  1.1015 -1.0655
 8099SOL    HW235934   2.415   1.753   1.803 -0.3828 -1.5485 -0.2258
 8100SOL     OW35935   0.651   4.013  17.325  0.1600  0.2750 -0.5520
 8100SOL    HW135936   0.661   4.083  17.390 -1.0405  1.8131 -2.0095
 8100SOL    HW235937   0.743   3.988  17.313 -0.6321 -2.5393 -0.6512
 8101SOL     OW35938   1.702   3.981   2.662 -0.5031 -0.0648 -0.1410
 8101SOL    HW135939   1.685   4.054   2.604  1.6468 -0.1085 -0.8366
 8101SOL    HW235940   1.753   4.023   2.732  1.9504 -1.5084 -1.0650
 8102SOL     OW35941   0.538   0.833   7.407  0.1366 -0.0556  0.1993
 8102SOL    HW135942   0.536   0.835   7.311 -2.1940  0.8564  0.2444
 8102SOL    HW235943   0.632   0.839   7.420  0.1139  0.4440  0.1496
 8103SOL     OW35944   1.812   0.506   3.322  0.0662 -0.7138  0.1718
 8103SOL    HW135945   1.899   0.471   3.338  0.6780  0.0537 -1.4947
 8103SOL    HW235946   1.809   0.562   3.401 -1.2370 -0.8960  0.2502
 8104SOL     OW35947   1.904   2.656  11.484 -0.0259 -0.3987 -0.1413
 8104SOL    HW135948   1.885   2.749  11.470 -0.8407 -0.1924  2.3516
 8104SOL    HW235949   1.989   2.656  11.529 -0.2241 -2.6117  0.2477
 8105SOL     OW35950   0.178   4.446   3.005  0.9135 -0.4022 -0.0049
 8105SOL    HW135951   0.188   4.384   2.932  0.7477  0.7945 -1.0565
 8105SOL    HW235952   0.262   4.488   2.983  0.8258  0.4734  1.3950
 8106SOL     OW35953   0.345   0.224  12.010 -0.1304  0.4887 -0.5612
 8106SOL    HW135954   0.276   0.158  12.013 -1.1042  1.6122  1.5547
 8106SOL    HW235955   0.342   0.248  12.102  1.8240 -1.7598  0.0951
 8107SOL     OW35956   0.963   0.790   4.384  0.5811 -0.6567 -0.3668
 8107SOL    HW135957   1.030   0.742   4.335  2.2988 -0.4449  1.7593
 8107SOL    HW235958   1.010   0.868   4.414 -1.0724  0.0967  0.2724
 8108SOL     OW35959   2.317   4.604   8.678  0.7193  0.5029  0.2063
 8108SOL    HW135960   2.400   4.559   8.663  0.5947  0.7971 -1.4207
 8108SOL    HW235961   2.343   4.692   8.704 -1.7440  1.3515 -0.2803
 8109SOL     OW35962   1.714   1.234   6.245  0.3318 -0.6058 -0.6250
 8109SOL    HW135963   1.645   1.269   6.300  0.8180  0.7580 -0.8751
 8109SOL    HW235964   1.681   1.147   6.222 -0.0381 -0.3323 -1.1313
 8110SOL     OW35965   3.698   2.198  17.358 -0.5192  0.6336 -0.0487
 8110SOL    HW135966   3.754   2.120  17.351 -1.4733 -0.0248 -0.4497
 8110SOL    HW235967   3.616   2.155  17.332 -1.4315  1.3083  1.7341
 8111SOL     OW35968   2.830   2.393  11.774 -0.2563  0.0072 -0.2706
 8111SOL    HW135969   2.825   2.303  11.805  0.4609  0.9124  2.4681
 8111SOL    HW235970   2.760   2.431  11.826  1.0893  0.6904  1.0309
 8112SOL     OW35971   1.997   1.828   7.754  0.0019  0.0059 -0.3491
 8112SOL    HW135972   2.014   1.887   7.681  0.4829  0.0768 -0.1824
 8112SOL    HW235973   2.075   1.839   7.809 -1.0212 -1.2643  1.3658
 8113SOL     OW35974   3.949   1.667   4.697  0.7549  0.0904 -0.4493
 8113SOL    HW135975   3.883   1.625   4.641  0.5133  0.8817 -0.7587
 8113SOL    HW235976   4.002   1.596   4.734  2.0782  0.7277 -1.1616
 8114SOL     OW35977   0.360   0.518   9.529 -0.4397 -0.3569  0.0125
 8114SOL    HW135978   0.439   0.468   9.509  0.1896  0.3676  0.6683
 8114SOL    HW235979   0.390   0.566   9.606  0.3861 -0.9825  0.0723
 8115SOL     OW35980   3.726   1.459  16.762 -0.3430 -0.0969  0.4360
 8115SOL    HW135981   3.757   1.432  16.676 -1.1675 -0.9055  0.3955
 8115SOL    HW235982   3.693   1.546  16.739  0.6952 -0.0801 -0.9916
 8116SOL     OW35983   4.554   3.782  13.667 -0.2195 -0.2424 -0.5888
 8116SOL    HW135984   4.458   3.776  13.660 -0.2627 -0.8409  0.6327
 8116SOL    HW235985   4.568   3.755  13.757 -2.9410 -0.0786 -0.0949
 8117SOL     OW35986   1.145   3.182   7.753 -0.6169  0.2106 -0.4055
 8117SOL    HW135987   1.126   3.138   7.836  0.7490 -1.0964 -0.7808
 8117SOL    HW235988   1.197   3.257   7.780 -0.2413 -0.4429  0.6875
 8118SOL     OW35989   4.562   4.399  14.798  0.4681 -0.2203  0.1689
 8118SOL    HW135990   4.518   4.403  14.713  0.3801 -0.5457  0.1982
 8118SOL    HW235991   4.500   4.354  14.856  0.4097 -1.2410 -0.6718
 8119SOL     OW35992   4.041   2.022   5.619 -0.6298  0.3568  0.2902
 8119SOL    HW135993   4.121   2.066   5.588 -0.7221  1.7601  2.0899
 8119SOL    HW235994   4.002   1.996   5.536  0.2354  1.3001 -0.4147
 8120SOL     OW35995   2.223   3.127  15.516  0.1733 -0.2996  0.0106
 8120SOL    HW135996   2.161   3.083  15.574 -0.7619  1.1243  0.0862
 8120SOL    HW235997   2.299   3.128  15.574  2.4531  1.0243 -2.9694
 8121SOL     OW35998   2.113   3.060  16.496  0.3402 -0.7100 -0.8777
 8121SOL    HW135999   2.134   3.008  16.573  1.4221 -1.8478 -1.9364
 8121SOL    HW236000   2.129   2.999  16.423 -1.9584 -2.9628  0.5105
 8122SOL     OW36001   1.941   0.319   6.578  0.4589  0.3128  0.0652
 8122SOL    HW136002   1.956   0.256   6.649  2.4594  0.9883  0.2547
 8122SOL    HW236003   1.866   0.367   6.613  2.0022  1.2491  2.1137
 8123SOL     OW36004   1.134   1.327   3.031 -0.6407 -0.5413 -0.0445
 8123SOL    HW136005   1.055   1.367   3.068 -0.8020 -0.1622 -0.7814
 8123SOL    HW236006   1.117   1.237   3.058  1.1822 -0.9888 -0.4175
 8124SOL     OW36007   2.682   4.135  16.345  0.2966 -0.2547 -0.2704
 8124SOL    HW136008   2.679   4.208  16.282 -1.9199  0.9244  1.1714
 8124SOL    HW236009   2.596   4.142  16.387  0.1236 -2.5966 -0.2601
 8125SOL     OW36010   0.526   2.753   4.568 -0.6234 -0.0490  0.0833
 8125SOL    HW136011   0.566   2.792   4.490  0.3855 -0.8686  0.1815
 8125SOL    HW236012   0.440   2.792   4.557 -0.0650  1.7484  2.2997
 8126SOL     OW36013   3.584   4.244   8.386  0.2952  0.0759 -0.3952
 8126SOL    HW136014   3.644   4.269   8.456  0.6455 -1.9586  0.0204
 8126SOL    HW236015   3.546   4.161   8.412  0.2090  0.0488 -0.6093
 8127SOL     OW36016   2.640   4.318   6.199 -0.1497  0.1621  0.0712
 8127SOL    HW136017   2.728   4.353   6.211  0.1734 -0.4580 -0.4806
 8127SOL    HW236018   2.636   4.318   6.103  0.1466  0.2526  0.0601
 8128SOL     OW36019   3.598   4.089   7.288  0.2171  0.4562  0.0701
 8128SOL    HW136020   3.558   4.012   7.328  1.3369  1.3227  2.8497
 8128SOL    HW236021   3.665   4.045   7.236  2.1517  1.2342  1.8738
 8129SOL     OW36022   2.060   4.710   9.206  0.5993 -0.6692 -0.4433
 8129SOL    HW136023   2.144   4.723   9.163  0.6254  3.3062  0.8141
 8129SOL    HW236024   2.071   4.615   9.217 -1.8111 -0.6651  2.0555
 8130SOL     OW36025   2.301   1.080   1.778 -0.6206  0.0137  0.2645
 8130SOL    HW136026   2.313   1.071   1.683  0.0784  1.0065  0.2609
 8130SOL    HW236027   2.225   1.022   1.782 -0.0335 -0.6862  1.2862
 8131SOL     OW36028   2.718   3.957   6.673 -0.1155 -0.2758  0.3574
 8131SOL    HW136029   2.714   3.862   6.663 -0.8063 -0.0024 -1.9950
 8131SOL    HW236030   2.635   3.985   6.634  0.0101 -0.2458  0.1113
 8132SOL     OW36031   1.842   2.066   2.650  0.0825 -0.7537  0.1450
 8132SOL    HW136032   1.892   2.147   2.640  0.8988 -1.2299  0.3373
 8132SOL    HW236033   1.788   2.073   2.572 -1.1548 -0.0307  1.0690
 8133SOL     OW36034   0.383   0.243   5.683  0.4240 -0.2304  0.6449
 8133SOL    HW136035   0.394   0.176   5.617 -1.2451  0.1033  0.0338
 8133SOL    HW236036   0.376   0.326   5.635 -2.3938 -0.8780 -0.0456
 8134SOL     OW36037   2.719   4.166   4.743  0.3578 -0.1284  0.2664
 8134SOL    HW136038   2.785   4.229   4.712 -1.0401  1.5162  0.6633
 8134SOL    HW236039   2.687   4.142   4.656  1.4151  3.0296 -1.0030
 8135SOL     OW36040   3.890   4.006   4.943 -0.0310 -0.2127 -0.1889
 8135SOL    HW136041   3.948   3.934   4.918  2.0478  0.8679  1.4780
 8135SOL    HW236042   3.805   3.983   4.905 -0.4982  1.3315 -0.0545
 8136SOL     OW36043   2.223   1.991   0.720 -0.1919 -0.2632  0.3138
 8136SOL    HW136044   2.155   2.059   0.721  0.2030  0.1347  0.3181
 8136SOL    HW236045   2.294   2.037   0.764  1.0376 -2.0137  0.1260
 8137SOL     OW36046   0.150   2.640   7.710  0.0614 -0.0164  0.6356
 8137SOL    HW136047   0.209   2.670   7.779 -1.5930  0.7201  1.7215
 8137SOL    HW236048   0.187   2.690   7.638 -5.4724  2.1140 -0.7196
 8138SOL     OW36049   2.437   4.384   7.898 -0.0555 -0.4380  0.8326
 8138SOL    HW136050   2.518   4.353   7.857 -0.3215  1.4640 -1.1631
 8138SOL    HW236051   2.441   4.354   7.989 -2.7096 -2.2611  0.3291
 8139SOL     OW36052   3.702   0.621  15.406 -0.4958  0.0580  0.2089
 8139SOL    HW136053   3.777   0.663  15.365 -0.5491 -2.3782 -2.3905
 8139SOL    HW236054   3.736   0.613  15.495  0.1880  2.7017  0.1602
 8140SOL     OW36055   3.683   0.244   6.208  0.0176  0.2948 -0.3472
 8140SOL    HW136056   3.661   0.208   6.294  1.9377 -1.7194 -0.6969
 8140SOL    HW236057   3.768   0.202   6.194 -0.6541 -1.5495  0.9831
 8141SOL     OW36058   1.972   0.913   6.126  0.2017 -0.3553  0.0386
 8141SOL    HW136059   1.948   0.896   6.218  0.4573  1.5301  0.4407
 8141SOL    HW236060   2.032   0.985   6.145 -0.9411  0.9416 -1.3713
 8142SOL     OW36061   4.065   4.724   5.673 -0.2860 -0.2834  0.1433
 8142SOL    HW136062   4.092   4.637   5.701 -0.8418 -1.2082 -2.2131
 8142SOL    HW236063   4.139   0.042   5.691 -1.6692  1.8996 -1.1140
 8143SOL     OW36064   1.759   1.597   6.220  0.6182 -0.1825  1.1171
 8143SOL    HW136065   1.740   1.564   6.309  0.9448  1.1754  1.6838
 8143SOL    HW236066   1.844   1.640   6.223  0.9701 -0.8660  1.0134
 8144SOL     OW36067   0.135   3.517   9.641 -0.5075  0.7297  0.3351
 8144SOL    HW136068   0.211   3.470   9.677 -1.0412  0.2126  0.8010
 8144SOL    HW236069   0.080   3.528   9.719 -0.4363 -1.7387  0.7280
 8145SOL     OW36070   1.947   1.387  13.913 -0.4799  0.0174 -0.1135
 8145SOL    HW136071   1.959   1.337  13.832  0.8769 -1.5832  1.0587
 8145SOL    HW236072   1.949   1.474  13.874 -1.4016  0.4779  0.8940
 8146SOL     OW36073   2.592   1.242   8.286  0.0377 -0.1253 -0.1566
 8146SOL    HW136074   2.687   1.248   8.301  0.2669  3.0274 -2.9863
 8146SOL    HW236075   2.561   1.192   8.362 -0.3967  0.5887  0.1296
 8147SOL     OW36076   2.875   3.744   0.677  0.1176 -0.2517 -0.3388
 8147SOL    HW136077   2.917   3.803   0.739  3.2698 -1.3590 -1.4272
 8147SOL    HW236078   2.846   3.805   0.610  0.2718 -2.2201 -2.1978
 8148SOL     OW36079   4.550   3.038  14.484  0.2402 -0.0411  0.4288
 8148SOL    HW136080   4.483   2.991  14.436  0.3079  0.7873 -0.4821
 8148SOL    HW236081   4.603   3.072  14.412  1.4313  0.2730  1.4524
 8149SOL     OW36082   3.818   3.601   8.387  0.1993 -0.3209 -0.0304
 8149SOL    HW136083   3.803   3.694   8.404  1.8908 -0.1214  0.3295
 8149SOL    HW236084   3.912   3.588   8.379  0.5716 -0.7992  4.9167
 8150SOL     OW36085   0.457   3.274   3.574 -0.1205 -0.2062 -0.7207
 8150SOL    HW136086   0.473   3.365   3.598  0.1653  0.1316 -2.1626
 8150SOL    HW236087   0.387   3.247   3.634  1.1456 -1.8366  0.0336
 8151SOL     OW36088   0.614   3.433   8.591  0.7343 -0.2301 -0.4516
 8151SOL    HW136089   0.709   3.437   8.575  0.6401 -0.4200 -1.0369
 8151SOL    HW236090   0.625   3.382   8.671 -0.4940  0.9638  0.4656
 8152SOL     OW36091   3.928   0.266  11.853 -0.6032  0.0028  0.1754
 8152SOL    HW136092   3.843   0.253  11.895  0.2852 -1.3627  1.5353
 8152SOL    HW236093   3.987   0.204  11.894 -1.3334 -0.2338  0.8654
 8153SOL     OW36094   0.125   0.942  11.289  0.1161  0.1490  0.2632
 8153SOL    HW136095   0.077   1.024  11.272 -0.6439 -0.6237 -1.3267
 8153SOL    HW236096   0.195   0.953  11.225  0.5985  1.4671  1.0083
 8154SOL     OW36097   2.238   4.667   4.074  1.1618  0.2671 -0.2436
 8154SOL    HW136098   2.212   4.577   4.054  1.9089 -0.5700  2.5715
 8154SOL    HW236099   2.264   4.692   3.985  2.9296 -0.2771  0.1351
 8155SOL     OW36100   2.815   1.164   2.911  0.2357 -0.4511  0.2944
 8155SOL    HW136101   2.814   1.084   2.963 -0.5283  0.1624  1.2372
 8155SOL    HW236102   2.786   1.136   2.824  0.8443 -0.1291 -0.0175
 8156SOL     OW36103   2.492   1.118   0.768  0.2737  0.1762 -0.0834
 8156SOL    HW136104   2.428   1.175   0.725 -0.3884  0.3552  1.1392
 8156SOL    HW236105   2.456   1.030   0.757  0.3999  0.2082 -0.7937
 8157SOL     OW36106   1.738   0.716   8.253  0.2325 -0.3929 -0.9064
 8157SOL    HW136107   1.670   0.707   8.321  1.5582  1.8413  0.7204
 8157SOL    HW236108   1.805   0.658   8.287 -0.5789 -0.8753 -0.1295
 8158SOL     OW36109   1.472   4.019   3.909 -0.1521 -0.6020  0.3028
 8158SOL    HW136110   1.563   3.993   3.900 -0.7626 -2.1699 -1.3737
 8158SOL    HW236111   1.426   3.936   3.921  1.1399 -1.8064 -2.9250
 8159SOL     OW36112   3.142   1.905   5.003 -0.3219 -0.2938  0.0205
 8159SOL    HW136113   3.139   2.000   4.988 -2.3311 -0.4758 -0.8246
 8159SOL    HW236114   3.220   1.890   4.949 -0.5971  1.1125 -0.7705
 8160SOL     OW36115   3.687   3.002  12.424 -0.1970  1.3534  0.0616
 8160SOL    HW136116   3.634   3.055  12.485 -1.4656  0.4248 -0.2459
 8160SOL    HW236117   3.756   3.062  12.395 -0.9973  2.7726  1.0902
 8161SOL     OW36118   2.342   4.265  16.759  0.6267 -0.4073  0.5424
 8161SOL    HW136119   2.282   4.339  16.751  0.2462 -0.3958  3.7399
 8161SOL    HW236120   2.397   4.287  16.683  0.0011 -1.9744 -0.3863
 8162SOL     OW36121   1.721   1.957   6.274  0.6626 -0.3065  0.1068
 8162SOL    HW136122   1.676   2.012   6.210  0.1223  0.1990  0.9222
 8162SOL    HW236123   1.641   1.937   6.323  0.4926  2.0198  0.7934
 8163SOL     OW36124   0.129   2.310  12.227  0.3401 -0.0141 -0.2896
 8163SOL    HW136125   0.134   2.219  12.256 -0.3044 -1.2486 -4.0812
 8163SOL    HW236126   0.068   2.303  12.153  1.7122  1.1667 -1.5231
 8164SOL     OW36127   1.202   3.617   6.745 -0.1657 -0.5582  0.8113
 8164SOL    HW136128   1.287   3.646   6.710 -0.4409  0.3712  0.9090
 8164SOL    HW236129   1.163   3.596   6.660 -1.5221 -2.4249  1.9028
 8165SOL     OW36130   0.780   0.392  13.466  0.1993  0.2761  0.4903
 8165SOL    HW136131   0.831   0.399  13.385 -0.5030 -0.6695 -0.0355
 8165SOL    HW236132   0.702   0.351  13.429 -1.0189  2.8105  0.2482
 8166SOL     OW36133   2.228   1.477   3.226  0.1937 -0.2915 -0.2956
 8166SOL    HW136134   2.259   1.517   3.307 -2.5721 -2.0267  1.6262
 8166SOL    HW236135   2.281   1.398   3.220  0.2452 -0.2519 -0.3590
 8167SOL     OW36136   2.613   1.287  13.572 -0.3418 -0.2208  0.1144
 8167SOL    HW136137   2.540   1.228  13.592  0.8526 -1.8906 -0.5367
 8167SOL    HW236138   2.679   1.248  13.629 -1.5079 -2.2171  0.0902
 8168SOL     OW36139   0.273   4.125   6.219  0.1286 -0.0291  0.0895
 8168SOL    HW136140   0.361   4.088   6.227 -0.0239 -0.3161  0.4199
 8168SOL    HW236141   0.220   4.050   6.192  2.1400 -1.0253 -1.1151
 8169SOL     OW36142   0.611   1.940   5.721  0.5414  0.2948  0.0466
 8169SOL    HW136143   0.543   1.988   5.768  2.0614  1.3333  1.1855
 8169SOL    HW236144   0.614   1.995   5.643 -1.4118  1.6479  0.9086
 8170SOL     OW36145   2.799   4.049   5.596 -0.6366  0.8019  0.0947
 8170SOL    HW136146   2.880   4.000   5.584 -1.4203 -0.5945  0.5565
 8170SOL    HW236147   2.839   4.121   5.645  0.4235  0.7701 -0.7182
 8171SOL     OW36148   2.029   3.187   4.932  0.3449  0.2586 -0.0722
 8171SOL    HW136149   2.007   3.107   4.980  0.4159  1.2174  1.5564
 8171SOL    HW236150   1.991   3.255   4.988 -0.5575 -2.0025  2.0606
 8172SOL     OW36151   0.004   3.726   9.076  0.3003  0.0342  0.0684
 8172SOL    HW136152   4.668   3.676   9.045  0.6176 -0.9449  0.8856
 8172SOL    HW236153   0.025   3.786   9.004 -1.6769  2.3928  1.4723
 8173SOL     OW36154   4.520   3.926   4.101  0.4804 -0.7333 -0.5115
 8173SOL    HW136155   4.473   3.856   4.057  1.6078 -0.2305 -2.4899
 8173SOL    HW236156   4.539   3.992   4.035 -2.5447  0.5796 -0.0768
 8174SOL     OW36157   1.057   4.055   5.970 -0.6787 -0.6336 -0.1451
 8174SOL    HW136158   1.076   4.094   5.885 -2.1936 -0.4539 -0.3841
 8174SOL    HW236159   0.968   4.085   5.985 -0.3903 -0.3905  1.1206
 8175SOL     OW36160   1.355   3.954  10.157 -0.2336 -0.2769 -0.5404
 8175SOL    HW136161   1.380   3.875  10.205 -2.1097  0.1252  1.0961
 8175SOL    HW236162   1.381   4.012  10.228 -1.2899 -0.3096 -0.1236
 8176SOL     OW36163   2.278   3.111   0.462 -0.3490 -0.0705 -0.0055
 8176SOL    HW136164   2.292   3.174   0.533 -0.8358  1.7358 -1.5097
 8176SOL    HW236165   2.200   3.074   0.503 -0.9269 -0.2819 -1.2906
 8177SOL     OW36166   0.062   4.269   8.905 -0.2336 -0.4983  0.4215
 8177SOL    HW136167   4.739   4.339   8.885  0.1605 -0.2617  0.0226
 8177SOL    HW236168   0.012   4.220   8.971 -0.6179 -0.4968  0.1319
 8178SOL     OW36169   1.435   3.130   9.048 -0.5808 -0.1853 -0.0656
 8178SOL    HW136170   1.365   3.072   9.079 -0.9077  0.1005 -0.2625
 8178SOL    HW236171   1.386   3.158   8.971  0.4516 -1.4801 -1.1745
 8179SOL     OW36172   2.134   0.739   1.385 -0.2694 -0.4633  0.0408
 8179SOL    HW136173   2.093   0.799   1.324 -0.1194  0.4904  0.8732
 8179SOL    HW236174   2.184   0.680   1.328  0.4591  2.1399 -2.0145
 8180SOL     OW36175   4.374   0.980   7.165  0.0600 -0.0084 -0.3867
 8180SOL    HW136176   4.319   0.924   7.111  0.0284 -0.8993  0.5657
 8180SOL    HW236177   4.422   1.034   7.102  0.8216 -1.4337 -1.0279
 8181SOL     OW36178   0.649   4.712   9.610  0.0022 -0.0595  0.0138
 8181SOL    HW136179   0.635   4.689   9.518 -1.0177  2.5857 -0.4839
 8181SOL    HW236180   0.557   4.730   9.630 -1.0996 -2.1367 -3.2477
 8182SOL     OW36181   2.670   4.232  11.466 -0.1052 -0.2844  0.2037
 8182SOL    HW136182   2.739   4.202  11.525 -0.0401 -0.5855 -0.0260
 8182SOL    HW236183   2.677   4.325  11.490 -1.7179 -0.3152  0.7707
 8183SOL     OW36184   2.581   4.643   7.851  0.0973 -0.1783 -0.2857
 8183SOL    HW136185   2.567   4.641   7.756  0.5547  2.2846 -0.4077
 8183SOL    HW236186   2.560   4.554   7.879 -0.8191  0.1616  0.1175
 8184SOL     OW36187   1.393   0.273  14.935  0.2893 -0.4959  0.0179
 8184SOL    HW136188   1.422   0.363  14.921 -1.8703  0.2620  0.4988
 8184SOL    HW236189   1.472   0.230  14.902  1.1444  0.7042  0.5103
 8185SOL     OW36190   0.454   2.115   7.775  0.0857  0.1616  0.2921
 8185SOL    HW136191   0.443   2.136   7.682 -3.1967 -1.6173  0.2580
 8185SOL    HW236192   0.368   2.138   7.810  0.9340  1.3830  1.5548
 8186SOL     OW36193   4.609   2.061   4.312  0.4533  0.1761 -0.3359
 8186SOL    HW136194   4.668   2.135   4.324  0.0292  0.6309 -1.0604
 8186SOL    HW236195   4.535   2.115   4.285  0.1368 -1.4441 -2.7190
 8187SOL     OW36196   1.888   0.902   1.558 -0.3848 -0.2949 -0.4548
 8187SOL    HW136197   1.880   0.807   1.547 -1.8949 -0.0847 -1.2360
 8187SOL    HW236198   1.827   0.917   1.630 -1.1711  1.0908 -1.3994
 8188SOL     OW36199   1.955   2.796  13.293 -0.5847 -0.3382  0.1016
 8188SOL    HW136200   2.019   2.758  13.353 -0.0194 -0.3809 -0.5276
 8188SOL    HW236201   2.002   2.859  13.239 -0.7134 -0.8248 -0.5870
 8189SOL     OW36202   0.722   4.149   0.803 -0.6164  0.0632 -0.0237
 8189SOL    HW136203   0.760   4.156   0.715 -0.4694 -0.7090 -0.0187
 8189SOL    HW236204   0.801   4.176   0.850  1.7074 -0.5389 -3.5161
 8190SOL     OW36205   1.928   1.305   6.358  0.3809  0.4568  0.0481
 8190SOL    HW136206   1.847   1.291   6.310  0.4870 -1.2188  0.3646
 8190SOL    HW236207   1.930   1.236   6.425 -1.5583 -0.4665 -0.8649
 8191SOL     OW36208   1.732   0.218   9.464  0.4372  0.0127 -0.1996
 8191SOL    HW136209   1.733   0.145   9.402  0.0435 -1.0077  0.9936
 8191SOL    HW236210   1.752   0.166   9.542  0.1973 -2.8735 -2.0353
 8192SOL     OW36211   3.443   2.435   8.903 -0.0080 -0.0483  0.1869
 8192SOL    HW136212   3.496   2.366   8.942 -3.9285 -1.9194  2.1523
 8192SOL    HW236213   3.446   2.511   8.961  0.2286  1.2998 -1.5799
 8193SOL     OW36214   1.934   0.244   3.939  0.2765  0.4797 -0.1271
 8193SOL    HW136215   1.989   0.175   3.903 -0.1244 -0.1790  0.5324
 8193SOL    HW236216   1.903   0.281   3.856  0.5368  0.2968 -0.3047
 8194SOL     OW36217   0.063   1.524   8.925  0.0310 -0.6366 -0.2598
 8194SOL    HW136218   0.116   1.481   8.992 -0.3488  1.0858  1.1336
 8194SOL    HW236219   0.001   1.460   8.891 -0.3459 -0.7464  0.6237
 8195SOL     OW36220   4.642   2.183   7.050  0.5216 -0.3989 -0.6223
 8195SOL    HW136221   4.582   2.144   6.985 -1.7211  0.9729  0.6132
 8195SOL    HW236222   4.679   2.105   7.092 -1.0417 -0.2083  1.1289
 8196SOL     OW36223   0.875   4.704  14.801 -0.8349  0.2396 -0.7028
 8196SOL    HW136224   0.869   4.698  14.705 -0.1249  1.0149 -0.7905
 8196SOL    HW236225   0.786   4.684  14.830  0.2636 -1.0977  1.7853
 8197SOL     OW36226   4.447   3.539  10.596  0.0509 -0.4848  0.2196
 8197SOL    HW136227   4.384   3.543  10.668  0.0530 -0.5072  0.2227
 8197SOL    HW236228   4.454   3.633  10.577  1.2570 -0.3549  1.2609
 8198SOL     OW36229   2.512   0.594   1.502  0.0140 -0.4358  0.0522
 8198SOL    HW136230   2.489   0.542   1.425  0.4518  0.0226 -0.3830
 8198SOL    HW236231   2.598   0.563   1.531 -0.0398  1.0393  1.8079
 8199SOL     OW36232   0.377   1.004   4.480 -0.3914  0.0477  0.8538
 8199SOL    HW136233   0.334   1.082   4.443 -0.0247  0.2990  0.9579
 8199SOL    HW236234   0.395   0.964   4.395  0.3490  1.2117  0.4675
 8200SOL     OW36235   4.574   4.701   8.268 -0.0326 -0.0582 -0.0360
 8200SOL    HW136236   4.501   4.638   8.273  0.8831 -1.1292 -0.1457
 8200SOL    HW236237   4.598   4.706   8.175  4.0295 -1.8747  0.9138
 8201SOL     OW36238   1.734   4.162   9.015 -0.3879  0.0684  0.0859
 8201SOL    HW136239   1.640   4.143   9.019 -1.0333  3.3110 -0.1053
 8201SOL    HW236240   1.756   4.108   8.939 -3.0138 -0.7981 -0.0547
 8202SOL     OW36241   2.050   0.879   3.244  0.0439  0.3403  0.2038
 8202SOL    HW136242   2.071   0.967   3.211  0.3541  0.6194  1.1569
 8202SOL    HW236243   1.997   0.897   3.321  1.3922  1.2967  0.9046
 8203SOL     OW36244   1.461   4.036  14.710 -0.5604 -0.0624 -0.1265
 8203SOL    HW136245   1.368   4.017  14.708 -1.1269  2.7744 -2.3126
 8203SOL    HW236246   1.489   3.947  14.731 -0.8675  0.2733  1.6342
 8204SOL     OW36247   0.755   3.688   7.555 -0.3384  0.4520 -0.5167
 8204SOL    HW136248   0.798   3.750   7.614  2.4015  1.8626 -4.0080
 8204SOL    HW236249   0.815   3.670   7.482  1.0225  1.1077  0.4322
 8205SOL     OW36250   4.220   3.311   4.046  0.4843 -0.4548  0.0660
 8205SOL    HW136251   4.131   3.342   4.062 -0.1097 -2.2640  0.2686
 8205SOL    HW236252   4.257   3.306   4.133  1.3444  3.8459 -0.0644
 8206SOL     OW36253   3.556   3.451   0.117 -0.5898 -0.3648 -0.3460
 8206SOL    HW136254   3.627   3.431   0.178 -0.5845 -0.8931 -0.5240
 8206SOL    HW236255   3.583   3.536   0.081 -1.1221 -0.1312 -0.1953
 8207SOL     OW36256   3.199   2.971   4.844 -0.5167 -0.2276  0.7004
 8207SOL    HW136257   3.189   3.066   4.852  2.5557  0.0049  1.7849
 8207SOL    HW236258   3.154   2.952   4.927 -2.1407  0.5497 -0.0020
 8208SOL     OW36259   3.777   1.533   4.071  0.0373 -0.1364 -0.9476
 8208SOL    HW136260   3.719   1.609   4.060 -0.6642 -0.0836  2.9247
 8208SOL    HW236261   3.712   1.466   4.093 -1.2890  1.7164  0.8945
 8209SOL     OW36262   2.023   0.318   1.544  0.0182 -0.7333  0.2197
 8209SOL    HW136263   2.043   0.309   1.451 -4.1271 -0.3274 -0.7497
 8209SOL    HW236264   2.082   0.391   1.562  0.0983 -0.4999 -1.0060
 8210SOL     OW36265   3.417   0.771   6.130 -0.3810 -0.3549 -0.1851
 8210SOL    HW136266   3.367   0.798   6.207  0.4578  1.2484 -0.2030
 8210SOL    HW236267   3.454   0.686   6.154  1.8750  0.4199 -0.9635
 8211SOL     OW36268   1.638   3.805   5.849  0.5948  0.0950  0.4408
 8211SOL    HW136269   1.634   3.876   5.784 -0.7318 -0.0392  0.3822
 8211SOL    HW236270   1.728   3.822   5.879  1.2915 -2.5280 -0.1837
 8212SOL     OW36271   2.896   4.284   4.263  0.1813 -0.1784  0.8047
 8212SOL    HW136272   2.939   4.367   4.241  0.0249 -0.4621 -0.6156
 8212SOL    HW236273   2.879   4.247   4.176 -1.7553  2.7361 -0.0591
 8213SOL     OW36274   0.929   2.430  11.939  0.0785 -0.0212 -0.3512
 8213SOL    HW136275   0.975   2.449  11.858 -3.3905  2.3166 -1.7439
 8213SOL    HW236276   0.962   2.342  11.959  1.7877  1.0591  1.5042
 8214SOL     OW36277   2.957   4.057   1.787 -0.3657  0.2287 -0.0059
 8214SOL    HW136278   2.876   4.020   1.822  1.0819 -0.8526  2.1880
 8214SOL    HW236279   3.001   3.975   1.763 -2.1854 -0.6870 -0.2183
 8215SOL     OW36280   1.208   1.798  16.294 -0.1811  0.2971  0.1004
 8215SOL    HW136281   1.262   1.812  16.217 -0.4982  1.0593  0.0244
 8215SOL    HW236282   1.191   1.889  16.319  2.1562  1.5016 -2.7160
 8216SOL     OW36283   1.625   2.642   6.860  0.4050  0.1776 -0.5044
 8216SOL    HW136284   1.615   2.603   6.947 -0.3855  2.2594  0.3439
 8216SOL    HW236285   1.545   2.616   6.814  0.0693  2.1665 -1.0534
 8217SOL     OW36286   0.000   1.648  17.600 -0.0576 -0.0309  0.5825
 8217SOL    HW136287   0.020   1.555  17.605  0.5302  0.2128  2.8192
 8217SOL    HW236288   4.647   1.662  17.619 -1.3541 -3.6419 -3.1166
 8218SOL     OW36289   3.033   4.025   8.765 -0.2186 -0.3310 -0.3190
 8218SOL    HW136290   3.051   4.020   8.859  2.2957  0.7909 -0.7137
 8218SOL    HW236291   2.967   4.094   8.769 -1.8553 -2.0515  2.4928
 8219SOL     OW36292   3.672   1.125  14.189 -0.0311  0.4506  0.7480
 8219SOL    HW136293   3.609   1.054  14.203 -0.1455  0.5083  0.5256
 8219SOL    HW236294   3.755   1.088  14.159  0.4648  0.7238  1.7706
 8220SOL     OW36295   1.402   1.577  11.616 -0.5250 -1.4017 -0.5094
 8220SOL    HW136296   1.425   1.667  11.639 -1.1311 -1.3249 -0.2025
 8220SOL    HW236297   1.444   1.567  11.531  1.1700  0.0147  0.1494
 8221SOL     OW36298   4.469   2.024   5.999  0.0825 -0.3013 -0.2720
 8221SOL    HW136299   4.528   1.956   5.967 -0.0812  0.5640 -2.4318
 8221SOL    HW236300   4.387   2.004   5.956  0.7139 -0.7940 -1.2492
 8222SOL     OW36301   4.437   3.521   2.226 -0.2954  0.4540  0.0941
 8222SOL    HW136302   4.531   3.500   2.230  0.0363  1.8988 -0.1968
 8222SOL    HW236303   4.410   3.499   2.315 -1.2351  0.6663 -0.1449
 8223SOL     OW36304   4.494   0.270  11.770  0.3676  0.6707 -0.4722
 8223SOL    HW136305   4.417   0.326  11.781  0.1216  0.5271 -1.4710
 8223SOL    HW236306   4.563   0.336  11.766  3.5449 -2.5152  1.4503
 8224SOL     OW36307   1.641   1.541   3.989 -0.1605  0.3941  0.0320
 8224SOL    HW136308   1.606   1.557   3.902  0.7432 -1.6521 -0.7032
 8224SOL    HW236309   1.560   1.507   4.026  1.1676 -0.8624  1.8070
 8225SOL     OW36310   3.604   0.348   5.014  0.0802 -0.0119  0.6349
 8225SOL    HW136311   3.552   0.426   5.035 -1.3143 -0.5239 -0.8536
 8225SOL    HW236312   3.560   0.282   5.066  2.2426 -1.7337  0.2611
 8226SOL     OW36313   0.014   1.644  14.362  0.0914  0.2374 -0.4929
 8226SOL    HW136314   0.070   1.628  14.286 -0.6974  1.0225 -1.2314
 8226SOL    HW236315   0.060   1.715  14.407  1.4154 -0.7147 -0.3433
 8227SOL     OW36316   4.367   0.543  17.378  0.5772  0.6177 -0.4703
 8227SOL    HW136317   4.396   0.513  17.292  0.9505 -1.8868  0.5285
 8227SOL    HW236318   4.433   0.506  17.436 -0.9145 -1.7848 -0.3283
 8228SOL     OW36319   1.881   2.027   4.827 -0.2898 -1.1994 -0.3329
 8228SOL    HW136320   1.831   1.994   4.902 -0.9078  1.4374  0.3953
 8228SOL    HW236321   1.811   2.052   4.768 -1.2517 -1.8275  0.5454
 8229SOL     OW36322   4.575   1.270   7.953  0.0261  0.3019  0.1832
 8229SOL    HW136323   4.635   1.243   7.884 -2.4649 -4.2287 -0.2037
 8229SOL    HW236324   4.491   1.266   7.908  0.0204  1.6057  0.0544
 8230SOL     OW36325   0.033   1.312   0.696 -0.7519 -0.3392  0.0547
 8230SOL    HW136326   0.098   1.311   0.766  0.3202 -1.3383 -0.9618
 8230SOL    HW236327   4.699   1.356   0.740 -0.4498  0.3971 -0.1721
 8231SOL     OW36328   2.615   3.418   4.731 -0.0385 -0.0151 -0.2835
 8231SOL    HW136329   2.620   3.323   4.744 -2.5476  0.0541  1.2266
 8231SOL    HW236330   2.663   3.423   4.648  1.4693  0.9590  0.6653
 8232SOL     OW36331   4.308   3.912   8.538 -0.0381  0.2492  0.6839
 8232SOL    HW136332   4.344   3.836   8.492 -0.9393  1.7189 -2.4399
 8232SOL    HW236333   4.340   3.886   8.625  1.5822 -0.7212 -0.2035
 8233SOL     OW36334   0.344   3.607   2.570  0.4023  0.0783  0.2651
 8233SOL    HW136335   0.420   3.657   2.598  1.6209 -0.4507 -2.1431
 8233SOL    HW236336   0.387   3.522   2.566  1.5488  0.6862 -0.1464
 8234SOL     OW36337   0.987   0.456   4.230  0.2177 -0.6766  0.1405
 8234SOL    HW136338   0.982   0.364   4.255 -3.2565 -0.0363  1.8550
 8234SOL    HW236339   0.896   0.485   4.223  0.3830 -0.3795 -0.7778
 8235SOL     OW36340   2.737   0.456   5.286  0.2341 -0.3540  0.7351
 8235SOL    HW136341   2.738   0.547   5.316  0.2479  0.0878 -0.6080
 8235SOL    HW236342   2.806   0.425   5.344  1.5722 -0.4088 -0.8853
 8236SOL     OW36343   2.974   1.883   5.267  0.0656 -0.0655  0.3284
 8236SOL    HW136344   2.919   1.948   5.310 -0.5823 -1.0036  0.9205
 8236SOL    HW236345   2.936   1.885   5.180 -1.2147 -1.9324  0.8447
 8237SOL     OW36346   0.148   3.432  14.085  0.6499  0.1474 -0.6404
 8237SOL    HW136347   0.139   3.527  14.083  0.6962  0.1938  0.9446
 8237SOL    HW236348   0.084   3.408  14.152  1.9039  0.7829  0.7880
 8238SOL     OW36349   3.308   1.859   3.752  0.0033  0.5915 -0.1869
 8238SOL    HW136350   3.324   1.775   3.708 -0.7701 -0.8009  2.1666
 8238SOL    HW236351   3.362   1.914   3.696 -0.7678  0.2778 -1.2202
 8239SOL     OW36352   2.652   3.370   1.703 -0.1531  0.4780 -0.2660
 8239SOL    HW136353   2.689   3.455   1.727 -0.0769  0.4310 -0.2161
 8239SOL    HW236354   2.562   3.389   1.677 -0.8662 -2.0442  0.3505
 8240SOL     OW36355   4.390   3.709  17.200 -0.0217  0.4023  0.1531
 8240SOL    HW136356   4.357   3.731  17.288 -1.5091  0.6471 -0.4609
 8240SOL    HW236357   4.480   3.738  17.213 -0.6932  2.3033  0.6529
 8241SOL     OW36358   3.522   3.191   4.824 -0.2615  0.4927 -0.2142
 8241SOL    HW136359   3.584   3.188   4.896  1.3800  0.8256 -1.6169
 8241SOL    HW236360   3.459   3.236   4.880 -1.0325 -1.6170  0.6510
 8242SOL     OW36361   3.055   2.487   4.414  0.0356  0.5193 -0.2906
 8242SOL    HW136362   2.996   2.534   4.473  1.8752  0.9877  1.1544
 8242SOL    HW236363   3.066   2.406   4.463 -1.0591  0.4434 -0.1677
 8243SOL     OW36364   1.166   3.068   4.418  0.0514  0.2477 -0.3428
 8243SOL    HW136365   1.127   3.147   4.455  0.9120  0.1676  0.7389
 8243SOL    HW236366   1.089   3.012   4.417 -0.2165  0.5999  0.5564
 8244SOL     OW36367   4.473   3.052  15.184 -0.3813  0.0886  0.5858
 8244SOL    HW136368   4.391   3.028  15.227 -0.4564 -1.3979 -0.4118
 8244SOL    HW236369   4.535   3.051  15.257  0.9557  0.1898 -0.5431
 8245SOL     OW36370   0.844   4.525   2.874  0.3308 -0.2459 -0.3504
 8245SOL    HW136371   0.926   4.486   2.905 -0.7972 -1.4260  1.1009
 8245SOL    HW236372   0.853   4.613   2.911 -0.2692 -0.8212  1.1539
 8246SOL     OW36373   1.220   3.741  11.204 -0.0295  0.4897 -0.5828
 8246SOL    HW136374   1.143   3.693  11.173  0.3255  0.8051 -1.9564
 8246SOL    HW236375   1.250   3.777  11.120  0.9599  0.4999 -0.2276
 8247SOL     OW36376   3.568   2.115   4.274 -0.4855 -0.1739 -0.0064
 8247SOL    HW136377   3.577   2.040   4.332  1.2672 -0.0935 -0.1852
 8247SOL    HW236378   3.575   2.060   4.196 -0.5180 -1.0270  0.5907
 8248SOL     OW36379   0.347   1.299   6.005  0.3996 -0.3409 -0.5282
 8248SOL    HW136380   0.296   1.218   6.000 -1.2498  0.6021  1.6102
 8248SOL    HW236381   0.309   1.339   5.927 -1.1883 -0.7783  0.0348
 8249SOL     OW36382   2.921   2.336  16.724  0.3439 -0.4307  0.7223
 8249SOL    HW136383   2.883   2.335  16.637  0.8583 -1.4909  0.5013
 8249SOL    HW236384   2.845   2.326  16.781 -0.1053  0.2717  0.2343
 8250SOL     OW36385   2.715   1.806  10.421 -0.0716  0.2251 -0.4286
 8250SOL    HW136386   2.754   1.814  10.334  0.6947  1.0100 -0.0112
 8250SOL    HW236387   2.701   1.900  10.428 -0.8867  0.1770 -1.4702
 8251SOL     OW36388   2.977   1.332  12.700  0.3076  0.4322 -0.1573
 8251SOL    HW136389   3.008   1.252  12.656 -0.3916  0.4343 -0.6511
 8251SOL    HW236390   3.032   1.346  12.776  0.2656  3.2701 -0.6684
 8252SOL     OW36391   0.744   0.036   8.819  0.5008  0.4829 -0.5401
 8252SOL    HW136392   0.800   0.111   8.798 -0.5942  0.9301 -1.8725
 8252SOL    HW236393   0.804   4.701   8.820  2.3413  1.9453 -1.6636
 8253SOL     OW36394   3.312   1.882   5.246  0.3100 -0.4102 -0.2095
 8253SOL    HW136395   3.370   1.894   5.171  1.3756 -1.2971  0.4613
 8253SOL    HW236396   3.231   1.855   5.204  0.1902  1.3181 -1.0747
 8254SOL     OW36397   3.932   2.982   1.589  0.2330  0.3911 -0.0507
 8254SOL    HW136398   3.990   2.906   1.576  2.2214  2.2220 -1.7897
 8254SOL    HW236399   3.904   2.994   1.498  3.3809 -1.0779 -1.2358
 8255SOL     OW36400   4.442   1.975  17.665 -0.0692 -0.1643 -0.1562
 8255SOL    HW136401   4.407   2.004  17.581 -0.1835 -0.2304 -0.1309
 8255SOL    HW236402   4.419   2.057  17.710  1.9978  0.5075 -0.2993
 8256SOL     OW36403   0.574   0.469   3.373 -0.1108  0.5280  0.9589
 8256SOL    HW136404   0.601   0.546   3.423  0.2216  0.7075  0.5102
 8256SOL    HW236405   0.479   0.480   3.363  0.2945 -0.4562 -3.9817
 8257SOL     OW36406   4.201   4.218   5.334  0.6587  0.1305 -0.0524
 8257SOL    HW136407   4.146   4.218   5.255  1.9728  1.8211 -0.9877
 8257SOL    HW236408   4.264   4.283   5.301  0.0554 -0.0261 -1.4970
 8258SOL     OW36409   3.872   2.677   4.723  0.7850 -0.8162  0.3238
 8258SOL    HW136410   3.822   2.758   4.718  0.4571 -1.0974 -0.9132
 8258SOL    HW236411   3.813   2.619   4.675 -0.6599  1.1578 -0.2841
 8259SOL     OW36412   3.454   0.957   0.413 -0.4998  0.1800  0.2830
 8259SOL    HW136413   3.366   0.970   0.377 -0.6963 -0.8934  0.3792
 8259SOL    HW236414   3.481   0.866   0.405  0.2391  0.3530  0.7202
 8260SOL     OW36415   4.332   3.598  14.977  0.3323 -0.8096  0.5144
 8260SOL    HW136416   4.365   3.533  15.038 -2.4088 -1.0068  1.7858
 8260SOL    HW236417   4.326   3.546  14.896  0.6805 -0.2739  0.1392
 8261SOL     OW36418   3.643   2.948   4.185 -0.2128  0.0169 -0.1879
 8261SOL    HW136419   3.725   2.946   4.233  0.0140  0.1963 -0.5657
 8261SOL    HW236420   3.586   2.886   4.230 -0.2101  1.3170  1.5649
 8262SOL     OW36421   2.968   4.672   1.003  0.2024 -0.1660 -0.0471
 8262SOL    HW136422   3.000   4.608   1.066 -0.6445 -0.5150  0.0280
 8262SOL    HW236423   3.012   0.009   1.041  0.6627  0.8370 -2.5389
 8263SOL     OW36424   2.273   0.606   7.177 -0.5904 -0.1120 -0.0243
 8263SOL    HW136425   2.195   0.624   7.125  0.8695  0.5037 -2.0322
 8263SOL    HW236426   2.247   0.609   7.269  1.1272 -1.2369  0.4888
 8264SOL     OW36427   0.520   0.334   2.416 -0.5613  0.1502 -0.1378
 8264SOL    HW136428   0.559   0.361   2.333 -0.0457  0.5779  0.2467
 8264SOL    HW236429   0.558   0.394   2.479  2.1023  1.6197 -3.1307
 8265SOL     OW36430   4.477   3.412   2.963 -0.3277 -0.1632 -0.3705
 8265SOL    HW136431   4.403   3.367   3.004 -2.3698  2.2936 -1.4219
 8265SOL    HW236432   4.539   3.371   3.024  0.7645 -0.2038 -1.5126
 8266SOL     OW36433   2.320   2.318   0.512 -0.4793  0.2528  0.1980
 8266SOL    HW136434   2.381   2.327   0.585  0.7925 -1.7970 -0.5925
 8266SOL    HW236435   2.382   2.307   0.440 -0.5251 -1.6997  0.4526
 8267SOL     OW36436   1.433   4.166   6.919  0.3888  0.1302  0.4615
 8267SOL    HW136437   1.477   4.249   6.898 -1.6953  1.1267  0.0427
 8267SOL    HW236438   1.344   4.189   6.946  0.4358 -1.0186  1.5962
 8268SOL     OW36439   3.614   2.007  15.062  0.4669  0.8750 -0.1881
 8268SOL    HW136440   3.589   1.998  15.154  0.8242  0.5838 -0.1189
 8268SOL    HW236441   3.706   1.980  15.061  0.1882 -0.2158  2.1177
 8269SOL     OW36442   4.551   4.174   2.013 -0.9174  0.1574  0.2856
 8269SOL    HW136443   4.463   4.164   2.051 -0.3193 -2.1413  1.0747
 8269SOL    HW236444   4.606   4.175   2.092  0.2878  1.9465 -0.5840
 8270SOL     OW36445   0.756   3.987  16.365 -0.4902  0.3547  0.3815
 8270SOL    HW136446   0.679   4.010  16.416 -0.1867 -0.6457  1.2825
 8270SOL    HW236447   0.716   3.923  16.306  0.5318  2.2194 -2.3233
 8271SOL     OW36448   4.642   3.449   8.672 -0.8140 -0.5955  0.1476
 8271SOL    HW136449   4.706   3.434   8.742 -0.8111 -2.9211 -0.3540
 8271SOL    HW236450   4.557   3.443   8.715 -1.0731 -0.5600 -0.3629
 8272SOL     OW36451   4.130   3.614   5.973  0.0229 -0.4751 -0.4558
 8272SOL    HW136452   4.155   3.526   6.002  0.5719  0.4444  1.8750
 8272SOL    HW236453   4.035   3.602   5.976 -0.1828  0.9207 -1.4225
 8273SOL     OW36454   1.642   0.381   5.850 -0.0147  0.4871 -0.0086
 8273SOL    HW136455   1.625   0.389   5.944  0.8531 -0.5456  0.2429
 8273SOL    HW236456   1.722   0.329   5.848  0.1382  0.7483 -0.8194
 8274SOL     OW36457   2.360   2.163   3.387 -0.3516  0.4667  0.6133
 8274SOL    HW136458   2.355   2.254   3.358  0.7910  0.4167  0.2562
 8274SOL    HW236459   2.454   2.147   3.387 -0.2263  1.2685  0.9719
 8275SOL     OW36460   1.955   4.225   5.660 -0.0436 -0.3588 -0.0410
 8275SOL    HW136461   2.037   4.177   5.648  0.1906  0.0377 -0.0482
 8275SOL    HW236462   1.897   4.196   5.589  0.6506 -1.8430  0.0058
 8276SOL     OW36463   2.508   1.536   4.942  0.0471  0.1562 -0.7145
 8276SOL    HW136464   2.447   1.474   4.901 -1.5725  1.7012 -0.6346
 8276SOL    HW236465   2.482   1.522   5.033 -1.4987  1.8535 -0.8946
 8277SOL     OW36466   1.581   3.153  12.750  0.2278 -0.0732  0.1224
 8277SOL    HW136467   1.502   3.099  12.751  0.5383 -0.5605 -1.1281
 8277SOL    HW236468   1.563   3.223  12.687  0.6546  0.8948  1.0912
 8278SOL     OW36469   3.208   4.683   1.419  0.0236 -0.4092  0.4310
 8278SOL    HW136470   3.196   4.733   1.338 -1.3938  0.4283  1.1704
 8278SOL    HW236471   3.229   0.013   1.481  0.0361  0.5529 -0.6618
 8279SOL     OW36472   2.400   0.348  16.508 -0.3124 -0.9492  0.1046
 8279SOL    HW136473   2.406   0.410  16.580  0.3569 -1.7741  0.7677
 8279SOL    HW236474   2.341   0.402  16.456  0.9631  2.1756  1.9647
 8280SOL     OW36475   0.415   4.183   5.068  0.0987 -0.1733 -0.4148
 8280SOL    HW136476   0.438   4.276   5.061  0.7334 -0.3447 -0.5774
 8280SOL    HW236477   0.342   4.192   5.129  0.4099 -1.9905  0.2202
 8281SOL     OW36478   3.058   2.648  11.433 -0.0408  0.0151 -0.4679
 8281SOL    HW136479   3.149   2.653  11.406  0.2338 -0.1688  0.4145
 8281SOL    HW236480   3.055   2.590  11.509  0.0131 -0.5757 -0.9187
 8282SOL     OW36481   1.468   2.633   5.617  0.1547 -0.5674  0.7138
 8282SOL    HW136482   1.504   2.615   5.704 -0.8667 -1.0325  1.0352
 8282SOL    HW236483   1.410   2.557   5.614 -1.6348  0.9005 -1.0233
 8283SOL     OW36484   3.094   0.961   6.882  0.4334  0.1849 -0.2809
 8283SOL    HW136485   3.088   0.878   6.928  0.4114 -0.1198 -0.8416
 8283SOL    HW236486   3.105   1.027   6.950  0.6335  0.1445 -0.2752
 8284SOL     OW36487   0.364   4.357   6.281 -0.3528  0.5586  0.6388
 8284SOL    HW136488   0.453   4.341   6.251 -0.0200  2.7290  0.4281
 8284SOL    HW236489   0.322   4.278   6.247 -1.2776  1.1150  0.4831
 8285SOL     OW36490   4.732   1.890  14.932 -0.9081  0.4316 -0.4011
 8285SOL    HW136491   4.735   1.802  14.971  0.1889  0.4848 -0.3671
 8285SOL    HW236492   0.053   1.940  14.987 -1.8196  2.9344 -1.6712
 8286SOL     OW36493   0.691   1.696  17.031  0.0646  0.0782  0.3947
 8286SOL    HW136494   0.662   1.614  16.992 -1.0270 -0.2949  2.0269
 8286SOL    HW236495   0.785   1.680  17.039  0.0053 -1.8175 -2.7437
 8287SOL     OW36496   0.971   3.121   2.120  0.4152  0.3566 -0.6519
 8287SOL    HW136497   1.050   3.152   2.164 -0.3800  2.0436 -0.4151
 8287SOL    HW236498   0.964   3.032   2.152  0.7477  0.9067  0.9276
 8288SOL     OW36499   1.572   3.545   5.859  0.6816 -0.4286  0.3872
 8288SOL    HW136500   1.602   3.633   5.880 -0.0618 -0.2308  0.6285
 8288SOL    HW236501   1.488   3.553   5.813  0.0646  0.8071  1.7437
 8289SOL     OW36502   1.394   2.201   1.757 -0.1806 -0.4529 -0.3530
 8289SOL    HW136503   1.332   2.196   1.684  0.8046  2.5222 -1.3869
 8289SOL    HW236504   1.340   2.239   1.827  0.5905  0.6597 -0.3665
 8290SOL     OW36505   1.265   3.574   4.242  0.4476  0.2295 -0.4746
 8290SOL    HW136506   1.295   3.612   4.160  0.9534  0.2301 -0.2891
 8290SOL    HW236507   1.322   3.618   4.305  0.9702 -0.2230 -0.6257
 8291SOL     OW36508   1.645   3.220   2.448  0.6545 -0.0340 -0.1071
 8291SOL    HW136509   1.671   3.302   2.488 -1.4994  2.2167 -3.2798
 8291SOL    HW236510   1.703   3.214   2.372 -0.8244 -2.4319 -1.0634
 8292SOL     OW36511   0.603   1.460  15.796 -0.0057 -0.0595  0.1273
 8292SOL    HW136512   0.671   1.427  15.738 -0.4377 -1.2735  0.3053
 8292SOL    HW236513   0.622   1.553  15.784  1.2029 -0.0501  2.0966
 8293SOL     OW36514   2.753   3.116  10.250  0.0883 -0.2775 -0.2173
 8293SOL    HW136515   2.831   3.161  10.281  1.0662  0.2233 -3.4350
 8293SOL    HW236516   2.782   3.025  10.252  0.2367 -0.2160  0.3718
 8294SOL     OW36517   0.779   3.042   3.219  0.0747 -0.3869  0.0993
 8294SOL    HW136518   0.832   3.100   3.274 -1.9962  0.8976  0.7066
 8294SOL    HW236519   0.751   3.100   3.148 -0.1443  0.3719  0.7980
 8295SOL     OW36520   1.568   1.372   6.809 -0.0117  0.6550 -0.5106
 8295SOL    HW136521   1.639   1.344   6.867 -1.7850 -0.1451  1.2842
 8295SOL    HW236522   1.599   1.459   6.783  1.2412  0.7796  1.3675
 8296SOL     OW36523   2.293   0.304   7.255  0.3505 -0.8385 -0.5482
 8296SOL    HW136524   2.215   0.249   7.249 -0.2882 -0.0340  0.3996
 8296SOL    HW236525   2.289   0.360   7.177  1.0755 -1.7677 -1.2579
 8297SOL     OW36526   3.953   4.626   7.955 -0.1395  0.3142  0.0215
 8297SOL    HW136527   4.042   4.602   7.929 -0.3096  0.5395 -0.7425
 8297SOL    HW236528   3.918   4.539   7.973  0.6153  0.1654  0.7718
 8298SOL     OW36529   4.289   3.739  10.992 -0.4553 -0.1227  0.7408
 8298SOL    HW136530   4.225   3.720  11.061  1.1003  0.3153  2.2911
 8298SOL    HW236531   4.271   3.831  10.976  0.0726 -0.7464 -3.5992
 8299SOL     OW36532   2.835   0.892   1.978  0.4755  0.0609 -0.3179
 8299SOL    HW136533   2.861   0.808   1.941 -0.2102  0.8023 -2.4621
 8299SOL    HW236534   2.832   0.947   1.901  1.4513 -1.2454 -1.2976
 8300SOL     OW36535   2.941   2.028   1.841  0.5742 -0.0972  0.0291
 8300SOL    HW136536   2.940   1.934   1.821 -1.2407 -0.3800  1.4773
 8300SOL    HW236537   2.846   2.033   1.849  0.5175  0.7257 -1.1480
 8301SOL     OW36538   4.014   0.440  16.875 -0.0501 -0.2655  0.3608
 8301SOL    HW136539   3.999   0.364  16.819 -0.8757  1.9039 -2.3882
 8301SOL    HW236540   3.941   0.426  16.935  2.0246  0.1064  2.9667
 8302SOL     OW36541   2.704   0.192   2.345 -0.3798 -0.0766  0.2780
 8302SOL    HW136542   2.611   0.174   2.361 -0.4376 -0.7591 -0.8386
 8302SOL    HW236543   2.745   0.130   2.405  0.7079  0.3386 -0.0276
 8303SOL     OW36544   3.019   3.484  11.786 -0.4823 -0.2164  0.0041
 8303SOL    HW136545   3.047   3.516  11.873  0.5830 -1.3122  0.0567
 8303SOL    HW236546   2.938   3.535  11.782  0.9292  2.2891  2.8458
 8304SOL     OW36547   0.513   3.042   7.309  0.0085  0.2418  0.0808
 8304SOL    HW136548   0.593   3.018   7.356 -0.2466  0.6503  0.7270
 8304SOL    HW236549   0.472   2.956   7.303  1.1763 -0.3114 -0.0736
 8305SOL     OW36550   0.022   4.337   2.418  0.0007  0.4884  0.4233
 8305SOL    HW136551   0.066   4.419   2.395 -0.0564 -0.0698 -1.7351
 8305SOL    HW236552   0.102   4.290   2.439 -0.0461 -0.7195 -2.1386
 8306SOL     OW36553   2.664   2.611   2.469 -0.4047  0.0193 -0.5657
 8306SOL    HW136554   2.663   2.529   2.518  0.3971  0.4870  0.2320
 8306SOL    HW236555   2.748   2.646   2.498 -0.0868 -0.1250 -1.3062
 8307SOL     OW36556   3.288   0.045   8.860 -0.1972  0.6645 -0.3200
 8307SOL    HW136557   3.260   0.137   8.858 -0.8588  0.4339 -1.9359
 8307SOL    HW236558   3.376   0.052   8.825 -0.0604 -1.2147 -0.3244
 8308SOL     OW36559   3.129   0.545   8.743  0.4292 -0.2022  0.5015
 8308SOL    HW136560   3.140   0.489   8.820 -0.5812  1.8443  2.1558
 8308SOL    HW236561   3.112   0.629   8.786  0.1998 -0.5555  1.1018
 8309SOL     OW36562   4.513   0.158   4.194 -0.1249  0.6948  0.4861
 8309SOL    HW136563   4.515   0.063   4.186  3.5271  0.9332 -1.3931
 8309SOL    HW236564   4.494   0.188   4.106 -0.9524  1.2629  0.8566
 8310SOL     OW36565   1.943   0.578   7.990 -0.4126 -0.4150 -0.0042
 8310SOL    HW136566   1.860   0.532   7.996  1.4625 -3.7938  0.3999
 8310SOL    HW236567   1.966   0.600   8.081 -1.6969  0.7465  0.0205
 8311SOL     OW36568   1.353   4.188   9.219  0.7236 -0.3717  0.2365
 8311SOL    HW136569   1.369   4.277   9.250 -0.7562 -0.1427  0.3512
 8311SOL    HW236570   1.373   4.133   9.294  1.1749 -0.8480 -0.2337
 8312SOL     OW36571   1.167   2.230   6.528 -0.0582  0.1787  0.3517
 8312SOL    HW136572   1.078   2.250   6.498 -0.7512 -2.7137  0.5157
 8312SOL    HW236573   1.184   2.294   6.598  0.4585  0.5763 -0.1410
 8313SOL     OW36574   1.018   0.637   3.053 -0.1525 -0.3461  0.1085
 8313SOL    HW136575   0.965   0.563   3.082 -1.4903  0.8372  0.6836
 8313SOL    HW236576   1.102   0.591   3.047 -0.4172 -0.6505 -1.2964
 8314SOL     OW36577   0.438   3.936  13.916  0.2043  0.3453 -0.0035
 8314SOL    HW136578   0.379   3.866  13.942  0.3690 -0.2890 -1.3993
 8314SOL    HW236579   0.419   3.992  13.992 -0.2540 -0.7572  0.6928
 8315SOL     OW36580   0.384   0.394  11.337 -0.4295  0.2578 -0.2971
 8315SOL    HW136581   0.340   0.346  11.407  2.2635 -2.0396 -0.1698
 8315SOL    HW236582   0.440   0.326  11.299  1.8822  1.6951  0.4888
 8316SOL     OW36583   1.544   2.760   1.816 -0.0280 -0.3575 -0.0438
 8316SOL    HW136584   1.544   2.665   1.819  2.4685 -0.4416 -2.5279
 8316SOL    HW236585   1.590   2.770   1.733  1.3885  0.9713  0.8968
 8317SOL     OW36586   3.749   4.664   1.876  0.6144  0.5143 -0.7100
 8317SOL    HW136587   3.738   4.710   1.959  2.9941  0.5175 -0.3981
 8317SOL    HW236588   3.663   4.683   1.839  1.1129  0.9320 -1.6786
 8318SOL     OW36589   4.095   0.720   0.241  0.6871 -0.5788  1.0510
 8318SOL    HW136590   4.047   0.767   0.310  0.8002  2.4271 -0.9359
 8318SOL    HW236591   4.186   0.721   0.271  0.2256 -0.8850  2.4603
 8319SOL     OW36592   0.119   3.257   3.433 -0.3682  0.2591 -0.5024
 8319SOL    HW136593   0.156   3.295   3.354 -1.4723  1.8340 -0.2653
 8319SOL    HW236594   0.025   3.272   3.419 -0.7317 -0.8150  0.7705
 8320SOL     OW36595   3.211   4.288   6.976 -0.4472 -0.7341  0.9981
 8320SOL    HW136596   3.177   4.230   7.044 -2.2793 -0.2064  0.5450
 8320SOL    HW236597   3.233   4.227   6.906 -0.0957  2.9191 -2.1090
 8321SOL     OW36598   4.493   1.143   3.704 -0.0361  0.4938  0.2843
 8321SOL    HW136599   4.400   1.155   3.685 -0.0065 -0.2914 -0.3794
 8321SOL    HW236600   4.538   1.186   3.632 -1.0504  1.5163  0.2676
 8322SOL     OW36601   2.607   0.354   4.963  0.1363  0.1576 -0.0783
 8322SOL    HW136602   2.536   0.293   4.940  1.1549 -1.1251  0.1472
 8322SOL    HW236603   2.551   0.431   4.974 -0.3608  0.2456 -3.2909
 8323SOL     OW36604   2.815   1.529   3.599  0.4300 -0.2381 -0.2363
 8323SOL    HW136605   2.901   1.570   3.608  0.4750 -0.6031  1.0041
 8323SOL    HW236606   2.758   1.589   3.647  1.4371  0.4965  0.0536
 8324SOL     OW36607   0.057   2.079   1.809 -0.2327  0.4273  0.4319
 8324SOL    HW136608   0.075   2.131   1.731  0.6861  0.8112  0.8981
 8324SOL    HW236609   0.045   1.993   1.771  0.4934 -0.5477  2.3921
 8325SOL     OW36610   3.509   3.662   1.057  0.4744  0.1435 -0.4627
 8325SOL    HW136611   3.572   3.726   1.026  0.9480 -0.0917  0.0064
 8325SOL    HW236612   3.447   3.677   0.986 -0.8014  2.1373  1.0416
 8326SOL     OW36613   3.063   3.095   3.092  0.1289  0.1493 -0.0478
 8326SOL    HW136614   3.049   3.001   3.090  2.2400 -0.2153  3.0017
 8326SOL    HW236615   3.075   3.096   3.187 -0.6335 -1.8188  0.0732
 8327SOL     OW36616   0.654   2.066   2.092  0.2348 -0.2391 -0.4867
 8327SOL    HW136617   0.702   2.144   2.121 -0.8283  0.7619 -1.4394
 8327SOL    HW236618   0.706   2.026   2.023  1.0640  0.6311 -0.3702
 8328SOL     OW36619   4.346   3.419  14.785 -0.6976  0.3178  0.0608
 8328SOL    HW136620   4.270   3.411  14.728  1.4054 -0.5904 -2.6201
 8328SOL    HW236621   4.408   3.374  14.728 -0.3674  1.1798 -0.2532
 8329SOL     OW36622   2.916   0.141   7.003  0.1051 -0.6781 -0.1510
 8329SOL    HW136623   2.840   0.157   6.946 -0.8858 -1.7541  0.8900
 8329SOL    HW236624   2.874   0.151   7.088 -0.7931 -0.5143 -0.6163
 8330SOL     OW36625   2.915   2.773   4.508  0.1919 -0.0165 -0.6831
 8330SOL    HW136626   3.009   2.773   4.525  0.3779 -2.3604 -1.5937
 8330SOL    HW236627   2.885   2.762   4.598  0.6773  0.8808 -0.4164
 8331SOL     OW36628   3.442   4.441  15.083 -0.7101  0.3045  0.5581
 8331SOL    HW136629   3.463   4.367  15.139  0.3358 -1.1752 -1.7682
 8331SOL    HW236630   3.522   4.493  15.076 -2.0714  2.3852  0.3746
 8332SOL     OW36631   0.199   0.424  17.101  0.5029 -0.5807 -0.0130
 8332SOL    HW136632   0.144   0.449  17.176 -0.2598 -2.0571 -0.0810
 8332SOL    HW236633   0.262   0.369  17.147  1.0793  0.4655  0.4515
 8333SOL     OW36634   2.445   0.100   8.811  0.1136  0.6186  0.3343
 8333SOL    HW136635   2.412   0.172   8.757 -0.1806  0.0669 -0.2246
 8333SOL    HW236636   2.446   0.152   8.891 -0.5939 -0.0903  0.8108
 8334SOL     OW36637   4.616   4.051   3.169 -0.0962 -0.5429 -0.1059
 8334SOL    HW136638   4.635   4.070   3.077 -3.7602 -1.1041 -0.9720
 8334SOL    HW236639   4.532   4.005   3.166 -0.0390 -0.8231  1.9914
 8335SOL     OW36640   0.052   4.247   6.305 -0.1956  0.2055  0.0625
 8335SOL    HW136641   0.080   4.281   6.391 -0.7076  1.1468 -0.1421
 8335SOL    HW236642   0.132   4.204   6.275  0.5864  0.3551  1.9007
 8336SOL     OW36643   3.900   2.246  16.592 -0.6395 -0.4882  0.7649
 8336SOL    HW136644   3.886   2.199  16.510  0.1003 -0.1837  0.4688
 8336SOL    HW236645   3.808   2.266  16.611  0.0294  2.6700  0.6277
 8337SOL     OW36646   3.081   4.681   4.009  0.5048 -0.2131  0.3855
 8337SOL    HW136647   3.153   4.712   3.954 -0.7856  0.8949 -0.6599
 8337SOL    HW236648   3.031   4.624   3.951  1.0777  0.9167 -1.2269
 8338SOL     OW36649   4.133   2.092   6.175 -0.3035  0.0582  0.1366
 8338SOL    HW136650   4.111   2.054   6.259 -0.4792 -2.8760 -1.2211
 8338SOL    HW236651   4.046   2.120   6.148  0.4096  2.6233  0.5300
 8339SOL     OW36652   1.088   0.958   7.663 -0.0255 -0.1097  0.2175
 8339SOL    HW136653   1.123   0.970   7.752 -0.2222  0.5586  0.2050
 8339SOL    HW236654   1.072   1.043   7.623 -2.9393  0.2190  2.0852
 8340SOL     OW36655   1.586   2.503   9.698  0.0999  0.4549 -0.6664
 8340SOL    HW136656   1.618   2.426   9.745 -2.0977  0.2819  0.5650
 8340SOL    HW236657   1.496   2.508   9.731  1.0340 -0.3656  1.9732
 8341SOL     OW36658   4.295   3.973   2.890 -0.1037 -0.4160  0.3080
 8341SOL    HW136659   4.347   4.020   2.824 -0.7565 -3.1261 -2.1307
 8341SOL    HW236660   4.225   4.036   2.908 -0.5979 -0.3279 -1.8949
 8342SOL     OW36661   0.194   2.602   1.173 -0.4355 -0.6551 -0.2667
 8342SOL    HW136662   0.118   2.631   1.224  0.5430  0.6136  0.4880
 8342SOL    HW236663   0.165   2.631   1.087  0.8470  0.5513 -0.2975
 8343SOL     OW36664   2.502   1.620  15.224  0.0145 -0.1699  0.5939
 8343SOL    HW136665   2.492   1.700  15.172 -0.5723 -0.3491  0.4220
 8343SOL    HW236666   2.415   1.585  15.206 -0.0033  1.0230 -1.6339
 8344SOL     OW36667   2.629   1.486  11.851 -0.1509  0.3288  0.3605
 8344SOL    HW136668   2.640   1.568  11.803  0.7735 -0.3550 -0.5922
 8344SOL    HW236669   2.717   1.449  11.855  0.5760  2.0893  0.6130
 8345SOL     OW36670   1.523   0.811   1.613 -0.7308  0.2286 -0.1481
 8345SOL    HW136671   1.584   0.843   1.679  0.7390 -1.5099 -0.6661
 8345SOL    HW236672   1.477   0.741   1.660  0.3616 -0.7653 -0.5572
 8346SOL     OW36673   0.748   3.401   1.727 -0.3022 -0.9561  0.8416
 8346SOL    HW136674   0.659   3.435   1.742 -0.1201 -0.3975  0.6633
 8346SOL    HW236675   0.751   3.331   1.792  0.5257 -0.1438  1.6752
 8347SOL     OW36676   1.943   3.919   5.621  0.6455 -0.2765 -0.8131
 8347SOL    HW136677   1.955   3.916   5.526  1.2256  2.4183 -0.8254
 8347SOL    HW236678   1.848   3.921   5.618  0.5760 -1.7425  0.6826
 8348SOL     OW36679   3.916   2.772   5.344 -0.7654  0.3132  0.0685
 8348SOL    HW136680   3.895   2.697   5.289  4.2049 -0.7494 -0.3980
 8348SOL    HW236681   3.847   2.837   5.329 -1.2593 -0.4615 -1.0564
 8349SOL     OW36682   3.600   3.502   6.427  0.0388 -0.4145  0.2946
 8349SOL    HW136683   3.541   3.431   6.449 -0.1908 -0.6216 -1.0036
 8349SOL    HW236684   3.578   3.520   6.336  0.8402 -0.7282  0.0406
 8350SOL     OW36685   0.108   2.951   1.582  0.0369 -0.3323  0.0795
 8350SOL    HW136686   0.125   2.957   1.488 -0.7601  0.2142 -0.0294
 8350SOL    HW236687   0.152   2.871   1.610 -0.4155  0.4134  2.9872
 8351SOL     OW36688   2.828   2.355   1.945 -0.1073 -0.2763  0.2431
 8351SOL    HW136689   2.751   2.412   1.940 -0.6842 -0.9902  1.0253
 8351SOL    HW236690   2.823   2.310   2.029  1.7167 -1.5513 -0.3388
 8352SOL     OW36691   1.665   1.712  12.357 -0.7387  0.2631  0.2962
 8352SOL    HW136692   1.738   1.664  12.396 -0.4129 -0.4588 -1.1905
 8352SOL    HW236693   1.600   1.710  12.427 -0.6504  1.2274  0.4027
 8353SOL     OW36694   1.726   2.158   4.331  0.2771 -0.4295  0.0935
 8353SOL    HW136695   1.729   2.251   4.353  1.0679 -1.0203  2.4892
 8353SOL    HW236696   1.816   2.154   4.299  0.7554  0.3716  1.3423
 8354SOL     OW36697   3.866   1.659   1.022 -0.5420 -0.5708  0.1279
 8354SOL    HW136698   3.801   1.729   1.021 -0.2685 -0.3323 -0.8215
 8354SOL    HW236699   3.900   1.654   0.933 -0.0051  0.8804  0.2533
 8355SOL     OW36700   3.576   3.530   5.089  0.0685 -0.4907 -0.0581
 8355SOL    HW136701   3.531   3.613   5.100 -0.5201 -0.9520  0.9224
 8355SOL    HW236702   3.663   3.560   5.116 -0.8565  1.7139  0.4082
 8356SOL     OW36703   1.902   4.154   3.075 -0.3747  0.3970 -0.3539
 8356SOL    HW136704   1.850   4.233   3.056  0.1439  0.3983 -1.7730
 8356SOL    HW236705   1.917   4.163   3.169 -1.1665  2.5220 -0.4118
 8357SOL     OW36706   2.594   0.109   5.548 -0.6726  0.2622  0.3866
 8357SOL    HW136707   2.562   0.194   5.577 -1.9484 -0.0107 -0.2384
 8357SOL    HW236708   2.648   0.080   5.622 -0.1049  0.1696 -0.0666
 8358SOL     OW36709   0.996   1.123  15.115  0.1933 -0.3685  0.1633
 8358SOL    HW136710   1.068   1.084  15.066  1.4496  1.2123  0.7565
 8358SOL    HW236711   0.928   1.098  15.052  1.8717 -0.3397 -1.6643
 8359SOL     OW36712   3.803   3.470  12.815  0.0059  0.1375  0.1699
 8359SOL    HW136713   3.749   3.546  12.796 -2.2439 -1.4493  0.3194
 8359SOL    HW236714   3.870   3.493  12.750  1.2942 -0.0447  1.4317
 8360SOL     OW36715   4.079   3.972   6.681 -0.1155 -0.3721 -0.0916
 8360SOL    HW136716   4.105   3.911   6.613 -1.3364  0.3514 -1.2139
 8360SOL    HW236717   3.997   4.004   6.643 -0.5245 -0.3483  0.8122
 8361SOL     OW36718   2.973   3.331   8.181  0.0604  0.0999 -0.7291
 8361SOL    HW136719   3.035   3.300   8.246 -0.2393  2.9877  0.9686
 8361SOL    HW236720   3.019   3.316   8.099 -0.3149 -0.5048 -0.8289
 8362SOL     OW36721   0.124   0.668  15.257  0.4583  0.2280  1.1580
 8362SOL    HW136722   0.066   0.596  15.234  2.1577 -0.9064  0.4037
 8362SOL    HW236723   0.103   0.671  15.350 -2.0027 -2.2178  0.6612
 8363SOL     OW36724   1.933   2.760   8.221  0.3293 -0.3463  0.4524
 8363SOL    HW136725   1.946   2.688   8.282 -0.3362 -0.9270 -0.0861
 8363SOL    HW236726   1.979   2.832   8.263 -1.0442  0.5663  0.4057
 8364SOL     OW36727   4.648   1.751   2.014 -0.1209  0.2469  0.0731
 8364SOL    HW136728   4.737   1.770   1.984 -0.3335  2.0789  0.5742
 8364SOL    HW236729   4.663   1.731   2.107 -1.1056 -2.7196 -0.4096
 8365SOL     OW36730   1.334   3.051   3.213 -0.3282  0.6404  0.1067
 8365SOL    HW136731   1.335   3.000   3.295  0.0285  0.9463  0.2918
 8365SOL    HW236732   1.239   3.059   3.204 -0.8379 -1.6821  3.2251
 8366SOL     OW36733   3.949   2.638   3.642  0.8269  0.1058 -0.0614
 8366SOL    HW136734   3.946   2.647   3.547  1.9946 -2.0335 -0.3223
 8366SOL    HW236735   3.991   2.721   3.663  1.8174 -0.9065  1.9456
 8367SOL     OW36736   0.537   3.644  14.621 -0.2528  0.5393 -0.5249
 8367SOL    HW136737   0.498   3.730  14.636  1.7408  1.5825 -1.3354
 8367SOL    HW236738   0.628   3.664  14.601 -0.0841  0.9265  0.6057
 8368SOL     OW36739   2.610   4.157   3.167  0.5286 -0.0579 -0.1818
 8368SOL    HW136740   2.687   4.103   3.184  0.5342 -0.4192 -1.3422
 8368SOL    HW236741   2.560   4.092   3.116  0.7761 -1.0468  0.8485
 8369SOL     OW36742   3.282   2.581   5.819 -0.4588  0.4776  0.2658
 8369SOL    HW136743   3.369   2.601   5.853 -0.6480  0.0504  1.0099
 8369SOL    HW236744   3.227   2.568   5.896 -1.0483 -1.6139 -0.5277
 8370SOL     OW36745   4.489   4.386   4.769  0.3220  0.5108  0.2546
 8370SOL    HW136746   4.512   4.419   4.856  0.5951  0.9326  0.0223
 8370SOL    HW236747   4.396   4.377   4.792  0.4139 -1.3020 -0.0734
 8371SOL     OW36748   1.968   3.460   1.257 -0.4478  0.1337 -0.6594
 8371SOL    HW136749   2.041   3.453   1.196  0.0443 -1.8459  0.1365
 8371SOL    HW236750   1.938   3.369   1.263 -0.8537  0.3440  0.5040
 8372SOL     OW36751   0.249   0.930   4.846  0.6695  0.1724  0.4282
 8372SOL    HW136752   0.313   0.879   4.797  1.6336  2.0720 -0.2685
 8372SOL    HW236753   0.290   0.949   4.931 -0.7652  1.5373  0.8266
 8373SOL     OW36754   3.790   4.218   8.205 -0.1264  0.4800 -0.2116
 8373SOL    HW136755   3.711   4.238   8.256 -0.7908 -1.0191 -0.6533
 8373SOL    HW236756   3.771   4.126   8.186 -1.1008  0.5406  0.4774
 8374SOL     OW36757   0.638   2.987   6.280 -0.0618 -0.2428 -0.2749
 8374SOL    HW136758   0.545   2.970   6.293 -0.3328 -0.2729 -2.2535
 8374SOL    HW236759   0.682   2.902   6.292 -0.4309 -0.0904  2.1955
 8375SOL     OW36760   0.776   1.887   9.034  0.1397 -0.2147  0.3954
 8375SOL    HW136761   0.815   1.827   8.970 -0.5942 -1.9437  1.5684
 8375SOL    HW236762   0.684   1.863   9.023 -0.0606  1.5252 -1.7585
 8376SOL     OW36763   3.484   2.437   6.813  0.1782 -0.0686  0.0970
 8376SOL    HW136764   3.435   2.388   6.879 -1.7124 -1.3494 -2.2600
 8376SOL    HW236765   3.549   2.479   6.870 -1.4487  3.8994 -0.9422
 8377SOL     OW36766   2.830   1.990   6.638 -0.1557 -0.0437  0.0889
 8377SOL    HW136767   2.769   2.013   6.568 -0.3236  1.2059  0.6510
 8377SOL    HW236768   2.889   1.928   6.594 -0.1483  0.1727 -0.2046
 8378SOL     OW36769   2.146   4.128   6.196  0.0940 -0.2397  0.1122
 8378SOL    HW136770   2.129   4.077   6.117  0.7217 -0.5725  0.1954
 8378SOL    HW236771   2.192   4.205   6.162  0.8063 -0.9628 -0.5594
 8379SOL     OW36772   4.093   0.519   8.102 -0.3825 -0.4086 -0.0383
 8379SOL    HW136773   4.125   0.581   8.036 -1.0847  0.2064  0.1961
 8379SOL    HW236774   4.022   0.471   8.058  0.1033  0.9651 -2.3573
 8380SOL     OW36775   4.549   0.557   5.654 -0.0669 -0.4135  0.3644
 8380SOL    HW136776   4.462   0.584   5.626 -0.5087  0.9349  2.9923
 8380SOL    HW236777   4.566   0.500   5.579  2.7076 -0.2035  0.8429
 8381SOL     OW36778   1.172   1.122   2.603  0.2575  0.1705  0.6247
 8381SOL    HW136779   1.098   1.092   2.550 -1.4835  2.4911  1.7454
 8381SOL    HW236780   1.241   1.122   2.537  1.0745 -1.2342  1.4856
 8382SOL     OW36781   4.043   1.451   8.462  0.5908  0.5440  0.1285
 8382SOL    HW136782   4.105   1.477   8.530  0.0238  3.2262 -0.3651
 8382SOL    HW236783   3.959   1.463   8.506  0.2573 -0.1255 -0.3326
 8383SOL     OW36784   3.576   1.691   3.985  0.4923  0.2575  0.1419
 8383SOL    HW136785   3.602   1.774   3.945 -1.2514 -1.0149 -3.6200
 8383SOL    HW236786   3.565   1.635   3.908 -0.7296 -0.0981  0.5738
 8384SOL     OW36787   0.597   3.230   3.113 -0.3023 -0.0769  0.1112
 8384SOL    HW136788   0.546   3.311   3.108  0.7457  0.4395 -2.3631
 8384SOL    HW236789   0.658   3.250   3.042  0.1615 -2.8069 -0.2346
 8385SOL     OW36790   3.446   1.114   8.396 -0.5119  0.1269 -0.1331
 8385SOL    HW136791   3.445   1.022   8.370 -0.0480  0.4332 -1.2365
 8385SOL    HW236792   3.472   1.158   8.315  0.5082  1.4135  0.8874
 8386SOL     OW36793   2.542   3.341   3.572 -0.4414 -0.0352  0.2647
 8386SOL    HW136794   2.505   3.409   3.516 -0.1174 -0.8211 -0.8933
 8386SOL    HW236795   2.606   3.393   3.622 -0.0686 -0.4089  0.1761
 8387SOL     OW36796   3.243   2.047   1.320 -0.4149  0.3022  0.4125
 8387SOL    HW136797   3.195   2.011   1.395 -1.2446  0.4027 -0.0698
 8387SOL    HW236798   3.299   2.116   1.355 -0.0666  0.3776 -0.2822
 8388SOL     OW36799   3.425   2.322  16.862 -0.2453 -0.1645  0.0956
 8388SOL    HW136800   3.358   2.390  16.854  1.2455  1.4657  1.6643
 8388SOL    HW236801   3.494   2.378  16.898 -1.7247  1.6790  0.0755
 8389SOL     OW36802   3.686   1.159   2.437  0.7299  0.5285 -0.2483
 8389SOL    HW136803   3.662   1.089   2.498 -2.0127  1.5873 -0.0927
 8389SOL    HW236804   3.675   1.237   2.492 -1.0900  0.1564 -0.0646
 8390SOL     OW36805   2.051   4.138  12.117 -0.0994  0.2289 -0.5876
 8390SOL    HW136806   2.026   4.211  12.174  0.1519 -0.2439  0.1310
 8390SOL    HW236807   2.125   4.101  12.166 -1.7297 -1.9438  0.2127
 8391SOL     OW36808   2.125   2.229   4.435  0.3056  0.0767  0.8023
 8391SOL    HW136809   2.123   2.174   4.356 -1.1459  0.5684  0.4957
 8391SOL    HW236810   2.189   2.293   4.405  1.2978 -2.2101 -1.9419
 8392SOL     OW36811   0.110   4.255  14.905 -0.1092 -0.9435  0.1783
 8392SOL    HW136812   0.082   4.302  14.827  1.3410 -0.3759 -0.0098
 8392SOL    HW236813   0.180   4.310  14.940 -0.2349 -1.5025  1.3094
 8393SOL     OW36814   4.054   0.054   2.986 -0.1911 -0.6180 -0.1153
 8393SOL    HW136815   3.985   4.730   3.007  1.0532 -1.7732  0.4064
 8393SOL    HW236816   4.113   0.008   2.927  0.4742  2.1061 -1.5684
 8394SOL     OW36817   2.596   2.030  13.336  0.0138 -0.1690 -0.1324
 8394SOL    HW136818   2.604   2.042  13.430 -3.5084 -0.1231  0.1468
 8394SOL    HW236819   2.649   2.102  13.300 -0.7269  0.3957 -0.0982
 8395SOL     OW36820   0.017   1.369   1.432  0.4637  0.1178  0.0790
 8395SOL    HW136821   4.681   1.345   1.378 -0.5395  1.0639  1.0372
 8395SOL    HW236822   4.709   1.420   1.498 -1.5721 -0.6616 -0.7707
 8396SOL     OW36823   4.242   0.699   3.016  0.1181  0.0804 -0.3213
 8396SOL    HW136824   4.293   0.719   3.094 -0.1187 -0.1706 -0.1030
 8396SOL    HW236825   4.295   0.746   2.951  1.8034 -0.1749  0.8519
 8397SOL     OW36826   2.479   0.360   8.936 -0.0407 -0.2207  0.2205
 8397SOL    HW136827   2.480   0.454   8.951  1.9860 -0.3862  1.1484
 8397SOL    HW236828   2.574   0.345   8.935 -0.2527 -1.2123 -2.4181
 8398SOL     OW36829   1.121   1.086  11.417  0.3653  0.0293  0.1609
 8398SOL    HW136830   1.046   1.106  11.360  1.3343 -0.6564 -1.3749
 8398SOL    HW236831   1.093   1.010  11.468 -0.2377 -0.0955 -0.3565
 8399SOL     OW36832   0.579   1.061  15.119 -0.0261  0.2237  0.2451
 8399SOL    HW136833   0.538   1.140  15.086 -0.7085  0.3522  1.3984
 8399SOL    HW236834   0.622   1.090  15.200  0.3511 -0.2775  0.2259
 8400SOL     OW36835   0.683   1.232   0.085 -0.0327  0.4694 -0.2031
 8400SOL    HW136836   0.657   1.321   0.062  0.8407  0.8359  0.2611
 8400SOL    HW236837   0.746   1.249   0.155 -1.6465  0.5193  1.2444
 8401SOL     OW36838   0.572   4.087  16.101 -0.6240 -0.7518  0.3395
 8401SOL    HW136839   0.498   4.148  16.091 -0.0426 -0.0974  0.0473
 8401SOL    HW236840   0.577   4.059  16.010 -0.8876 -0.5252  0.2545
 8402SOL     OW36841   2.870   4.337  12.783  0.0188 -0.2073 -0.0609
 8402SOL    HW136842   2.849   4.413  12.730  1.0943  0.1351 -0.0060
 8402SOL    HW236843   2.946   4.369  12.833  0.7072  0.0416 -1.2670
 8403SOL     OW36844   1.405   1.837  11.724 -0.4737 -0.6490  0.1643
 8403SOL    HW136845   1.420   1.854  11.817 -1.9665 -2.8833  0.8142
 8403SOL    HW236846   1.436   1.915  11.678 -1.3996 -0.0820  0.5007
 8404SOL     OW36847   0.728   4.667  17.324 -0.1779  0.3409  0.3266
 8404SOL    HW136848   0.779   0.005  17.303  0.4486  0.8168  3.5249
 8404SOL    HW236849   0.644   4.702  17.296 -0.6905 -0.9521  0.2166
 8405SOL     OW36850   2.197   4.118   9.605  0.2706 -0.4770  0.3273
 8405SOL    HW136851   2.188   4.023   9.604 -0.8198 -0.3369 -2.2122
 8405SOL    HW236852   2.212   4.131   9.699  0.4414  1.3394  0.0496
 8406SOL     OW36853   2.009   1.356   5.742  0.3760 -0.1044 -0.2200
 8406SOL    HW136854   1.980   1.324   5.828 -1.3085 -3.1031 -1.8834
 8406SOL    HW236855   2.055   1.281   5.704  0.1176 -0.1757 -0.3971
 8407SOL     OW36856   4.016   1.150   8.030 -0.3098  0.0303 -0.1414
 8407SOL    HW136857   3.942   1.119   8.082  0.6686 -1.2548  0.4845
 8407SOL    HW236858   4.087   1.170   8.091  0.0705 -0.2390 -0.4939
 8408SOL     OW36859   1.205   2.663   1.749  0.5236 -0.7925 -0.0155
 8408SOL    HW136860   1.208   2.640   1.656 -0.2532  2.7383 -0.8941
 8408SOL    HW236861   1.281   2.613   1.778 -0.2720 -0.8811  1.8971
 8409SOL     OW36862   2.860   2.876   3.445 -0.1804  0.6181 -0.1722
 8409SOL    HW136863   2.829   2.787   3.429 -1.3015  1.4883 -2.8284
 8409SOL    HW236864   2.784   2.906   3.495  0.5195  2.5149 -0.2411
 8410SOL     OW36865   2.473   4.413   1.062 -0.1778 -0.2022  0.0834
 8410SOL    HW136866   2.493   4.370   0.979 -0.4556  0.4509 -0.3221
 8410SOL    HW236867   2.558   4.455   1.079  0.2216 -0.5613 -1.0264
 8411SOL     OW36868   0.218   1.088   5.322  0.2838  0.8555  0.0453
 8411SOL    HW136869   0.200   1.019   5.385 -1.5229  1.7180  0.4663
 8411SOL    HW236870   0.300   1.052   5.287  0.1198 -0.5738  1.1187
 8412SOL     OW36871   3.559   1.996   8.145  0.1229  0.2786  0.3907
 8412SOL    HW136872   3.567   2.031   8.234  0.2569  4.7912 -1.3600
 8412SOL    HW236873   3.615   2.049   8.088  0.6915  1.5628  2.1296
 8413SOL     OW36874   3.205   3.668  17.039  0.2118  0.2464  0.1311
 8413SOL    HW136875   3.167   3.746  16.999 -4.0916 -2.3774 -0.8301
 8413SOL    HW236876   3.262   3.631  16.970 -0.7589 -0.5570 -0.2467
 8414SOL     OW36877   4.062   1.885   6.347  0.5510 -0.7218  0.1298
 8414SOL    HW136878   4.119   1.850   6.279  0.8872  0.8022 -0.3830
 8414SOL    HW236879   4.094   1.854   6.432 -0.7544 -2.3775 -0.0074
 8415SOL     OW36880   0.715   4.226   3.631 -0.1847  0.5450 -0.2508
 8415SOL    HW136881   0.794   4.276   3.652  0.1123  0.0524 -0.1824
 8415SOL    HW236882   0.696   4.186   3.716  2.7124  2.0848  1.1258
 8416SOL     OW36883   1.929   2.384   9.036  0.1477  0.2365  0.9487
 8416SOL    HW136884   1.897   2.294   9.039 -0.8767  0.6127  1.3771
 8416SOL    HW236885   2.017   2.368   9.071  0.8725  1.3158 -0.3940
 8417SOL     OW36886   3.251   3.584   2.656  0.1554  0.1951 -0.3292
 8417SOL    HW136887   3.306   3.662   2.650  0.1139  0.0175 -3.1670
 8417SOL    HW236888   3.302   3.521   2.604  0.7678 -0.4072  1.0223
 8418SOL     OW36889   3.601   2.362  16.574  0.3222  0.1306 -0.0062
 8418SOL    HW136890   3.605   2.413  16.494 -0.2417  0.9966  0.5085
 8418SOL    HW236891   3.594   2.434  16.637 -1.2737  0.0379 -0.0857
 8419SOL     OW36892   1.349   4.211   8.109  0.2079  0.0337 -0.1325
 8419SOL    HW136893   1.287   4.149   8.072 -1.5225  0.1354  2.5594
 8419SOL    HW236894   1.430   4.197   8.061  2.3870  0.2970  3.4335
 8420SOL     OW36895   1.949   3.422  17.076  0.0519 -0.3822  0.5717
 8420SOL    HW136896   2.043   3.423  17.095 -0.4246 -1.5832  3.0451
 8420SOL    HW236897   1.928   3.515  17.090  0.8547  0.1237 -1.6851
 8421SOL     OW36898   0.894   1.942  15.243 -0.1933  0.0017  0.5574
 8421SOL    HW136899   0.878   1.963  15.334  1.2239  0.3596  0.7200
 8421SOL    HW236900   0.958   2.008  15.216  1.8926 -1.6786  1.3952
 8422SOL     OW36901   1.015   0.275   3.376  0.4276  0.7528  0.3419
 8422SOL    HW136902   1.018   0.313   3.288 -1.6022 -2.0971 -0.9646
 8422SOL    HW236903   0.987   0.349   3.429  0.0615 -0.2024  1.4906
 8423SOL     OW36904   1.199   3.680   3.867  0.2448 -0.0030 -0.1670
 8423SOL    HW136905   1.274   3.697   3.923  0.3719 -0.4517 -0.1957
 8423SOL    HW236906   1.244   3.640   3.793  0.0763 -0.3683 -0.0741
 8424SOL     OW36907   4.563   4.383   9.157 -0.0783 -0.2937 -0.0307
 8424SOL    HW136908   4.557   4.290   9.176  2.7040 -0.8369 -1.8636
 8424SOL    HW236909   4.646   4.408   9.198 -0.6807 -1.3544  1.8152
 8425SOL     OW36910   3.300   3.220   1.737  0.0796  0.0296 -0.2749
 8425SOL    HW136911   3.261   3.220   1.825  2.3749  0.0409  0.7366
 8425SOL    HW236912   3.339   3.134   1.722  0.5892 -0.2588  2.5695
 8426SOL     OW36913   0.146   4.458  16.769  0.7051  0.1764  0.1283
 8426SOL    HW136914   0.206   4.391  16.802  1.7407 -0.1036 -2.3208
 8426SOL    HW236915   0.102   4.489  16.848 -0.8250  1.5490 -1.2739
 8427SOL     OW36916   0.675   1.133   8.652 -0.0780 -0.2137  0.3917
 8427SOL    HW136917   0.730   1.145   8.575 -1.1059  0.5743 -0.2142
 8427SOL    HW236918   0.631   1.053   8.623  1.0037 -0.0317 -1.7432
 8428SOL     OW36919   2.982   2.763   6.421  0.1281  0.6617 -0.1367
 8428SOL    HW136920   2.988   2.854   6.391 -0.6040  0.7515 -0.0327
 8428SOL    HW236921   2.905   2.765   6.478 -1.8274  1.4215 -2.8303
 8429SOL     OW36922   3.700   2.300  13.983  0.0736 -0.2601  0.3637
 8429SOL    HW136923   3.691   2.210  13.951  0.9887  0.6645 -2.5217
 8429SOL    HW236924   3.703   2.360  13.909 -0.9473  0.8041  1.1756
 8430SOL     OW36925   0.890   2.463   7.917  0.3230 -0.2405 -0.4693
 8430SOL    HW136926   0.919   2.379   7.952 -1.9186 -0.5305  0.7354
 8430SOL    HW236927   0.965   2.519   7.935  0.0046  0.1280 -0.2993
 8431SOL     OW36928   2.370   2.058  11.152 -0.4248  0.0837 -0.2906
 8431SOL    HW136929   2.340   2.117  11.083  0.4390  2.3615  1.2713
 8431SOL    HW236930   2.304   2.060  11.222 -2.1206  2.3371 -1.9384
 8432SOL     OW36931   1.485   1.415   3.032 -0.1524  0.1826 -0.5006
 8432SOL    HW136932   1.525   1.387   2.950 -2.4302  0.0770 -1.5693
 8432SOL    HW236933   1.439   1.497   3.012  0.4241  0.7852  0.6634
 8433SOL     OW36934   3.703   4.116   6.856 -0.1277 -0.4971  0.3296
 8433SOL    HW136935   3.777   4.174   6.842  0.7263 -1.1830  2.0194
 8433SOL    HW236936   3.657   4.162   6.925 -1.3057 -0.0366 -0.7583
 8434SOL     OW36937   2.594   1.168   4.876  0.2876 -0.5012 -0.8030
 8434SOL    HW136938   2.598   1.232   4.804  0.8104 -0.5928 -0.8545
 8434SOL    HW236939   2.500   1.172   4.894 -0.2856 -0.5488 -3.7644
 8435SOL     OW36940   4.044   0.253  15.074  0.2165 -0.0129  0.1772
 8435SOL    HW136941   4.041   0.160  15.096  0.9783  0.1900  1.1161
 8435SOL    HW236942   3.969   0.282  15.126 -0.7189  0.6990 -1.5364
 8436SOL     OW36943   1.039   2.744   5.432  0.1386 -0.0161  0.4266
 8436SOL    HW136944   1.057   2.665   5.380  1.2998  0.2646  0.4061
 8436SOL    HW236945   1.125   2.767   5.468 -0.0487  1.1805  0.0974
 8437SOL     OW36946   4.530   1.666   7.943  0.4694  0.3686  0.1554
 8437SOL    HW136947   4.549   1.606   7.871  1.5081  0.0017  0.7269
 8437SOL    HW236948   4.448   1.703   7.911  1.0373  0.9370 -0.6493
 8438SOL     OW36949   2.715   1.036  13.455 -0.1128  0.4338  0.4592
 8438SOL    HW136950   2.758   1.061  13.537 -0.9786  1.1171  0.7013
 8438SOL    HW236951   2.731   1.108  13.394  2.8127 -0.2528  0.3981
 8439SOL     OW36952   0.948   1.665  14.134 -0.0124 -0.2228 -0.1128
 8439SOL    HW136953   1.024   1.684  14.189 -0.0199  0.4983 -0.3539
 8439SOL    HW236954   0.976   1.706  14.052  0.8060  1.2343  0.8911
 8440SOL     OW36955   1.762   0.157   4.265  0.4976 -0.0995  0.9933
 8440SOL    HW136956   1.847   0.126   4.235  0.9972 -2.4041  4.7709
 8440SOL    HW236957   1.792   0.237   4.308  2.0334 -0.9151  1.4476
 8441SOL     OW36958   3.445   3.098   5.543 -0.3057  0.0994 -0.0408
 8441SOL    HW136959   3.459   3.005   5.559 -0.2077  0.1553  0.1997
 8441SOL    HW236960   3.446   3.092   5.448  1.1799  0.3426 -0.0352
 8442SOL     OW36961   2.439   1.147   5.240  0.0580 -0.5983 -0.0256
 8442SOL    HW136962   2.360   1.093   5.241 -0.4642  0.2112  3.9252
 8442SOL    HW236963   2.509   1.081   5.237 -0.2500 -0.9207 -0.1065
 8443SOL     OW36964   2.851   0.103   4.563  0.3585  0.3516 -0.2995
 8443SOL    HW136965   2.795   0.043   4.514  2.9332  0.0354 -2.8440
 8443SOL    HW236966   2.847   0.076   4.655  1.1471 -0.0677 -0.3791
 8444SOL     OW36967   1.614   0.318   8.746  0.3210  0.2671 -0.0757
 8444SOL    HW136968   1.602   0.267   8.825  1.5658 -0.2836 -0.2408
 8444SOL    HW236969   1.521   0.316   8.724  0.5248 -2.0654 -0.6636
 8445SOL     OW36970   3.482   4.735   7.369  0.3777  0.3815 -0.0788
 8445SOL    HW136971   3.438   0.044   7.299 -1.0633 -0.3923  0.2885
 8445SOL    HW236972   3.544   0.062   7.396  2.6258 -0.7695 -2.4600
 8446SOL     OW36973   0.985   0.701   1.860  0.1835 -0.1346  0.0242
 8446SOL    HW136974   0.900   0.677   1.898 -0.0581 -0.6531 -0.8738
 8446SOL    HW236975   1.046   0.640   1.900  0.8305 -0.0057 -0.7872
 8447SOL     OW36976   1.190   3.256  15.276  0.1190 -0.3123  0.0029
 8447SOL    HW136977   1.230   3.307  15.205  0.9715  0.6354  1.1443
 8447SOL    HW236978   1.144   3.194  15.221 -2.8693  1.1696  0.8532
 8448SOL     OW36979   1.840   0.043   3.066  0.3002  0.3893  0.4142
 8448SOL    HW136980   1.906   4.719   3.093  0.7619  1.8992  2.8633
 8448SOL    HW236981   1.774   0.016   3.130 -0.5183 -2.1211 -1.4717
 8449SOL     OW36982   2.094   2.712   3.223 -0.3003 -0.1837 -0.1498
 8449SOL    HW136983   2.169   2.653   3.233  0.0354  0.2845  0.0639
 8449SOL    HW236984   2.119   2.754   3.140 -0.5743 -1.1475 -0.7278
 8450SOL     OW36985   4.394   1.671  14.105  0.0292  0.3931 -0.1482
 8450SOL    HW136986   4.319   1.669  14.045 -0.0051  0.0886 -0.0913
 8450SOL    HW236987   4.351   1.651  14.188  1.8508 -1.6388  0.2923
 8451SOL     OW36988   1.568   2.999   7.754 -0.0318  0.2115  0.0917
 8451SOL    HW136989   1.659   2.985   7.783 -0.1827 -1.1578 -0.0973
 8451SOL    HW236990   1.579   3.050   7.674  0.1804  0.2048  0.1164
 8452SOL     OW36991   1.843   3.450   5.900 -0.2285  0.4451 -0.3168
 8452SOL    HW136992   1.752   3.480   5.906  0.3375  1.9294  0.7563
 8452SOL    HW236993   1.840   3.438   5.805  0.7718 -1.4411 -0.1067
 8453SOL     OW36994   0.839   1.151  16.628  0.2460  0.0196  0.0839
 8453SOL    HW136995   0.875   1.099  16.557 -1.1733 -0.5124 -0.2389
 8453SOL    HW236996   0.797   1.223  16.582  0.6458  1.3532  1.8013
 8454SOL     OW36997   0.522   2.992   0.536  0.1842 -0.2490 -0.3485
 8454SOL    HW136998   0.591   2.937   0.573 -0.2368  0.4501  1.4766
 8454SOL    HW236999   0.485   2.927   0.475 -1.5858  0.5063 -0.0782
 8455SOL     OW37000   2.520   0.530   3.759 -0.1584 -0.0191  0.2159
 8455SOL    HW137001   2.481   0.496   3.679  2.8865 -0.1248 -1.2100
 8455SOL    HW237002   2.442   0.563   3.803 -1.3997 -0.9379 -1.2872
 8456SOL     OW37003   1.990   1.802   1.664 -0.7361  0.1299  0.5186
 8456SOL    HW137004   2.033   1.718   1.650 -0.4093  0.3300  0.3502
 8456SOL    HW237005   1.980   1.842   1.578 -0.5430  0.5594  0.6978
 8457SOL     OW37006   3.175   0.708  12.729 -0.0632 -0.2632  0.4604
 8457SOL    HW137007   3.166   0.626  12.679 -1.9565  0.0744  0.2576
 8457SOL    HW237008   3.205   0.693  12.818 -0.2678 -0.1229  0.5523
 8458SOL     OW37009   2.997   3.023  13.821 -0.1876  0.4048  0.1463
 8458SOL    HW137010   2.949   3.085  13.875 -2.2297  1.9549 -3.4742
 8458SOL    HW237011   2.957   2.944  13.856  2.0022 -0.5672  0.4681
 8459SOL     OW37012   2.382   3.047   5.429 -0.0177 -0.7782  0.1434
 8459SOL    HW137013   2.374   3.090   5.344 -0.1768 -0.5207  0.2888
 8459SOL    HW237014   2.444   3.105   5.474  1.4122  0.5443 -3.4702
 8460SOL     OW37015   1.084   3.538   8.985 -0.1143 -0.0380 -0.1551
 8460SOL    HW137016   1.004   3.576   9.022  0.8490  0.1006  1.7865
 8460SOL    HW237017   1.143   3.567   9.054 -0.8521  1.8115 -0.2891
 8461SOL     OW37018   1.670   3.972   3.095 -0.1087 -0.8331 -0.3993
 8461SOL    HW137019   1.676   4.025   3.015 -0.6148 -0.3286 -0.1039
 8461SOL    HW237020   1.756   3.998   3.126  0.6393 -0.1466 -3.0366
 8462SOL     OW37021   1.169   1.583   6.773  0.3602 -0.0350 -0.0239
 8462SOL    HW137022   1.088   1.543   6.740  0.9418 -1.6581  0.5387
 8462SOL    HW237023   1.209   1.563   6.688  1.1499  1.8565 -0.1035
 8463SOL     OW37024   0.755   2.564   5.998 -0.0774 -0.4510 -0.8712
 8463SOL    HW137025   0.732   2.623   5.926 -0.2319 -0.7617 -1.0718
 8463SOL    HW237026   0.841   2.536   5.967  0.3875  0.6455 -0.5721
 8464SOL     OW37027   4.290   0.504   4.249 -0.1534  0.0776 -0.4184
 8464SOL    HW137028   4.330   0.540   4.329  2.1662 -0.9233 -1.1108
 8464SOL    HW237029   4.370   0.497   4.196 -0.3138  0.0808 -0.6571
 8465SOL     OW37030   0.275   1.066   8.726 -0.0266  0.1297  0.6388
 8465SOL    HW137031   0.189   1.072   8.767 -0.1532 -1.5047  0.6159
 8465SOL    HW237032   0.310   0.984   8.763 -3.2109 -2.0760 -1.2755
 8466SOL     OW37033   3.858   0.762  10.192 -0.4465  0.4266 -0.0974
 8466SOL    HW137034   3.909   0.747  10.272  0.0367  0.0224 -0.4816
 8466SOL    HW237035   3.769   0.784  10.219 -0.3142  0.6194  0.1819
 8467SOL     OW37036   2.127   2.331   9.907 -0.0159 -0.3272 -0.8960
 8467SOL    HW137037   2.141   2.324   9.813 -1.0263  0.3393 -1.0993
 8467SOL    HW237038   2.093   2.247   9.939  2.3631 -1.4488 -1.3198
 8468SOL     OW37039   3.608   4.111   2.162 -0.0175  0.0750  0.3293
 8468SOL    HW137040   3.680   4.062   2.199  1.8055  1.7281 -0.9895
 8468SOL    HW237041   3.657   4.193   2.160  0.4518 -0.2085  0.1554
 8469SOL     OW37042   2.121   2.549  12.496 -0.0342 -0.5114  0.4723
 8469SOL    HW137043   2.061   2.482  12.464 -1.2912  0.2297  1.2836
 8469SOL    HW237044   2.089   2.635  12.469  1.5933  0.4554  1.6237
 8470SOL     OW37045   1.049   3.018   6.121 -0.2236 -0.1943 -0.1183
 8470SOL    HW137046   1.124   3.038   6.178  0.0467  0.1224 -0.5870
 8470SOL    HW237047   0.979   3.052   6.178  0.0557  0.1521  0.0218
 8471SOL     OW37048   3.316   0.548   2.302 -0.5919  0.2853 -0.1102
 8471SOL    HW137049   3.384   0.583   2.360  1.1802 -2.9443 -0.2394
 8471SOL    HW237050   3.276   0.478   2.354  2.2199 -1.5459 -0.4173
 8472SOL     OW37051   0.383   2.813   0.395  0.1824 -0.9842 -0.7745
 8472SOL    HW137052   0.300   2.768   0.378  0.2320 -1.4048  0.0891
 8472SOL    HW237053   0.427   2.805   0.310  1.0034 -2.6353 -0.1997
 8473SOL     OW37054   0.325   4.039  16.563  0.4707 -0.2213  0.3916
 8473SOL    HW137055   0.412   4.019  16.529 -0.0043  0.3122 -1.1410
 8473SOL    HW237056   0.326   4.133  16.544 -1.0374 -0.1684  0.5314
 8474SOL     OW37057   4.055   0.932   7.273  0.5809 -0.1045  0.1360
 8474SOL    HW137058   4.116   0.966   7.339  1.0664  0.1612 -0.4386
 8474SOL    HW237059   4.107   0.916   7.194  1.2298 -0.1643  0.5783
 8475SOL     OW37060   4.597   3.749   5.461  0.5116 -0.0847 -0.1303
 8475SOL    HW137061   4.667   3.813   5.469  0.6645 -0.2889  0.1616
 8475SOL    HW237062   4.574   3.748   5.554  2.0582 -1.3253  0.2480
 8476SOL     OW37063   4.075   0.944   5.217 -0.0746  0.1674  0.3245
 8476SOL    HW137064   4.054   0.985   5.301 -0.3012 -0.4969  0.5952
 8476SOL    HW237065   4.106   0.857   5.244 -0.2511 -0.4036 -1.3372
 8477SOL     OW37066   3.387   2.266  13.254 -0.2125  0.0354  0.6102
 8477SOL    HW137067   3.459   2.274  13.192 -1.8251  0.9848 -1.1546
 8477SOL    HW237068   3.430   2.199  13.308  1.6754  0.3755 -0.4776
 8478SOL     OW37069   2.746   2.758  12.544  1.1786 -0.5597 -0.2361
 8478SOL    HW137070   2.841   2.754  12.535  1.3032  0.5325  0.6568
 8478SOL    HW237071   2.730   2.838  12.593  3.0087  0.6221 -1.5748
 8479SOL     OW37072   2.141   1.122   6.138 -0.5579  0.0106 -0.3549
 8479SOL    HW137073   2.181   1.208   6.148 -1.8091  0.4874  0.5185
 8479SOL    HW237074   2.221   1.069   6.133 -1.3510 -1.2201  0.0320
 8480SOL     OW37075   3.302   0.656   3.235 -0.0593 -0.2581 -0.4910
 8480SOL    HW137076   3.369   0.657   3.303  3.1104 -3.0939 -3.5776
 8480SOL    HW237077   3.292   0.750   3.221 -0.4835 -0.1090  0.8402
 8481SOL     OW37078   2.206   0.331   8.253 -0.2035 -0.4134 -0.1813
 8481SOL    HW137079   2.244   0.283   8.327  0.1600  1.1391  0.6552
 8481SOL    HW237080   2.209   0.269   8.180  0.3556  0.4136 -0.8544
 8482SOL     OW37081   2.337   4.258   6.968  0.1578 -0.0076 -0.2893
 8482SOL    HW137082   2.267   4.323   6.975 -2.3142 -2.6110 -0.2665
 8482SOL    HW237083   2.384   4.287   6.890 -0.8478  1.1499 -0.4552
 8483SOL     OW37084   4.011   3.557  12.613 -0.5050  0.0919 -0.6714
 8483SOL    HW137085   4.033   3.614  12.540  1.0623 -1.1533 -1.1727
 8483SOL    HW237086   4.052   3.475  12.586 -0.2758  0.0528 -0.2098
 8484SOL     OW37087   3.423   3.946   8.254 -0.1906 -0.5364  0.9293
 8484SOL    HW137088   3.445   3.985   8.169  1.4698 -0.9883  1.1461
 8484SOL    HW237089   3.396   3.859   8.224  1.7811 -0.1587 -2.0015
 8485SOL     OW37090   1.385   2.997   2.263  0.1547  0.5498  0.3697
 8485SOL    HW137091   1.407   2.913   2.301 -0.8139  0.4270  0.6582
 8485SOL    HW237092   1.369   2.976   2.171  1.5974  0.9107  0.0406
 8486SOL     OW37093   1.081   2.511   8.783  0.1475  0.5089 -0.4286
 8486SOL    HW137094   1.154   2.477   8.732  0.5632  0.0345  0.4962
 8486SOL    HW237095   1.127   2.549   8.858  2.6272 -2.7468 -0.3366
 8487SOL     OW37096   2.320   0.668   5.283  0.5416  0.0950 -0.2646
 8487SOL    HW137097   2.225   0.680   5.295  0.4594  0.4053 -1.2029
 8487SOL    HW237098   2.305   0.581   5.247 -0.6954  0.5509 -0.8528
 8488SOL     OW37099   2.419   3.506   4.529  0.3092  0.0693  0.1674
 8488SOL    HW137100   2.477   3.452   4.582 -0.2608  0.1881  0.9074
 8488SOL    HW237101   2.470   3.587   4.523 -0.7614  0.7009 -0.3556
 8489SOL     OW37102   3.949   2.970  11.202 -0.8858  0.0289  0.2806
 8489SOL    HW137103   3.934   2.943  11.111 -1.1834  0.9678  0.0449
 8489SOL    HW237104   4.044   2.971  11.200 -0.9038  0.0049 -0.7989
 8490SOL     OW37105   4.508   4.304   7.081 -0.4041  0.2670 -0.0072
 8490SOL    HW137106   4.428   4.354   7.067  0.0287  1.3463  1.3483
 8490SOL    HW237107   4.532   4.270   6.995 -1.3664 -0.6706  0.0940
 8491SOL     OW37108   1.544   3.487   6.125  0.1363  0.3210  0.0944
 8491SOL    HW137109   1.513   3.494   6.034 -0.4736 -0.5947  0.2245
 8491SOL    HW237110   1.595   3.566   6.143  1.0364 -0.1603 -0.3159
 8492SOL     OW37111   4.006   3.014   6.180  0.1776 -0.2191  0.7616
 8492SOL    HW137112   4.048   2.947   6.235  0.5869 -0.6132 -0.0257
 8492SOL    HW237113   4.029   3.100   6.216  1.1334 -0.4776  0.7897
 8493SOL     OW37114   0.536   4.457  15.359  0.2478 -0.5518  0.3590
 8493SOL    HW137115   0.462   4.490  15.308  0.9040  1.6598  0.8674
 8493SOL    HW237116   0.549   4.524  15.426 -0.2367 -2.0239  1.9311
 8494SOL     OW37117   2.562   0.697  16.949  0.5092  0.3002 -0.5373
 8494SOL    HW137118   2.633   0.741  16.997 -0.4807  1.0358  0.2383
 8494SOL    HW237119   2.582   0.714  16.857 -1.5886  0.5808 -0.9265
 8495SOL     OW37120   4.721   3.391   2.309 -0.1850 -0.4203  0.1585
 8495SOL    HW137121   4.686   3.316   2.262 -0.8933  0.9019 -1.4157
 8495SOL    HW237122   0.045   3.347   2.365 -0.7136  0.7705  1.6851
 8496SOL     OW37123   2.759   1.051   9.472  0.1571  1.0565  0.3570
 8496SOL    HW137124   2.726   0.964   9.491  0.7347  0.7633  0.0097
 8496SOL    HW237125   2.682   1.091   9.432  0.5328  0.5031 -0.9035
 8497SOL     OW37126   0.130   4.214   0.725 -0.6144 -0.3488  0.5775
 8497SOL    HW137127   0.186   4.254   0.792  2.1284 -2.6178 -0.3307
 8497SOL    HW237128   0.054   4.270   0.738 -0.5632  0.1067 -1.1614
 8498SOL     OW37129   0.216   3.696   8.557  0.0721 -0.0898 -0.0763
 8498SOL    HW137130   0.133   3.710   8.601  0.3319  0.0953  0.3580
 8498SOL    HW237131   0.277   3.684   8.630 -1.4498 -1.5752  0.9305
 8499SOL     OW37132   3.846   1.218   9.408  0.0588 -0.0452  0.4514
 8499SOL    HW137133   3.880   1.134   9.379 -1.2270 -1.1765  2.2665
 8499SOL    HW237134   3.750   1.214   9.406 -0.1255  3.6030  1.8923
 8500SOL     OW37135   4.595   4.715   1.778 -0.0497  0.2410  0.3170
 8500SOL    HW137136   4.540   0.052   1.760 -0.3448 -0.4408 -1.6560
 8500SOL    HW237137   4.681   0.015   1.764  0.1289  0.2800  1.5346
 8501SOL     OW37138   1.611   0.455   7.476 -0.5178 -0.2458  0.2225
 8501SOL    HW137139   1.595   0.517   7.548  0.0559 -3.5191  3.1749
 8501SOL    HW237140   1.705   0.442   7.475 -0.4858 -0.1683  1.3331
 8502SOL     OW37141   4.058   0.982   6.418  0.4033  0.1456 -0.4927
 8502SOL    HW137142   4.073   1.004   6.327  1.8027 -0.8123 -0.5000
 8502SOL    HW237143   3.986   0.918   6.417 -0.9185  1.6329 -0.5591
 8503SOL     OW37144   2.547   4.661  11.436  0.2547  0.0985  0.1319
 8503SOL    HW137145   2.599   4.632  11.361  1.4124 -1.7038  1.6361
 8503SOL    HW237146   2.602   4.644  11.513  2.3135 -1.5816 -1.7366
 8504SOL     OW37147   0.997   4.623   0.294 -0.5684 -0.4544 -0.4943
 8504SOL    HW137148   0.932   4.583   0.236 -1.2571  1.2870 -0.9484
 8504SOL    HW237149   1.035   4.541   0.324 -1.8669 -1.0129 -0.3696
 8505SOL     OW37150   1.794   2.886   4.142 -0.6305  0.0821 -0.5709
 8505SOL    HW137151   1.742   2.966   4.153  2.8743  1.7733  3.7871
 8505SOL    HW237152   1.740   2.811   4.166 -0.7731  0.0512 -0.9940
 8506SOL     OW37153   1.020   1.159  16.836  0.1459  0.0992  0.5851
 8506SOL    HW137154   0.943   1.165  16.893 -0.3725 -0.0527 -0.0901
 8506SOL    HW237155   0.977   1.142  16.752  0.3912  1.5573  0.1623
 8507SOL     OW37156   2.239   3.932  17.755 -0.5783  0.5177 -0.4151
 8507SOL    HW137157   2.284   3.989  17.692  0.9833  0.2409  0.4355
 8507SOL    HW237158   2.150   3.955  17.729 -2.0348 -4.1381  0.3597
 8508SOL     OW37159   1.387   0.873   8.124  0.4866 -0.3177 -0.3837
 8508SOL    HW137160   1.326   0.846   8.193 -2.5389  0.7883 -2.6456
 8508SOL    HW237161   1.384   0.795   8.068 -1.2917  0.7246 -1.7512
 8509SOL     OW37162   2.789   1.492  13.658  0.0898  0.5634 -0.2469
 8509SOL    HW137163   2.711   1.447  13.625 -0.4451 -0.9687  3.1171
 8509SOL    HW237164   2.759   1.575  13.621 -0.4432  0.9203  0.9667
 8510SOL     OW37165   4.369   0.664  10.264 -0.0724  0.6674  0.0655
 8510SOL    HW137166   4.376   0.724  10.339 -2.1535  0.7602  0.1862
 8510SOL    HW237167   4.297   0.703  10.215 -0.1589  2.7614  1.8272
 8511SOL     OW37168   2.299   4.347   3.737  0.2065  0.1288 -0.3897
 8511SOL    HW137169   2.347   4.273   3.773 -0.1902 -0.2681 -0.6732
 8511SOL    HW237170   2.313   4.333   3.643  3.1820 -1.9051  0.3729
 8512SOL     OW37171   3.407   3.266   5.767  0.1406  0.1113  0.4214
 8512SOL    HW137172   3.340   3.326   5.734 -0.0568 -1.6028 -2.3160
 8512SOL    HW237173   3.429   3.211   5.692 -2.5642 -1.4110  0.7323
 8513SOL     OW37174   1.273   4.347   0.805 -0.7768 -0.1030 -0.1180
 8513SOL    HW137175   1.303   4.410   0.740  1.9434  0.6983  1.9241
 8513SOL    HW237176   1.211   4.394   0.860 -1.9778 -1.0363 -0.6682
 8514SOL     OW37177   0.878   1.656   7.719  0.1619 -0.0893  0.2831
 8514SOL    HW137178   0.921   1.711   7.784 -1.5897  1.1803  0.3721
 8514SOL    HW237179   0.958   1.618   7.682 -1.6895  0.0815 -3.8199
 8515SOL     OW37180   2.309   1.465   6.665 -0.1771 -0.3711 -0.5667
 8515SOL    HW137181   2.247   1.392   6.666  2.6220 -2.7019  1.8002
 8515SOL    HW237182   2.380   1.413   6.626  0.4451  1.2521 -1.5729
 8516SOL     OW37183   1.623   3.733  13.666  0.4388 -0.3408 -0.8796
 8516SOL    HW137184   1.685   3.715  13.736  0.4398  2.7550 -0.0864
 8516SOL    HW237185   1.595   3.644  13.643  0.0243 -0.8033  1.4428
 8517SOL     OW37186   3.941   1.651   6.259  0.3667 -0.5239  0.2155
 8517SOL    HW137187   3.910   1.727   6.309 -0.2160  0.2568 -1.3124
 8517SOL    HW237188   3.960   1.692   6.174 -1.7861  0.4376  0.1957
 8518SOL     OW37189   1.905   0.294  10.071 -0.1723  0.3300  0.4389
 8518SOL    HW137190   1.886   0.202  10.056 -0.0707  0.2538  0.7919
 8518SOL    HW237191   1.899   0.326   9.981  0.3006 -0.0579  0.2713
 8519SOL     OW37192   3.181   0.436   6.627 -0.2888 -0.3079  0.2234
 8519SOL    HW137193   3.090   0.464   6.620  0.2274  1.7438  1.6270
 8519SOL    HW237194   3.182   0.352   6.581 -0.4404  0.2772 -0.8449
 8520SOL     OW37195   3.676   3.355   2.415 -0.4250  0.8403 -0.1975
 8520SOL    HW137196   3.734   3.424   2.448 -1.4358  1.3913  0.4279
 8520SOL    HW237197   3.698   3.358   2.321 -1.1558 -0.6085 -0.4132
 8521SOL     OW37198   3.580   2.602  15.060 -0.3059 -0.1526 -0.3195
 8521SOL    HW137199   3.634   2.655  15.119  0.5832  1.0579 -2.2240
 8521SOL    HW237200   3.643   2.531  15.047 -0.9804 -1.2171  2.3090
 8522SOL     OW37201   1.001   3.677   7.422 -0.3603  0.1825 -0.1295
 8522SOL    HW137202   1.088   3.647   7.395  0.6088  1.5056  1.5243
 8522SOL    HW237203   1.024   3.763   7.457  0.8434 -0.1002 -0.2113
 8523SOL     OW37204   4.053   0.387   2.690 -0.7093 -0.1814  0.3337
 8523SOL    HW137205   4.054   0.340   2.607  0.9327 -0.8149  0.7141
 8523SOL    HW237206   4.099   0.468   2.667  0.3270 -1.2850 -1.4343
 8524SOL     OW37207   2.775   0.932   6.622 -0.0169  0.5074 -0.2335
 8524SOL    HW137208   2.790   1.026   6.606 -0.0579  0.3630 -1.0855
 8524SOL    HW237209   2.723   0.941   6.702  1.1042  0.1166  0.5469
 8525SOL     OW37210   2.098   4.055   8.008  0.3201 -0.1664 -0.0899
 8525SOL    HW137211   2.168   4.046   8.073  0.7533  0.0976 -0.5229
 8525SOL    HW237212   2.149   4.115   7.954 -0.4169  0.5463  0.0040
 8526SOL     OW37213   1.009   4.115   7.818 -0.1001 -0.0847  0.4807
 8526SOL    HW137214   0.953   4.165   7.758 -0.3624 -0.0934  0.7177
 8526SOL    HW237215   0.949   4.072   7.879 -1.8994  1.4044 -0.2535
 8527SOL     OW37216   3.116   0.072   6.862  0.0846 -0.0737  0.5369
 8527SOL    HW137217   3.068   0.035   6.788  1.8833 -2.7517  0.7104
 8527SOL    HW237218   3.045   0.100   6.921 -0.7095  1.0767 -0.9564
 8528SOL     OW37219   0.362   2.233  15.068  0.6996  0.3435 -0.3749
 8528SOL    HW137220   0.438   2.258  15.120  0.2885  2.1287 -0.6144
 8528SOL    HW237221   0.363   2.299  14.998 -0.3425  1.2134  0.4210
 8529SOL     OW37222   1.367   1.873   5.139 -0.0171 -0.1326  0.1412
 8529SOL    HW137223   1.295   1.812   5.157 -0.3510  0.8404  2.1618
 8529SOL    HW237224   1.396   1.856   5.049  0.4231 -1.3930  0.5157
 8530SOL     OW37225   1.909   4.271   9.173  0.0509  0.2357  0.0348
 8530SOL    HW137226   1.937   4.205   9.236 -1.3923  0.9021  1.3725
 8530SOL    HW237227   1.835   4.235   9.125 -0.6485  0.8651  0.6502
 8531SOL     OW37228   3.896   1.811   6.651 -0.0831 -0.4322  0.3745
 8531SOL    HW137229   3.871   1.722   6.677 -0.6317 -0.4949 -0.3759
 8531SOL    HW237230   3.991   1.794   6.648  0.1139  0.5909  0.8958
 8532SOL     OW37231   2.599   0.830   3.512  0.0111  0.0352 -0.0906
 8532SOL    HW137232   2.545   0.755   3.486  1.5579 -0.7478 -1.0636
 8532SOL    HW237233   2.639   0.865   3.432  0.4090 -2.2878 -0.9207
 8533SOL     OW37234   1.289   0.363   3.769 -0.2243  0.1915  0.5669
 8533SOL    HW137235   1.341   0.384   3.847 -0.6086 -0.6447  1.0409
 8533SOL    HW237236   1.316   0.437   3.714 -0.0950 -1.4033 -1.5100
 8534SOL     OW37237   1.519   0.584   5.576 -0.3756  0.4834  0.3331
 8534SOL    HW137238   1.557   0.503   5.609  1.0461  0.5978 -1.0334
 8534SOL    HW237239   1.537   0.582   5.482 -0.0809  1.2189  0.3705
 8535SOL     OW37240   1.820   3.441   3.165  0.0868 -0.4952 -0.6310
 8535SOL    HW137241   1.767   3.519   3.146  2.3660  0.8586 -1.5003
 8535SOL    HW237242   1.818   3.398   3.080 -0.4331  1.8123 -1.7983
 8536SOL     OW37243   4.618   2.949  11.463 -0.9576 -0.2283 -0.1400
 8536SOL    HW137244   4.687   3.004  11.499  0.1897 -0.3476 -2.1554
 8536SOL    HW237245   4.585   2.910  11.544  1.6914  0.3563  1.2142
 8537SOL     OW37246   3.576   4.191   7.528  0.6948  0.0012 -0.2114
 8537SOL    HW137247   3.625   4.120   7.570 -1.5501  0.0152  2.4245
 8537SOL    HW237248   3.570   4.161   7.438 -1.5714 -0.4648  0.0891
 8538SOL     OW37249   4.323   0.610   3.637  0.1632 -0.0457 -0.2766
 8538SOL    HW137250   4.367   0.695   3.641 -0.2777  0.0718  2.3008
 8538SOL    HW237251   4.249   0.620   3.578  0.7922 -3.8536 -1.7179
 8539SOL     OW37252   2.219   1.035   6.924 -0.2926 -0.7159 -0.1869
 8539SOL    HW137253   2.191   0.945   6.904 -2.1438  0.0384 -0.9239
 8539SOL    HW237254   2.146   1.079   6.967  1.6763  3.3968 -1.0756
 8540SOL     OW37255   1.706   2.889   2.248  0.1107  0.1912  0.1579
 8540SOL    HW137256   1.759   2.963   2.277 -1.0274  0.5937  1.1770
 8540SOL    HW237257   1.710   2.896   2.152 -0.5081  0.0878  0.1208
 8541SOL     OW37258   3.109   3.504   4.740  0.3562 -0.7680  0.3168
 8541SOL    HW137259   3.198   3.509   4.708  0.2091  1.6691  0.3196
 8541SOL    HW237260   3.070   3.572   4.685  1.7288  0.3153  0.6949
 8542SOL     OW37261   4.015   4.079   7.048  0.4070  0.1565  0.1908
 8542SOL    HW137262   4.087   4.065   6.987 -0.2795 -1.4860 -0.2348
 8542SOL    HW237263   3.961   4.138   6.994  2.3202 -0.7877 -2.7217
 8543SOL     OW37264   1.053   4.619   7.953  0.8956 -0.4616  0.2660
 8543SOL    HW137265   1.070   4.530   7.984  0.6158 -0.4660  0.4120
 8543SOL    HW237266   1.106   4.614   7.874 -0.0980  1.7589 -0.5452
 8544SOL     OW37267   1.740   0.364   1.960 -0.4500 -0.1107  0.2713
 8544SOL    HW137268   1.767   0.399   1.875  0.4664 -0.2970  0.4955
 8544SOL    HW237269   1.800   0.290   1.966 -0.3129 -0.0402 -0.2016
 8545SOL     OW37270   3.266   2.076   3.203 -0.1845 -0.7466  0.1471
 8545SOL    HW137271   3.217   2.157   3.190  3.4503  1.2831 -1.1538
 8545SOL    HW237272   3.273   2.028   3.120 -1.3483 -0.5917 -0.0344
 8546SOL     OW37273   4.108   1.355   0.176 -0.5252 -0.1019 -1.2029
 8546SOL    HW137274   4.128   1.445   0.154  0.4949 -0.4872 -1.8643
 8546SOL    HW237275   4.020   1.351   0.139 -1.8536  1.5586  1.8396
 8547SOL     OW37276   3.976   2.535   5.972  0.0439 -0.2495  0.3611
 8547SOL    HW137277   3.904   2.485   5.934 -0.1568  0.2326  0.1126
 8547SOL    HW237278   4.047   2.472   5.985  0.3034 -0.1653 -0.6604
 8548SOL     OW37279   1.944   0.776  10.627 -0.0187 -0.3446 -0.2899
 8548SOL    HW137280   1.969   0.694  10.584 -0.6472  0.6482 -2.5468
 8548SOL    HW237281   1.937   0.745  10.718 -0.2624 -2.0795 -0.8989
 8549SOL     OW37282   0.221   1.056   5.877 -0.2408  0.2512 -0.6365
 8549SOL    HW137283   0.201   0.983   5.819  2.9761 -0.2836 -1.0309
 8549SOL    HW237284   0.132   1.065   5.914 -0.8144 -0.5078 -1.8415
 8550SOL     OW37285   4.021   0.522   2.183  0.0154 -0.4144 -0.2789
 8550SOL    HW137286   4.016   0.428   2.166 -0.4505 -0.7525  1.7329
 8550SOL    HW237287   4.050   0.559   2.099  1.2135  0.7924  0.6621
 8551SOL     OW37288   0.653   3.857   5.938 -0.3220 -0.1485  0.0540
 8551SOL    HW137289   0.662   3.776   5.888  0.4870 -0.4262  0.6581
 8551SOL    HW237290   0.558   3.863   5.928  0.1052  1.5231 -3.0595
 8552SOL     OW37291   3.992   1.084   3.476 -0.5205  0.1905  0.3156
 8552SOL    HW137292   3.973   1.150   3.409  0.0980 -0.3545 -0.4048
 8552SOL    HW237293   3.952   1.114   3.557  0.1665  0.2100  0.6456
 8553SOL     OW37294   1.458   4.647   4.378  0.0537  0.1017 -0.1280
 8553SOL    HW137295   1.426   4.737   4.385 -0.7912 -0.1463 -0.7923
 8553SOL    HW237296   1.383   4.594   4.405  2.0459 -1.9468  1.3119
 8554SOL     OW37297   0.849   2.566  16.980  0.3044 -0.2882 -0.3393
 8554SOL    HW137298   0.813   2.652  17.003  0.7146 -0.4382  0.8832
 8554SOL    HW237299   0.775   2.523  17.023  0.2189 -0.3538 -0.5530
 8555SOL     OW37300   2.514   1.166   5.490 -0.5912 -0.1112  0.4093
 8555SOL    HW137301   2.570   1.243   5.480 -2.2561  1.4204  2.8726
 8555SOL    HW237302   2.463   1.157   5.409 -0.4474 -2.3882  0.5816
 8556SOL     OW37303   0.524   4.108   9.792  0.1665 -0.3868 -0.0580
 8556SOL    HW137304   0.450   4.142   9.740  1.7328 -1.3360 -2.8857
 8556SOL    HW237305   0.482   4.076   9.872  2.2152 -0.5420  0.9365
 8557SOL     OW37306   3.647   4.562  13.395  0.2376 -0.0200 -0.1093
 8557SOL    HW137307   3.694   4.544  13.477 -0.8851  0.2995  0.5993
 8557SOL    HW237308   3.607   4.476  13.383  3.9595 -1.8392  0.2272
 8558SOL     OW37309   4.491   2.548  16.635 -0.0594 -0.4040 -0.0280
 8558SOL    HW137310   4.465   2.484  16.569  1.2845 -2.1702  1.1512
 8558SOL    HW237311   4.580   2.516  16.649  0.3865  1.0140  0.3449
 8559SOL     OW37312   3.346   4.706  12.706  0.0530  0.2079  1.0363
 8559SOL    HW137313   3.262   0.002  12.678  0.5769  0.3158 -0.3886
 8559SOL    HW237314   3.372   0.039  12.764  1.5692  1.1084 -0.7649
 8560SOL     OW37315   4.570   0.961   1.648  0.2192 -0.6326 -0.0923
 8560SOL    HW137316   4.597   0.969   1.556  0.2628  0.8077  0.0567
 8560SOL    HW237317   4.623   1.033   1.684 -4.2214  2.8460 -0.5925
 8561SOL     OW37318   2.403   2.100   0.874 -0.2461 -1.0306  0.0504
 8561SOL    HW137319   2.437   2.186   0.895 -0.2064 -0.6804 -1.4461
 8561SOL    HW237320   2.424   2.046   0.950  2.4058 -1.3639 -0.9070
 8562SOL     OW37321   4.387   1.767   0.093 -0.6863  0.0286  0.9357
 8562SOL    HW137322   4.412   1.801   0.178 -1.4968 -1.2316  1.6763
 8562SOL    HW237323   4.422   1.846   0.052  1.7660 -0.5650  1.8676
 8563SOL     OW37324   4.659   3.682   9.510 -0.1187 -0.5067  0.0501
 8563SOL    HW137325   4.653   3.621   9.437 -0.2427  1.1846 -1.3512
 8563SOL    HW237326   4.718   3.637   9.571 -1.1844 -1.1605  0.5952
 8564SOL     OW37327   1.427   1.496   4.150  0.1937  0.4383 -0.1684
 8564SOL    HW137328   1.426   1.585   4.185  0.4207  1.1691 -2.0430
 8564SOL    HW237329   1.338   1.480   4.181  0.3362  2.0497  1.0897
 8565SOL     OW37330   0.854   4.432   6.872  0.4094  0.1751  0.1437
 8565SOL    HW137331   0.856   4.458   6.964  3.2846  1.1246 -0.1900
 8565SOL    HW237332   0.763   4.410   6.852  1.2138 -0.2592 -3.1274
 8566SOL     OW37333   1.749   3.166   3.613  0.0842  0.0178  0.6848
 8566SOL    HW137334   1.800   3.225   3.669  2.6235 -0.6219 -0.9326
 8566SOL    HW237335   1.739   3.205   3.526 -0.6598  1.5730  1.4652
 8567SOL     OW37336   0.369   3.306   1.788  0.3297  0.9142  0.2580
 8567SOL    HW137337   0.415   3.388   1.766  0.4675  0.7389 -0.0989
 8567SOL    HW237338   0.401   3.251   1.716 -4.1637 -0.2353 -0.8058
 8568SOL     OW37339   3.335   0.169   4.656  0.0394  0.6595 -0.0445
 8568SOL    HW137340   3.267   0.140   4.595 -0.4725 -1.1907  1.3619
 8568SOL    HW237341   3.281   0.224   4.713  3.0036  0.8484  2.6127
 8569SOL     OW37342   4.236   3.660   5.042  0.2064  0.7964  0.4305
 8569SOL    HW137343   4.317   3.710   5.053 -0.6413  2.3401 -0.3007
 8569SOL    HW237344   4.274   3.573   5.052 -1.4080 -0.1663 -2.1426
 8570SOL     OW37345   1.880   4.138  14.524  0.0649 -0.0280  0.3656
 8570SOL    HW137346   1.846   4.074  14.462 -2.9723 -0.2274  2.1914
 8570SOL    HW237347   1.795   4.171  14.554  0.1222  1.5939 -1.2928
 8571SOL     OW37348   3.091   0.307   5.137  0.6091  0.0569 -0.0147
 8571SOL    HW137349   3.072   0.322   5.229  0.1298  0.5060 -0.1883
 8571SOL    HW237350   3.035   0.368   5.088  0.0105  0.6918  1.4573
 8572SOL     OW37351   4.549   2.325   2.811 -0.1756  0.2575 -0.2766
 8572SOL    HW137352   4.488   2.275   2.864  0.1169 -0.0447 -0.2271
 8572SOL    HW237353   4.492   2.366   2.745 -0.9252  1.5387  1.1672
 8573SOL     OW37354   1.750   0.514  10.998  0.1619 -0.6131 -0.4292
 8573SOL    HW137355   1.723   0.575  11.067 -0.6473  0.2167 -1.4834
 8573SOL    HW237356   1.845   0.501  10.995  0.3859  0.9876 -0.6589
 8574SOL     OW37357   0.551   1.706   8.072  0.1456 -0.4686  0.4557
 8574SOL    HW137358   0.532   1.754   7.991 -2.6936 -1.7392  0.3446
 8574SOL    HW237359   0.513   1.619   8.056 -1.1898  0.5583 -1.9933
 8575SOL     OW37360   2.729   4.331   7.933 -0.8173  0.2675 -0.3550
 8575SOL    HW137361   2.769   4.293   7.855  2.5423  0.6186  1.1827
 8575SOL    HW237362   2.748   4.255   7.987 -0.2225 -0.1555 -1.1649
 8576SOL     OW37363   0.847   2.848   2.978 -0.2857 -0.2734 -0.0593
 8576SOL    HW137364   0.772   2.825   3.033 -0.2112  2.0959  1.0182
 8576SOL    HW237365   0.794   2.875   2.903  0.1893 -0.4574 -0.4598
 8577SOL     OW37366   1.818   2.620   3.209 -0.6822  0.9771 -0.1645
 8577SOL    HW137367   1.909   2.640   3.233 -0.2184  0.6928 -1.6612
 8577SOL    HW237368   1.785   2.577   3.287  0.4322  0.1801 -0.1221
 8578SOL     OW37369   4.351   4.696  15.770 -0.4689  0.2267  0.0775
 8578SOL    HW137370   4.370   4.608  15.802  0.0709  0.3398  0.0623
 8578SOL    HW237371   4.361   4.683  15.676 -0.3161 -0.1668  0.1491
 8579SOL     OW37372   2.418   1.839   8.333 -0.0340 -0.5509  0.5558
 8579SOL    HW137373   2.374   1.920   8.358  0.2633 -0.7882  1.8484
 8579SOL    HW237374   2.346   1.776   8.341  1.6565 -2.6168 -0.1733
 8580SOL     OW37375   4.025   2.992   5.044 -0.7180  0.2665  0.0316
 8580SOL    HW137376   4.050   3.081   5.019  0.1768  0.4033  1.4026
 8580SOL    HW237377   4.041   2.935   4.969  0.4318  3.2341 -1.9461
 8581SOL     OW37378   4.470   2.761   5.300  0.0685 -0.1488 -0.5477
 8581SOL    HW137379   4.493   2.851   5.281 -0.6959  0.0620 -0.4935
 8581SOL    HW237380   4.387   2.772   5.346 -0.5121  0.1718 -1.6684
 8582SOL     OW37381   1.398   1.976   9.154 -0.1420  0.0114 -0.1762
 8582SOL    HW137382   1.342   1.914   9.201  0.8034  0.0710  1.0287
 8582SOL    HW237383   1.461   1.912   9.121  1.9529  0.1653  3.4666
 8583SOL     OW37384   3.527   4.554  17.067 -0.5798 -0.9669  0.4868
 8583SOL    HW137385   3.540   4.596  16.982 -0.2662  0.5388  1.2850
 8583SOL    HW237386   3.555   4.463  17.054  0.4942 -0.7946  1.5893
 8584SOL     OW37387   1.406   1.568   6.950  0.1021  0.0281  0.0364
 8584SOL    HW137388   1.418   1.473   6.954  0.0731  0.1587  2.8301
 8584SOL    HW237389   1.357   1.584   6.869 -1.7030  1.0351  1.3256
 8585SOL     OW37390   2.522   2.143   7.154 -0.2299  0.1724 -0.6895
 8585SOL    HW137391   2.471   2.171   7.230  2.5608  0.9156  0.8923
 8585SOL    HW237392   2.461   2.086   7.107  0.0672 -0.1632 -0.6706
 8586SOL     OW37393   2.428   0.862   3.886 -0.1284  0.4042  0.9605
 8586SOL    HW137394   2.510   0.891   3.924  0.6949 -0.9836  0.2210
 8586SOL    HW237395   2.406   0.938   3.833 -2.3462 -1.9262 -1.5230
 8587SOL     OW37396   3.815   1.166   2.873  0.2190  0.0261  0.2951
 8587SOL    HW137397   3.733   1.137   2.911 -0.2125  2.0902  0.9435
 8587SOL    HW237398   3.852   1.228   2.936  1.2903  0.6063 -0.8941
 8588SOL     OW37399   3.552   3.774   5.273  0.3305  0.0063 -0.5488
 8588SOL    HW137400   3.642   3.806   5.271  0.9727 -1.7930 -1.3012
 8588SOL    HW237401   3.575   3.698   5.327 -1.2510 -0.8289 -1.0680
 8589SOL     OW37402   1.633   2.436  12.904  0.2102 -0.6011 -0.1745
 8589SOL    HW137403   1.706   2.468  12.851 -0.2972 -0.7431 -0.9597
 8589SOL    HW237404   1.681   2.375  12.959  1.0867  0.4708  0.2599
 8590SOL     OW37405   0.394   3.388  16.572 -0.5239 -0.0729 -0.1842
 8590SOL    HW137406   0.451   3.361  16.644  2.9324  0.6328 -2.6813
 8590SOL    HW237407   0.347   3.461  16.611 -0.5080  1.0450 -2.2658
 8591SOL     OW37408   3.709   0.990   4.265  0.9190  0.3421  0.2443
 8591SOL    HW137409   3.758   0.968   4.185 -0.2888 -0.1901 -0.3478
 8591SOL    HW237410   3.731   0.917   4.322 -0.1537  1.1416  1.6609
 8592SOL     OW37411   4.057   2.213   8.069 -0.9129 -0.5441  0.7973
 8592SOL    HW137412   3.990   2.147   8.086  0.0441 -1.4729  1.0354
 8592SOL    HW237413   4.107   2.170   7.999 -1.4863 -0.0318  0.0813
 8593SOL     OW37414   4.055   2.640   3.056  0.3847  0.3928  0.8548
 8593SOL    HW137415   4.129   2.700   3.044  1.1661 -0.9212 -0.7364
 8593SOL    HW237416   4.070   2.578   2.985  0.8354  1.1056  0.3321
 8594SOL     OW37417   3.299   1.996  15.160 -0.1638  0.5443  0.4456
 8594SOL    HW137418   3.316   2.088  15.182 -0.1916  0.0830  2.3778
 8594SOL    HW237419   3.297   1.993  15.065  0.5901  0.4543  0.4328
 8595SOL     OW37420   0.831   4.408   5.551  0.3122  0.4263  0.5430
 8595SOL    HW137421   0.896   4.342   5.530  1.8798  2.3969 -0.7822
 8595SOL    HW237422   0.860   4.476   5.490 -3.0200  3.4170  2.2491
 8596SOL     OW37423   0.307   0.512   7.307  0.2032  0.0365  0.1150
 8596SOL    HW137424   0.372   0.525   7.237  0.9852 -2.5200  0.3685
 8596SOL    HW237425   0.235   0.500   7.244  1.5318  0.2415 -1.4613
 8597SOL     OW37426   1.624   1.992   6.562 -0.7234  0.2231 -0.1252
 8597SOL    HW137427   1.697   1.982   6.624 -0.3815  2.5583 -0.1509
 8597SOL    HW237428   1.645   2.084   6.547  2.1144 -0.2548  0.8624
 8598SOL     OW37429   0.174   0.703   2.293 -0.4780 -0.0608 -0.5762
 8598SOL    HW137430   0.080   0.684   2.293 -0.2314 -1.3054 -1.4152
 8598SOL    HW237431   0.204   0.624   2.247  0.0689  0.1590 -0.5970
 8599SOL     OW37432   4.612   2.480   3.835 -0.0667  0.0469 -0.2630
 8599SOL    HW137433   4.599   2.456   3.743 -3.3398 -1.6615  0.6335
 8599SOL    HW237434   4.600   2.394   3.875  0.8547  0.2219  0.3905
 8600SOL     OW37435   4.328   0.575   5.540  0.3001 -0.3517  0.1909
 8600SOL    HW137436   4.312   0.635   5.466  0.1114  1.1240  1.4270
 8600SOL    HW237437   4.259   0.611   5.595 -0.3201  1.5798 -1.8150
 8601SOL     OW37438   0.693   1.106  15.357  0.6424  0.4868  0.1259
 8601SOL    HW137439   0.689   1.201  15.346  1.6317  0.7291  1.8730
 8601SOL    HW237440   0.787   1.087  15.354  0.3829 -1.0966  1.8163
 8602SOL     OW37441   3.814   0.040  14.559 -0.1811  0.5433  0.2105
 8602SOL    HW137442   3.868   0.119  14.547  0.7830 -0.1076  0.2901
 8602SOL    HW237443   3.727   0.072  14.536 -0.6580 -1.3089 -0.5444
 8603SOL     OW37444   2.658   1.950  13.611 -0.4516 -0.6624 -0.6816
 8603SOL    HW137445   2.743   1.992  13.621 -0.6734 -0.2613 -0.4611
 8603SOL    HW237446   2.684   1.859  13.596  0.3178 -0.6223  0.3915
 8604SOL     OW37447   2.010   1.740   6.250  0.6425  0.6501 -0.6473
 8604SOL    HW137448   2.054   1.770   6.170  1.0325  0.3151 -0.5572
 8604SOL    HW237449   2.078   1.695   6.299  0.7730  0.4278 -1.0353
 8605SOL     OW37450   3.483   1.553   8.386 -0.1925  0.3541 -0.2071
 8605SOL    HW137451   3.472   1.618   8.316  1.6600  1.8963  0.9132
 8605SOL    HW237452   3.401   1.504   8.383  0.0168  0.0587 -1.3155
 8606SOL     OW37453   3.940   1.719  14.018 -0.2757  0.5189  0.0660
 8606SOL    HW137454   4.017   1.742  13.966 -0.7647 -0.4169 -1.0738
 8606SOL    HW237455   3.967   1.654  14.083 -1.6771  0.0397  0.1781
 8607SOL     OW37456   4.189   4.541   8.607 -0.0002 -0.1974  0.0351
 8607SOL    HW137457   4.156   4.453   8.592 -0.8721  0.3567 -1.3366
 8607SOL    HW237458   4.164   4.554   8.698  1.4747 -1.5434  0.6336
 8608SOL     OW37459   1.256   3.859   2.868 -0.0003 -0.1753 -0.5785
 8608SOL    HW137460   1.192   3.840   2.800  0.1883  2.0143 -1.3784
 8608SOL    HW237461   1.327   3.878   2.806  1.6598  0.3678  1.4605
 8609SOL     OW37462   4.482   2.103   0.393  0.4572 -0.9429  0.7884
 8609SOL    HW137463   4.423   2.077   0.323  0.5427  0.3835  0.2211
 8609SOL    HW237464   4.569   2.081   0.360 -0.2326 -0.8539 -1.0531
 8610SOL     OW37465   0.309   3.231   8.190  0.2900 -0.3096 -0.4935
 8610SOL    HW137466   0.267   3.219   8.275  0.9191  0.7204 -0.0369
 8610SOL    HW237467   0.393   3.268   8.216  0.4776 -0.5248 -0.7908
 8611SOL     OW37468   1.723   4.404   2.110  0.2437 -0.5537  0.3659
 8611SOL    HW137469   1.725   4.359   2.026 -0.2112 -0.5341  0.3423
 8611SOL    HW237470   1.687   4.488   2.080 -0.4626 -0.5077  1.3405
 8612SOL     OW37471   4.728   1.912   2.327 -0.1551  0.3601  0.2919
 8612SOL    HW137472   0.001   1.955   2.242  0.7059  0.0630  0.2754
 8612SOL    HW237473   4.634   1.896   2.334 -0.1824  0.2133 -0.3790
 8613SOL     OW37474   2.237   0.030   2.983 -0.0481 -0.3460 -0.1959
 8613SOL    HW137475   2.247   0.085   3.061  0.3151  0.5488 -0.8849
 8613SOL    HW237476   2.226   0.094   2.913  0.2755  0.6690  0.6726
 8614SOL     OW37477   3.034   4.439   3.314 -0.2360 -0.0280 -0.9239
 8614SOL    HW137478   3.009   4.453   3.222  0.3396  0.2289 -1.0406
 8614SOL    HW237479   3.121   4.479   3.312 -0.2802  0.0691 -0.9085
 8615SOL     OW37480   2.714   4.534  11.201  0.0398  0.3523  0.5399
 8615SOL    HW137481   2.744   4.611  11.153 -1.1453  2.2063  2.7761
 8615SOL    HW237482   2.786   4.520  11.263  1.3813 -0.4956 -1.2068
 8616SOL     OW37483   3.777   2.813   5.024 -0.0040  0.0867 -0.2599
 8616SOL    HW137484   3.841   2.751   5.058  2.3685  0.3603 -4.2462
 8616SOL    HW237485   3.832   2.891   5.018  1.7290 -1.1834 -0.8994
 8617SOL     OW37486   4.709   1.143   0.488 -0.1216  0.0002  0.0745
 8617SOL    HW137487   4.721   1.211   0.554  1.2765 -1.0710  0.9223
 8617SOL    HW237488   4.620   1.166   0.460 -0.1987  1.1515  1.2527
 8618SOL     OW37489   1.076   2.406  16.749  0.8143  0.2355  0.2780
 8618SOL    HW137490   1.146   2.402  16.684 -0.5865  0.4856 -1.2660
 8618SOL    HW237491   1.006   2.445  16.697  2.4476  0.0865 -2.0359
 8619SOL     OW37492   4.316   1.749   0.624  0.7004 -0.0573 -0.9494
 8619SOL    HW137493   4.292   1.838   0.647 -0.6888 -1.2582  2.2419
 8619SOL    HW237494   4.331   1.755   0.529  2.2435 -0.6556 -0.7559
 8620SOL     OW37495   2.572   3.905   5.699  0.1813 -0.6209 -0.0291
 8620SOL    HW137496   2.645   3.964   5.680  0.3821 -0.6296  0.7207
 8620SOL    HW237497   2.547   3.868   5.615 -3.4706  0.8534  0.4261
 8621SOL     OW37498   1.624   4.634   5.684  0.0388  0.3457  0.3987
 8621SOL    HW137499   1.539   4.639   5.641  1.4847  1.2332 -2.3661
 8621SOL    HW237500   1.644   4.542   5.701 -2.8492 -0.3311  0.0724
 8622SOL     OW37501   3.671   3.898   1.018  0.4879 -0.3269  0.1660
 8622SOL    HW137502   3.735   3.963   0.990  1.6217 -1.2996  0.4906
 8622SOL    HW237503   3.591   3.923   0.972  0.0438  2.1245  2.2679
 8623SOL     OW37504   0.600   4.558   3.778  0.9111 -0.4182  0.4010
 8623SOL    HW137505   0.675   4.506   3.750  0.2186 -0.8168 -0.6846
 8623SOL    HW237506   0.527   4.514   3.736  1.1011  0.4541 -0.8678
 8624SOL     OW37507   4.267   0.416   3.819 -0.1330 -0.5810  0.0097
 8624SOL    HW137508   4.296   0.487   3.763 -0.5611 -1.7238 -1.6904
 8624SOL    HW237509   4.345   0.385   3.864 -0.2871 -0.9620  0.0156
 8625SOL     OW37510   1.470   0.526  12.160 -0.3993  0.1986  0.0005
 8625SOL    HW137511   1.461   0.601  12.100  1.3197  1.5036  1.4051
 8625SOL    HW237512   1.564   0.516  12.169 -0.3949  1.1221  0.9403
 8626SOL     OW37513   2.495   0.572   1.178  0.4465  0.0439  0.1671
 8626SOL    HW137514   2.501   0.654   1.128 -0.2405  0.0242  0.0518
 8626SOL    HW237515   2.588   0.550   1.175  0.1675 -1.2019  0.9604
 8627SOL     OW37516   1.783   1.042   7.833  0.2520 -0.3733 -0.9710
 8627SOL    HW137517   1.780   1.084   7.747  0.7387 -0.4391 -1.0201
 8627SOL    HW237518   1.859   1.088   7.866  0.5596 -1.0200 -0.7917
 8628SOL     OW37519   0.243   4.182   3.593  0.0267 -0.5041 -0.0677
 8628SOL    HW137520   0.323   4.173   3.540  0.9995  0.5641  1.2183
 8628SOL    HW237521   0.180   4.152   3.527 -1.7213 -0.6715  1.6981
 8629SOL     OW37522   0.023   3.223   2.060  0.4162 -0.2053  0.1983
 8629SOL    HW137523   0.055   3.139   2.094  0.4818  0.5624  2.0381
 8629SOL    HW237524   4.727   3.208   1.972  1.1151  0.3475 -0.1727
 8630SOL     OW37525   0.133   4.223   7.486  0.3720 -0.0392  0.0080
 8630SOL    HW137526   0.090   4.200   7.568  0.4298 -0.6416 -0.1345
 8630SOL    HW237527   0.216   4.260   7.516  1.0765 -0.0643 -1.9375
 8631SOL     OW37528   3.930   2.838   4.059  0.1685  0.1361 -0.1523
 8631SOL    HW137529   3.975   2.865   4.139 -0.3439  1.3961 -0.2759
 8631SOL    HW237530   3.985   2.845   3.981  0.7505  0.1063  0.2570
 8632SOL     OW37531   2.337   4.261  11.289  0.2695  0.0022 -0.1261
 8632SOL    HW137532   2.322   4.320  11.215 -2.2297 -0.5398 -0.0572
 8632SOL    HW237533   2.294   4.314  11.356  1.6274  1.2423 -0.2415
 8633SOL     OW37534   0.521   2.467   0.952  0.1291  0.4618 -0.4971
 8633SOL    HW137535   0.482   2.553   0.967  0.1799  0.6340 -1.3506
 8633SOL    HW237536   0.610   2.486   0.982 -0.0768 -0.9214  0.9380
 8634SOL     OW37537   4.494   3.293   4.048 -0.2516 -0.0738 -0.0348
 8634SOL    HW137538   4.401   3.287   4.025 -0.0392  1.7015 -1.2722
 8634SOL    HW237539   4.510   3.200   4.030 -0.7635 -0.3979  1.1650
 8635SOL     OW37540   1.174   0.216  14.228 -0.3171 -0.3638  0.3393
 8635SOL    HW137541   1.122   0.202  14.149  0.1786  1.2775 -0.2800
 8635SOL    HW237542   1.146   0.304  14.252 -1.1591 -0.4789 -0.1983
 8636SOL     OW37543   4.671   2.272   7.929 -0.5530  0.3045 -0.4825
 8636SOL    HW137544   4.603   2.267   7.996  0.1930  1.6379  0.3691
 8636SOL    HW237545   4.706   2.360   7.946  3.4090 -1.7443  1.9023
 8637SOL     OW37546   2.116   0.561   6.942  0.1780 -0.1353 -0.0940
 8637SOL    HW137547   2.134   0.485   6.887  1.6745  1.0896 -1.3167
 8637SOL    HW237548   2.042   0.534   6.996  1.6467 -1.2105  1.4069
 8638SOL     OW37549   0.634   2.659   1.583 -0.1870 -0.5577 -0.4208
 8638SOL    HW137550   0.644   2.564   1.575  1.7130 -0.6872  3.0938
 8638SOL    HW237551   0.567   2.678   1.518 -0.5819  1.7389  0.6274
 8639SOL     OW37552   0.754   4.250   2.904  0.7424 -0.1821 -0.0206
 8639SOL    HW137553   0.692   4.269   2.974  2.0299 -1.4303  1.4504
 8639SOL    HW237554   0.760   4.340   2.873 -2.4529  0.6372  1.7383
 8640SOL     OW37555   3.797   1.121   1.336 -0.9164  0.6298 -0.7420
 8640SOL    HW137556   3.836   1.073   1.263 -0.5478 -0.4737  0.1866
 8640SOL    HW237557   3.727   1.170   1.292 -0.7245  1.6390  0.0687
 8641SOL     OW37558   3.850   1.241   6.304 -0.5946  0.7530  0.2286
 8641SOL    HW137559   3.865   1.315   6.362 -1.8008  1.4249 -0.3361
 8641SOL    HW237560   3.926   1.240   6.245 -1.6909  1.4261 -1.1845
 8642SOL     OW37561   0.385   4.519  11.590 -0.5084  0.1286  0.8697
 8642SOL    HW137562   0.340   4.587  11.639  0.6758  2.1905 -0.9205
 8642SOL    HW237563   0.433   4.467  11.654  0.0841 -1.7238 -1.0791
 8643SOL     OW37564   1.787   0.444   5.190  0.1127 -0.2965  0.3146
 8643SOL    HW137565   1.778   0.488   5.106 -1.2558 -0.5179  0.3428
 8643SOL    HW237566   1.877   0.411   5.187  1.2814  2.8029  1.1825
 8644SOL     OW37567   0.954   2.926   4.254 -0.4370  0.5067 -0.3816
 8644SOL    HW137568   1.012   2.871   4.203  0.3825 -0.3840  1.5079
 8644SOL    HW237569   0.943   3.001   4.195  0.9383  1.9421  1.1696
 8645SOL     OW37570   3.817   4.405  10.452  0.3188  0.0915 -0.2438
 8645SOL    HW137571   3.903   4.363  10.445  0.6743  0.3432  2.6264
 8645SOL    HW237572   3.813   4.442  10.540 -0.1443 -2.0115  0.6234
 8646SOL     OW37573   3.241   1.410   8.383 -0.0550  0.6000  0.6437
 8646SOL    HW137574   3.207   1.383   8.297 -0.2633  1.0866  0.5765
 8646SOL    HW237575   3.156   1.407   8.428 -0.4632  1.0923 -0.0911
 8647SOL     OW37576   3.455   0.456   2.810  0.0655  0.2244  0.0309
 8647SOL    HW137577   3.464   0.443   2.904  1.5031 -1.4206 -0.3339
 8647SOL    HW237578   3.436   0.370   2.774  0.1639  0.7370 -1.2600
 8648SOL     OW37579   1.331   2.039   4.339  0.1172 -0.2500  0.5801
 8648SOL    HW137580   1.245   2.040   4.297  1.2574 -1.9024 -1.8073
 8648SOL    HW237581   1.383   2.058   4.261  1.2273 -1.0696  1.1199
 8649SOL     OW37582   1.263   3.320  10.543  0.5699  0.5127 -0.0208
 8649SOL    HW137583   1.255   3.236  10.588  1.3884 -0.0655 -0.9596
 8649SOL    HW237584   1.197   3.376  10.583  1.8747  1.5137  0.7107
 8650SOL     OW37585   3.338   0.374   2.041  0.1869 -0.0338  0.3434
 8650SOL    HW137586   3.396   0.439   2.001  0.3682 -1.7784 -2.2181
 8650SOL    HW237587   3.306   0.420   2.118  0.1805  0.0018  0.3195
 8651SOL     OW37588   2.064   2.374   7.534 -0.2803 -0.0772 -0.0308
 8651SOL    HW137589   2.088   2.392   7.443 -3.3174  0.5235 -0.7160
 8651SOL    HW237590   2.049   2.466   7.558 -3.3180 -0.6884  0.3935
 8652SOL     OW37591   1.968   2.909   7.387  0.5242  0.1629  0.0372
 8652SOL    HW137592   1.972   2.996   7.349  0.0413 -0.2913 -1.0634
 8652SOL    HW237593   1.872   2.904   7.390  0.6549 -1.4812  1.6643
 8653SOL     OW37594   3.329   2.828   6.143  0.0588  0.3253 -0.1585
 8653SOL    HW137595   3.372   2.890   6.083 -0.4859  0.3389 -0.5356
 8653SOL    HW237596   3.362   2.742   6.118  0.9548  0.5042  0.3847
 8654SOL     OW37597   2.293   4.485   2.321  0.4757 -0.7992  0.6967
 8654SOL    HW137598   2.257   4.565   2.360 -2.8684 -0.2930 -3.4141
 8654SOL    HW237599   2.386   4.505   2.320 -0.2758  2.5968 -1.6440
 8655SOL     OW37600   0.654   3.439   3.854 -0.2609  0.3045  0.0900
 8655SOL    HW137601   0.675   3.512   3.795 -0.9342 -0.7757 -1.4697
 8655SOL    HW237602   0.559   3.452   3.853 -0.1760  1.0282  0.9261
 8656SOL     OW37603   4.654   2.421   7.258  0.0266  0.4101 -0.2068
 8656SOL    HW137604   4.638   2.333   7.224 -0.4421  0.6898 -0.7296
 8656SOL    HW237605   4.562   2.423   7.284 -0.4763 -0.8228 -1.8910
 8657SOL     OW37606   3.927   0.831   8.871  0.0835 -0.3346  0.0652
 8657SOL    HW137607   3.970   0.871   8.946  0.9054 -2.5920  0.7856
 8657SOL    HW237608   3.964   0.743   8.866  0.9081  0.0551 -0.7750
 8658SOL     OW37609   2.598   4.300   5.650 -0.0477  0.2291  0.1928
 8658SOL    HW137610   2.688   4.286   5.621 -0.5451 -0.6590 -0.9135
 8658SOL    HW237611   2.576   4.379   5.601 -0.9655 -2.0053 -3.0673
 8659SOL     OW37612   1.007   3.203   2.459  0.1735 -0.1580 -0.2253
 8659SOL    HW137613   0.926   3.154   2.477 -0.1080 -0.9223 -3.6104
 8659SOL    HW237614   1.068   3.144   2.502  0.0101  0.0496  0.2958
 8660SOL     OW37615   0.941   4.495   9.382 -0.3622  0.3541  0.8833
 8660SOL    HW137616   0.849   4.470   9.370  0.1448 -1.6891  1.3660
 8660SOL    HW237617   0.943   4.495   9.478 -0.9107 -1.9208  0.8857
 8661SOL     OW37618   2.162   3.817   6.089  0.0559  0.4266 -0.5350
 8661SOL    HW137619   2.135   3.794   6.178 -1.2115 -1.4511 -1.4116
 8661SOL    HW237620   2.202   3.734   6.063  1.5524  0.5229  1.4773
 8662SOL     OW37621   1.407   2.905   6.549  0.3321 -0.3056  0.5452
 8662SOL    HW137622   1.473   2.942   6.608 -0.4202  1.3190  0.3783
 8662SOL    HW237623   1.441   2.930   6.463  0.1825  0.0022  0.5767
 8663SOL     OW37624   2.715   2.202   2.153 -0.3549  0.5481  0.5732
 8663SOL    HW137625   2.668   2.228   2.232 -2.2756 -3.3708  0.7147
 8663SOL    HW237626   2.638   2.196   2.097 -0.4275  0.1735  0.7139
 8664SOL     OW37627   1.113   0.210   8.174  0.0034  0.5734 -0.2527
 8664SOL    HW137628   1.194   0.162   8.190  0.5962  1.4037 -0.7338
 8664SOL    HW237629   1.057   0.143   8.138  2.4492 -2.1026  0.9123
 8665SOL     OW37630   2.137   3.241   2.866 -0.2675  0.0387  0.3405
 8665SOL    HW137631   2.117   3.331   2.889 -1.3064 -0.2486  0.5344
 8665SOL    HW237632   2.053   3.195   2.868 -0.1696 -0.1410  0.3210
 8666SOL     OW37633   2.777   3.794   0.219  0.6997 -0.2340 -0.2664
 8666SOL    HW137634   2.745   3.783   0.129 -2.0206 -1.1755  0.8131
 8666SOL    HW237635   2.711   3.855   0.253 -0.6703 -3.5591  3.1671
 8667SOL     OW37636   4.622   1.057  16.964  0.3711  0.4458  0.3603
 8667SOL    HW137637   4.604   1.077  17.056  2.8133 -4.3966  1.9028
 8667SOL    HW237638   4.575   1.135  16.933 -1.7951 -0.2769  1.7556
 8668SOL     OW37639   1.973   4.380  16.622 -0.3846  0.1336 -0.1556
 8668SOL    HW137640   2.051   4.436  16.624 -2.1065  2.5390  0.2938
 8668SOL    HW237641   1.969   4.353  16.530 -3.5324 -1.7593  0.5485
 8669SOL     OW37642   2.368   3.719   9.318 -0.5058  0.3549 -0.1575
 8669SOL    HW137643   2.326   3.638   9.291  1.8718 -1.3685  1.2994
 8669SOL    HW237644   2.299   3.779   9.289 -0.1588 -0.4115 -2.5803
 8670SOL     OW37645   2.349   2.120  10.465 -0.3560  0.4551  0.4184
 8670SOL    HW137646   2.277   2.074  10.508  1.4695 -1.7704  1.0726
 8670SOL    HW237647   2.421   2.074  10.508 -0.0313 -0.0209 -0.6380
 8671SOL     OW37648   1.804   2.654   0.308  0.4701 -0.3168 -0.3560
 8671SOL    HW137649   1.804   2.724   0.374  0.9307  1.1241 -1.8998
 8671SOL    HW237650   1.727   2.602   0.335 -0.1869  0.4153 -0.8177
 8672SOL     OW37651   1.526   1.012  12.862 -0.0460 -0.0949 -0.1654
 8672SOL    HW137652   1.496   1.080  12.923 -1.2492  0.0294 -0.8936
 8672SOL    HW237653   1.554   0.943  12.923 -0.7090 -1.0135 -0.8983
 8673SOL     OW37654   1.952   3.622   9.113 -0.0675 -0.4143 -0.0216
 8673SOL    HW137655   1.903   3.555   9.160 -0.9187  1.6539  2.0313
 8673SOL    HW237656   1.878   3.664   9.070  0.5590  1.0844  0.3640
 8674SOL     OW37657   4.181   2.581   2.813  0.0346  0.4339 -0.5838
 8674SOL    HW137658   4.218   2.494   2.797  3.4099  1.7563 -0.0355
 8674SOL    HW237659   4.094   2.572   2.775 -0.3812 -2.5825  1.0573
 8675SOL     OW37660   4.716   3.473  14.310  0.1813 -0.9872  0.0559
 8675SOL    HW137661   4.683   3.548  14.359 -1.6473 -0.3458 -2.1544
 8675SOL    HW237662   4.633   3.450  14.268  0.8602 -1.5782 -0.9471
 8676SOL     OW37663   3.123   0.448  16.549 -0.4118  1.3081 -0.4722
 8676SOL    HW137664   3.170   0.518  16.504  1.0384 -0.1800 -1.2512
 8676SOL    HW237665   3.055   0.420  16.488 -1.4368 -2.3770  2.2915
 8677SOL     OW37666   0.131   3.868   3.643 -0.1081  0.6571 -0.0673
 8677SOL    HW137667   0.101   3.801   3.582  0.6211 -0.8941  1.2734
 8677SOL    HW237668   0.148   3.940   3.582 -1.3862  1.2995  0.3335
 8678SOL     OW37669   2.963   3.633   5.798 -0.5265  0.3318  0.3934
 8678SOL    HW137670   2.971   3.699   5.729 -0.0395 -0.9518 -0.7867
 8678SOL    HW237671   2.912   3.679   5.865 -1.8155  0.8020 -0.8993
 8679SOL     OW37672   3.370   0.148  17.632 -0.5276 -0.2951  0.2814
 8679SOL    HW137673   3.274   0.154  17.628 -0.5040  0.6212  1.2215
 8679SOL    HW237674   3.370   0.075  17.694 -1.1603 -0.8059 -0.3202
 8680SOL     OW37675   4.544   4.476   5.027 -0.3895  0.0538  0.6280
 8680SOL    HW137676   4.464   4.518   5.060  0.2517  1.3105  0.5984
 8680SOL    HW237677   4.615   4.521   5.073  0.4141  0.7318 -1.2704
 8681SOL     OW37678   4.399   0.118   2.699  0.0985  0.5685  0.6831
 8681SOL    HW137679   4.468   0.108   2.633  1.4826  2.3296  1.8553
 8681SOL    HW237680   4.346   0.187   2.661 -1.1177 -1.5586 -1.4503
 8682SOL     OW37681   3.177   3.564  12.014 -0.5109  0.2578  0.4666
 8682SOL    HW137682   3.160   3.585  12.106 -0.1735 -1.9273  1.0183
 8682SOL    HW237683   3.263   3.524  12.019 -0.4657  0.1265 -1.1021
 8683SOL     OW37684   1.857   2.689   3.849  0.3007 -0.2186 -0.1351
 8683SOL    HW137685   1.788   2.753   3.833 -1.6741 -1.8045  2.0937
 8683SOL    HW237686   1.916   2.710   3.776  0.4080  1.1318  0.3407
 8684SOL     OW37687   0.966   3.449   3.262 -0.0542  0.1343  0.0591
 8684SOL    HW137688   0.924   3.525   3.302 -0.1513  0.9762 -1.6633
 8684SOL    HW237689   0.985   3.405   3.345 -0.4658  0.5425  0.3684
 8685SOL     OW37690   0.251   4.446  15.026 -0.1272 -0.2096  0.2225
 8685SOL    HW137691   0.225   4.538  15.026 -1.5426 -0.5885  1.9514
 8685SOL    HW237692   0.330   4.463  15.077 -0.7643  0.8278  0.8836
 8686SOL     OW37693   2.184   1.410   4.947 -0.8558  0.1651  0.0855
 8686SOL    HW137694   2.105   1.382   4.994 -0.6871  0.8598  0.7790
 8686SOL    HW237695   2.194   1.496   4.989 -1.3078  0.1158  0.2946
 8687SOL     OW37696   2.212   4.669   7.550 -0.2139 -0.2186 -0.0394
 8687SOL    HW137697   2.179   4.628   7.470  1.7397 -0.2748 -0.8104
 8687SOL    HW237698   2.172   0.017   7.548 -0.3788 -0.2938  0.0088
 8688SOL     OW37699   4.265   4.100   8.945  0.0925  0.4361  0.1334
 8688SOL    HW137700   4.352   4.079   8.912 -0.4120 -1.3004 -0.1062
 8688SOL    HW237701   4.223   4.054   8.873  1.0924  0.4130 -0.4282
 8689SOL     OW37702   1.089   0.068   5.224  0.7471 -0.3352  0.5744
 8689SOL    HW137703   1.052   0.087   5.138 -0.7114 -0.1402  1.2471
 8689SOL    HW237704   1.178   0.093   5.198  0.4460  2.1344  1.8592
 8690SOL     OW37705   1.099   3.283   8.892  0.1298  0.2841  0.1772
 8690SOL    HW137706   1.026   3.278   8.831 -0.4551  0.5969  0.8534
 8690SOL    HW237707   1.092   3.373   8.925  1.6793  0.4385  0.0862
 8691SOL     OW37708   2.443   0.331   5.267  0.1513  0.0434  0.3478
 8691SOL    HW137709   2.435   0.403   5.329 -0.7710  1.0497 -0.9401
 8691SOL    HW237710   2.539   0.335   5.271  0.2113 -1.2072  0.0414
 8692SOL     OW37711   0.693   1.246   2.047  0.4079 -0.1286 -0.4102
 8692SOL    HW137712   0.683   1.213   1.958 -1.1027 -4.8275  1.5554
 8692SOL    HW237713   0.639   1.185   2.096  1.0617 -0.5986 -0.2779
 8693SOL     OW37714   0.515   3.667   4.716  0.9128  0.6644  0.1464
 8693SOL    HW137715   0.472   3.669   4.802  0.4062  1.3477 -0.1177
 8693SOL    HW237716   0.438   3.684   4.661  1.2169 -1.4232 -0.8872
 8694SOL     OW37717   3.859   1.303   3.125 -0.0337  0.2180  0.0218
 8694SOL    HW137718   3.933   1.329   3.181  0.2029  1.3560 -0.8116
 8694SOL    HW237719   3.849   1.212   3.152 -1.5641  0.0991 -0.9848
 8695SOL     OW37720   1.519   3.958   5.354  0.4165  0.7323 -0.3877
 8695SOL    HW137721   1.482   3.897   5.291  0.4969 -1.0205  1.2371
 8695SOL    HW237722   1.452   4.026   5.360  0.5364  0.8585 -0.4941
 8696SOL     OW37723   3.207   2.690   4.271 -0.1597 -0.2158  0.0824
 8696SOL    HW137724   3.185   2.598   4.285 -0.1458 -0.3333 -0.6667
 8696SOL    HW237725   3.195   2.725   4.359  0.4480 -1.1267  0.5205
 8697SOL     OW37726   3.110   4.477   2.504 -0.5232 -0.3735 -0.0031
 8697SOL    HW137727   3.166   4.496   2.428  1.8938 -0.8515  1.6675
 8697SOL    HW237728   3.025   4.477   2.459 -0.6255 -0.4708  0.1929
 8698SOL     OW37729   4.263   4.479   7.853 -0.3640 -0.1015  0.1164
 8698SOL    HW137730   4.195   4.432   7.805 -0.9516 -0.9387  1.7618
 8698SOL    HW237731   4.343   4.443   7.813  2.2767  0.9551  4.4173
 8699SOL     OW37732   0.998   1.576   5.651 -0.4544 -0.5092  0.3428
 8699SOL    HW137733   0.907   1.579   5.680 -0.2252 -0.5468  1.0561
 8699SOL    HW237734   1.012   1.490   5.612  0.1460  0.5317 -1.7251
 8700SOL     OW37735   1.752   0.387   8.016  0.2737 -0.4678  0.3836
 8700SOL    HW137736   1.758   0.362   8.108 -0.6925  0.6036  0.7236
 8700SOL    HW237737   1.753   0.305   7.966 -2.2185 -0.9482  1.1129
 8701SOL     OW37738   2.125   4.239  15.079  0.1575 -0.1055  0.3255
 8701SOL    HW137739   2.152   4.319  15.033  0.8836 -0.0120  0.9119
 8701SOL    HW237740   2.197   4.224  15.140 -0.5782 -1.5618  0.8376
 8702SOL     OW37741   0.744   1.126  11.649 -0.4872  0.2837 -0.9033
 8702SOL    HW137742   0.761   1.034  11.669 -1.0039  0.5220  0.6022
 8702SOL    HW237743   0.740   1.162  11.737 -0.2963  0.1014 -0.8215
 8703SOL     OW37744   2.700   3.777  16.543  0.1044 -0.1839  0.1043
 8703SOL    HW137745   2.638   3.732  16.600 -2.6631  4.2401  0.5764
 8703SOL    HW237746   2.668   3.867  16.546 -0.6996 -0.4995  0.5803
 8704SOL     OW37747   3.298   4.706   3.829  0.2484 -0.4164  0.0304
 8704SOL    HW137748   3.327   0.048   3.788 -1.9462 -0.2745 -1.2471
 8704SOL    HW237749   3.303   4.646   3.755  0.2227 -0.1063 -0.2214
 8705SOL     OW37750   0.696   0.617   2.338  0.1496 -0.2042  0.3173
 8705SOL    HW137751   0.709   0.530   2.376  2.3572 -1.0910 -2.5571
 8705SOL    HW237752   0.754   0.674   2.388 -0.0682 -0.7263  1.1681
 8706SOL     OW37753   1.422   0.144  15.310 -0.1220  0.1788 -0.4828
 8706SOL    HW137754   1.352   0.110  15.366  2.0097  0.1623  2.2097
 8706SOL    HW237755   1.398   0.109  15.224 -0.2140 -1.8875  0.3816
 8707SOL     OW37756   2.329   3.274   7.609  0.0340  0.4732  0.7972
 8707SOL    HW137757   2.268   3.210   7.572  0.1706 -0.3264  1.9792
 8707SOL    HW237758   2.304   3.347   7.553 -1.1858  0.4955  1.3750
 8708SOL     OW37759   0.197   3.771   7.950 -0.2353 -0.2481  0.1173
 8708SOL    HW137760   0.279   3.724   7.937 -0.6607 -1.3943  1.6038
 8708SOL    HW237761   0.134   3.703   7.929  1.2253 -1.6334  0.2283
 8709SOL     OW37762   3.794   0.881   6.038  0.5817  0.0235 -0.0435
 8709SOL    HW137763   3.786   0.817   6.109 -0.5424  0.4907  0.2581
 8709SOL    HW237764   3.714   0.931   6.057 -0.3502 -0.6709 -2.1971
 8710SOL     OW37765   2.818   4.618   9.354 -0.2355  0.3884 -0.4541
 8710SOL    HW137766   2.814   4.583   9.265 -0.9506 -2.2249  0.6222
 8710SOL    HW237767   2.792   4.538   9.400  2.4418 -0.3545 -0.2431
 8711SOL     OW37768   1.078   3.339  15.634  0.0347  0.0455 -0.5429
 8711SOL    HW137769   0.991   3.377  15.648  0.0668 -0.1101  0.0623
 8711SOL    HW237770   1.132   3.416  15.622  2.0666 -1.3225 -0.1067
 8712SOL     OW37771   1.187   2.988   7.182  0.6906 -0.0728  0.5261
 8712SOL    HW137772   1.163   3.072   7.145  0.7297 -1.4033 -2.5053
 8712SOL    HW237773   1.101   2.960   7.213  0.1187  0.5389 -0.5203
 8713SOL     OW37774   0.545   0.190   3.358 -0.7279  0.1479  0.0144
 8713SOL    HW137775   0.573   0.280   3.370  3.3819 -1.1615  0.1022
 8713SOL    HW237776   0.634   0.158   3.345 -0.0315  1.2647  2.0619
 8714SOL     OW37777   2.952   1.069   6.234 -0.1648  0.0793 -0.1923
 8714SOL    HW137778   2.951   0.993   6.291  0.4593 -1.0624 -1.6913
 8714SOL    HW237779   2.986   1.139   6.290  1.7582  1.6348 -3.2698
 8715SOL     OW37780   1.788   2.023  10.914  0.6610  0.1043  0.2400
 8715SOL    HW137781   1.715   1.974  10.875 -0.9994  3.5394 -0.9305
 8715SOL    HW237782   1.856   1.971  10.871 -0.9110 -1.9296  0.2286
 8716SOL     OW37783   2.844   1.954  15.823  0.3337 -0.1841 -0.1540
 8716SOL    HW137784   2.765   1.969  15.770  0.3691  1.2516  0.2067
 8716SOL    HW237785   2.814   1.879  15.875  1.9338 -1.6489 -1.3277
 8717SOL     OW37786   1.907   1.228   7.613 -0.0554 -0.1035  0.1485
 8717SOL    HW137787   1.993   1.190   7.628  1.4322  2.2361 -2.6308
 8717SOL    HW237788   1.925   1.309   7.567 -0.7026 -0.3157 -0.4877
 8718SOL     OW37789   0.998   1.256   6.144  0.0390 -0.0288  0.1972
 8718SOL    HW137790   1.012   1.297   6.229  0.7616  0.7680 -0.3139
 8718SOL    HW237791   1.051   1.318   6.094 -0.8503  0.2907 -0.3639
 8719SOL     OW37792   4.331   4.617   3.723 -0.8015  0.3403  0.3086
 8719SOL    HW137793   4.395   4.645   3.788  0.0166 -0.6295 -0.0750
 8719SOL    HW237794   4.374   4.659   3.648  0.1537 -2.2989 -0.6288
 8720SOL     OW37795   1.696   1.996   0.430 -0.3278  0.3053 -0.1088
 8720SOL    HW137796   1.628   2.024   0.492  0.9517  1.4552  0.7716
 8720SOL    HW237797   1.755   2.072   0.424  0.6066 -0.4372 -0.2485
 8721SOL     OW37798   1.228   3.928  14.738 -0.3503 -0.4317 -0.7314
 8721SOL    HW137799   1.134   3.945  14.736 -0.2394  0.2131 -0.2530
 8721SOL    HW237800   1.226   3.837  14.767  1.0132 -0.5240 -0.9225
 8722SOL     OW37801   3.277   0.312   1.100 -0.2092  0.1223 -0.1616
 8722SOL    HW137802   3.346   0.268   1.051  0.2735 -1.1158  1.5945
 8722SOL    HW237803   3.282   0.402   1.068 -3.1798  0.6365  0.7738
 8723SOL     OW37804   3.160   0.045   2.876 -0.2724  0.0469 -0.2440
 8723SOL    HW137805   3.179   0.038   2.969  1.2994  1.9641 -0.4403
 8723SOL    HW237806   3.183   4.697   2.844 -2.3123 -0.8628  0.7424
 8724SOL     OW37807   4.417   2.060   6.704 -0.1835 -0.1060  0.6831
 8724SOL    HW137808   4.346   2.090   6.762 -0.2674  0.9458  0.0351
 8724SOL    HW237809   4.428   2.125   6.635 -3.2593  2.3461  2.5038
 8725SOL     OW37810   4.554   4.240   5.640 -0.4254 -0.1256  0.1267
 8725SOL    HW137811   4.642   4.212   5.613 -1.5163 -0.0811 -3.5187
 8725SOL    HW237812   4.568   4.224   5.733 -0.3081 -0.2387  0.0893
 8726SOL     OW37813   2.753   0.872   5.039  0.2108  0.0240 -0.0102
 8726SOL    HW137814   2.755   0.965   5.018 -1.6491 -0.1916 -1.1575
 8726SOL    HW237815   2.671   0.864   5.087 -0.9357 -2.0189 -2.2493
 8727SOL     OW37816   2.642   0.790  10.072 -0.7623 -0.4871  0.5017
 8727SOL    HW137817   2.688   0.825  10.149 -2.1689 -0.8627  1.5159
 8727SOL    HW237818   2.648   0.696  10.089 -2.3543  0.0658  4.2178
 8728SOL     OW37819   1.397   2.874   4.434  0.9119  0.5261  0.0342
 8728SOL    HW137820   1.383   2.849   4.526  1.5045 -0.5386 -0.1641
 8728SOL    HW237821   1.320   2.929   4.417  2.1064  2.0808 -0.2430
 8729SOL     OW37822   3.807   0.924   1.112 -0.3926  0.5881  0.0516
 8729SOL    HW137823   3.878   0.887   1.164 -0.4896  0.5288  0.1407
 8729SOL    HW237824   3.846   0.995   1.060  0.1505 -0.2189 -0.6394
 8730SOL     OW37825   0.431   2.953   5.263  0.0883  0.5914  0.3213
 8730SOL    HW137826   0.457   2.861   5.254  0.5429  0.8291 -0.7589
 8730SOL    HW237827   0.418   2.947   5.357  1.4193  0.7258  0.5151
 8731SOL     OW37828   4.027   1.404   2.013  0.2466  0.2161 -0.2675
 8731SOL    HW137829   4.011   1.485   1.964  1.0318  0.4384 -0.1537
 8731SOL    HW237830   4.027   1.438   2.102  1.6440  1.4890 -0.7598
 8732SOL     OW37831   2.770   3.447  14.225 -0.1815  0.3420 -0.4428
 8732SOL    HW137832   2.727   3.461  14.141  0.2100 -0.4056 -0.7692
 8732SOL    HW237833   2.698   3.413  14.279  0.4950 -0.1558  0.1556
 8733SOL     OW37834   2.493   0.182  16.299 -0.4855  0.6165  0.8187
 8733SOL    HW137835   2.425   0.114  16.296 -0.0734  0.1866  1.2674
 8733SOL    HW237836   2.445   0.256  16.337 -2.7889  0.7314 -2.2868
 8734SOL     OW37837   0.372   0.154   9.202 -0.0150 -0.7455 -0.2394
 8734SOL    HW137838   0.404   0.119   9.119 -0.7306 -0.7717 -0.5043
 8734SOL    HW237839   0.446   0.138   9.260 -0.4204  1.4924  0.9048
 8735SOL     OW37840   3.627   1.742   4.866  0.0237  0.0177 -0.0153
 8735SOL    HW137841   3.617   1.718   4.774  1.0272  0.9668 -0.3713
 8735SOL    HW237842   3.713   1.708   4.891 -0.9175 -1.6050  0.9987
 8736SOL     OW37843   0.601   2.379  14.882  0.0011 -0.0512  0.1968
 8736SOL    HW137844   0.660   2.308  14.856  0.8569  1.2144 -1.2507
 8736SOL    HW237845   0.533   2.361  14.817  2.4781 -0.5946 -2.1794
 8737SOL     OW37846   1.734   0.161   7.859  0.0383 -0.3958  0.0474
 8737SOL    HW137847   1.733   0.067   7.845 -2.7403 -0.5475  1.2085
 8737SOL    HW237848   1.673   0.179   7.788  0.2377  1.8627  0.4362
 8738SOL     OW37849   0.014   0.603  14.478 -0.6935 -0.2036  0.5478
 8738SOL    HW137850   4.695   0.611  14.554 -0.7805  2.2836  0.2101
 8738SOL    HW237851   0.018   0.692  14.443 -0.3458 -1.0998 -1.6491
 8739SOL     OW37852   1.418   1.073  15.786 -0.1861 -0.4281  0.4694
 8739SOL    HW137853   1.368   1.030  15.716 -0.2301 -1.4922  1.1475
 8739SOL    HW237854   1.446   1.151  15.739  0.8555 -0.8487  0.3983
 8740SOL     OW37855   3.014   1.076   1.799  0.3003  0.1152 -0.2706
 8740SOL    HW137856   3.014   1.017   1.724 -2.1647  0.8250 -0.8381
 8740SOL    HW237857   3.079   1.040   1.860  0.4772  3.0717  1.2829
 8741SOL     OW37858   3.514   0.725   5.691  0.4606 -0.3948  0.0684
 8741SOL    HW137859   3.566   0.802   5.712  0.0373  0.1540 -0.9077
 8741SOL    HW237860   3.449   0.751   5.626  0.1806 -0.2487  0.4023
 8742SOL     OW37861   3.204   4.705   9.584  0.0565 -0.2999  0.3594
 8742SOL    HW137862   3.155   4.634   9.626  0.6659 -0.7555  0.3061
 8742SOL    HW237863   3.241   0.017   9.655  1.6722 -0.0961 -0.6166
 8743SOL     OW37864   3.142   0.728   4.771  0.1412 -0.5481  0.9487
 8743SOL    HW137865   3.160   0.796   4.836  4.0886 -0.1008 -0.6193
 8743SOL    HW237866   3.046   0.721   4.768  0.0005  2.5869 -1.3009
 8744SOL     OW37867   1.313   0.589  14.341 -0.3579 -0.0530 -0.0120
 8744SOL    HW137868   1.274   0.652  14.402  1.8048 -1.2124  2.5943
 8744SOL    HW237869   1.402   0.614  14.364 -0.5700  1.0883 -0.4331
 8745SOL     OW37870   3.406   2.424   3.357  0.2219  0.1948  0.0438
 8745SOL    HW137871   3.496   2.441   3.330  0.9760 -1.8591  1.2757
 8745SOL    HW237872   3.359   2.392   3.280 -0.9845 -0.0888  0.8931
 8746SOL     OW37873   3.218   2.689   3.970  0.0168 -1.1931 -0.3858
 8746SOL    HW137874   3.232   2.695   4.064  0.2599 -0.4484 -0.4721
 8746SOL    HW237875   3.299   2.728   3.939 -0.0146 -0.2199  0.7956
 8747SOL     OW37876   1.366   3.512   5.625 -0.2260  0.2371  0.5071
 8747SOL    HW137877   1.363   3.538   5.533  1.1646  3.8107  1.4489
 8747SOL    HW237878   1.352   3.420   5.604  1.0359  0.0443  0.5065
 8748SOL     OW37879   0.685   1.500   9.808  0.2631  0.6589  0.3065
 8748SOL    HW137880   0.692   1.404   9.811  1.1131  0.6743 -1.1856
 8748SOL    HW237881   0.705   1.520   9.717 -1.3757  1.8372  0.2046
 8749SOL     OW37882   3.680   2.116   3.492 -0.3262 -0.0574 -0.1128
 8749SOL    HW137883   3.595   2.111   3.536 -0.0457  0.8164  0.5389
 8749SOL    HW237884   3.726   2.185   3.539 -1.2763  0.4709  0.0406
 8750SOL     OW37885   2.408   2.305   5.011 -0.3127 -0.4262  0.3467
 8750SOL    HW137886   2.464   2.234   5.042  1.9233  0.8566 -0.7627
 8750SOL    HW237887   2.324   2.259   5.015 -0.5577  0.0203  0.3737
 8751SOL     OW37888   3.304   0.929   3.197 -0.0831  0.3502 -0.0011
 8751SOL    HW137889   3.351   0.979   3.263  2.8041 -2.3099 -0.0244
 8751SOL    HW237890   3.217   0.967   3.198  0.2084  1.0104 -0.1807
 8752SOL     OW37891   0.488   0.753  15.489  0.6356  0.6156  0.0137
 8752SOL    HW137892   0.528   0.826  15.535  0.3384  1.2274 -0.7013
 8752SOL    HW237893   0.417   0.793  15.439 -1.2343 -1.2079  1.2020
 8753SOL     OW37894   0.752   3.628   9.364 -0.2238  0.3396 -0.0178
 8753SOL    HW137895   0.717   3.687   9.431 -0.8863 -1.0750  0.8720
 8753SOL    HW237896   0.842   3.613   9.393 -0.3882 -1.2730 -0.3447
 8754SOL     OW37897   1.341   4.102   5.992 -0.0212  0.2437  0.4294
 8754SOL    HW137898   1.357   4.127   5.901 -0.0550 -2.7184 -0.4212
 8754SOL    HW237899   1.246   4.098   5.996 -0.0669  2.6005  1.6337
 8755SOL     OW37900   3.170   2.121   8.518  0.3113  0.3515 -0.6391
 8755SOL    HW137901   3.153   2.069   8.597 -1.0997  1.0340 -0.4833
 8755SOL    HW237902   3.226   2.189   8.556  0.1719  0.6099 -0.8960
 8756SOL     OW37903   4.376   1.408   8.491 -0.6582  0.0834  0.5588
 8756SOL    HW137904   4.324   1.458   8.554 -0.1749 -0.7586  1.6407
 8756SOL    HW237905   4.398   1.338   8.554  2.3232  2.2234  1.9061
 8757SOL     OW37906   4.496   2.958   6.901  0.7591 -0.2740  0.0515
 8757SOL    HW137907   4.570   2.952   6.961  0.6295 -2.7767 -0.0379
 8757SOL    HW237908   4.436   2.997   6.965  1.0883 -0.1734  0.2966
 8758SOL     OW37909   3.091   2.145   0.510 -0.3760 -0.3390  0.0892
 8758SOL    HW137910   3.083   2.105   0.597 -2.5762 -1.4931 -0.6344
 8758SOL    HW237911   3.185   2.145   0.496 -0.2643 -0.9835  0.8135
 8759SOL     OW37912   1.183   0.361  15.217  0.1031  0.2511 -0.0282
 8759SOL    HW137913   1.217   0.298  15.154 -1.7247 -1.4097  0.6475
 8759SOL    HW237914   1.089   0.344  15.213  0.1330  0.5559 -1.8282
 8760SOL     OW37915   2.109   1.300   9.031 -0.2452 -0.4621 -0.1312
 8760SOL    HW137916   2.175   1.352   8.984 -1.7621  1.4981 -0.1216
 8760SOL    HW237917   2.089   1.239   8.960  0.2249 -0.8178  0.0438
 8761SOL     OW37918   0.065   0.616   4.152 -0.7706  0.2347  0.4993
 8761SOL    HW137919   0.039   0.637   4.242  0.9866  0.2191  1.0207
 8761SOL    HW237920   0.084   0.523   4.160  1.2159  0.7148  1.5563
 8762SOL     OW37921   3.347   1.370   4.661  0.2572 -0.6010 -0.1256
 8762SOL    HW137922   3.313   1.353   4.749 -3.2599 -2.6454 -1.8694
 8762SOL    HW237923   3.261   1.399   4.630 -0.0298 -1.3005  0.0041
 8763SOL     OW37924   3.987   0.615   7.041  0.5785  0.2928 -0.2493
 8763SOL    HW137925   4.009   0.548   7.106  1.4303 -0.9311 -1.8092
 8763SOL    HW237926   3.899   0.631   7.076  0.5800 -1.4309  0.5106
 8764SOL     OW37927   0.348   3.804   8.328 -0.6159 -0.7309 -0.0116
 8764SOL    HW137928   0.344   3.748   8.250 -0.3577  1.6241 -1.7213
 8764SOL    HW237929   0.285   3.761   8.386 -0.2487 -0.9461  0.2250
 8765SOL     OW37930   1.428   1.850   8.888 -0.1052  0.5352  0.3820
 8765SOL    HW137931   1.467   1.772   8.926 -0.5203 -0.8719 -2.0525
 8765SOL    HW237932   1.334   1.831   8.895 -0.0251  0.3562  0.9440
 8766SOL     OW37933   1.428   0.041   2.544 -0.0320  0.1168 -0.7045
 8766SOL    HW137934   1.489   0.111   2.568 -0.0177 -0.0998 -0.1183
 8766SOL    HW237935   1.429   4.725   2.622  0.8823 -2.2845 -2.4295
 8767SOL     OW37936   0.233   1.593   8.312 -0.4527 -0.2616  0.0846
 8767SOL    HW137937   0.247   1.518   8.253 -1.9884 -0.6154  0.1510
 8767SOL    HW237938   0.138   1.601   8.315 -0.1714  2.2067  1.7876
 8768SOL     OW37939   0.577   0.979   7.945  0.0874  0.3049  0.3880
 8768SOL    HW137940   0.492   0.944   7.972  0.1355 -1.2472 -1.4147
 8768SOL    HW237941   0.575   1.068   7.981  0.8532  0.7338 -0.6179
 8769SOL     OW37942   0.165   1.078   3.689  1.0474 -0.1965 -0.3489
 8769SOL    HW137943   0.237   1.038   3.736  0.0792  1.3306  2.4076
 8769SOL    HW237944   0.186   1.171   3.678  0.1821  0.1663  1.0964
 8770SOL     OW37945   2.954   4.515   3.785  0.1088 -0.3383 -0.4749
 8770SOL    HW137946   3.018   4.444   3.789 -1.3620 -1.6847 -1.2548
 8770SOL    HW237947   2.901   4.470   3.720  1.9429 -1.1233 -1.4319
 8771SOL     OW37948   0.720   1.228   4.631 -0.1411 -0.2121  0.4167
 8771SOL    HW137949   0.779   1.266   4.566 -3.1371  0.3381 -2.0074
 8771SOL    HW237950   0.763   1.241   4.715  0.1376  0.3501  0.1852
 8772SOL     OW37951   1.077   3.033   5.178 -0.2538  0.5134  0.0659
 8772SOL    HW137952   1.141   3.091   5.219  0.5410  0.6044 -1.2944
 8772SOL    HW237953   1.136   2.977   5.128 -0.8998 -0.4411  0.3834
 8773SOL     OW37954   1.580   0.357   4.704 -0.3869 -0.1007  0.0071
 8773SOL    HW137955   1.634   0.347   4.783  0.4049  0.6014 -0.4453
 8773SOL    HW237956   1.629   0.305   4.640  0.1469 -1.8621  1.8362
 8774SOL     OW37957   1.984   1.781   9.098 -0.0140 -0.1091 -0.1377
 8774SOL    HW137958   2.002   1.855   9.154  2.3332 -1.3385  0.7264
 8774SOL    HW237959   2.063   1.770   9.045 -1.3577 -0.6144 -2.0573
 8775SOL     OW37960   0.469   1.721   7.028 -0.3395  0.1928  0.0483
 8775SOL    HW137961   0.483   1.762   6.942 -0.3258  2.0002  0.9124
 8775SOL    HW237962   0.525   1.644   7.019 -0.4259  0.1707 -0.3020
 8776SOL     OW37963   3.487   0.082   8.652 -0.0552  0.4699  0.6127
 8776SOL    HW137964   3.579   0.103   8.635  0.0094  0.0730  0.4701
 8776SOL    HW237965   3.469   0.014   8.587 -2.3647 -0.4140  2.1957
 8777SOL     OW37966   1.117   4.226   9.738 -0.2682 -0.0386  0.4298
 8777SOL    HW137967   1.052   4.159   9.717 -0.5026 -0.1761  1.6044
 8777SOL    HW237968   1.132   4.220   9.832 -0.4125  1.0623  0.5201
 8778SOL     OW37969   2.434   1.585   7.883 -0.3270  0.0385  0.0463
 8778SOL    HW137970   2.406   1.676   7.891  0.6143  0.2155  1.2542
 8778SOL    HW237971   2.507   1.590   7.945  0.0833 -0.1876 -0.4201
 8779SOL     OW37972   0.002   0.255   7.271  0.4949 -0.0498  0.3256
 8779SOL    HW137973   0.004   0.238   7.177  0.9433  2.7501 -0.1481
 8779SOL    HW237974   0.084   0.210   7.296  0.9749 -0.7910 -2.6103
 8780SOL     OW37975   3.352   2.823  13.139  0.0108  0.0985  0.4293
 8780SOL    HW137976   3.397   2.739  13.151 -2.8488 -1.6475 -0.9153
 8780SOL    HW237977   3.377   2.872  13.217 -1.6577 -0.0752  1.0915
 8781SOL     OW37978   4.228   4.676   2.803 -0.6210  0.7208  0.5005
 8781SOL    HW137979   4.270   4.607   2.752 -1.0805 -0.5280  1.8149
 8781SOL    HW237980   4.283   0.007   2.769 -1.7088  0.2612 -2.2528
 8782SOL     OW37981   2.648   3.568  17.068 -0.2886  0.0369  0.3699
 8782SOL    HW137982   2.736   3.538  17.046 -1.0289 -2.3562  0.6558
 8782SOL    HW237983   2.660   3.663  17.072  1.0341 -0.2265  2.6125
 8783SOL     OW37984   1.272   3.435   6.976 -0.6349 -1.0962 -0.7658
 8783SOL    HW137985   1.240   3.499   6.913 -0.5729  0.2638  0.5692
 8783SOL    HW237986   1.362   3.412   6.950 -0.7201  0.3066 -2.3334
 8784SOL     OW37987   3.450   0.188   4.340 -0.4845 -0.3948  0.2129
 8784SOL    HW137988   3.424   0.124   4.273  1.6272 -0.3803 -0.6114
 8784SOL    HW237989   3.395   0.167   4.415 -0.7447 -0.8468 -0.1002
 8785SOL     OW37990   0.439   2.778   7.255  0.6548 -0.0731  0.2360
 8785SOL    HW137991   0.410   2.690   7.277  1.5735  0.1861  2.4870
 8785SOL    HW237992   0.502   2.757   7.187  1.7975  2.5320  0.4924
 8786SOL     OW37993   4.644   3.349  11.211 -0.1588 -0.0787 -0.3247
 8786SOL    HW137994   4.724   3.348  11.160 -1.1153 -0.1103 -1.8248
 8786SOL    HW237995   4.595   3.425  11.177 -1.1028 -0.6986 -0.3510
 8787SOL     OW37996   0.866   1.344   2.370  0.4670  0.5767 -0.2086
 8787SOL    HW137997   0.841   1.381   2.285 -0.3493  0.6145  0.0470
 8787SOL    HW237998   0.788   1.341   2.425  0.5001 -0.6603 -0.2135
 8788SOL     OW37999   2.535   0.236   7.091  0.0446 -0.0845 -0.4153
 8788SOL    HW138000   2.517   0.228   7.185  1.5337 -2.0467 -0.3034
 8788SOL    HW238001   2.505   0.326   7.074  0.4706 -0.4244 -2.9783
 8789SOL     OW38002   0.115   4.650  16.550 -0.1862 -0.2302 -1.2184
 8789SOL    HW138003   0.037   4.638  16.495  0.9746 -1.0882 -2.6598
 8789SOL    HW238004   0.107   4.578  16.612 -2.0883  1.1161  0.1004
 8790SOL     OW38005   0.493   2.699  11.017  0.2016 -0.3352 -1.0053
 8790SOL    HW138006   0.410   2.653  11.033  0.9083 -1.0478  0.5256
 8790SOL    HW238007   0.490   2.693  10.921  0.3845 -0.7848 -0.9851
 8791SOL     OW38008   1.962   4.182   1.719  0.8139  0.2527  0.0762
 8791SOL    HW138009   1.941   4.107   1.774  2.8369 -0.3104  0.0861
 8791SOL    HW238010   2.034   4.214   1.774  0.6284  1.0547 -0.1465
 8792SOL     OW38011   4.013   3.547   7.033 -0.1363 -0.2790  0.3075
 8792SOL    HW138012   4.064   3.487   7.087  0.0150 -1.7601 -1.4853
 8792SOL    HW238013   3.967   3.485   6.977 -1.4027  0.1380  0.8848
 8793SOL     OW38014   4.495   3.345  13.191  0.3424  0.0144  0.0960
 8793SOL    HW138015   4.522   3.421  13.139 -0.3860  0.0827 -0.1863
 8793SOL    HW238016   4.571   3.315  13.240 -1.0725 -1.0684  1.6287
 8794SOL     OW38017   1.110   1.445   2.313 -0.0650 -0.1841 -0.5568
 8794SOL    HW138018   1.027   1.401   2.331 -0.2716  0.4921  0.2183
 8794SOL    HW238019   1.172   1.374   2.327 -0.8196 -0.4515  1.5906
 8795SOL     OW38020   0.543   0.350   2.119  0.1246 -0.5544 -0.0532
 8795SOL    HW138021   0.511   0.284   2.058  1.2005  1.7748 -3.1435
 8795SOL    HW238022   0.635   0.350   2.091  0.7184 -1.1553  1.8348
 8796SOL     OW38023   2.577   2.411  10.886  0.1305  0.4085  0.4839
 8796SOL    HW138024   2.612   2.324  10.904 -3.1148 -0.7808  1.0594
 8796SOL    HW238025   2.568   2.408  10.791  0.0826  1.9045  0.4396
 8797SOL     OW38026   2.850   2.632  16.826  0.5445  0.1188 -0.2665
 8797SOL    HW138027   2.889   2.547  16.844  1.0275  0.5676  0.8021
 8797SOL    HW238028   2.924   2.666  16.774  0.0576  3.2017  1.0521
 8798SOL     OW38029   4.499   3.448  14.131 -0.2701 -0.4625  0.1970
 8798SOL    HW138030   4.409   3.421  14.149 -1.8708  3.3308 -2.1713
 8798SOL    HW238031   4.544   3.368  14.104  1.2344  0.2066  0.6864
 8799SOL     OW38032   2.521   2.717   9.761  0.2031  0.1679  0.7616
 8799SOL    HW138033   2.524   2.811   9.777 -3.9576  0.1359  1.8752
 8799SOL    HW238034   2.587   2.680   9.819 -1.6478 -0.7471  2.3079
 8800SOL     OW38035   0.259   4.298   2.773 -0.0987 -0.2674  0.1177
 8800SOL    HW138036   0.273   4.240   2.698 -1.3427 -1.0163  0.4625
 8800SOL    HW238037   0.324   4.364   2.751 -0.4946 -0.7281 -2.4780
 8801SOL     OW38038   2.463   2.046  13.795 -0.4144  0.1285 -0.5344
 8801SOL    HW138039   2.547   2.054  13.749 -0.1745 -4.4163 -0.8621
 8801SOL    HW238040   2.502   2.045  13.882 -0.4031  1.9578 -0.5016
 8802SOL     OW38041   2.154   3.304   9.054  0.4022 -0.0765  0.1744
 8802SOL    HW138042   2.160   3.332   8.962  2.8378 -0.9177  0.0662
 8802SOL    HW238043   2.078   3.246   9.056  0.4836 -0.0846  2.4780
 8803SOL     OW38044   2.767   1.646  11.633  0.6299 -0.1888 -0.1585
 8803SOL    HW138045   2.852   1.618  11.599  0.6993  1.5311 -1.3801
 8803SOL    HW238046   2.708   1.622  11.562 -0.7948 -0.8100  1.2321
 8804SOL     OW38047   4.295   1.305  15.302 -0.2122 -0.0454 -0.5547
 8804SOL    HW138048   4.389   1.316  15.294  0.0001 -1.6204 -0.1481
 8804SOL    HW238049   4.261   1.355  15.227  0.2263 -1.8339 -1.9368
 8805SOL     OW38050   0.886   3.762   7.783 -0.1296  0.7136  0.2512
 8805SOL    HW138051   0.800   3.723   7.802 -0.0086  0.0175 -0.6619
 8805SOL    HW238052   0.904   3.820   7.856  2.6107 -0.7451  0.7263
 8806SOL     OW38053   3.301   3.317   9.779  0.1564 -0.0475 -0.2017
 8806SOL    HW138054   3.371   3.281   9.833  0.7800 -0.5961 -1.3850
 8806SOL    HW238055   3.349   3.395   9.749  1.3928 -0.8124 -0.2056
 8807SOL     OW38056   4.227   1.879   6.581 -0.0851  0.1685  0.0094
 8807SOL    HW138057   4.303   1.935   6.590 -0.5806  1.0328 -1.1260
 8807SOL    HW238058   4.258   1.806   6.634  1.6917  1.6862  1.0471
 8808SOL     OW38059   1.235   1.545   8.025 -0.3783 -0.6397 -0.1855
 8808SOL    HW138060   1.318   1.545   7.976 -0.4261  0.5000 -0.2831
 8808SOL    HW238061   1.205   1.455   8.028 -0.4231 -0.6327 -0.4403
 8809SOL     OW38062   4.718   3.033   7.473  0.1771  0.2918 -0.0875
 8809SOL    HW138063   0.022   2.963   7.424 -0.1337  0.2046 -0.2363
 8809SOL    HW238064   0.056   3.084   7.496  0.5023 -0.8352  1.2970
 8810SOL     OW38065   3.509   2.014  16.826 -0.3713  0.4561  0.3420
 8810SOL    HW138066   3.487   2.057  16.744  0.8319  1.3091  0.4669
 8810SOL    HW238067   3.601   2.032  16.843 -0.2415 -0.4153  0.5934
 8811SOL     OW38068   0.978   4.480   5.944 -0.4864 -0.2294 -0.2922
 8811SOL    HW138069   0.917   4.445   6.009 -0.9858  0.9577 -0.1215
 8811SOL    HW238070   1.011   4.396   5.913  1.1857  0.0399  0.7454
 8812SOL     OW38071   4.602   2.944   9.174  0.1258  0.8399  0.2800
 8812SOL    HW138072   4.606   3.039   9.178 -0.7334  1.0005 -2.4679
 8812SOL    HW238073   4.509   2.928   9.154  0.3454 -0.2962  0.1503
 8813SOL     OW38074   1.459   3.014   8.461 -0.1107 -0.4478 -0.2560
 8813SOL    HW138075   1.467   3.017   8.556  0.9169 -3.3325 -0.2501
 8813SOL    HW238076   1.541   2.979   8.426 -0.3673 -0.7929 -0.5136
 8814SOL     OW38077   2.965   4.204  11.247 -0.1577 -0.3733 -0.2029
 8814SOL    HW138078   2.916   4.220  11.166 -0.7225 -0.7589  0.0616
 8814SOL    HW238079   3.047   4.249  11.226 -0.0787  0.1705  1.3134
 8815SOL     OW38080   4.645   2.605   1.553 -0.9316 -0.5525  0.7101
 8815SOL    HW138081   4.558   2.567   1.535  0.0582 -2.2770 -0.4314
 8815SOL    HW238082   4.640   2.587   1.647  0.0980  1.0248  1.0637
 8816SOL     OW38083   1.754   4.574   7.755  0.1414  0.2604  0.2539
 8816SOL    HW138084   1.687   4.526   7.706 -0.4903  1.5774 -0.1854
 8816SOL    HW238085   1.765   4.649   7.696 -0.6063 -0.4336 -0.7638
 8817SOL     OW38086   3.919   2.973   5.565 -0.0085 -0.1750  0.5706
 8817SOL    HW138087   3.874   2.977   5.480  1.3469 -1.7586 -0.2284
 8817SOL    HW238088   3.994   3.025   5.537 -1.3166  1.2103 -0.3827
 8818SOL     OW38089   1.950   1.740   3.128 -0.8114 -0.2033 -0.3467
 8818SOL    HW138090   1.918   1.654   3.153 -1.3613 -0.3926 -1.6905
 8818SOL    HW238091   2.034   1.737   3.175 -2.1221  0.8526  2.0403
 8819SOL     OW38092   1.771   1.363   3.500 -0.3481  0.5907  0.1030
 8819SOL    HW138093   1.783   1.360   3.405  2.9262 -2.7369  0.6137
 8819SOL    HW238094   1.821   1.283   3.517 -0.7807  0.6763  1.7367
 8820SOL     OW38095   3.930   2.538   7.279 -0.1260 -0.2631  0.0700
 8820SOL    HW138096   3.863   2.606   7.276  0.9001  0.7335 -0.3032
 8820SOL    HW238097   3.961   2.537   7.369 -0.0445  0.6407  0.0563
 8821SOL     OW38098   1.342   4.047  12.811 -0.3055 -0.3223  0.1181
 8821SOL    HW138099   1.339   3.963  12.765  1.4609 -0.1525 -0.2892
 8821SOL    HW238100   1.297   4.095  12.741 -0.4633  0.2837  0.6361
 8822SOL     OW38101   1.404   2.831   0.758 -0.6666 -0.3285  0.0884
 8822SOL    HW138102   1.475   2.828   0.694 -0.9156  0.8725 -0.2376
 8822SOL    HW238103   1.422   2.914   0.803  0.2361 -1.6111  2.0683
 8823SOL     OW38104   4.576   4.013   6.133 -0.0970 -0.1689  0.3314
 8823SOL    HW138105   4.596   3.929   6.091  0.7390 -0.1490  0.6936
 8823SOL    HW238106   4.482   4.003   6.149  0.3315 -1.3501  2.0308
 8824SOL     OW38107   4.529   0.493   4.104  0.8767  0.0149 -0.2070
 8824SOL    HW138108   4.515   0.489   4.010 -2.1369 -0.9160  0.2767
 8824SOL    HW238109   4.617   0.462   4.125  0.2225 -1.1862  0.8085
 8825SOL     OW38110   2.805   3.990   5.197  0.1327  0.2456 -0.1362
 8825SOL    HW138111   2.763   3.908   5.169 -1.0466  0.8198 -0.0736
 8825SOL    HW238112   2.773   4.045   5.126 -0.7346 -1.4483 -1.0651
 8826SOL     OW38113   3.050   1.830   7.633  0.1418 -0.1294  0.2492
 8826SOL    HW138114   3.040   1.846   7.727 -1.7767 -2.3723  0.4222
 8826SOL    HW238115   2.958   1.832   7.606  0.3122  0.4220 -0.3002
 8827SOL     OW38116   3.140   1.472   1.376 -0.3998  0.1791  0.2065
 8827SOL    HW138117   3.197   1.549   1.376  1.4283 -1.1612 -0.4882
 8827SOL    HW238118   3.071   1.485   1.440  1.5229  0.9030  2.1369
 8828SOL     OW38119   0.853   1.262   7.162  0.2645 -0.1259 -0.3529
 8828SOL    HW138120   0.907   1.320   7.108  2.0394 -2.4757 -1.1098
 8828SOL    HW238121   0.781   1.244   7.102  0.2999  1.0412 -0.7485
 8829SOL     OW38122   1.044   4.638   3.563 -0.1703 -0.6356 -0.4625
 8829SOL    HW138123   1.122   4.692   3.577 -0.8520  0.8338 -2.3812
 8829SOL    HW238124   0.972   4.701   3.569  1.2109  0.9240 -0.2834
 8830SOL     OW38125   0.734   2.754   6.375  0.1867  0.2179 -0.1226
 8830SOL    HW138126   0.679   2.682   6.345 -1.7176  1.2383  0.9578
 8830SOL    HW238127   0.819   2.713   6.393  0.8696  0.6536 -2.2963
 8831SOL     OW38128   1.915   1.579   5.265  0.3617  0.7776 -0.2498
 8831SOL    HW138129   1.920   1.563   5.360  1.4445 -0.4500 -0.5079
 8831SOL    HW238130   1.843   1.641   5.252 -0.4978 -0.5726 -1.8713
 8832SOL     OW38131   4.400   2.229  17.745  0.5358  0.1972 -0.4822
 8832SOL    HW138132   4.316   2.259   0.025 -0.0033 -0.3366 -1.2934
 8832SOL    HW238133   4.452   2.303   0.020 -0.4469  0.8025 -0.2734
 8833SOL     OW38134   1.150   4.433   2.338  0.6342  0.1062  1.2696
 8833SOL    HW138135   1.130   4.426   2.431 -1.7855  0.8329  0.8144
 8833SOL    HW238136   1.193   4.518   2.331  0.1346  0.3109  0.6180
 8834SOL     OW38137   0.860   3.935   2.164  0.0661 -0.0827 -0.3289
 8834SOL    HW138138   0.946   3.940   2.206 -1.2525 -0.2075  2.3936
 8834SOL    HW238139   0.802   3.908   2.236  0.1282 -0.7278 -0.5202
 8835SOL     OW38140   1.750   2.073   9.335 -0.0819 -0.3154 -0.0948
 8835SOL    HW138141   1.840   2.073   9.304 -0.3090 -0.7982 -0.7396
 8835SOL    HW238142   1.750   1.995   9.390 -1.1777 -0.0658  0.2744
 8836SOL     OW38143   0.091   3.908   5.527 -0.3592 -0.3298  0.0988
 8836SOL    HW138144   0.096   3.999   5.556  2.1234 -0.5452  0.3328
 8836SOL    HW238145   0.161   3.866   5.578  0.7712  0.1625 -1.0430
 8837SOL     OW38146   0.494   1.803   6.215 -0.1960 -0.0351 -0.1412
 8837SOL    HW138147   0.450   1.868   6.161  1.1390  0.8844 -0.1108
 8837SOL    HW238148   0.518   1.846   6.296 -0.8894 -0.1138  0.1082
 8838SOL     OW38149   3.671   0.893   6.968 -0.0288  0.1196  0.4541
 8838SOL    HW138150   3.718   0.842   6.902 -0.2194  0.5735 -0.0308
 8838SOL    HW238151   3.698   0.838   7.042  0.0487 -1.3918 -0.7011
 8839SOL     OW38152   0.902   1.997   9.230 -0.0478  0.6955 -0.9100
 8839SOL    HW138153   0.881   1.945   9.152 -0.4290  0.3548 -0.5773
 8839SOL    HW238154   0.907   2.084   9.190  0.2673  1.8646  1.6722
 8840SOL     OW38155   1.832   0.849   1.262 -0.4293 -0.6944  0.2179
 8840SOL    HW138156   1.746   0.808   1.273 -0.4131 -0.7051  0.3035
 8840SOL    HW238157   1.857   0.856   1.354  1.5132  0.4964 -0.3961
 8841SOL     OW38158   0.818   4.194   1.443 -0.3174 -0.2289  0.6068
 8841SOL    HW138159   0.854   4.281   1.429 -0.2419 -0.3576 -0.0125
 8841SOL    HW238160   0.890   4.159   1.496 -0.3252 -1.6528 -0.3040
 8842SOL     OW38161   2.174   1.595   3.733 -0.4298 -0.9120 -0.5010
 8842SOL    HW138162   2.104   1.531   3.748  1.6270 -3.0732 -0.1565
 8842SOL    HW238163   2.226   1.581   3.813 -0.3306  0.0426 -0.4052
 8843SOL     OW38164   0.888   2.938   5.349 -0.6696  0.0224 -0.2950
 8843SOL    HW138165   0.927   2.851   5.360 -2.9969 -1.0716 -0.5514
 8843SOL    HW238166   0.956   2.973   5.292 -1.2703  3.1256  0.8698
 8844SOL     OW38167   0.629   2.368   4.861  0.0872 -0.6832 -0.1491
 8844SOL    HW138168   0.626   2.273   4.872  1.6497 -0.7318 -0.2233
 8844SOL    HW238169   0.639   2.389   4.768 -1.6515  1.4277  0.1371
 8845SOL     OW38170   1.305   3.442   9.420 -0.1388  0.3329 -0.1133
 8845SOL    HW138171   1.299   3.347   9.412  1.3792  0.0285  2.2739
 8845SOL    HW238172   1.384   3.456   9.472 -1.8975  0.4361  2.4903
 8846SOL     OW38173   0.373   1.332   6.279 -0.0546  0.2607 -0.0113
 8846SOL    HW138174   0.401   1.382   6.202 -0.7110 -1.1882 -1.2134
 8846SOL    HW238175   0.293   1.295   6.241 -0.2258  0.8108 -0.1933
 8847SOL     OW38176   4.513   3.791  16.291  0.2976  0.3870 -0.0263
 8847SOL    HW138177   4.559   3.875  16.282  1.5743 -0.1422  1.3629
 8847SOL    HW238178   4.427   3.831  16.304 -0.0774 -0.4737  0.1451
 8848SOL     OW38179   4.674   2.749   3.449 -0.4802  0.2972  0.4879
 8848SOL    HW138180   4.718   2.776   3.369  1.7131 -1.0223  1.2471
 8848SOL    HW238181   0.002   2.689   3.480  1.3688  1.4889 -1.2235
 8849SOL     OW38182   3.163   2.379   8.980 -0.0367  0.1541  0.2420
 8849SOL    HW138183   3.251   2.370   8.943 -0.2086 -0.4493 -0.0262
 8849SOL    HW238184   3.191   2.338   9.063 -0.8274  0.0223  0.4379
 8850SOL     OW38185   2.116   2.393   5.463  0.0249 -0.3960 -0.3667
 8850SOL    HW138186   2.059   2.368   5.390 -0.1052  2.1565 -1.1197
 8850SOL    HW238187   2.061   2.359   5.533 -1.3953 -1.6046 -2.0702
 8851SOL     OW38188   0.738   3.996   5.610  0.0658  0.0028  0.1655
 8851SOL    HW138189   0.821   3.954   5.634 -0.4155 -0.7917  0.4516
 8851SOL    HW238190   0.732   4.061   5.680  2.1926  0.7263 -0.3168
 8852SOL     OW38191   3.078   1.661   9.310 -0.0622  0.5053  0.1600
 8852SOL    HW138192   2.992   1.651   9.351 -1.3890  3.0854 -1.9254
 8852SOL    HW238193   3.115   1.574   9.322  0.3083  0.4628 -1.2577
 8853SOL     OW38194   3.521   1.505   9.507  0.1758 -0.4213 -0.7200
 8853SOL    HW138195   3.607   1.513   9.467  0.6972 -1.2338  0.2458
 8853SOL    HW238196   3.541   1.437   9.570  0.8804 -0.6823 -1.2277
 8854SOL     OW38197   4.467   1.619  17.634 -0.4956 -0.4822 -0.4423
 8854SOL    HW138198   4.438   1.667  17.711 -1.9023 -0.8725 -0.7405
 8854SOL    HW238199   4.402   1.549  17.641  0.2369 -0.9969  1.2617
 8855SOL     OW38200   0.142   1.360   2.643 -0.2186  0.0316 -0.0102
 8855SOL    HW138201   0.078   1.291   2.627 -1.1662  0.8834  0.1506
 8855SOL    HW238202   0.112   1.411   2.718  2.9702  1.6385  0.1925
 8856SOL     OW38203   1.360   2.621   4.728 -0.5228  0.1352 -0.0495
 8856SOL    HW138204   1.323   2.703   4.698 -2.4153  0.0400  2.0604
 8856SOL    HW238205   1.282   2.565   4.730 -0.5514  0.1558 -0.6763
 8857SOL     OW38206   2.965   0.585  14.616 -0.1906 -0.4074  0.2182
 8857SOL    HW138207   3.001   0.643  14.549 -0.4634  0.0869  0.4956
 8857SOL    HW238208   2.945   0.509  14.561 -1.0336  0.9672 -1.3794
 8858SOL     OW38209   4.355   0.214  17.464 -0.3482 -1.0150  0.1651
 8858SOL    HW138210   4.320   0.149  17.403 -0.6975 -0.7558  0.0945
 8858SOL    HW238211   4.320   0.292  17.421  1.2719 -0.6536 -0.5124
 8859SOL     OW38212   2.380   3.942   1.191  0.3935  0.6313  0.2318
 8859SOL    HW138213   2.440   3.974   1.123  1.4917  1.7636  1.7445
 8859SOL    HW238214   2.416   3.979   1.271  1.4485 -0.8398  0.4374
 8860SOL     OW38215   0.684   3.649   7.132 -1.1761  0.2567  0.1558
 8860SOL    HW138216   0.619   3.603   7.184 -0.3425 -2.5322 -1.2575
 8860SOL    HW238217   0.726   3.579   7.082 -1.2343  0.0339  0.4231
 8861SOL     OW38218   4.734   0.334   1.592  0.0383 -0.2751  0.1547
 8861SOL    HW138219   0.065   0.270   1.587  0.3109 -0.1754  2.4175
 8861SOL    HW238220   4.661   0.272   1.599  0.8282 -1.6356 -3.9477
 8862SOL     OW38221   2.237   0.403   4.452 -0.5627 -0.4233 -0.3059
 8862SOL    HW138222   2.212   0.473   4.392 -0.5938  0.2472  0.4726
 8862SOL    HW238223   2.208   0.432   4.539 -0.0440 -0.6192 -0.0649
 8863SOL     OW38224   3.807   2.201   7.690 -0.3260 -0.4292 -0.6842
 8863SOL    HW138225   3.789   2.273   7.750  0.0142 -1.4090  0.5990
 8863SOL    HW238226   3.798   2.228   7.599  0.5939 -0.0627 -0.6716
 8864SOL     OW38227   1.437   2.956  10.474  0.6372 -0.6472  0.1333
 8864SOL    HW138228   1.365   2.903  10.442  0.7618 -0.7294 -0.0162
 8864SOL    HW238229   1.506   2.890  10.479  1.1888 -0.1033 -0.1478
 8865SOL     OW38230   3.893   3.687  13.101 -0.4338  0.3506 -0.1739
 8865SOL    HW138231   3.973   3.650  13.139 -1.8919 -0.9206  1.6245
 8865SOL    HW238232   3.931   3.698  13.013  0.7244 -2.0792  0.0339
 8866SOL     OW38233   3.083   1.512   4.329  0.1495 -0.0197 -0.0315
 8866SOL    HW138234   3.135   1.432   4.339 -0.1229 -0.4404 -1.9670
 8866SOL    HW238235   3.107   1.538   4.241  0.3493  0.9275  0.2988
 8867SOL     OW38236   3.590   4.576  12.278 -0.1761 -0.4071  0.4595
 8867SOL    HW138237   3.534   4.515  12.326  0.7724  0.1294  2.2321
 8867SOL    HW238238   3.518   4.618  12.231  2.2458  1.4918 -1.5447
 8868SOL     OW38239   2.961   3.224  10.361  0.2628 -0.3001 -0.3436
 8868SOL    HW138240   3.053   3.231  10.336  0.8786  1.1354  2.3330
 8868SOL    HW238241   2.971   3.153  10.423  0.8182 -0.8471 -1.0595
 8869SOL     OW38242   1.497   4.079   6.200 -0.3292  0.2742  0.2815
 8869SOL    HW138243   1.588   4.087   6.171  0.0460 -0.7245  1.1634
 8869SOL    HW238244   1.457   4.078   6.113 -2.5700  0.9335  1.3184
 8870SOL     OW38245   1.183   4.198  10.001 -0.1172  0.7233 -0.4136
 8870SOL    HW138246   1.158   4.174  10.091  2.0140  0.9023  0.2226
 8870SOL    HW238247   1.230   4.279  10.021  0.0244  0.8378 -1.1961
 8871SOL     OW38248   3.048   3.002   5.405  0.1420 -0.4891 -0.5456
 8871SOL    HW138249   3.020   2.934   5.467 -0.8273  1.0710  0.7349
 8871SOL    HW238250   3.101   3.061   5.459 -0.4306  0.7838 -1.3796
 8872SOL     OW38251   4.424   2.018   2.730 -0.6096  0.2617 -0.2299
 8872SOL    HW138252   4.359   2.059   2.673  0.9011  0.5975 -1.7218
 8872SOL    HW238253   4.413   2.069   2.811  1.4507 -1.3960  1.0952
 8873SOL     OW38254   2.466   4.558   2.755 -0.5101  0.2457 -0.0989
 8873SOL    HW138255   2.459   4.463   2.758  1.6695  0.2075  3.9130
 8873SOL    HW238256   2.558   4.578   2.736 -0.4882  0.1599 -0.0811
 8874SOL     OW38257   0.211   2.567   1.558  0.2262 -0.4190  0.1733
 8874SOL    HW138258   0.117   2.556   1.540 -0.2289 -1.1812  3.0950
 8874SOL    HW238259   0.207   2.533   1.647  0.4450  0.2883  0.4481
 8875SOL     OW38260   1.068   2.394   2.462 -0.8580 -0.6171  0.1272
 8875SOL    HW138261   1.103   2.467   2.411  1.5600 -0.8554  1.4395
 8875SOL    HW238262   1.044   2.439   2.543  0.0645 -1.0255  0.6239
 8876SOL     OW38263   4.287   2.191   5.552 -0.1550 -0.4895  0.9049
 8876SOL    HW138264   4.368   2.140   5.558  1.3478  1.6435 -1.1357
 8876SOL    HW238265   4.291   2.217   5.460  0.0763 -2.4271  0.3631
 8877SOL     OW38266   0.742   1.903   5.063 -0.1178  0.1341  0.2039
 8877SOL    HW138267   0.680   1.858   5.120  0.5838 -0.3373  0.5977
 8877SOL    HW238268   0.808   1.834   5.063  1.9203  2.0697  1.0001
 8878SOL     OW38269   3.105   2.311   5.314 -0.1900 -1.2105  0.1341
 8878SOL    HW138270   3.167   2.341   5.380 -0.0182 -2.3799  0.5125
 8878SOL    HW238271   3.025   2.364   5.321  0.2098 -0.7436  1.0921
 8879SOL     OW38272   1.100   3.105  14.351 -0.2261 -0.8803  0.0204
 8879SOL    HW138273   1.066   3.103  14.441  2.5977  2.6210  1.1804
 8879SOL    HW238274   1.030   3.068  14.297  2.1463 -0.6611 -3.1936
 8880SOL     OW38275   2.627   3.060  10.010  0.0793 -0.3808 -0.2026
 8880SOL    HW138276   2.654   3.070  10.101 -1.3439 -0.3501  0.2185
 8880SOL    HW238277   2.694   3.111   9.966  0.0812  0.6676  1.0030
 8881SOL     OW38278   3.602   2.508   7.023  0.1170 -0.9113 -0.9069
 8881SOL    HW138279   3.573   2.588   7.068  1.4801 -1.3326  0.7167
 8881SOL    HW238280   3.534   2.451   7.058  0.4478 -1.3272 -0.9453
 8882SOL     OW38281   1.500   4.234  12.472  0.3313 -0.2765  0.2804
 8882SOL    HW138282   1.565   4.172  12.505 -1.3814 -0.5506  3.1803
 8882SOL    HW238283   1.429   4.215  12.534  0.8629 -0.3250  0.8758
 8883SOL     OW38284   2.396   3.382   1.573 -0.0186 -0.4189 -0.6062
 8883SOL    HW138285   2.322   3.394   1.633  0.4528  3.4247 -0.7842
 8883SOL    HW238286   2.353   3.347   1.495 -1.1506 -1.8709  0.6719
 8884SOL     OW38287   3.956   3.667   4.774 -0.0981 -0.4406  0.0485
 8884SOL    HW138288   4.012   3.600   4.811  1.2457 -0.3210 -1.7334
 8884SOL    HW238289   3.871   3.652   4.815  0.7821  0.4141  2.1804
 8885SOL     OW38290   4.519   2.411   8.766  0.3070 -0.0201  0.7890
 8885SOL    HW138291   4.530   2.461   8.685  0.7081 -0.8735  0.3151
 8885SOL    HW238292   4.599   2.427   8.816 -1.5706  1.8074  3.1926
 8886SOL     OW38293   3.027   0.884   6.428 -0.0623  0.0156  0.0208
 8886SOL    HW138294   2.948   0.877   6.482  0.0278 -0.8629  0.0326
 8886SOL    HW238295   3.016   0.819   6.360 -1.3941  0.2341  0.0327
 8887SOL     OW38296   1.739   3.991   8.784 -0.3865 -0.0602  0.2872
 8887SOL    HW138297   1.754   4.073   8.736  0.6337  0.3331  1.2669
 8887SOL    HW238298   1.830   3.961   8.782 -0.5824 -0.7113  1.1701
 8888SOL     OW38299   0.211   0.486   8.385 -0.2431  0.0468 -0.0815
 8888SOL    HW138300   0.253   0.494   8.299 -0.4113  1.0633 -0.0737
 8888SOL    HW238301   0.158   0.407   8.376 -2.5682  1.7852 -1.6016
 8889SOL     OW38302   0.880   2.710   8.848 -0.0995 -0.5878 -0.6822
 8889SOL    HW138303   0.949   2.647   8.826  0.2810 -0.8228  1.1981
 8889SOL    HW238304   0.911   2.735   8.935  0.5297  0.0478 -1.0902
 8890SOL     OW38305   3.944   2.284   2.950 -0.0502  0.6251  0.2288
 8890SOL    HW138306   4.032   2.301   2.917 -0.9107  2.7212 -0.9901
 8890SOL    HW238307   3.911   2.219   2.888 -0.1438 -0.4751  1.4351
 8891SOL     OW38308   2.212   3.284   6.192  0.6214 -0.1028  0.1365
 8891SOL    HW138309   2.256   3.301   6.275  1.9063  0.7298 -0.7168
 8891SOL    HW238310   2.128   3.329   6.191  1.1808  0.9212 -0.0361
 8892SOL     OW38311   3.961   1.039  12.594 -0.5824  0.0402  0.3775
 8892SOL    HW138312   3.871   1.070  12.584 -0.1965  0.7382 -0.9307
 8892SOL    HW238313   3.995   1.083  12.672 -1.9166 -0.3631  1.1899
 8893SOL     OW38314   0.138   3.153   6.085  0.6999  0.2117  0.1749
 8893SOL    HW138315   0.091   3.168   6.167 -1.1586  0.0826 -0.8640
 8893SOL    HW238316   0.109   3.228   6.033 -1.1113 -0.5911  0.0340
 8894SOL     OW38317   0.644   2.963  17.589 -0.1593 -0.1582 -0.7335
 8894SOL    HW138318   0.579   2.981  17.657  0.5494 -2.0309  0.4609
 8894SOL    HW238319   0.621   3.022  17.518  0.5997  0.2962 -0.5976
 8895SOL     OW38320   2.529   2.710  10.631 -0.1483 -0.0591  0.2472
 8895SOL    HW138321   2.490   2.797  10.632 -1.1034 -0.4769 -0.2025
 8895SOL    HW238322   2.496   2.664  10.553 -0.7211  0.5969  0.1058
 8896SOL     OW38323   0.915   4.587   8.767  0.7219 -0.5373 -0.2082
 8896SOL    HW138324   0.894   4.541   8.686 -0.2897 -1.2116  0.4331
 8896SOL    HW238325   0.993   4.536   8.792  0.5314 -0.0971  1.3200
 8897SOL     OW38326   2.461   4.564   9.372 -0.3717 -0.0231 -0.1162
 8897SOL    HW138327   2.370   4.592   9.380 -0.0713  1.0283 -0.2772
 8897SOL    HW238328   2.472   4.479   9.414 -0.6687 -0.7948 -1.5850
 8898SOL     OW38329   3.240   3.232   2.873  0.2717 -0.0864 -0.7539
 8898SOL    HW138330   3.190   3.174   2.930 -0.7170  1.3496 -0.1628
 8898SOL    HW238331   3.182   3.307   2.859  0.5630  0.8255  2.7631
 8899SOL     OW38332   1.164   1.314   4.790 -0.1578 -0.5167  0.2800
 8899SOL    HW138333   1.233   1.249   4.800 -0.7434 -1.3099 -0.9071
 8899SOL    HW238334   1.092   1.281   4.845 -2.7142 -1.9843 -3.9907
 8900SOL     OW38335   1.268   3.136   4.850 -0.1589  0.0243 -0.0733
 8900SOL    HW138336   1.235   3.185   4.775 -2.1057  0.0900  0.8168
 8900SOL    HW238337   1.274   3.209   4.912 -0.9562 -0.4646  0.5824
 8901SOL     OW38338   3.376   2.279   6.434  0.3275 -0.4255  0.1809
 8901SOL    HW138339   3.294   2.232   6.451  0.2187 -0.3654 -0.1662
 8901SOL    HW238340   3.340   2.353   6.385 -0.8869 -1.1189  0.0242
 8902SOL     OW38341   0.329   1.338  11.316  0.6737  0.3137  0.2533
 8902SOL    HW138342   0.266   1.297  11.257  3.4931 -0.8225 -1.9644
 8902SOL    HW238343   0.364   1.260  11.358  2.0457 -0.3388 -2.1156
 8903SOL     OW38344   4.692   2.255  17.535 -0.5352  0.1981 -0.4169
 8903SOL    HW138345   4.700   2.161  17.546  0.2298  0.4368  0.9641
 8903SOL    HW238346   4.598   2.263  17.550 -0.2573  1.8171  0.4861
 8904SOL     OW38347   2.804   3.143   1.042  0.1573  0.0117 -0.4682
 8904SOL    HW138348   2.820   3.051   1.063 -1.3323 -0.7523 -2.7194
 8904SOL    HW238349   2.870   3.188   1.096 -0.3303  0.2197 -0.0449
 8905SOL     OW38350   3.188   2.773  16.254  0.0530 -0.2561  0.3919
 8905SOL    HW138351   3.183   2.868  16.237 -0.4865 -0.2022  0.8335
 8905SOL    HW238352   3.112   2.756  16.310  0.0854 -0.4628  0.3723
 8906SOL     OW38353   1.897   1.196   1.226 -0.2941 -0.4176 -0.0544
 8906SOL    HW138354   1.928   1.217   1.315 -0.5970  1.4709 -0.3954
 8906SOL    HW238355   1.802   1.208   1.231 -0.1396  0.1083  1.6398
 8907SOL     OW38356   0.623   2.820   3.198 -0.2765  0.3441 -0.0177
 8907SOL    HW138357   0.669   2.758   3.255 -1.2691  0.7609  1.2388
 8907SOL    HW238358   0.682   2.895   3.197 -0.3308  0.3663 -1.7340
 8908SOL     OW38359   0.250   1.356   2.398 -0.1365  0.2840  0.5128
 8908SOL    HW138360   0.252   1.354   2.494  0.5775 -1.8956  0.4683
 8908SOL    HW238361   0.337   1.391   2.377  0.3477 -0.0006  2.0374
 8909SOL     OW38362   3.056   3.688  11.154  0.1767  0.1978  0.3784
 8909SOL    HW138363   2.984   3.631  11.181  1.7202 -2.0383 -0.2069
 8909SOL    HW238364   3.011   3.773  11.154 -1.0751 -0.4676 -1.7511
 8910SOL     OW38365   2.686   3.803  17.730  0.2058  1.0066 -0.1872
 8910SOL    HW138366   2.653   3.878  17.681 -0.7417  0.7824  0.1060
 8910SOL    HW238367   2.708   3.740  17.662 -0.2476 -1.4233  1.9234
 8911SOL     OW38368   2.724   3.052  12.367  0.2114 -0.2332  0.1550
 8911SOL    HW138369   2.677   3.127  12.329 -2.1091 -1.4006  0.6843
 8911SOL    HW238370   2.681   3.052  12.452  0.3651  1.0119  0.2367
 8912SOL     OW38371   0.621   0.019   7.655  0.1932 -0.6806 -0.4593
 8912SOL    HW138372   0.570   0.065   7.588 -1.5700 -2.4703 -0.3742
 8912SOL    HW238373   0.662   4.696   7.594  1.6087 -1.3936  1.2365
 8913SOL     OW38374   0.102   3.645   2.463  0.2352  0.5574  0.1282
 8913SOL    HW138375   0.085   3.582   2.392  0.2602 -0.5473  1.1045
 8913SOL    HW238376   0.193   3.624   2.483  1.1151  0.9501 -3.4553
 8914SOL     OW38377   1.457   3.099   7.283  0.1908 -0.6288  0.5416
 8914SOL    HW138378   1.368   3.133   7.289  0.6337  0.6281 -0.1141
 8914SOL    HW238379   1.440   3.025   7.225 -1.9629 -0.2489  0.6782
 8915SOL     OW38380   4.138   0.325  17.331 -0.1869  1.8221 -0.6304
 8915SOL    HW138381   4.147   0.341  17.237  0.4080  2.6324 -0.4378
 8915SOL    HW238382   4.140   0.413  17.367 -0.1402  1.6448 -0.2032
 8916SOL     OW38383   1.388   1.051  12.059 -1.0172 -0.1623 -0.1067
 8916SOL    HW138384   1.420   1.136  12.029  0.0432 -0.3567  0.4385
 8916SOL    HW238385   1.297   1.046  12.032 -1.4430  0.9704  1.0995
 8917SOL     OW38386   3.138   4.467  10.826  0.4156 -0.7284 -0.0920
 8917SOL    HW138387   3.078   4.419  10.770 -1.1699  0.8211  0.2849
 8917SOL    HW238388   3.222   4.443  10.785  0.4252  1.4412 -1.3293
 8918SOL     OW38389   1.220   3.038   3.980  0.4707 -0.4451  0.3423
 8918SOL    HW138390   1.148   2.989   4.021 -0.0744  0.9279  1.0162
 8918SOL    HW238391   1.257   3.081   4.056 -0.6885 -1.7852  1.6658
 8919SOL     OW38392   2.259   3.444   6.677  0.4068 -1.1219  0.0780
 8919SOL    HW138393   2.252   3.361   6.724 -0.1060 -1.2900 -0.2917
 8919SOL    HW238394   2.308   3.491   6.745 -1.2169 -2.8514  2.4646
 8920SOL     OW38395   1.344   0.475  11.012 -0.5873 -0.3353 -0.4175
 8920SOL    HW138396   1.297   0.556  10.990 -1.3524 -0.4799  0.6981
 8920SOL    HW238397   1.327   0.424  10.933  0.5315  1.4869 -1.8617
 8921SOL     OW38398   4.481   2.775  13.876  0.2521  0.2090 -0.0248
 8921SOL    HW138399   4.452   2.757  13.966 -0.5516  1.6045 -0.0048
 8921SOL    HW238400   4.544   2.706  13.857  0.9646  0.1722  2.5033
 8922SOL     OW38401   2.919   3.816   6.017 -0.2787  0.4687  0.0171
 8922SOL    HW138402   2.870   3.796   6.097  0.5764  1.8135  0.8605
 8922SOL    HW238403   2.943   3.908   6.013  1.7278 -0.0332  0.7184
 8923SOL     OW38404   3.847   2.024   3.129 -0.5740 -0.1988  0.9473
 8923SOL    HW138405   3.908   2.042   3.201  0.4636  1.0312 -0.2290
 8923SOL    HW238406   3.884   2.063   3.049  1.8871  0.2210  2.2870
 8924SOL     OW38407   2.705   4.228  12.960  1.1125  0.0691  0.4583
 8924SOL    HW138408   2.745   4.235  12.873  1.2135  3.4678  0.7704
 8924SOL    HW238409   2.772   4.166  12.990 -2.0930 -2.1376  3.0187
 8925SOL     OW38410   3.396   1.815  10.642 -0.4368  0.3273  0.7940
 8925SOL    HW138411   3.444   1.765  10.707  0.9364  0.0436 -0.4510
 8925SOL    HW238412   3.349   1.746  10.594  0.1606  1.1668 -0.9817
 8926SOL     OW38413   3.314   2.231   5.861  0.2846  0.0657 -0.0483
 8926SOL    HW138414   3.309   2.257   5.953  1.0774 -0.5111  0.1572
 8926SOL    HW238415   3.313   2.136   5.874 -0.6446  0.1347  0.4328
 8927SOL     OW38416   4.668   2.003   4.915  0.1165  0.8809  0.0909
 8927SOL    HW138417   4.629   2.076   4.868 -2.1600 -0.5981 -0.2975
 8927SOL    HW238418   4.657   2.028   5.007  0.8470  0.0259  0.4159
 8928SOL     OW38419   0.459   3.922   0.817  0.2452 -1.0890 -0.1892
 8928SOL    HW138420   0.458   3.911   0.912 -2.0866 -1.5386 -0.2761
 8928SOL    HW238421   0.377   3.877   0.801  0.1913 -1.6890  1.7131
 8929SOL     OW38422   2.308   3.652  16.502  0.1015 -0.2587 -0.0095
 8929SOL    HW138423   2.290   3.698  16.420 -1.2533  0.3735  0.6360
 8929SOL    HW238424   2.227   3.601  16.506 -0.5092  0.7453  0.4902
 8930SOL     OW38425   4.262   1.514   1.094  0.1828 -0.6035 -0.1586
 8930SOL    HW138426   4.239   1.519   1.187 -3.5595 -2.2842 -1.0095
 8930SOL    HW238427   4.207   1.451   1.048  0.7296 -1.4472  0.3297
 8931SOL     OW38428   0.446   1.835   7.821 -0.0841 -0.2138 -0.1634
 8931SOL    HW138429   0.362   1.808   7.784 -0.9701  0.6885  1.1514
 8931SOL    HW238430   0.455   1.926   7.792 -2.5663  1.2847  3.6998
 8932SOL     OW38431   0.180   2.926  13.180 -0.1847 -0.3710 -0.1378
 8932SOL    HW138432   0.086   2.918  13.168 -0.1831  0.9689 -1.0435
 8932SOL    HW238433   0.197   2.966  13.095  0.1684 -3.0795 -1.3486
 8933SOL     OW38434   3.398   0.458   4.306  0.6613  0.5303 -0.1630
 8933SOL    HW138435   3.402   0.363   4.315  1.9971  0.4309 -1.7991
 8933SOL    HW238436   3.313   0.474   4.347  0.8102 -1.1138  0.7956
 8934SOL     OW38437   2.892   4.475   8.640 -0.0382 -0.0895  0.1898
 8934SOL    HW138438   2.879   4.380   8.646  1.8216 -0.1055  3.8552
 8934SOL    HW238439   2.821   4.508   8.695 -0.1727 -1.4450  0.8426
 8935SOL     OW38440   0.079   0.342   2.991  0.3854 -0.3604 -0.7909
 8935SOL    HW138441   4.727   0.355   3.018  0.8164 -0.5891  0.7817
 8935SOL    HW238442   0.084   0.420   2.936 -1.3342  1.4308  1.5981
 8936SOL     OW38443   2.153   0.181   6.257 -0.0865  0.2801  0.0600
 8936SOL    HW138444   2.067   0.179   6.299 -0.0113  2.1969  0.2985
 8936SOL    HW238445   2.155   0.252   6.193 -1.5117  0.7691  0.5622
 8937SOL     OW38446   3.683   2.826   1.818  0.3262  0.3563  0.0640
 8937SOL    HW138447   3.676   2.808   1.724  2.0044  2.3985 -0.4509
 8937SOL    HW238448   3.613   2.768   1.848 -0.3729  0.1180 -2.0596
 8938SOL     OW38449   0.256   1.462   8.730  0.4832 -0.2905  0.3880
 8938SOL    HW138450   0.193   1.520   8.773  1.0952  1.9751 -1.7764
 8938SOL    HW238451   0.197   1.433   8.661 -0.9173 -1.1494  1.9405
 8939SOL     OW38452   0.543   0.813  17.134 -0.3492  0.5560 -0.1864
 8939SOL    HW138453   0.475   0.766  17.087 -0.8675 -1.3410  2.4637
 8939SOL    HW238454   0.557   0.756  17.209  1.5328  0.8831 -0.2824
 8940SOL     OW38455   2.111   3.166   5.350  0.7744 -0.4390  0.1364
 8940SOL    HW138456   2.090   3.075   5.372 -0.8158 -0.4911 -1.5602
 8940SOL    HW238457   2.152   3.199   5.430  0.7336 -0.1739  0.0500
 8941SOL     OW38458   2.757   0.675   0.179 -0.5844  0.3466  0.1584
 8941SOL    HW138459   2.675   0.716   0.206 -0.0844  0.3252  1.7147
 8941SOL    HW238460   2.720   0.609   0.121 -0.5650  1.0072 -0.6038
 8942SOL     OW38461   3.840   2.059   2.813 -0.5464 -0.2007 -0.0543
 8942SOL    HW138462   3.773   1.990   2.808 -0.6585  0.0519 -2.1420
 8942SOL    HW238463   3.800   2.129   2.761 -0.1728  0.6823  0.8642
 8943SOL     OW38464   1.683   4.195  14.704 -0.1250  0.5252  0.6315
 8943SOL    HW138465   1.694   4.205  14.799 -1.1890  0.9574  0.7040
 8943SOL    HW238466   1.608   4.135  14.703  0.2770 -0.0037  1.3913
 8944SOL     OW38467   1.109   3.708   8.037 -0.5104  0.0636 -0.5147
 8944SOL    HW138468   1.052   3.777   8.070  2.4216  0.8067  3.0584
 8944SOL    HW238469   1.186   3.716   8.094  0.3879 -2.0155 -1.4138
 8945SOL     OW38470   1.477   3.374  11.224  0.2277 -0.0125 -0.3694
 8945SOL    HW138471   1.564   3.356  11.189 -0.9108 -0.8873 -2.7743
 8945SOL    HW238472   1.439   3.407  11.143  1.7272 -2.5604 -2.1186
 8946SOL     OW38473   0.365   1.989  16.766  0.0068  0.3258  0.2249
 8946SOL    HW138474   0.272   1.967  16.758 -0.1899  0.7008  1.4289
 8946SOL    HW238475   0.384   1.951  16.851 -1.6452  1.6749  1.1993
 8947SOL     OW38476   1.849   1.919   7.160  0.1283  0.0374 -0.5910
 8947SOL    HW138477   1.759   1.917   7.194 -0.9580  0.9770 -3.4350
 8947SOL    HW238478   1.889   1.986   7.216  0.2914 -0.1099 -0.5304
 8948SOL     OW38479   2.225   1.162   8.822  0.1202 -0.0837 -0.5533
 8948SOL    HW138480   2.237   1.205   8.737 -0.1295 -0.0036 -0.5488
 8948SOL    HW238481   2.176   1.083   8.800 -1.0855  0.5442 -0.1568
 8949SOL     OW38482   3.328   2.282   8.671 -0.0179  0.5040  0.3600
 8949SOL    HW138483   3.376   2.361   8.695 -0.0913 -0.2349  2.8917
 8949SOL    HW238484   3.397   2.216   8.664 -1.6662 -1.1108 -0.4648
 8950SOL     OW38485   2.252   2.161  14.099 -0.0731  0.4110  0.2851
 8950SOL    HW138486   2.176   2.147  14.042  0.6669  0.1237 -0.6286
 8950SOL    HW238487   2.299   2.232  14.057 -0.0426 -0.1079 -0.5641
 8951SOL     OW38488   0.478   1.095   9.797 -0.3523  0.7449 -0.0450
 8951SOL    HW138489   0.562   1.139   9.810  0.3239 -0.8235  0.9046
 8951SOL    HW238490   0.425   1.133   9.867 -1.4628 -0.3037 -0.3304
 8952SOL     OW38491   2.691   1.497   3.353  0.1637 -0.1296 -0.0116
 8952SOL    HW138492   2.625   1.562   3.380 -0.3297 -0.7167  0.1967
 8952SOL    HW238493   2.728   1.470   3.437  0.6615  2.1009  0.4770
 8953SOL     OW38494   0.513   2.039   2.600 -0.1013  0.0204 -0.2584
 8953SOL    HW138495   0.572   2.029   2.525 -2.6644  1.6861 -2.4792
 8953SOL    HW238496   0.562   1.978   2.655 -1.0513 -0.2648  0.2784
 8954SOL     OW38497   2.961   1.457   2.813  0.6042  0.2196 -0.4262
 8954SOL    HW138498   3.052   1.428   2.807  0.5937 -0.3380  1.8546
 8954SOL    HW238499   2.967   1.530   2.875  0.9701 -0.2383  0.0756
 8955SOL     OW38500   3.392   1.639   7.363 -0.2493 -0.3988 -0.0914
 8955SOL    HW138501   3.344   1.703   7.310  1.2682  0.6714 -0.1714
 8955SOL    HW238502   3.462   1.692   7.399 -1.0174  0.6971 -0.2213
 8956SOL     OW38503   2.984   2.175  15.754 -0.1855  0.4099  0.3090
 8956SOL    HW138504   2.946   2.095  15.790  1.9664 -1.3285 -1.2025
 8956SOL    HW238505   2.955   2.162  15.663 -2.3700  0.6475  0.9860
 8957SOL     OW38506   1.708   4.482   8.804  0.8139  0.0569  0.0648
 8957SOL    HW138507   1.800   4.488   8.830  0.8015  0.3804  0.0413
 8957SOL    HW238508   1.674   4.547   8.866  0.9566 -0.9729  1.2181
 8958SOL     OW38509   4.721   4.045   3.786 -0.7422  0.1021  0.1202
 8958SOL    HW138510   0.025   3.961   3.772  1.1421  1.0416  0.4028
 8958SOL    HW238511   4.658   4.050   3.714 -2.6670 -1.1477  1.7189
 8959SOL     OW38512   1.682   2.260   6.551  0.4322  0.2644  0.4855
 8959SOL    HW138513   1.689   2.216   6.636 -0.6997  0.4738  0.6906
 8959SOL    HW238514   1.722   2.340   6.583  1.3783 -0.7793  1.9340
 8960SOL     OW38515   0.398   3.629   7.760 -0.4184  0.1384 -0.0588
 8960SOL    HW138516   0.404   3.533   7.754 -1.6232 -0.0348  1.4614
 8960SOL    HW238517   0.306   3.643   7.734 -0.2640  2.1143  0.4788
 8961SOL     OW38518   0.741   1.657   5.714  0.3229 -0.0856 -0.4066
 8961SOL    HW138519   0.783   1.740   5.694 -1.1400  0.8989  0.6149
 8961SOL    HW238520   0.676   1.689   5.777 -0.5302 -0.0240 -1.3192
 8962SOL     OW38521   0.599   3.066  10.942 -0.1502  0.1892  0.2654
 8962SOL    HW138522   0.576   3.147  10.989  2.9440  2.0912 -1.4720
 8962SOL    HW238523   0.515   3.050  10.899 -0.7023 -0.9169  1.8027
 8963SOL     OW38524   1.421   2.218  16.411 -0.1155  0.0784  0.7086
 8963SOL    HW138525   1.502   2.183  16.375  0.0734  1.1720  0.0616
 8963SOL    HW238526   1.352   2.163  16.375 -1.3562  2.2079 -0.1975
 8964SOL     OW38527   4.728   0.603   3.571  0.7060  0.2410 -0.1834
 8964SOL    HW138528   4.719   0.535   3.638 -1.6184 -0.4684 -1.2123
 8964SOL    HW238529   0.082   0.601   3.554  0.4493 -1.2603 -1.4504
 8965SOL     OW38530   1.577   4.497  12.583  0.6196 -0.2505 -0.2103
 8965SOL    HW138531   1.672   4.483  12.590  0.2679 -1.5186  2.1926
 8965SOL    HW238532   1.559   4.428  12.519 -4.8805 -1.7220  2.9055
 8966SOL     OW38533   0.390   4.490   9.268  0.4556 -0.7622 -0.2146
 8966SOL    HW138534   0.309   4.448   9.295  0.3789 -1.1994 -1.0998
 8966SOL    HW238535   0.357   4.530   9.187 -0.0748 -1.8374 -0.5359
 8967SOL     OW38536   3.291   4.647   1.969 -0.7208  0.0459 -0.0713
 8967SOL    HW138537   3.323   4.563   1.999  0.4505  1.1398  1.7337
 8967SOL    HW238538   3.273   4.619   1.880  0.4244  1.2876 -0.6886
 8968SOL     OW38539   2.943   1.367   6.064 -0.3317  0.3973 -0.2067
 8968SOL    HW138540   2.861   1.333   6.099  0.1296  1.2743  1.7052
 8968SOL    HW238541   3.004   1.293   6.066 -0.0970  0.5206 -2.6712
 8969SOL     OW38542   1.268   1.189  12.475 -0.1212  0.0269 -0.7770
 8969SOL    HW138543   1.238   1.146  12.396  1.5949 -0.2296 -1.2877
 8969SOL    HW238544   1.304   1.268  12.436  1.5779 -1.0790 -1.4393
 8970SOL     OW38545   2.143   1.915   7.516 -0.0089  1.0135  0.1406
 8970SOL    HW138546   2.182   1.829   7.533 -0.0891  1.1707  1.1191
 8970SOL    HW238547   2.214   1.975   7.539  1.2224 -0.7144  0.9315
 8971SOL     OW38548   2.445   3.333   3.199  0.5687 -0.3295 -0.0760
 8971SOL    HW138549   2.426   3.426   3.193 -0.0526 -0.2870  2.7863
 8971SOL    HW238550   2.538   3.351   3.212 -0.0292  0.3789  3.1793
 8972SOL     OW38551   1.783   3.022   5.429  1.1336  0.2580  0.1776
 8972SOL    HW138552   1.744   3.073   5.358  1.7686  2.2634  1.2669
 8972SOL    HW238553   1.727   3.042   5.504  0.2190  1.0985 -0.7185
 8973SOL     OW38554   0.282   4.556   7.620  0.6837  0.2111 -0.1861
 8973SOL    HW138555   0.339   4.564   7.696 -0.6644 -0.4598  0.9078
 8973SOL    HW238556   0.196   4.547   7.662  0.5431  0.5224 -0.4029
 8974SOL     OW38557   0.515   0.567  11.910  0.7381  0.4890  0.3703
 8974SOL    HW138558   0.539   0.484  11.870 -1.7641 -0.0045 -0.0948
 8974SOL    HW238559   0.599   0.608  11.934 -0.2076  2.9574 -0.5963
 8975SOL     OW38560   1.843   0.484   9.491 -0.1330  0.2177  0.2065
 8975SOL    HW138561   1.794   0.561   9.521 -0.6691 -0.4264  1.0018
 8975SOL    HW238562   1.772   0.420   9.481  0.4426 -0.6921  1.8177
 8976SOL     OW38563   1.967   2.053   5.973 -0.1317 -0.1482 -0.6197
 8976SOL    HW138564   1.902   2.121   5.953 -1.1698 -1.2738 -1.0637
 8976SOL    HW238565   1.921   1.973   5.949  0.7986 -0.9932  0.4187
 8977SOL     OW38566   3.657   1.225  17.407  0.4521  0.0317  0.4931
 8977SOL    HW138567   3.698   1.206  17.323 -2.6883 -0.2680 -0.9995
 8977SOL    HW238568   3.710   1.172  17.466  0.4532  1.9075  2.1893
 8978SOL     OW38569   1.362   4.733   8.752  0.0296  0.5852 -0.4002
 8978SOL    HW138570   1.444   4.723   8.800 -1.8563 -1.5054  2.3743
 8978SOL    HW238571   1.361   4.643   8.721  1.0707  0.1681  0.8072
 8979SOL     OW38572   0.987   1.192  15.945  0.3124  0.2718  0.1308
 8979SOL    HW138573   1.058   1.186  15.882  0.0395 -0.2126 -0.1284
 8979SOL    HW238574   0.928   1.239  15.886  2.7079  2.4322 -0.5801
 8980SOL     OW38575   1.445   1.119   1.719  0.0060 -0.3199 -0.1506
 8980SOL    HW138576   1.414   1.198   1.763  0.3583  0.8037 -1.9041
 8980SOL    HW238577   1.392   1.052   1.763 -0.6771 -1.3111 -2.5000
 8981SOL     OW38578   0.592   3.450   7.507  0.5294  0.1282  0.5249
 8981SOL    HW138579   0.637   3.524   7.550 -0.7483  0.6591  0.9473
 8981SOL    HW238580   0.604   3.473   7.415  0.7724 -0.3271  0.4436
 8982SOL     OW38581   4.706   0.989   3.486 -0.0984  0.1334  0.3941
 8982SOL    HW138582   0.023   0.996   3.563  1.3843  0.0902 -0.6722
 8982SOL    HW238583   0.015   1.030   3.414  1.3994  0.5587  1.6351
 8983SOL     OW38584   2.953   1.493   1.571  0.0797 -0.1324  0.1578
 8983SOL    HW138585   2.952   1.408   1.616 -1.3704 -0.8714 -1.2598
 8983SOL    HW238586   2.863   1.522   1.562 -0.6388 -1.9376  1.5416
 8984SOL     OW38587   4.048   0.017  14.870  0.2323 -0.0367 -0.0344
 8984SOL    HW138588   4.072   0.100  14.910 -0.8091 -0.5358  1.6187
 8984SOL    HW238589   4.093   0.018  14.786  1.0953 -1.6312  0.4005
 8985SOL     OW38590   0.293   4.517   7.033 -0.5248  0.1028  0.1899
 8985SOL    HW138591   0.332   4.600   7.006  0.5010 -0.1748  0.8227
 8985SOL    HW238592   0.272   4.543   7.123 -0.5442  0.0268  0.2074
 8986SOL     OW38593   3.871   1.983   5.404 -0.9197 -0.1514 -0.2296
 8986SOL    HW138594   3.866   1.980   5.308 -0.6423  1.9124 -0.3129
 8986SOL    HW238595   3.851   2.075   5.418  0.7350  0.3633 -1.2211
 8987SOL     OW38596   4.487   3.800   2.250 -1.2144  0.1408 -0.7298
 8987SOL    HW138597   4.559   3.813   2.189 -1.1872  0.4910 -0.6236
 8987SOL    HW238598   4.465   3.707   2.242 -0.5146 -0.0341 -0.6771
 8988SOL     OW38599   1.144   3.057   9.027 -0.1488  0.4623  0.4347
 8988SOL    HW138600   1.051   3.034   9.029 -0.0330 -0.1857 -1.4166
 8988SOL    HW238601   1.142   3.148   8.999 -0.3684  0.0653 -0.8479
 8989SOL     OW38602   1.543   0.643   7.675 -0.0886 -0.7448  0.1719
 8989SOL    HW138603   1.469   0.658   7.616 -2.0404  2.7408  3.4609
 8989SOL    HW238604   1.505   0.619   7.760 -0.8604  1.1265  0.3483
 8990SOL     OW38605   4.514   2.385   3.577 -0.1795  0.0970  0.5062
 8990SOL    HW138606   4.543   2.330   3.505 -1.0703  0.5704 -0.2147
 8990SOL    HW238607   4.436   2.425   3.538 -0.8697 -0.2113  1.5636
 8991SOL     OW38608   2.900   3.026   8.357 -0.4286  0.5922  0.6875
 8991SOL    HW138609   2.829   2.995   8.300 -0.7055 -0.5332  1.6534
 8991SOL    HW238610   2.870   2.981   8.436  2.7379 -1.5586  0.6362
 8992SOL     OW38611   3.576   2.737   9.630 -0.5400 -0.6719 -0.2613
 8992SOL    HW138612   3.650   2.703   9.679  0.0520 -0.8597 -1.3006
 8992SOL    HW238613   3.613   2.728   9.542  3.0028 -1.7720  1.3850
 8993SOL     OW38614   4.164   3.333  11.383 -0.5844  0.3815 -0.5598
 8993SOL    HW138615   4.101   3.305  11.449 -2.0280  4.0099 -0.3790
 8993SOL    HW238616   4.236   3.276  11.407 -0.3119  1.1368  0.4447
 8994SOL     OW38617   3.038   4.374  13.838 -0.3528  0.3642  0.1937
 8994SOL    HW138618   3.089   4.400  13.761  0.6303 -1.4019  0.2646
 8994SOL    HW238619   2.957   4.366  13.789  0.1410 -0.3551 -0.5010
 8995SOL     OW38620   4.302   1.014   5.734 -0.3258 -0.0486 -0.4704
 8995SOL    HW138621   4.242   1.084   5.760 -0.1672 -1.0220  2.6353
 8995SOL    HW238622   4.324   1.035   5.644  0.6657 -2.1438 -0.7369
 8996SOL     OW38623   0.532   3.639  15.845  0.2888 -0.4284 -0.5524
 8996SOL    HW138624   0.489   3.658  15.761 -1.4599 -1.1139  0.1945
 8996SOL    HW238625   0.574   3.554  15.830 -1.6952 -1.7061  1.2007
 8997SOL     OW38626   3.148   1.069   4.245 -0.1182  0.4217  0.6390
 8997SOL    HW138627   3.077   1.079   4.182  2.8251  0.7211 -2.6306
 8997SOL    HW238628   3.224   1.095   4.193 -2.2552 -0.4433 -2.8518
 8998SOL     OW38629   2.511   3.688   4.129  0.6613 -1.3597 -0.4054
 8998SOL    HW138630   2.486   3.600   4.157  0.0644 -1.1901 -0.4053
 8998SOL    HW238631   2.606   3.684   4.133  0.7712  0.6466 -1.0210
 8999SOL     OW38632   2.379   2.727   7.366  0.4433 -0.6326 -0.7125
 8999SOL    HW138633   2.448   2.670   7.332  0.0968 -0.6427 -1.4009
 8999SOL    HW238634   2.426   2.802   7.402 -2.7984  0.4348  1.3240
 9000SOL     OW38635   2.616   0.817   2.991 -0.3926 -0.0814 -0.5271
 9000SOL    HW138636   2.570   0.734   2.979  0.0068 -0.1450 -1.6261
 9000SOL    HW238637   2.659   0.824   2.906  0.4021  3.0102  0.1351
 9001SOL     OW38638   3.158   4.323   8.076 -0.1489 -0.5021 -0.5296
 9001SOL    HW138639   3.122   4.342   7.989 -0.4739  1.0408 -0.0521
 9001SOL    HW238640   3.252   4.341   8.066 -0.1445  1.6989  3.4269
 9002SOL     OW38641   1.925   1.599  17.588  0.3685  0.0856 -0.2669
 9002SOL    HW138642   1.849   1.562  17.543  0.0236  0.0265  0.3622
 9002SOL    HW238643   1.953   1.524  17.640 -2.8129 -0.4299  0.7440
 9003SOL     OW38644   0.572   1.775   5.225 -0.0342  0.7682 -0.7628
 9003SOL    HW138645   0.551   1.685   5.200 -1.2010  1.3969 -2.1130
 9003SOL    HW238646   0.515   1.779   5.302  0.3362  1.2260 -0.5152
 9004SOL     OW38647   3.018   1.074   5.462  0.5354  0.3526  0.0143
 9004SOL    HW138648   3.047   1.017   5.391  0.4886  1.4891 -0.9350
 9004SOL    HW238649   3.091   1.135   5.472 -1.7794  3.5708 -2.3918
 9005SOL     OW38650   0.605   0.500   2.590 -0.5124 -0.6086 -0.2932
 9005SOL    HW138651   0.546   0.529   2.659  0.0335 -1.4524  0.5186
 9005SOL    HW238652   0.680   0.478   2.645  0.1701  0.7450 -0.6854
 9006SOL     OW38653   1.897   3.928   1.854 -0.2387  0.6075  0.0066
 9006SOL    HW138654   1.865   3.838   1.844 -1.5308  1.0654  0.0679
 9006SOL    HW238655   1.825   3.969   1.901  0.2661 -0.5389  1.7795
 9007SOL     OW38656   2.106   0.851   7.690  0.6909 -0.0874 -0.4196
 9007SOL    HW138657   2.149   0.835   7.775  0.7493 -2.6234 -0.9236
 9007SOL    HW238658   2.020   0.812   7.705  0.8165 -0.2956 -0.2242
 9008SOL     OW38659   1.757   2.280  11.245 -0.0612 -0.3108 -0.4675
 9008SOL    HW138660   1.754   2.272  11.340  1.3322 -2.4449 -0.6118
 9008SOL    HW238661   1.665   2.301  11.233  0.0762 -0.1100 -1.2384
 9009SOL     OW38662   0.182   3.672   3.426 -0.1719  0.7784  0.1198
 9009SOL    HW138663   0.212   3.606   3.489 -0.1785  0.6399 -0.0219
 9009SOL    HW238664   0.098   3.641   3.392  0.8529 -0.4859 -1.2867
 9010SOL     OW38665   1.779   3.322   8.727 -0.6665 -0.7777  0.2932
 9010SOL    HW138666   1.764   3.354   8.817 -0.9707 -1.0412  0.3373
 9010SOL    HW238667   1.736   3.239   8.747 -0.4426 -0.8805  0.3432
 9011SOL     OW38668   3.577   1.145   7.115  0.3332  0.0487 -0.0322
 9011SOL    HW138669   3.595   1.134   7.209 -0.5509 -1.2443 -0.0131
 9011SOL    HW238670   3.629   1.069   7.088 -1.3698 -0.6992 -1.1755
 9012SOL     OW38671   1.976   0.466   7.169 -0.1694 -0.0775 -0.3526
 9012SOL    HW138672   1.987   0.373   7.148  2.2270 -0.1443  1.2168
 9012SOL    HW238673   1.997   0.469   7.262  2.1908  0.9479 -0.9152
 9013SOL     OW38674   2.638   1.731   0.773 -0.5306  0.2818 -0.0283
 9013SOL    HW138675   2.545   1.722   0.750 -0.1491  1.5732 -2.0877
 9013SOL    HW238676   2.652   1.639   0.793 -1.5267 -0.0519 -0.8395
 9014SOL     OW38677   3.090   2.474  15.603 -0.2682 -0.2583 -0.2384
 9014SOL    HW138678   3.075   2.452  15.511  1.4991 -1.2920 -0.2782
 9014SOL    HW238679   3.007   2.445  15.640 -0.2621 -0.5464 -0.4492
 9015SOL     OW38680   1.361   1.332  11.281  0.2853  0.5785  0.1209
 9015SOL    HW138681   1.427   1.384  11.328 -0.1650  0.3837  0.9581
 9015SOL    HW238682   1.354   1.258  11.341  2.7319 -0.7646 -1.2206
 9016SOL     OW38683   3.070   3.437   2.480  0.2479 -0.2569  0.1181
 9016SOL    HW138684   3.053   3.482   2.398  2.4333 -0.5106 -0.4654
 9016SOL    HW238685   3.069   3.506   2.546  1.0696 -0.4794  0.3640
 9017SOL     OW38686   1.900   3.966   9.889 -0.0858  0.1087 -0.1374
 9017SOL    HW138687   1.949   3.884   9.883  1.7487  0.9138  3.7000
 9017SOL    HW238688   1.812   3.938   9.864 -0.0671  0.2434 -0.3591
 9018SOL     OW38689   2.173   4.122   2.536 -0.6257  0.0096  0.1529
 9018SOL    HW138690   2.126   4.173   2.470 -0.9715  0.5521  0.8224
 9018SOL    HW238691   2.128   4.037   2.535 -2.1068  0.8157 -1.7309
 9019SOL     OW38692   2.049   3.716   6.336  0.1229  0.0444 -0.2364
 9019SOL    HW138693   2.110   3.661   6.386 -0.0856  0.0399  0.0141
 9019SOL    HW238694   1.980   3.741   6.398 -0.3788  0.6250 -1.0355
 9020SOL     OW38695   0.386   2.610   5.425  0.2839 -0.2685  0.0677
 9020SOL    HW138696   0.477   2.635   5.438  0.2654  0.5276 -1.3711
 9020SOL    HW238697   0.374   2.561   5.507  0.6429 -1.4880 -0.6030
 9021SOL     OW38698   2.673   1.833  10.110  0.6854 -0.3242  0.0334
 9021SOL    HW138699   2.636   1.919  10.126  2.0303  0.3350 -0.4078
 9021SOL    HW238700   2.651   1.823  10.018  1.7186 -0.5464 -0.1877
 9022SOL     OW38701   4.691   3.593   3.301  0.0281  0.1386  0.1700
 9022SOL    HW138702   4.637   3.526   3.344  0.9382 -0.4116  0.4683
 9022SOL    HW238703   4.629   3.665   3.295  0.5829  0.7514  1.8135
 9023SOL     OW38704   1.144   2.749  10.183 -0.0532  0.6921  0.1551
 9023SOL    HW138705   1.152   2.655  10.167 -1.0665  0.9303 -1.8516
 9023SOL    HW238706   1.118   2.779  10.096  0.5082  0.5228 -0.0734
 9024SOL     OW38707   4.215   4.514   4.607 -0.7500 -0.2341  0.2116
 9024SOL    HW138708   4.170   4.524   4.691  2.4516 -0.7141  1.9847
 9024SOL    HW238709   4.302   4.549   4.626 -1.3148  0.8456  0.8229
 9025SOL     OW38710   2.417   3.836  16.862  0.5585  0.2299 -0.6339
 9025SOL    HW138711   2.432   3.765  16.799  0.8370  0.2876 -0.6328
 9025SOL    HW238712   2.503   3.874  16.879  0.3179  0.4028  0.1921
 9026SOL     OW38713   2.423   0.114   8.341 -0.4000  0.3894 -0.1096
 9026SOL    HW138714   2.453   0.071   8.261  0.1296  1.1318 -0.3047
 9026SOL    HW238715   2.509   0.127   8.380  0.5571  0.4498 -2.2040
 9027SOL     OW38716   2.219   1.170   2.059 -0.4152  0.0043 -0.0854
 9027SOL    HW138717   2.130   1.162   2.025 -0.0180 -0.4144 -1.0386
 9027SOL    HW238718   2.264   1.190   1.977  1.2243  2.0257  1.3143
 9028SOL     OW38719   1.625   3.980   5.658  0.3053 -0.1122 -0.3377
 9028SOL    HW138720   1.644   4.031   5.579  3.3253  0.4388  0.7598
 9028SOL    HW238721   1.572   3.908   5.625  2.1282 -1.1334 -1.0307
 9029SOL     OW38722   0.531   3.777   2.703  0.0957  0.0482 -0.3413
 9029SOL    HW138723   0.626   3.771   2.712 -0.1073 -3.5293 -0.3356
 9029SOL    HW238724   0.512   3.863   2.740  0.1299 -0.3066  0.5071
 9030SOL     OW38725   3.760   4.715   7.053  0.3938 -0.8054  0.3862
 9030SOL    HW138726   3.785   4.681   7.139  0.2001  1.4509  1.3310
 9030SOL    HW238727   3.738   0.066   7.075  0.0790 -0.2510 -2.2461
 9031SOL     OW38728   3.307   1.033   5.605  0.5182  0.2004 -0.4821
 9031SOL    HW138729   3.272   1.101   5.548  0.1682 -1.0920 -1.7953
 9031SOL    HW238730   3.332   0.970   5.538 -2.5098 -0.2483 -1.1674
 9032SOL     OW38731   1.241   0.286  11.295  0.2970 -0.5537  0.4601
 9032SOL    HW138732   1.289   0.365  11.270  2.1424 -0.9159  2.8105
 9032SOL    HW238733   1.198   0.315  11.375  0.1477 -1.1751  0.6069
 9033SOL     OW38734   1.142   4.597  14.868 -0.2786  0.5914  0.2918
 9033SOL    HW138735   1.055   4.623  14.839 -0.5255 -1.9461 -1.2225
 9033SOL    HW238736   1.129   4.502  14.863  0.1357  0.6518 -1.7133
 9034SOL     OW38737   2.107   3.426   7.094  0.3552 -0.4650  0.1830
 9034SOL    HW138738   2.101   3.500   7.155 -1.3689 -0.0493 -0.4781
 9034SOL    HW238739   2.015   3.407   7.076  0.5287 -0.3046 -0.8476
 9035SOL     OW38740   3.595   0.233   5.847  0.4332 -0.1807 -0.0033
 9035SOL    HW138741   3.652   0.308   5.865  0.8051 -0.7760  1.3022
 9035SOL    HW238742   3.643   0.163   5.891  0.6956  0.7568  1.2335
 9036SOL     OW38743   3.698   3.748   2.106 -0.1001 -0.3553  0.1270
 9036SOL    HW138744   3.704   3.709   2.018 -0.4264  0.2072 -0.1459
 9036SOL    HW238745   3.677   3.672   2.160  0.2672  0.9815  2.1229
 9037SOL     OW38746   0.529   2.686  16.832 -0.1536 -0.6075  0.9613
 9037SOL    HW138747   0.600   2.717  16.887  0.8400  0.3021 -0.8368
 9037SOL    HW238748   0.543   2.593  16.815  1.4232 -0.3612  0.9579
 9038SOL     OW38749   0.361   1.539   0.699  0.3264 -0.3409 -0.3265
 9038SOL    HW138750   0.409   1.511   0.621 -0.4428 -1.0796 -0.5349
 9038SOL    HW238751   0.380   1.470   0.763  1.0322 -0.8904 -1.1171
 9039SOL     OW38752   4.610   4.515  16.137 -0.3131  0.5774  0.0126
 9039SOL    HW138753   4.642   4.428  16.117 -2.5430 -0.5130  1.1549
 9039SOL    HW238754   4.522   4.505  16.175 -0.8139  0.0198 -1.2827
 9040SOL     OW38755   0.358   3.939   1.665  0.8982  0.2713 -0.2011
 9040SOL    HW138756   0.364   3.864   1.605 -0.9232 -0.7684  0.9108
 9040SOL    HW238757   0.332   4.002   1.598 -1.8610 -0.6804 -0.0252
 9041SOL     OW38758   4.300   3.726  13.673 -0.2808 -0.5244  0.3839
 9041SOL    HW138759   4.304   3.632  13.656 -0.8134 -0.6558  0.9804
 9041SOL    HW238760   4.212   3.734  13.711  0.5135 -1.2006  2.3511
 9042SOL     OW38761   2.354   1.572   6.055 -0.8475  0.1965  0.2019
 9042SOL    HW138762   2.336   1.544   5.966 -1.6685  2.0118 -0.1971
 9042SOL    HW238763   2.420   1.509   6.084 -0.0705  0.2819 -1.3734
 9043SOL     OW38764   3.262   4.386   6.370  0.2904 -0.0346  0.0245
 9043SOL    HW138765   3.317   4.355   6.442 -0.7565  0.1392  0.8989
 9043SOL    HW238766   3.181   4.350   6.404 -0.1681  2.3820  1.5559
 9044SOL     OW38767   2.917   3.228   1.747  0.5838 -0.0743  0.0685
 9044SOL    HW138768   2.857   3.300   1.767  1.6135  0.4524  1.2044
 9044SOL    HW238769   2.935   3.242   1.654  1.6584 -0.3461  0.2377
 9045SOL     OW38770   0.032   2.924  17.637  0.6521  0.1747 -0.3920
 9045SOL    HW138771   0.011   3.009  17.598 -0.3071 -0.0480 -0.3804
 9045SOL    HW238772   0.027   2.956  17.727  0.4301 -1.3780  0.1505
 9046SOL     OW38773   4.186   1.276   5.116 -0.2118 -0.4105 -0.4978
 9046SOL    HW138774   4.148   1.196   5.081  1.2042 -1.3024 -0.0014
 9046SOL    HW238775   4.277   1.267   5.088 -0.5021 -0.8999 -1.2748
 9047SOL     OW38776   2.985   1.056   4.632  0.1418  0.2916 -0.5471
 9047SOL    HW138777   2.942   0.991   4.575 -0.7483 -0.3352  0.8323
 9047SOL    HW238778   3.073   1.023   4.614  0.2040  0.4848 -0.5929
 9048SOL     OW38779   2.777   1.853   3.995  0.0203 -0.5637 -0.2387
 9048SOL    HW138780   2.704   1.833   4.054 -1.5967  2.4708 -1.2223
 9048SOL    HW238781   2.811   1.938   4.021 -3.0410  0.4642  0.4154
 9049SOL     OW38782   1.576   4.155  14.217  0.2675 -0.0640  0.0733
 9049SOL    HW138783   1.481   4.158  14.203  0.0826 -2.4482  0.7765
 9049SOL    HW238784   1.607   4.245  14.215  1.8549 -0.5555  2.9236
 9050SOL     OW38785   3.314   1.038  15.827 -0.1323  0.4783 -0.0235
 9050SOL    HW138786   3.359   0.954  15.839  0.3465  0.5575 -1.2372
 9050SOL    HW238787   3.225   1.013  15.851 -1.2567  0.1452 -4.5414
 9051SOL     OW38788   2.675   1.954   1.883 -0.2317  0.1954 -0.3981
 9051SOL    HW138789   2.682   1.899   1.962  0.3040  0.5979 -0.1654
 9051SOL    HW238790   2.597   2.007   1.900  0.4266  0.4702  1.7505
 9052SOL     OW38791   1.806   1.624   8.881 -0.0654  0.4954  0.2947
 9052SOL    HW138792   1.799   1.713   8.915 -0.4788 -0.5928  3.0333
 9052SOL    HW238793   1.716   1.617   8.850  1.1485  0.0007 -3.0579
 9053SOL     OW38794   4.637   1.375  11.991  0.9030  0.6946  0.1307
 9053SOL    HW138795   4.597   1.450  12.036  3.4958  1.7168  0.7167
 9053SOL    HW238796   4.720   1.380  12.038  1.3249 -2.3837 -0.2607
 9054SOL     OW38797   0.892   1.400   3.205  0.6587  0.1530 -0.3379
 9054SOL    HW138798   0.861   1.313   3.228 -1.3945  1.2103  0.8987
 9054SOL    HW238799   0.856   1.396   3.117  1.4944 -0.7438 -0.6353
 9055SOL     OW38800   4.523   1.429  11.476  0.5955 -0.4309 -0.1290
 9055SOL    HW138801   4.434   1.463  11.462  0.2502 -0.7235  1.4234
 9055SOL    HW238802   4.572   1.501  11.435  1.2113  0.6179  2.4816
 9056SOL     OW38803   1.399   0.773   2.748 -0.4821  0.3108  0.1686
 9056SOL    HW138804   1.354   0.854   2.773 -2.0264 -1.0240  1.6944
 9056SOL    HW238805   1.482   0.792   2.791 -0.4936  0.9536 -0.0932
 9057SOL     OW38806   3.885   4.588   3.008 -0.0064  0.2070  0.1955
 9057SOL    HW138807   3.826   4.532   2.958  1.5116  1.4901 -2.9832
 9057SOL    HW238808   3.916   4.537   3.083  0.8798  1.6517  0.8296
 9058SOL     OW38809   4.244   3.468   1.989 -0.4717  0.3659 -0.0113
 9058SOL    HW138810   4.332   3.440   2.014  0.2862  2.5599 -0.2220
 9058SOL    HW238811   4.258   3.557   1.954 -0.3792 -0.0704 -1.0809
 9059SOL     OW38812   1.755   3.455   5.638  0.3500  0.5400  0.0109
 9059SOL    HW138813   1.838   3.460   5.591 -0.3628  3.2461 -0.9389
 9059SOL    HW238814   1.707   3.537   5.630 -1.2449 -0.3162  0.6294
 9060SOL     OW38815   3.931   4.046   7.430  1.0273  0.4785 -0.1924
 9060SOL    HW138816   4.001   4.041   7.495 -0.5141  3.4272  1.7636
 9060SOL    HW238817   3.860   4.012   7.485  1.9193 -1.3340 -0.1700
 9061SOL     OW38818   0.672   2.594   9.509  0.0508 -0.3703 -0.2391
 9061SOL    HW138819   0.584   2.574   9.478 -0.7190  1.4983  0.7609
 9061SOL    HW238820   0.666   2.559   9.598 -0.7986 -0.9538 -0.5284
 9062SOL     OW38821   4.080   0.556   7.460  0.0638 -0.5187 -0.3243
 9062SOL    HW138822   4.134   0.518   7.529  2.5462  0.4670 -1.7228
 9062SOL    HW238823   4.074   0.645   7.496  1.9008 -0.4546 -0.1880
 9063SOL     OW38824   2.795   2.621   5.373 -0.2431  0.0679 -0.3494
 9063SOL    HW138825   2.863   2.600   5.309  1.5043 -1.1663  1.9249
 9063SOL    HW238826   2.795   2.717   5.376  0.4109  0.1222 -2.0037
 9064SOL     OW38827   1.136   1.452   9.113  0.1189 -0.7543  0.3357
 9064SOL    HW138828   1.140   1.357   9.116 -0.8392 -0.7868  0.7283
 9064SOL    HW238829   1.046   1.464   9.144  0.6235 -1.3136  1.9593
 9065SOL     OW38830   3.212   3.851   3.188 -0.6953  0.0643  0.5625
 9065SOL    HW138831   3.264   3.838   3.109 -0.6239 -2.5954  1.0567
 9065SOL    HW238832   3.188   3.760   3.201 -1.5107  0.2552  0.4274
 9066SOL     OW38833   1.465   1.571   4.905 -0.2236  0.1117  0.0208
 9066SOL    HW138834   1.525   1.625   4.854 -1.6579 -0.4538 -2.2807
 9066SOL    HW238835   1.378   1.591   4.871 -0.7631 -0.7577  0.8803
 9067SOL     OW38836   0.620   0.798  17.550  1.0215 -0.2106  0.1027
 9067SOL    HW138837   0.627   0.741  17.473 -1.0347 -1.3737  0.7902
 9067SOL    HW238838   0.655   0.746  17.622  3.5151 -0.1012 -1.0253
 9068SOL     OW38839   2.472   0.017  10.866  0.2304  0.1479 -0.0229
 9068SOL    HW138840   2.474   0.055  10.954  2.1723  0.1682 -0.0819
 9068SOL    HW238841   2.507   0.094  10.821  0.3471  1.2646  1.9795
 9069SOL     OW38842   2.268   1.043   4.063 -0.4251 -0.2947 -0.2416
 9069SOL    HW138843   2.284   1.078   4.151 -1.4629 -1.1019  0.2658
 9069SOL    HW238844   2.282   0.949   4.072  1.6659 -0.2375 -2.8788
 9070SOL     OW38845   0.735   1.031   3.102 -0.6226 -0.3882  0.2533
 9070SOL    HW138846   0.712   0.941   3.080 -1.2956  0.0014 -0.6813
 9070SOL    HW238847   0.706   1.041   3.193 -0.4065 -0.7703  0.3621
 9071SOL     OW38848   0.750   2.577   7.293  0.1557 -0.3592  0.2826
 9071SOL    HW138849   0.792   2.608   7.213 -0.3007 -2.4765 -0.7568
 9071SOL    HW238850   0.716   2.665   7.310 -1.1214 -0.7276 -0.4034
 9072SOL     OW38851   2.609   0.353   4.659 -0.1115  0.0270  0.3260
 9072SOL    HW138852   2.657   0.304   4.726 -1.1253 -0.3135  0.8031
 9072SOL    HW238853   2.548   0.286   4.628 -2.3396  1.5346  1.4525
 9073SOL     OW38854   1.182   0.347   1.535  0.2503 -0.5619 -0.3019
 9073SOL    HW138855   1.224   0.285   1.594  0.4901  1.1685  1.3376
 9073SOL    HW238856   1.096   0.340   1.576  0.2469 -0.3373 -0.2713
 9074SOL     OW38857   2.434   3.857   3.582  0.1831 -0.3752  0.0881
 9074SOL    HW138858   2.409   3.892   3.496  0.9856  0.5597  0.2359
 9074SOL    HW238859   2.527   3.881   3.578  0.0660  0.4097  2.4401
 9075SOL     OW38860   0.584   1.061   2.227  0.9687  0.2921  0.1812
 9075SOL    HW138861   0.578   1.012   2.309  0.0243 -0.9866 -0.6510
 9075SOL    HW238862   0.497   1.101   2.230 -0.1245 -1.7753 -3.8624
 9076SOL     OW38863   3.045   3.323   0.169 -0.3033  0.2537  0.3312
 9076SOL    HW138864   3.111   3.386   0.141 -0.9577 -0.2719 -2.3431
 9076SOL    HW238865   3.095   3.244   0.150 -1.2251 -0.1141 -0.5654
 9077SOL     OW38866   4.659   4.279   8.427 -0.2415 -0.4874  0.4125
 9077SOL    HW138867   4.698   4.210   8.481 -1.5747 -1.4693  0.1188
 9077SOL    HW238868   4.574   4.278   8.472 -0.1033  0.7834  0.6963
 9078SOL     OW38869   4.255   3.000   7.423  0.2315 -0.1878 -0.6646
 9078SOL    HW138870   4.252   3.069   7.490  1.0284 -0.8262  0.0274
 9078SOL    HW238871   4.345   2.980   7.445 -0.1409 -0.4243  0.6220
 9079SOL     OW38872   0.613   1.213   4.088 -0.4178  0.1303 -0.4701
 9079SOL    HW138873   0.618   1.145   4.021 -0.3956 -0.1186 -0.2161
 9079SOL    HW238874   0.678   1.275   4.055  2.1853 -1.4602  1.7306
 9080SOL     OW38875   3.832   3.323   8.084  0.7076 -0.7888  0.1604
 9080SOL    HW138876   3.815   3.316   7.990 -0.8269  0.0774  0.3658
 9080SOL    HW238877   3.886   3.402   8.074  0.6472 -0.8108 -0.3693
 9081SOL     OW38878   0.624   4.341   6.189 -0.0227  0.1354 -0.3529
 9081SOL    HW138879   0.684   4.269   6.207 -0.3287 -0.2305 -0.7788
 9081SOL    HW238880   0.679   4.419   6.181 -1.6192  1.2215 -0.8249
 9082SOL     OW38881   4.056   1.064  15.653  0.1337 -0.2639 -0.1526
 9082SOL    HW138882   3.967   1.092  15.675 -0.0052 -1.0234  0.2309
 9082SOL    HW238883   4.094   1.144  15.618 -1.4670 -0.0626 -1.4341
 9083SOL     OW38884   1.169   2.111   9.205 -0.2535  1.3276  0.5437
 9083SOL    HW138885   1.238   2.051   9.176 -2.4170  0.0937 -2.1055
 9083SOL    HW238886   1.196   2.200   9.181 -0.7357  1.7410  1.4907
 9084SOL     OW38887   4.203   0.195   8.037 -0.3599  0.2151 -0.8960
 9084SOL    HW138888   4.225   0.188   8.130  0.2491  0.9846 -0.9854
 9084SOL    HW238889   4.265   0.136   7.995 -1.0606 -0.3978 -1.0582
 9085SOL     OW38890   2.714   1.958   2.580  0.0239  0.0086  0.0544
 9085SOL    HW138891   2.751   2.021   2.641 -0.2958  0.6715 -0.4323
 9085SOL    HW238892   2.788   1.928   2.528  0.4454  2.5827 -0.8525
 9086SOL     OW38893   1.063   0.402   4.958  0.5312 -0.2880 -0.2954
 9086SOL    HW138894   1.072   0.474   5.020  0.5188  0.4722 -1.1619
 9086SOL    HW238895   1.068   0.448   4.874 -1.6754 -0.1363 -0.3329
 9087SOL     OW38896   2.345   1.002   3.105 -0.3100  0.4747 -0.1636
 9087SOL    HW138897   2.333   1.034   3.015  0.9996  1.2666 -0.0579
 9087SOL    HW238898   2.325   0.910   3.093  0.7499  0.2318 -0.0950
 9088SOL     OW38899   0.667   1.028  17.265  0.2313  0.1238 -0.0043
 9088SOL    HW138900   0.727   0.968  17.310 -0.6832 -3.1894 -3.1307
 9088SOL    HW238901   0.619   0.960  17.217 -0.4679 -0.4016  1.4493
 9089SOL     OW38902   0.422   0.448  15.925  0.2402  0.3496 -0.5718
 9089SOL    HW138903   0.467   0.363  15.922  0.2358  0.3179  0.3179
 9089SOL    HW238904   0.343   0.436  15.977  0.1338 -1.7633 -1.2349
 9090SOL     OW38905   4.024   4.172   3.337  0.2568 -0.6416 -0.4993
 9090SOL    HW138906   3.963   4.150   3.408  0.7946  2.1630  0.8551
 9090SOL    HW238907   4.079   4.095   3.331  0.3254 -0.6704  0.4644
 9091SOL     OW38908   2.235   1.383   1.663  0.6626  0.1176 -0.6689
 9091SOL    HW138909   2.235   1.330   1.743 -0.8418  0.2271 -0.6033
 9091SOL    HW238910   2.315   1.348   1.623  3.1884  3.4311  1.4695
 9092SOL     OW38911   2.268   0.421  11.151 -0.4262  0.3616 -0.0139
 9092SOL    HW138912   2.189   0.404  11.201  1.1809 -0.1395  2.3446
 9092SOL    HW238913   2.235   0.460  11.070  0.5091  2.0238  0.4011
 9093SOL     OW38914   2.574   4.594   2.279 -0.4992 -0.3534 -0.1342
 9093SOL    HW138915   2.531   4.675   2.305 -3.8507 -1.8840 -0.8836
 9093SOL    HW238916   2.651   4.622   2.229 -0.3882 -0.6504 -0.1301
 9094SOL     OW38917   2.669   0.133   6.893 -0.2864  0.2916 -0.1249
 9094SOL    HW138918   2.579   0.107   6.874  0.9368 -1.8210 -3.1579
 9094SOL    HW238919   2.646   0.188   6.967  0.0350 -3.1778  2.5200
 9095SOL     OW38920   2.861   0.130   2.564  0.3071  0.1575  0.9205
 9095SOL    HW138921   2.920   0.156   2.635 -2.7113  3.3219  2.2650
 9095SOL    HW238922   2.919   0.133   2.488 -0.5881  0.4496  0.2523
 9096SOL     OW38923   0.903   0.799   0.518  0.0825 -0.0518 -0.4195
 9096SOL    HW138924   0.823   0.844   0.545  0.2790  0.9923 -1.5826
 9096SOL    HW238925   0.972   0.852   0.557  0.6164 -2.6415  2.1056
 9097SOL     OW38926   3.770   3.329  15.970  0.1742  0.3109  0.3582
 9097SOL    HW138927   3.771   3.419  16.001  2.3759  0.7819 -1.0735
 9097SOL    HW238928   3.749   3.342  15.877 -4.8643  1.2990  1.6231
 9098SOL     OW38929   0.534   2.397  17.444 -0.1927  0.5525 -0.3857
 9098SOL    HW138930   0.503   2.447  17.520 -1.6652 -0.4228 -0.3429
 9098SOL    HW238931   0.459   2.339  17.428  1.0614 -0.0406 -3.9608
 9099SOL     OW38932   0.192   1.752   4.713  0.3209  0.1250  0.0544
 9099SOL    HW138933   0.145   1.834   4.729  0.8826  0.9568 -2.4717
 9099SOL    HW238934   0.244   1.779   4.637  1.6894  1.2390  1.3715
 9100SOL     OW38935   3.093   2.253   6.520  0.1549  0.2037  0.0289
 9100SOL    HW138936   3.011   2.256   6.471 -0.7889  1.6185  1.7209
 9100SOL    HW238937   3.096   2.333   6.573  0.2661  0.0572  0.2456
 9101SOL     OW38938   1.674   2.892   4.880 -0.1167 -0.0748 -0.1850
 9101SOL    HW138939   1.752   2.876   4.934  0.3244  0.3513 -0.6886
 9101SOL    HW238940   1.616   2.817   4.887  1.8831 -1.8523 -2.5612
 9102SOL     OW38941   2.018   4.014   6.592  0.3273 -0.1856  0.0820
 9102SOL    HW138942   2.087   4.003   6.527  0.3517 -2.1976  0.4602
 9102SOL    HW238943   2.060   4.060   6.665  1.4118 -1.7334  0.4332
 9103SOL     OW38944   3.525   3.543   8.642 -0.8254 -0.1962  0.3399
 9103SOL    HW138945   3.458   3.477   8.656 -0.1821 -0.9623 -0.1935
 9103SOL    HW238946   3.534   3.583   8.728  1.9302 -0.4547  0.1872
 9104SOL     OW38947   4.389   4.396   2.920  0.4289  0.3413 -0.0746
 9104SOL    HW138948   4.465   4.443   2.954 -0.8211  0.9662  1.8655
 9104SOL    HW238949   4.419   4.328   2.860 -0.6834  3.7376 -4.5488
 9105SOL     OW38950   0.698   0.720   5.351 -0.2592  0.6085  0.3588
 9105SOL    HW138951   0.675   0.777   5.425  1.0811  1.7217 -0.0928
 9105SOL    HW238952   0.659   0.760   5.273  1.5249 -0.5799 -1.1368
 9106SOL     OW38953   4.198   1.261  10.836  0.0964 -0.3632 -0.2945
 9106SOL    HW138954   4.148   1.183  10.812  1.6229 -1.3868 -0.2233
 9106SOL    HW238955   4.261   1.253  10.764  1.8314 -2.9856  1.4921
 9107SOL     OW38956   2.950   3.731   9.011 -0.2927 -0.2106 -0.5737
 9107SOL    HW138957   2.899   3.743   8.931 -1.5279 -1.8569 -0.0447
 9107SOL    HW238958   2.893   3.670   9.058 -0.2639  0.0558 -0.1887
 9108SOL     OW38959   1.874   2.017  17.036 -0.2336 -0.3208  0.0662
 9108SOL    HW138960   1.809   1.947  17.041  0.1312 -0.6547  0.1350
 9108SOL    HW238961   1.909   2.012  16.947 -0.2049  2.3265 -0.0721
 9109SOL     OW38962   0.965   1.960  14.873 -0.0370 -0.3168  0.1516
 9109SOL    HW138963   0.937   1.882  14.825  1.6675 -1.4575  0.9872
 9109SOL    HW238964   0.968   1.916  14.958  2.0182 -1.4210 -0.4887
 9110SOL     OW38965   3.520   4.049   1.542 -0.1459  0.0425 -0.3889
 9110SOL    HW138966   3.532   4.135   1.582 -0.6571 -0.5295  0.9993
 9110SOL    HW238967   3.497   4.077   1.453  0.7395 -0.9390 -0.9161
 9111SOL     OW38968   2.836   2.566   6.318 -0.5546  1.0607 -0.1341
 9111SOL    HW138969   2.896   2.635   6.348  1.1803 -0.6443  0.3654
 9111SOL    HW238970   2.752   2.611   6.323 -0.9586  0.2916 -0.0440
 9112SOL     OW38971   0.212   3.322   8.577  0.0323  0.6842 -0.2683
 9112SOL    HW138972   0.239   3.356   8.662 -0.1401  1.3401 -0.4793
 9112SOL    HW238973   0.190   3.231   8.599 -0.4828  0.5085 -1.5231
 9113SOL     OW38974   4.555   2.251   4.747  0.8372 -0.0106  0.0706
 9113SOL    HW138975   4.532   2.273   4.656 -1.4104  2.2547  1.1754
 9113SOL    HW238976   4.464   2.262   4.776  1.1151  1.3609  0.4218
 9114SOL     OW38977   3.883   3.587   8.728  0.1625  0.2234 -0.3286
 9114SOL    HW138978   3.817   3.656   8.730 -1.1618 -1.0238 -0.9225
 9114SOL    HW238979   3.861   3.549   8.813 -0.1074 -0.8753 -0.8887
 9115SOL     OW38980   4.499   1.380   9.255  0.3129 -0.4435 -0.2100
 9115SOL    HW138981   4.503   1.475   9.249 -0.9103 -0.2975  1.1316
 9115SOL    HW238982   4.588   1.350   9.240  0.7361  1.5742 -1.7232
 9116SOL     OW38983   4.396   0.171  16.030  0.2847 -0.2067 -0.2729
 9116SOL    HW138984   4.331   0.235  16.000 -0.0431 -1.3885 -2.1056
 9116SOL    HW238985   4.398   0.106  15.960 -0.1032 -0.4253 -0.0833
 9117SOL     OW38986   1.469   4.716   3.503  0.5993  0.4647 -0.6169
 9117SOL    HW138987   1.477   4.667   3.585 -0.4532 -0.6849 -1.2154
 9117SOL    HW238988   1.469   4.645   3.439  1.1256 -0.3237  0.2658
 9118SOL     OW38989   0.977   0.419   5.547  0.1791  0.4177  0.2893
 9118SOL    HW138990   1.003   0.472   5.472 -1.1836 -0.2264 -0.6380
 9118SOL    HW238991   1.030   0.341   5.528 -0.4689 -0.0979  0.5756
 9119SOL     OW38992   4.380   1.674  13.346 -0.4697 -0.7094 -0.2867
 9119SOL    HW138993   4.343   1.698  13.431 -0.3058  0.6758 -0.6228
 9119SOL    HW238994   4.393   1.582  13.371  4.3492 -0.2240 -0.9897
 9120SOL     OW38995   3.775   0.901   7.294 -0.2043 -0.2948 -0.3212
 9120SOL    HW138996   3.741   0.819   7.327 -1.5912 -0.0472 -1.1197
 9120SOL    HW238997   3.867   0.880   7.279 -0.2793 -0.7836 -0.0815
 9121SOL     OW38998   4.667   2.751   3.831 -0.0230  0.4240 -0.9152
 9121SOL    HW138999   4.617   2.670   3.827  1.2634 -0.5271  2.2972
 9121SOL    HW239000   4.612   2.805   3.774 -2.9469 -3.9139 -2.1533
 9122SOL     OW39001   1.860   2.125   9.031  0.0136  0.6586 -0.0331
 9122SOL    HW139002   1.913   2.114   8.953 -1.0067 -0.9774 -0.5050
 9122SOL    HW239003   1.922   2.084   9.092  1.5751 -0.1761 -2.1758
 9123SOL     OW39004   1.779   4.571   7.366  0.1689 -0.4711  0.4624
 9123SOL    HW139005   1.697   4.575   7.316  0.1228  0.4738  0.6250
 9123SOL    HW239006   1.755   4.628   7.439  0.7882  1.9794 -1.2399
 9124SOL     OW39007   4.264   1.637   2.810  0.9195  0.4817  0.1579
 9124SOL    HW139008   4.318   1.563   2.781  0.1453 -0.0526  0.0709
 9124SOL    HW239009   4.174   1.611   2.785  1.2269  0.5213 -1.0181
 9125SOL     OW39010   3.673   4.484   4.670  0.2197  0.0014 -0.1626
 9125SOL    HW139011   3.617   4.551   4.631 -0.8863 -1.1373 -0.5440
 9125SOL    HW239012   3.699   4.519   4.755 -0.3875  0.0775 -0.0045
 9126SOL     OW39013   2.795   4.201  13.914 -0.8438  0.2530 -0.1513
 9126SOL    HW139014   2.778   4.110  13.888 -1.1775  0.7169 -1.5178
 9126SOL    HW239015   2.749   4.245  13.843  0.3193 -0.3460 -1.2972
 9127SOL     OW39016   4.665   4.549   6.819  0.2056 -0.4875  0.0370
 9127SOL    HW139017   4.608   4.514   6.751 -0.7942 -0.0902  0.6723
 9127SOL    HW239018   4.704   4.627   6.781 -0.2555 -1.4657 -2.4386
 9128SOL     OW39019   0.940   0.270   1.643 -0.3006  0.3736  0.0034
 9128SOL    HW139020   0.888   0.297   1.718 -0.1387  1.9777 -0.4640
 9128SOL    HW239021   0.873   0.224   1.592  0.4858  1.7252 -2.2701
 9129SOL     OW39022   0.549   4.525  16.330 -0.2729 -0.0877  0.1282
 9129SOL    HW139023   0.542   4.475  16.249  0.1848 -0.5123  0.3474
 9129SOL    HW239024   0.637   4.561  16.334 -0.0290 -0.5902 -0.5985
 9130SOL     OW39025   2.989   2.299   2.487  0.0571  0.3601 -0.5202
 9130SOL    HW139026   2.949   2.251   2.559  0.0947 -1.1215 -1.4996
 9130SOL    HW239027   3.072   2.253   2.471  0.9354  1.5659  0.5162
 9131SOL     OW39028   0.521   3.791   9.085 -0.1028 -0.4764  0.8836
 9131SOL    HW139029   0.593   3.818   9.027  0.0575 -1.9881  0.3724
 9131SOL    HW239030   0.475   3.875   9.092  1.5167  0.5816 -1.0995
 9132SOL     OW39031   4.343   3.894   4.361  0.3855  0.0118  0.0348
 9132SOL    HW139032   4.400   3.970   4.347 -1.2264  1.0094 -1.0578
 9132SOL    HW239033   4.278   3.905   4.292 -0.7567 -0.9907  0.9570
 9133SOL     OW39034   0.225   3.692   1.306  0.1559  0.0504  0.7863
 9133SOL    HW139035   0.154   3.629   1.314  0.5572 -0.2356  1.9704
 9133SOL    HW239036   0.271   3.658   1.229  1.4615 -2.9426  2.9281
 9134SOL     OW39037   0.567   2.337   9.044  0.0592  0.8380  0.5369
 9134SOL    HW139038   0.592   2.421   9.004 -0.8961  2.2613  2.8945
 9134SOL    HW239039   0.473   2.338   9.063  0.1816  1.4817  1.1084
 9135SOL     OW39040   0.148   1.053  14.276 -0.1946  0.2354 -0.0841
 9135SOL    HW139041   0.111   1.088  14.195 -1.2414  0.6307  0.5650
 9135SOL    HW239042   0.239   1.056  14.245 -0.3302 -0.8101 -0.5665
 9136SOL     OW39043   1.859   4.058   7.422 -0.0304  0.0670  0.1882
 9136SOL    HW139044   1.934   4.042   7.364 -0.2958 -0.0983 -0.1130
 9136SOL    HW239045   1.846   4.152   7.421 -0.2632  0.0345  0.4145
 9137SOL     OW39046   3.330   0.472   8.350  0.0792 -0.1263 -0.1303
 9137SOL    HW139047   3.387   0.438   8.419  1.0572 -0.9694 -1.3764
 9137SOL    HW239048   3.259   0.513   8.400  0.0556  0.9420 -1.0352
 9138SOL     OW39049   4.607   0.696   8.259 -0.2182 -0.1919 -0.4438
 9138SOL    HW139050   4.673   0.666   8.196 -1.1057  0.6870 -1.7959
 9138SOL    HW239051   4.612   0.623   8.321  2.7999 -0.1837 -0.6439
 9139SOL     OW39052   1.366   2.320   4.025  0.6046  0.1815 -0.4611
 9139SOL    HW139053   1.394   2.239   4.067  2.8927  1.3943  0.3061
 9139SOL    HW239054   1.406   2.381   4.087  2.4686 -1.0333 -0.4610
 9140SOL     OW39055   2.315   2.587   8.378 -0.2926  0.0883 -0.0893
 9140SOL    HW139056   2.277   2.561   8.294  0.0637  0.0454 -0.2360
 9140SOL    HW239057   2.240   2.612   8.433  0.5210 -0.0749  1.1106
 9141SOL     OW39058   4.206   0.319   8.584  0.2411  0.0004  0.2181
 9141SOL    HW139059   4.294   0.339   8.617  0.5372 -1.3855  0.2505
 9141SOL    HW239060   4.154   0.292   8.659  0.1284 -0.6030 -0.0794
 9142SOL     OW39061   2.587   2.866   4.108 -0.2040 -0.2939  0.3262
 9142SOL    HW139062   2.512   2.849   4.051 -0.0102  1.2042 -0.3865
 9142SOL    HW239063   2.629   2.781   4.111 -0.8382 -0.6288 -0.4404
 9143SOL     OW39064   2.592   2.694   6.354 -0.4204 -0.4999 -0.2800
 9143SOL    HW139065   2.561   2.768   6.301  0.0017  0.6930  1.1555
 9143SOL    HW239066   2.536   2.626   6.315 -1.0638 -0.6741  0.9686
 9144SOL     OW39067   1.725   3.142   8.274  0.1899 -0.0529 -0.0692
 9144SOL    HW139068   1.719   3.196   8.353 -0.6394 -1.4107  0.7917
 9144SOL    HW239069   1.727   3.215   8.212  0.9043  1.2406  1.4565
 9145SOL     OW39070   3.057   2.894   6.135  0.1459  0.2437 -0.0869
 9145SOL    HW139071   3.076   2.913   6.227 -1.0703 -2.6020  0.7789
 9145SOL    HW239072   3.144   2.868   6.105 -0.4008 -0.9982 -0.6236
 9146SOL     OW39073   3.534   3.077   3.504  0.0958 -0.4950 -0.5778
 9146SOL    HW139074   3.451   3.090   3.551 -0.3573  1.7540 -1.9692
 9146SOL    HW239075   3.503   3.084   3.414  0.6541  2.1695 -0.5623
 9147SOL     OW39076   2.820   1.364   8.796 -0.4285 -0.0379 -0.5332
 9147SOL    HW139077   2.770   1.350   8.715 -1.1763 -0.2893 -0.0305
 9147SOL    HW239078   2.807   1.458   8.807  2.1220 -0.0588  2.5293
 9148SOL     OW39079   1.930   4.424   3.516 -0.2703 -0.4172 -0.4410
 9148SOL    HW139080   2.018   4.415   3.478  0.6247  2.0190  1.0435
 9148SOL    HW239081   1.914   4.512   3.482  1.9203  0.0321 -0.3308
 9149SOL     OW39082   0.959   2.214   8.074  0.2307 -0.1694 -0.0532
 9149SOL    HW139083   1.048   2.229   8.107  0.8557 -0.7400 -1.4401
 9149SOL    HW239084   0.973   2.135   8.021 -3.4371 -1.2000  0.5113
 9150SOL     OW39085   3.300   1.221   7.114 -0.2571 -0.1790  0.1325
 9150SOL    HW139086   3.383   1.174   7.101  0.2685  0.2511  1.9399
 9150SOL    HW239087   3.338   1.306   7.137 -0.4630 -0.1216  0.2505
 9151SOL     OW39088   4.258   3.043   6.752  0.0062 -0.4041  0.8192
 9151SOL    HW139089   4.210   3.079   6.826 -0.8228  0.7071 -0.2583
 9151SOL    HW239090   4.345   3.032   6.791  0.3805  0.8436  0.3333
 9152SOL     OW39091   4.519   1.607  12.081 -0.1449 -0.3887 -0.0383
 9152SOL    HW139092   4.478   1.628  12.165 -2.0200 -3.2033 -0.2402
 9152SOL    HW239093   4.533   1.696  12.048  0.8322 -0.4548  0.1925
 9153SOL     OW39094   2.022   1.903   2.182  0.4593 -0.0227 -0.0374
 9153SOL    HW139095   1.992   1.975   2.126 -0.2368 -1.1631 -1.1199
 9153SOL    HW239096   1.944   1.912   2.237 -1.9371 -1.5689 -3.1757
 9154SOL     OW39097   0.957   3.602   5.089  0.0482 -0.6606  0.5835
 9154SOL    HW139098   0.931   3.659   5.161  1.8507 -1.2061  1.6852
 9154SOL    HW239099   0.891   3.624   5.024  0.8953  0.0147 -0.0489
 9155SOL     OW39100   2.695   2.362  15.193  0.5822 -0.0380  0.4909
 9155SOL    HW139101   2.728   2.409  15.270  2.3948  1.0779 -0.9544
 9155SOL    HW239102   2.780   2.342  15.153  1.1102 -0.8366  1.9724
 9156SOL     OW39103   0.690   0.568  15.855 -0.9079  0.3868 -0.0192
 9156SOL    HW139104   0.598   0.570  15.830 -1.0574  0.4715  0.5405
 9156SOL    HW239105   0.697   0.474  15.876 -0.2798  0.3292 -0.4895
 9157SOL     OW39106   3.953   1.157   3.762  0.0355  0.4397 -0.0167
 9157SOL    HW139107   3.974   1.128   3.851  0.7742  1.6367  0.1919
 9157SOL    HW239108   3.902   1.237   3.775  0.8595  1.1041 -0.9109
 9158SOL     OW39109   3.459   3.053  10.784 -0.6693  0.5357 -0.3209
 9158SOL    HW139110   3.444   2.979  10.726 -1.4288 -0.8035  1.5867
 9158SOL    HW239111   3.409   3.129  10.753 -0.0851  0.7444 -0.7557
 9159SOL     OW39112   4.686   2.331   6.634 -0.2087  0.5083 -0.3204
 9159SOL    HW139113   4.610   2.287   6.596 -0.4517  0.4497  0.2215
 9159SOL    HW239114   4.731   2.362   6.556 -1.7201  0.4612 -1.2119
 9160SOL     OW39115   4.533   3.801   3.378  0.1403  0.5100  0.0267
 9160SOL    HW139116   4.446   3.828   3.347  1.7600  0.2964 -4.7588
 9160SOL    HW239117   4.592   3.869   3.344 -0.6412  1.2953  0.2242
 9161SOL     OW39118   4.262   2.186   3.901  0.1608 -0.5014  0.2403
 9161SOL    HW139119   4.173   2.219   3.898  0.4056  0.1302 -0.0802
 9161SOL    HW239120   4.312   2.246   3.956  1.6201 -2.3372  0.9383
 9162SOL     OW39121   0.079   2.242  13.514  0.5549 -0.4642 -0.1453
 9162SOL    HW139122   0.123   2.266  13.432 -2.4499  0.7486 -1.4089
 9162SOL    HW239123   0.144   2.272  13.578  0.0357 -0.3437  0.3224
 9163SOL     OW39124   0.943   0.097   6.109 -0.3698 -0.2148  0.5951
 9163SOL    HW139125   0.970   0.018   6.155 -0.2937 -0.7855 -0.4225
 9163SOL    HW239126   1.006   0.098   6.037 -0.4713 -1.5438  0.4821
 9164SOL     OW39127   4.072   2.907   6.914  0.0403 -0.3319 -0.6822
 9164SOL    HW139128   4.130   2.833   6.899 -2.0056 -1.6451 -2.1156
 9164SOL    HW239129   4.003   2.868   6.969  2.7243 -3.6839  0.2692
 9165SOL     OW39130   3.936   4.026   3.600 -0.1929  0.2352  0.1005
 9165SOL    HW139131   3.903   3.950   3.553 -0.4423  1.5176 -1.7895
 9165SOL    HW239132   3.918   3.994   3.688 -0.3301 -1.3754 -0.5198
 9166SOL     OW39133   1.011   4.485   2.099  0.4832  0.1630  0.2937
 9166SOL    HW139134   0.918   4.473   2.119  0.7533  1.1445  2.1711
 9166SOL    HW239135   1.049   4.455   2.182 -1.8406  1.5575  1.8741
 9167SOL     OW39136   1.718   3.892  17.178  0.6658  0.1343  0.0015
 9167SOL    HW139137   1.643   3.913  17.122  0.2971  0.4059  0.5924
 9167SOL    HW239138   1.750   3.806  17.152 -0.9470 -0.1520 -1.0161
 9168SOL     OW39139   0.367   0.695   9.058 -0.2347  0.1108 -0.5097
 9168SOL    HW139140   0.368   0.763   9.125  1.0058  0.8331 -1.2416
 9168SOL    HW239141   0.310   0.627   9.093  0.3280 -1.7449 -3.1822
 9169SOL     OW39142   4.004   2.147   8.648  0.1344 -0.5323 -0.6719
 9169SOL    HW139143   4.026   2.119   8.737  1.4096 -1.0135 -1.1395
 9169SOL    HW239144   3.991   2.242   8.653 -1.8102 -1.0141  3.5913
 9170SOL     OW39145   1.854   3.014   7.638  0.0430  0.1897  0.2987
 9170SOL    HW139146   1.866   3.108   7.622 -1.0637  0.3289  0.2894
 9170SOL    HW239147   1.883   2.976   7.555  2.5952  1.4778  0.6128
 9171SOL     OW39148   4.727   2.180   3.109  0.0417 -0.2856 -0.1314
 9171SOL    HW139149   0.064   2.147   3.156 -1.8313 -2.5197  1.3717
 9171SOL    HW239150   4.736   2.125   3.031  0.5920 -0.5284  0.1020
 9172SOL     OW39151   3.716   1.749   1.897 -0.1241 -0.5748 -0.2601
 9172SOL    HW139152   3.670   1.783   1.820  1.7675  1.7064 -0.3750
 9172SOL    HW239153   3.643   1.738   1.958  0.3135 -0.4361  0.2985
 9173SOL     OW39154   1.720   2.664   7.727  0.4271  0.3450  0.7333
 9173SOL    HW139155   1.639   2.613   7.731 -0.4269  1.5380 -1.3182
 9173SOL    HW239156   1.754   2.655   7.817  1.4675 -1.6438  0.1375
 9174SOL     OW39157   0.730   0.229   6.212 -0.4772  0.2605 -0.3503
 9174SOL    HW139158   0.739   0.308   6.159  1.7601  0.8847  0.9763
 9174SOL    HW239159   0.807   0.183   6.177 -1.7977 -2.6654  0.5553
 9175SOL     OW39160   1.378   1.014   9.561 -0.2883 -0.2458  0.5381
 9175SOL    HW139161   1.295   0.968   9.576  0.4738 -2.1520 -1.0661
 9175SOL    HW239162   1.351   1.089   9.508  0.2274  0.9657  1.9999
 9176SOL     OW39163   3.041   2.220   6.210  0.8630 -0.5559 -0.1521
 9176SOL    HW139164   3.025   2.130   6.181  3.0386 -1.0937  0.2924
 9176SOL    HW239165   2.960   2.248   6.251  1.5716 -0.0045  0.8851
 9177SOL     OW39166   1.627   4.239  10.072  0.0858  0.1224  0.1692
 9177SOL    HW139167   1.542   4.282  10.079  0.1301  0.5316 -1.8059
 9177SOL    HW239168   1.606   4.150  10.042 -1.4973  0.9861 -1.2638
 9178SOL     OW39169   3.463   2.967   5.950 -0.1517  0.6201 -0.2123
 9178SOL    HW139170   3.557   2.950   5.938 -0.5266 -2.7546  1.6550
 9178SOL    HW239171   3.447   3.060   5.932 -0.2660  0.0776 -2.9085
 9179SOL     OW39172   1.994   2.942   4.583  0.9606  0.3536  0.6485
 9179SOL    HW139173   1.928   3.001   4.620  0.2499  0.1157 -0.2297
 9179SOL    HW239174   1.943   2.862   4.596 -0.1518  1.0813  0.7476
 9180SOL     OW39175   0.425   0.749   0.289 -0.1468  0.1336 -0.1834
 9180SOL    HW139176   0.444   0.828   0.239  0.5967  0.8741  1.2728
 9180SOL    HW239177   0.422   0.682   0.221 -1.5359 -0.6640  0.6748
 9181SOL     OW39178   3.177   4.713   7.664 -0.2474  0.0715  0.7966
 9181SOL    HW139179   3.194   0.043   7.600 -0.3284 -0.0931  0.5990
 9181SOL    HW239180   3.210   0.001   7.749  0.4489  0.8004  0.2925
 9182SOL     OW39181   4.502   1.658   9.252  0.2375  0.2507  0.1148
 9182SOL    HW139182   4.426   1.714   9.232 -0.2635  0.1226  1.6499
 9182SOL    HW239183   4.549   1.677   9.171  0.2972  0.0051  0.0922
 9183SOL     OW39184   2.046   0.365   8.659  0.3632 -0.1033 -0.5122
 9183SOL    HW139185   2.109   0.430   8.628  1.1580  0.1391  1.5902
 9183SOL    HW239186   1.958   0.395   8.638 -0.1308 -0.9738  0.2794
 9184SOL     OW39187   4.273   0.904  10.364  0.1213 -0.6410  0.1179
 9184SOL    HW139188   4.231   0.942  10.440 -1.0448  1.1306 -1.4289
 9184SOL    HW239189   4.265   0.964  10.290 -1.1874 -0.9374  0.0200
 9185SOL     OW39190   1.182   4.552   5.695 -0.0543  0.2743  0.0207
 9185SOL    HW139191   1.206   4.479   5.637 -0.5408  0.7581 -0.7892
 9185SOL    HW239192   1.239   4.528   5.768 -0.2127  0.3328  0.1636
 9186SOL     OW39193   2.599   3.434   5.836 -0.0101 -0.5310  0.2273
 9186SOL    HW139194   2.577   3.387   5.755 -0.6499  3.5176 -1.9484
 9186SOL    HW239195   2.670   3.377   5.866  0.1518 -0.4511 -0.0038
 9187SOL     OW39196   2.049   2.294   8.210 -1.2708  0.0775  0.4290
 9187SOL    HW139197   1.982   2.311   8.276  0.0604  1.6292  1.3872
 9187SOL    HW239198   2.004   2.344   8.142  1.8392  0.5923 -1.2543
 9188SOL     OW39199   0.131   4.279  10.603  0.1458 -0.0281  0.2330
 9188SOL    HW139200   0.048   4.240  10.633 -1.1181  1.1377 -1.7618
 9188SOL    HW239201   0.115   4.368  10.634 -0.9749 -0.6580  1.5309
 9189SOL     OW39202   4.122   3.842   7.276 -0.2434  0.2535  0.3554
 9189SOL    HW139203   4.051   3.901   7.302 -1.4553 -1.3956  0.7783
 9189SOL    HW239204   4.135   3.871   7.186 -2.3154 -1.6998 -0.5676
 9190SOL     OW39205   3.151   0.550   0.030 -0.0942 -0.8038  0.3278
 9190SOL    HW139206   3.116   0.610   0.096  2.3358 -0.3263  1.1741
 9190SOL    HW239207   3.097   0.473   0.046 -0.7359 -0.2074  1.0038
 9191SOL     OW39208   1.496   4.157   6.608  0.4536  0.0069  0.3334
 9191SOL    HW139209   1.486   4.251   6.626  0.0676 -0.4408  2.3918
 9191SOL    HW239210   1.403   4.136   6.595  0.8991 -2.0680  0.4774
 9192SOL     OW39211   1.348   2.483   1.590 -0.4499 -0.9206 -0.4659
 9192SOL    HW139212   1.297   2.408   1.558 -2.9309  0.4701  0.1988
 9192SOL    HW239213   1.389   2.511   1.509 -0.2009 -1.1780 -0.4280
 9193SOL     OW39214   2.947   1.998   1.468 -0.2579  0.4347 -0.7910
 9193SOL    HW139215   2.859   1.983   1.504  1.4831 -1.6700  2.7113
 9193SOL    HW239216   2.966   2.080   1.513  0.1487  0.1259 -0.3840
 9194SOL     OW39217   1.383   2.405   2.094 -0.1210  0.3255  0.1734
 9194SOL    HW139218   1.315   2.365   2.040 -0.0629 -1.9422  1.7893
 9194SOL    HW239219   1.425   2.326   2.128 -0.7619 -1.0783 -2.2814
 9195SOL     OW39220   3.481   3.938   3.533 -0.0780  0.4120  0.2113
 9195SOL    HW139221   3.474   3.966   3.624  0.4892  3.5998 -0.7078
 9195SOL    HW239222   3.486   3.843   3.544 -0.7396  0.4369  0.7178
 9196SOL     OW39223   3.863   2.150   6.109  0.1125 -0.6139 -0.0653
 9196SOL    HW139224   3.873   2.140   6.014 -0.6494  0.7872 -0.2841
 9196SOL    HW239225   3.792   2.212   6.125  2.2372  1.6489  0.5978
 9197SOL     OW39226   4.673   0.123  13.251 -0.3696  0.4662  0.5680
 9197SOL    HW139227   4.721   0.071  13.186 -0.4183 -0.8638  1.6087
 9197SOL    HW239228   4.673   0.063  13.324  0.9841  0.6519  0.7170
 9198SOL     OW39229   2.672   1.002   3.732 -0.1605 -0.0700 -0.0645
 9198SOL    HW139230   2.645   0.946   3.660  0.0604  0.6519 -0.7070
 9198SOL    HW239231   2.674   1.088   3.689  0.1435 -1.4170 -2.6989
 9199SOL     OW39232   3.329   1.112  12.411 -0.2033  0.1431  0.2013
 9199SOL    HW139233   3.392   1.172  12.452 -1.3684 -0.3339  2.7001
 9199SOL    HW239234   3.335   1.029  12.459  0.1844  1.6003  2.6848
 9200SOL     OW39235   1.386   3.488  11.009  0.1414 -0.2138 -0.3681
 9200SOL    HW139236   1.371   3.462  10.918 -1.9442  1.3656 -0.4590
 9200SOL    HW239237   1.385   3.583  11.003  2.8060 -0.1260  0.4251
 9201SOL     OW39238   0.129   3.371   0.000 -0.0965  0.0226  0.1236
 9201SOL    HW139239   0.087   3.456   0.016  0.3891  0.5671 -1.4632
 9201SOL    HW239240   0.107   3.357  17.664 -0.1546 -0.0698  0.1514
 9202SOL     OW39241   1.715   4.595   0.264  0.1535  0.3507  0.7521
 9202SOL    HW139242   1.627   4.577   0.231 -0.2302  1.1409  1.3521
 9202SOL    HW239243   1.758   4.564   0.185  0.9885  1.5275  0.7463
 9203SOL     OW39244   0.907   1.015  15.650  0.3923 -0.5989  0.1827
 9203SOL    HW139245   0.965   1.036  15.576  1.1811 -0.7086  0.7695
 9203SOL    HW239246   0.963   0.983  15.721  0.6590 -1.9065 -0.6121
 9204SOL     OW39247   4.420   1.531  11.829  0.6421 -0.4170 -0.3911
 9204SOL    HW139248   4.509   1.561  11.810  1.1085 -1.3752  0.2930
 9204SOL    HW239249   4.443   1.508  11.919  0.5638 -1.1375 -0.5553
 9205SOL     OW39250   2.514   0.244   1.061  0.3244  0.2217 -0.0987
 9205SOL    HW139251   2.562   0.226   0.981  1.5991 -0.1808  0.7520
 9205SOL    HW239252   2.511   0.339   1.062 -0.0704  0.1882  4.0004
 9206SOL     OW39253   1.979   0.697   4.660 -0.3216  0.4743 -0.0924
 9206SOL    HW139254   2.068   0.663   4.667 -0.9327 -0.6730  2.1179
 9206SOL    HW239255   1.939   0.667   4.742 -0.4384 -2.1279 -1.1205
 9207SOL     OW39256   1.932   2.521  10.038 -0.5463 -0.4267  0.2649
 9207SOL    HW139257   1.990   2.455  10.000 -1.7994 -1.1188 -0.4489
 9207SOL    HW239258   1.874   2.474  10.098  1.0765 -1.9920  0.6292
 9208SOL     OW39259   3.836   3.766   7.805 -0.6189 -0.1226 -0.2693
 9208SOL    HW139260   3.906   3.762   7.740 -1.0885  1.5849 -0.8702
 9208SOL    HW239261   3.794   3.681   7.791 -0.2305 -0.1325 -1.3763
 9209SOL     OW39262   4.586   1.727   7.101  0.0592 -0.4569 -0.7582
 9209SOL    HW139263   4.564   1.790   7.033 -0.7054  0.9383  0.7615
 9209SOL    HW239264   4.614   1.658   7.041 -0.8003 -2.7134  1.4152
 9210SOL     OW39265   1.992   1.978  13.367  0.5503 -0.5253 -0.1993
 9210SOL    HW139266   2.047   2.053  13.387  0.3490 -0.6875  0.9744
 9210SOL    HW239267   1.904   2.012  13.384  0.6091  0.9558 -2.9283
 9211SOL     OW39268   2.430   3.387   5.469 -0.3940 -0.3891  0.0745
 9211SOL    HW139269   2.513   3.341   5.477 -0.2005 -0.0198  0.2037
 9211SOL    HW239270   2.380   3.347   5.540 -0.1738  1.1962  1.1341
 9212SOL     OW39271   2.046   0.838  15.942  0.0230  1.2508  0.3264
 9212SOL    HW139272   2.104   0.815  15.870 -1.9307 -0.6030 -0.6297
 9212SOL    HW239273   2.057   0.933  15.933  0.5688  1.0078 -1.6389
 9213SOL     OW39274   0.979   0.678  13.285  0.1107  0.1270 -0.0079
 9213SOL    HW139275   1.073   0.680  13.267  0.0443 -0.3019 -0.4029
 9213SOL    HW239276   0.963   0.584  13.284  2.2124 -0.2729  2.1355
 9214SOL     OW39277   3.172   2.057   2.416  0.0605  0.0491 -0.4843
 9214SOL    HW139278   3.180   1.994   2.344  0.0845 -0.9154  0.3644
 9214SOL    HW239279   3.091   2.020   2.451  1.8776 -3.1852  0.3249
 9215SOL     OW39280   1.192   1.109   4.526  0.1551  0.0914 -0.2447
 9215SOL    HW139281   1.183   1.179   4.591  1.8917 -0.2098  0.3099
 9215SOL    HW239282   1.107   1.120   4.483  0.7983 -1.3469 -1.8567
 9216SOL     OW39283   2.505   2.350  15.871 -0.7582  0.3200 -0.6311
 9216SOL    HW139284   2.500   2.279  15.807 -0.1865 -0.4606  0.1703
 9216SOL    HW239285   2.513   2.427  15.816 -2.1106  0.2571 -0.8996
 9217SOL     OW39286   3.402   0.442   1.510 -0.5500 -0.6868 -0.6764
 9217SOL    HW139287   3.310   0.465   1.502 -0.2676  0.6094 -0.1810
 9217SOL    HW239288   3.444   0.527   1.525 -1.6350 -0.5035  1.2969
 9218SOL     OW39289   0.874   3.264   8.751 -0.0973 -0.0832  0.1596
 9218SOL    HW139290   0.854   3.181   8.708  1.4896 -0.2346 -0.2871
 9218SOL    HW239291   0.784   3.290   8.774 -0.1324 -0.0166 -0.0530
 9219SOL     OW39292   3.502   1.345   6.887  0.5897  0.7673  0.0597
 9219SOL    HW139293   3.598   1.352   6.888  0.8913 -3.4844  0.0073
 9219SOL    HW239294   3.491   1.298   6.970 -1.6662  1.4535  0.1315
 9220SOL     OW39295   3.095   0.446  10.466  0.2616  0.1062 -0.8935
 9220SOL    HW139296   3.107   0.408  10.553  1.2186  0.2007 -0.9861
 9220SOL    HW239297   3.050   0.528  10.487 -1.1418 -1.2841  1.6512
 9221SOL     OW39298   3.504   0.634  10.748  0.4860 -0.0124 -0.5032
 9221SOL    HW139299   3.468   0.568  10.689  3.3501 -1.4942 -0.6063
 9221SOL    HW239300   3.495   0.713  10.694  1.6631  0.7696  0.4429
 9222SOL     OW39301   2.716   2.245   8.841  0.5012  0.3193 -0.3835
 9222SOL    HW139302   2.706   2.150   8.847 -2.8308  0.5856 -2.2005
 9222SOL    HW239303   2.811   2.254   8.852  0.4863 -1.0284  0.9434
 9223SOL     OW39304   1.134   1.105   3.169 -0.0557  0.0347  0.4844
 9223SOL    HW139305   1.202   1.044   3.142  0.2648 -0.5963  2.7941
 9223SOL    HW239306   1.122   1.087   3.262  2.3232  0.4228  0.8482
 9224SOL     OW39307   2.020   1.340  16.454 -0.4854 -0.2375 -0.0809
 9224SOL    HW139308   2.037   1.295  16.371 -0.9294 -0.1949 -0.1935
 9224SOL    HW239309   1.925   1.339  16.457 -0.5054 -1.1989 -1.2493
 9225SOL     OW39310   3.601   1.141  11.412  0.2760  0.8354 -0.6655
 9225SOL    HW139311   3.637   1.156  11.499  3.4619 -0.0320 -1.8447
 9225SOL    HW239312   3.508   1.140  11.436  0.2807 -0.4793 -0.7186
 9226SOL     OW39313   3.711   1.607   0.044  0.4873  0.3616  0.1861
 9226SOL    HW139314   3.759   1.525   0.058  1.3439  0.7686 -0.4290
 9226SOL    HW239315   3.746   1.640  17.717  0.1158  0.7742  0.1962
 9227SOL     OW39316   0.292   0.316   3.655 -0.7410  0.0442 -0.1776
 9227SOL    HW139317   0.329   0.239   3.611 -1.3145 -0.5619  0.4042
 9227SOL    HW239318   0.368   0.318   3.713  0.4354  1.4048 -1.7711
 9228SOL     OW39319   1.760   3.339   2.201 -0.0310  0.3090  0.0768
 9228SOL    HW139320   1.769   3.393   2.122 -0.0978 -1.5231 -1.1758
 9228SOL    HW239321   1.678   3.384   2.220 -0.0870  0.3231 -0.2012
 9229SOL     OW39322   4.340   2.059   9.069 -0.3329 -0.2497  0.0192
 9229SOL    HW139323   4.295   2.112   9.135 -0.5229  1.0156 -1.1345
 9229SOL    HW239324   4.391   2.129   9.028 -0.3690  0.2771  0.8718
 9230SOL     OW39325   0.925   3.905  16.805 -0.3776  0.1126 -0.1226
 9230SOL    HW139326   0.845   3.875  16.761  0.6902 -2.6371 -0.1673
 9230SOL    HW239327   0.988   3.834  16.798 -2.3221 -1.5693 -0.6263
 9231SOL     OW39328   1.466   2.669  13.971 -0.4920 -0.1666  0.6086
 9231SOL    HW139329   1.543   2.613  13.957 -0.1558  0.4256  0.0435
 9231SOL    HW239330   1.405   2.630  13.908 -0.2993  0.7598 -0.1679
 9232SOL     OW39331   2.192   4.501   7.298  0.2050 -0.0900 -0.5405
 9232SOL    HW139332   2.164   4.409   7.304  1.0420 -0.3514 -0.6746
 9232SOL    HW239333   2.282   4.496   7.331 -0.6343 -0.1458  1.7419
 9233SOL     OW39334   3.842   0.431   8.665  0.0600 -0.0474 -0.6854
 9233SOL    HW139335   3.864   0.338   8.661  1.3182  0.2547 -0.7134
 9233SOL    HW239336   3.828   0.452   8.758  0.6104  0.9196 -0.8210
 9234SOL     OW39337   1.957   1.097   6.568  0.1228 -0.4234 -0.4989
 9234SOL    HW139338   2.041   1.128   6.602 -1.2394  2.1976  0.5322
 9234SOL    HW239339   1.913   1.071   6.648 -2.1701 -0.9413 -1.9142
 9235SOL     OW39340   0.217   1.657   5.580  0.2661  0.2675 -0.0715
 9235SOL    HW139341   0.179   1.570   5.574  1.4895 -0.4740  3.0537
 9235SOL    HW239342   0.309   1.634   5.597  0.2278  1.3077  1.5565
 9236SOL     OW39343   3.776   1.168  10.274  0.2190 -0.5546 -0.4417
 9236SOL    HW139344   3.711   1.162  10.345  0.3294 -1.4934 -0.4197
 9236SOL    HW239345   3.860   1.144  10.313 -0.8273 -1.4757  1.2644
 9237SOL     OW39346   0.374   0.490  14.952  0.4319  0.3644 -0.0308
 9237SOL    HW139347   0.460   0.522  14.979  0.3159 -1.3764  2.3877
 9237SOL    HW239348   0.383   0.482  14.857 -0.2338  2.8195 -0.3130
 9238SOL     OW39349   3.916   1.769   8.289 -0.7963  0.3578  0.5906
 9238SOL    HW139350   3.988   1.750   8.350 -0.5275 -0.0700  0.1397
 9238SOL    HW239351   3.851   1.812   8.344 -0.7391 -1.1620  1.8564
 9239SOL     OW39352   3.888   4.542  14.898  0.4972  0.3310 -0.1735
 9239SOL    HW139353   3.936   4.624  14.881  1.8564 -0.0948  1.5270
 9239SOL    HW239354   3.962   4.483  14.913  1.8640  2.3249  0.9970
 9240SOL     OW39355   2.779   0.634   3.689 -0.3458  0.2579 -0.3822
 9240SOL    HW139356   2.687   0.638   3.715  0.3939  1.7294  2.0934
 9240SOL    HW239357   2.814   0.605   3.774 -0.9297  0.7434  0.0241
 9241SOL     OW39358   4.313   1.007  16.630 -0.5216  0.2716 -0.2658
 9241SOL    HW139359   4.352   0.960  16.556 -1.1093  0.2683 -0.5713
 9241SOL    HW239360   4.259   1.066  16.578  0.0010  0.0637 -1.0481
 9242SOL     OW39361   0.722   2.195  17.137 -0.1200  0.2256 -0.3131
 9242SOL    HW139362   0.740   2.192  17.043  2.3083 -1.5300  0.2029
 9242SOL    HW239363   0.807   2.172  17.175 -0.4484 -1.6445 -0.7405
 9243SOL     OW39364   2.440   3.405  13.488  0.6712  0.2623  0.0420
 9243SOL    HW139365   2.355   3.369  13.461  1.0634 -0.4047 -0.2914
 9243SOL    HW239366   2.434   3.378  13.579 -2.9078 -0.0691 -0.2658
 9244SOL     OW39367   0.801   1.934  16.926  0.0242 -0.6693  0.1547
 9244SOL    HW139368   0.746   1.858  16.947  0.0570 -1.3140 -2.0860
 9244SOL    HW239369   0.869   1.917  16.992  0.2589 -1.0614 -0.1896
 9245SOL     OW39370   4.394   4.055  13.779  0.0327  0.7098 -0.3180
 9245SOL    HW139371   4.394   3.990  13.850  0.1796  1.5356  0.4359
 9245SOL    HW239372   4.457   4.119  13.813 -0.1510  0.5374  0.3607
 9246SOL     OW39373   0.185   0.349   9.159  0.1433  0.5011  0.3658
 9246SOL    HW139374   0.227   0.265   9.177  0.9738  0.7478 -0.3922
 9246SOL    HW239375   0.110   0.321   9.107  0.6892  0.7176 -0.5421
 9247SOL     OW39376   1.773   0.731   0.244 -0.2807  0.3812  0.2589
 9247SOL    HW139377   1.796   0.645   0.279  1.3982  0.5289 -0.4951
 9247SOL    HW239378   1.826   0.723   0.165  1.6335 -1.6984  1.7447
 9248SOL     OW39379   0.323   4.690   6.024 -0.1291 -0.0696  0.1392
 9248SOL    HW139380   0.310   0.005   5.946  1.5191  1.3330  0.8245
 9248SOL    HW239381   0.413   4.711   6.052  0.1373 -0.8896 -0.1114
 9249SOL     OW39382   0.953   1.119   3.822 -0.1694  0.3565  0.3643
 9249SOL    HW139383   1.025   1.172   3.855  0.3725 -0.3259  0.2873
 9249SOL    HW239384   1.003   1.049   3.782  0.1296  1.4497 -1.1469
 9250SOL     OW39385   0.849   4.473   5.158 -0.1238 -0.0555  0.2080
 9250SOL    HW139386   0.816   4.562   5.144 -1.5973 -0.4432  1.3102
 9250SOL    HW239387   0.944   4.481   5.155 -0.0813 -1.0361 -1.2756
 9251SOL     OW39388   2.932   0.135   9.364  0.2913  0.4189 -0.1833
 9251SOL    HW139389   3.026   0.122   9.370 -0.0325 -1.8307  0.0114
 9251SOL    HW239390   2.900   0.045   9.361  2.0732 -0.2298  0.6762
 9252SOL     OW39391   2.587   3.106   6.007  0.1696  0.4072 -0.1146
 9252SOL    HW139392   2.527   3.093   5.933  1.4710  1.0876 -1.2793
 9252SOL    HW239393   2.545   3.173   6.060  0.4573 -0.4519  1.2056
 9253SOL     OW39394   0.615   4.641   7.277 -0.4442 -0.0124  0.0094
 9253SOL    HW139395   0.543   4.579   7.266  0.0535 -0.9580  2.1525
 9253SOL    HW239396   0.575   4.719   7.314  0.2308 -0.0427  0.8140
 9254SOL     OW39397   0.616   2.669  16.193 -0.4934 -0.1362  0.4205
 9254SOL    HW139398   0.546   2.608  16.170 -0.4697 -0.1730  0.4465
 9254SOL    HW239399   0.567   2.734  16.244 -0.3018  1.4087 -1.3532
 9255SOL     OW39400   2.330   0.608  17.093 -0.1826 -0.3464 -0.5329
 9255SOL    HW139401   2.283   0.537  17.050 -2.1832 -0.0507  1.1209
 9255SOL    HW239402   2.386   0.640  17.022  0.3680  0.4321  0.2444
 9256SOL     OW39403   1.908   4.237   6.964  0.5293  0.0487  0.0543
 9256SOL    HW139404   1.896   4.327   6.935 -1.3004 -1.0594 -2.6039
 9256SOL    HW239405   1.867   4.238   7.051 -1.0996 -0.3981 -0.7090
 9257SOL     OW39406   4.405   2.424  13.984  0.3827 -0.6444 -0.6668
 9257SOL    HW139407   4.472   2.368  13.944  0.7161 -1.2688  0.7497
 9257SOL    HW239408   4.338   2.413  13.917 -2.5671  0.4348  2.1125
 9258SOL     OW39409   3.782   0.243   7.153  0.2478  0.3809 -0.0607
 9258SOL    HW139410   3.712   0.287   7.104 -0.3793 -0.6881 -0.1358
 9258SOL    HW239411   3.858   0.301   7.149  0.6694 -0.3158 -1.9972
 9259SOL     OW39412   0.139   2.079   3.430 -0.5247 -0.2391 -0.8067
 9259SOL    HW139413   0.218   2.075   3.484 -0.7875  1.0770 -0.3246
 9259SOL    HW239414   0.164   2.046   3.344  0.5351  0.6176 -0.8315
 9260SOL     OW39415   0.276   1.972  17.525  0.3511  0.7329  0.3365
 9260SOL    HW139416   0.307   2.054  17.562 -0.7017  1.4524 -0.3877
 9260SOL    HW239417   0.185   1.970  17.556 -0.0508 -0.9082 -0.9595
 9261SOL     OW39418   2.914   0.804  12.604  0.3693 -0.5042  0.2691
 9261SOL    HW139419   2.935   0.750  12.528 -0.8960 -1.0743  0.3299
 9261SOL    HW239420   2.972   0.759  12.666 -1.2076 -1.5356  1.0114
 9262SOL     OW39421   3.442   3.094   7.559 -0.0430  0.0072  0.7772
 9262SOL    HW139422   3.482   3.181   7.554  3.2896 -1.5059  1.1520
 9262SOL    HW239423   3.375   3.091   7.491  1.7953  0.0084 -1.0400
 9263SOL     OW39424   4.715   1.747   3.229 -0.3519  0.1713 -0.1280
 9263SOL    HW139425   0.022   1.754   3.146 -0.7916  0.6063 -0.3363
 9263SOL    HW239426   0.009   1.665   3.265 -0.0922  0.4568  0.2797
 9264SOL     OW39427   2.641   2.508  12.576  0.4379 -0.0358  0.0825
 9264SOL    HW139428   2.682   2.595  12.586 -1.1886  0.4730  2.0816
 9264SOL    HW239429   2.701   2.448  12.532 -0.8542 -1.9222  0.9312
 9265SOL     OW39430   3.552   1.419   2.896  0.4047 -0.5403 -0.2048
 9265SOL    HW139431   3.567   1.422   2.991  0.8065  1.7906 -0.3354
 9265SOL    HW239432   3.466   1.381   2.912 -0.7117  1.4822 -1.3570
 9266SOL     OW39433   2.215   3.420   8.502 -0.7390  0.2903 -0.1366
 9266SOL    HW139434   2.308   3.444   8.511 -0.4266 -0.6858 -0.8321
 9266SOL    HW239435   2.213   3.331   8.467  0.3459  0.2170 -0.0330
 9267SOL     OW39436   3.026   3.589   2.269 -0.3594 -1.1921 -0.7452
 9267SOL    HW139437   3.021   3.666   2.325  0.6631  0.3506 -2.7373
 9267SOL    HW239438   3.037   3.626   2.181  2.6162  0.4660  0.3304
 9268SOL     OW39439   4.146   0.966  10.610  0.5002 -0.5913  0.4148
 9268SOL    HW139440   4.107   1.018  10.681 -1.0676 -0.9199 -0.2167
 9268SOL    HW239441   4.145   0.885  10.660 -1.1943 -1.1758 -0.5572
 9269SOL     OW39442   2.196   2.085   1.515 -0.8036 -0.4429  0.2425
 9269SOL    HW139443   2.265   2.081   1.582  0.8088  2.6129 -1.2256
 9269SOL    HW239444   2.141   2.155   1.549 -1.6844  0.1360 -2.3695
 9270SOL     OW39445   3.948   0.785   4.129  0.3104  0.5219  0.1145
 9270SOL    HW139446   3.999   0.863   4.106 -0.2779  1.2432  1.2499
 9270SOL    HW239447   3.968   0.719   4.063  1.7188  1.8173 -0.7439
 9271SOL     OW39448   3.722   1.069   6.765 -0.3271  0.0291  0.3616
 9271SOL    HW139449   3.706   1.027   6.849  0.4227 -1.1912 -0.1054
 9271SOL    HW239450   3.663   1.024   6.705  0.6477 -1.2992  0.4128
 9272SOL     OW39451   4.128   0.628   3.357  0.0747 -0.2247  0.4305
 9272SOL    HW139452   4.195   0.655   3.295 -0.1085 -1.1666 -0.1786
 9272SOL    HW239453   4.132   0.699   3.421 -2.1206 -0.2574  0.6033
 9273SOL     OW39454   0.172   1.371   7.184 -0.4592 -0.2544 -0.0464
 9273SOL    HW139455   0.213   1.396   7.101 -2.5623 -0.6660 -1.2140
 9273SOL    HW239456   0.242   1.385   7.248  0.6268 -4.2233 -0.3716
 9274SOL     OW39457   0.519   1.832  10.823 -0.3694  0.0438 -0.0307
 9274SOL    HW139458   0.545   1.785  10.902  1.2326 -0.2202 -0.6968
 9274SOL    HW239459   0.586   1.900  10.827 -0.5283  0.0382  2.7642
 9275SOL     OW39460   4.543   3.424   3.446 -0.0933 -0.0511  0.3778
 9275SOL    HW139461   4.450   3.445   3.445 -0.4188 -1.6186 -1.9260
 9275SOL    HW239462   4.525   3.330   3.448 -0.2384 -0.0325 -0.0886
 9276SOL     OW39463   0.107   2.102   5.401  0.6780  0.4361 -0.5646
 9276SOL    HW139464   0.068   2.170   5.455 -0.4533  1.4235 -2.6263
 9276SOL    HW239465   0.095   2.026   5.458 -1.2989  0.0233 -1.5343
 9277SOL     OW39466   2.030   0.051   0.217 -0.2181 -0.5633  0.6467
 9277SOL    HW139467   2.081   4.734   0.275  1.2186  2.0809  1.9525
 9277SOL    HW239468   1.979   4.738   0.155 -0.7247  1.0840 -0.3216
 9278SOL     OW39469   2.865   0.671   9.000 -0.1140  0.0845 -0.0377
 9278SOL    HW139470   2.928   0.720   8.947 -1.3238  2.9483  1.2137
 9278SOL    HW239471   2.918   0.654   9.078  2.4618  0.4689 -1.7169
 9279SOL     OW39472   0.488   3.557   1.728 -0.7994 -0.6823 -0.4620
 9279SOL    HW139473   0.515   3.641   1.765  1.4840 -1.6837  0.1555
 9279SOL    HW239474   0.439   3.588   1.652 -0.3284  2.2885  0.4345
 9280SOL     OW39475   1.344   1.200   5.402 -0.4327 -0.0451 -0.2799
 9280SOL    HW139476   1.282   1.139   5.442 -3.1023  2.8312 -0.0551
 9280SOL    HW239477   1.409   1.141   5.363  0.8522  1.2285 -0.0737
 9281SOL     OW39478   3.433   0.092   9.495 -0.4709 -0.2088 -0.2617
 9281SOL    HW139479   3.477   0.013   9.524 -2.9910 -2.2086 -1.9160
 9281SOL    HW239480   3.347   0.067   9.529 -0.2919  0.9938  1.0959
 9282SOL     OW39481   2.542   3.590   7.620 -0.4264  0.0972  0.1695
 9282SOL    HW139482   2.563   3.594   7.713  1.1664 -0.7577 -0.1557
 9282SOL    HW239483   2.607   3.529   7.586 -1.5934 -0.7227 -0.5729
 9283SOL     OW39484   1.118   4.225   0.620  0.3798  0.4223  0.1477
 9283SOL    HW139485   1.169   4.230   0.701  0.4520  0.6535  0.0895
 9283SOL    HW239486   1.054   4.160   0.646  0.9485  0.2429  1.0965
 9284SOL     OW39487   3.387   0.842  13.771 -0.2173  0.3165 -0.2432
 9284SOL    HW139488   3.455   0.910  13.773  0.7966 -0.7328  1.4841
 9284SOL    HW239489   3.385   0.805  13.683  0.9787 -0.7582  0.1830
 9285SOL     OW39490   2.106   4.299   2.280  0.3202 -0.0363  0.3682
 9285SOL    HW139491   2.142   4.274   2.195 -0.0140 -3.6453  1.2828
 9285SOL    HW239492   2.180   4.357   2.299  1.6017 -1.8871  1.1033
 9286SOL     OW39493   0.663   2.966   7.832  0.6445 -0.3266 -0.2305
 9286SOL    HW139494   0.722   2.918   7.891  0.4051  0.2613  0.4852
 9286SOL    HW239495   0.713   2.984   7.752  2.6799 -1.0198  0.8699
 9287SOL     OW39496   3.416   3.294   6.444  0.1257  0.0760  0.1436
 9287SOL    HW139497   3.322   3.284   6.430  0.2089  1.4430 -1.4424
 9287SOL    HW239498   3.450   3.213   6.483  0.6492 -0.6569 -1.8069
 9288SOL     OW39499   0.309   3.795  12.704  0.0360  0.8474  0.1402
 9288SOL    HW139500   0.260   3.799  12.787  1.1005  0.1183  0.8058
 9288SOL    HW239501   0.357   3.712  12.707  1.1713  1.5480  1.0359
 9289SOL     OW39502   1.586   4.650  14.381 -0.0840 -0.0406 -0.0117
 9289SOL    HW139503   1.654   4.678  14.442  0.4679  0.6966 -0.9540
 9289SOL    HW239504   1.508   4.649  14.437 -0.9433 -0.0640 -1.1989
 9290SOL     OW39505   0.226   3.397  15.779 -0.1452  0.1019  0.0829
 9290SOL    HW139506   0.131   3.404  15.775 -0.2173 -1.7694 -1.4061
 9290SOL    HW239507   0.255   3.396  15.870 -1.6627  0.4060  0.5643
 9291SOL     OW39508   2.718   2.868   6.541 -0.0160  0.2081  0.1343
 9291SOL    HW139509   2.670   2.800   6.493 -2.3356  0.4902  2.0820
 9291SOL    HW239510   2.673   2.849   6.623  1.3630 -1.1743  0.5698
 9292SOL     OW39511   2.551   2.239  14.865 -0.3744 -0.7351 -0.5253
 9292SOL    HW139512   2.633   2.192  14.880 -0.8015 -0.8662  1.4016
 9292SOL    HW239513   2.569   2.328  14.894 -2.3427  0.0991 -1.8240
 9293SOL     OW39514   0.290   0.618   2.991 -0.0796 -0.2288 -0.3752
 9293SOL    HW139515   0.230   0.581   2.926  0.0827 -2.5728  0.8123
 9293SOL    HW239516   0.234   0.679   3.041  3.6823  2.9621 -0.1001
 9294SOL     OW39517   4.604   0.100   2.901  0.1806 -0.4377 -0.5488
 9294SOL    HW139518   4.567   0.139   2.980  1.2921 -1.5592  0.5348
 9294SOL    HW239519   4.530   0.087   2.842 -1.2517 -1.1695  1.3736
 9295SOL     OW39520   2.396   1.434   8.964 -0.2045  0.0471  0.3381
 9295SOL    HW139521   2.462   1.365   8.968 -0.6407 -0.4967 -1.4441
 9295SOL    HW239522   2.429   1.490   8.893  1.4789 -0.6460  0.5880
 9296SOL     OW39523   3.942   2.383   3.216 -0.4823 -0.0593  0.3817
 9296SOL    HW139524   3.916   2.381   3.124  1.3639 -1.4291 -0.1083
 9296SOL    HW239525   4.035   2.388   3.192 -0.6855  2.5759  0.0394
 9297SOL     OW39526   0.554   0.994   6.401  0.3706  0.0476  0.5964
 9297SOL    HW139527   0.581   1.035   6.319 -0.3499 -1.5581 -0.4508
 9297SOL    HW239528   0.459   0.994   6.387  0.1672  2.7086  1.9135
 9298SOL     OW39529   2.593   3.139   2.627  0.1265  0.1882  0.0945
 9298SOL    HW139530   2.662   3.205   2.621 -0.0807  0.3708 -0.2740
 9298SOL    HW239531   2.521   3.201   2.643  0.7011  1.3966 -1.9740
 9299SOL     OW39532   2.042   4.086   0.260 -0.3983 -0.2034 -0.5135
 9299SOL    HW139533   1.991   4.012   0.226  0.2028 -0.9562  0.2265
 9299SOL    HW239534   1.978   4.121   0.321  1.3117 -0.3509  1.3705
 9300SOL     OW39535   2.243   1.020   1.479  0.1205  0.0028  0.3453
 9300SOL    HW139536   2.181   1.093   1.479 -1.8736 -1.6860  1.5253
 9300SOL    HW239537   2.183   0.946   1.489 -1.3498  1.1956  0.2460
 9301SOL     OW39538   1.598   0.669   8.507 -0.5758  0.0218  0.4920
 9301SOL    HW139539   1.519   0.616   8.510 -1.0201  0.6901  0.3942
 9301SOL    HW239540   1.648   0.616   8.569  1.4581 -0.1773 -1.3057
 9302SOL     OW39541   1.075   0.202  11.826 -0.3516  0.0752  0.0363
 9302SOL    HW139542   1.142   0.133  11.833  0.8429  1.2507  0.2314
 9302SOL    HW239543   0.994   0.151  11.833 -0.8510  0.6211 -1.8250
 9303SOL     OW39544   0.345   1.698  12.280  0.2693  0.4068 -0.3837
 9303SOL    HW139545   0.392   1.761  12.225  0.4754  1.6223  1.2030
 9303SOL    HW239546   0.257   1.709  12.242 -0.8735 -1.2393  1.7982
 9304SOL     OW39547   3.336   4.018  12.620  0.5477  0.1985 -0.5469
 9304SOL    HW139548   3.272   4.084  12.646  0.5025 -0.2852  0.5485
 9304SOL    HW239549   3.381   4.056  12.544  0.7030 -0.8709 -1.0024
 9305SOL     OW39550   3.050   1.591  11.572  0.5414 -0.5019  0.6589
 9305SOL    HW139551   3.073   1.598  11.479  0.3333 -0.0817  0.6379
 9305SOL    HW239552   3.105   1.514  11.588 -2.6376 -2.8083  0.4852
 9306SOL     OW39553   4.381   0.273   6.557  0.3541  0.0119  0.3392
 9306SOL    HW139554   4.295   0.233   6.544  0.4541  0.8002 -2.8138
 9306SOL    HW239555   4.373   0.356   6.510  0.9631  1.1680  2.2511
 9307SOL     OW39556   2.631   3.425   9.738 -0.1042 -0.4440  0.4962
 9307SOL    HW139557   2.655   3.462   9.652 -0.9230  0.3740  0.6188
 9307SOL    HW239558   2.535   3.425   9.740 -0.1255  2.7024  0.2766
 9308SOL     OW39559   3.348   4.127   8.627  0.4448 -0.1829  0.2046
 9308SOL    HW139560   3.424   4.160   8.674 -0.4738  2.1664  0.0516
 9308SOL    HW239561   3.327   4.216   8.596  0.8503  0.8582  2.9131
 9309SOL     OW39562   3.237   0.011   5.525 -0.0996  0.3278 -0.3362
 9309SOL    HW139563   3.285   0.082   5.482  0.7137  1.6536  2.7769
 9309SOL    HW239564   3.178   0.060   5.582 -0.6688 -0.4728 -0.2356
 9310SOL     OW39565   3.261   2.345   3.103  0.3140 -0.1506  0.1067
 9310SOL    HW139566   3.345   2.319   3.064 -0.5332 -1.4865 -0.8022
 9310SOL    HW239567   3.209   2.313   3.029  0.9713 -0.2990 -0.2992
 9311SOL     OW39568   2.251   4.415   5.093  0.6204  0.4840 -0.3089
 9311SOL    HW139569   2.183   4.360   5.131  2.6113 -1.2841  0.6468
 9311SOL    HW239570   2.333   4.377   5.126 -0.3801 -1.2766  0.1138
 9312SOL     OW39571   4.037   0.607   1.088 -0.1660 -0.7259 -0.2423
 9312SOL    HW139572   3.963   0.605   1.028  0.3911  2.0594 -0.9930
 9312SOL    HW239573   4.024   0.689   1.135 -0.8984 -0.3103 -1.1786
 9313SOL     OW39574   3.039   3.781   7.050 -0.1011 -0.2280  0.0186
 9313SOL    HW139575   3.052   3.701   6.999 -0.4701  0.2025 -0.7489
 9313SOL    HW239576   3.125   3.819   7.035 -0.1423 -0.7393 -1.5455
 9314SOL     OW39577   2.910   3.032  16.828  0.0397  0.1383  0.0886
 9314SOL    HW139578   2.854   3.091  16.777  1.3430 -1.0358 -2.6816
 9314SOL    HW239579   2.993   3.058  16.789  1.0364 -1.9966  0.7792
 9315SOL     OW39580   4.202   3.276   8.407 -0.1382  0.8396 -0.2111
 9315SOL    HW139581   4.192   3.197   8.459  1.4388  1.2499  0.7247
 9315SOL    HW239582   4.281   3.259   8.356  1.6699 -1.4812  3.3521
 9316SOL     OW39583   2.170   1.721   8.574  0.2300 -0.4691  0.2187
 9316SOL    HW139584   2.212   1.639   8.547  2.2696  0.1721  1.5174
 9316SOL    HW239585   2.126   1.681   8.649  0.2132  0.9512  0.9460
 9317SOL     OW39586   1.830   4.460   5.369  0.2483  0.1651 -0.9301
 9317SOL    HW139587   1.788   4.522   5.310 -0.7865 -1.1549 -1.5954
 9317SOL    HW239588   1.875   4.531   5.415 -1.5726 -0.2220  1.4409
 9318SOL     OW39589   3.310   2.526   9.371 -0.4137  0.4982  0.9637
 9318SOL    HW139590   3.383   2.498   9.317 -0.2478 -1.7881  2.3743
 9318SOL    HW239591   3.294   2.440   9.411 -0.8139  0.1829  0.1178
 9319SOL     OW39592   3.665   2.893   5.331  0.2505  0.1697  0.0266
 9319SOL    HW139593   3.598   2.953   5.297  0.5261 -0.7518 -2.1838
 9319SOL    HW239594   3.608   2.863   5.402 -0.2173  1.7839  0.3266
 9320SOL     OW39595   2.394   2.540  10.443  0.1469 -0.0055  0.3520
 9320SOL    HW139596   2.437   2.585  10.371 -1.8183 -0.7330 -1.2626
 9320SOL    HW239597   2.306   2.561  10.414  0.4736  1.9150  0.7398
 9321SOL     OW39598   3.451   4.225  10.170 -0.0281  0.1140  0.3597
 9321SOL    HW139599   3.543   4.226  10.196 -0.3283  1.4463  1.3696
 9321SOL    HW239600   3.416   4.279  10.241  0.5962 -0.6672  1.2563
 9322SOL     OW39601   1.547   1.113   4.595 -0.3731  0.2822  0.4530
 9322SOL    HW139602   1.610   1.057   4.639  0.4293  1.2512  0.5530
 9322SOL    HW239603   1.467   1.101   4.646 -0.9744  1.7071 -0.1364
 9323SOL     OW39604   2.812   4.205   8.676  0.6822  0.2880 -0.0713
 9323SOL    HW139605   2.727   4.161   8.675  0.9605 -0.2589  0.5735
 9323SOL    HW239606   2.854   4.181   8.594  0.2410 -0.6677 -0.0140
 9324SOL     OW39607   2.958   4.127   0.001 -0.5667 -0.1229 -0.6740
 9324SOL    HW139608   2.887   4.153  17.697  0.1026  0.2329 -1.3163
 9324SOL    HW239609   3.039   4.149  17.710  1.0231 -2.1159  1.1659
 9325SOL     OW39610   0.018   0.588   8.990  0.1723 -0.2968  0.2292
 9325SOL    HW139611   0.098   0.549   8.955 -0.0863  1.3833 -2.2124
 9325SOL    HW239612   4.710   0.597   8.908 -0.8649 -2.4166  0.6060
 9326SOL     OW39613   1.778   1.947  16.197 -0.1850 -0.5054  0.2068
 9326SOL    HW139614   1.818   1.877  16.145  0.2245  0.1905 -0.4038
 9326SOL    HW239615   1.692   1.943  16.154  0.0398  3.8882 -0.6017
 9327SOL     OW39616   0.476   4.161  13.736  0.3578 -0.4042 -0.3156
 9327SOL    HW139617   0.453   4.147  13.644 -0.0179  1.5642 -0.5090
 9327SOL    HW239618   0.434   4.090  13.785  0.9039  0.0671  0.8509
 9328SOL     OW39619   1.461   3.690   7.566 -0.3860  0.1679  0.1133
 9328SOL    HW139620   1.482   3.783   7.560  0.1504 -0.0947 -2.0406
 9328SOL    HW239621   1.417   3.680   7.651 -1.7560 -2.1610 -0.8890
 9329SOL     OW39622   4.001   0.398   7.226  0.4276  0.3366 -0.2587
 9329SOL    HW139623   4.017   0.461   7.297 -1.4364  0.7097 -0.1681
 9329SOL    HW239624   4.089   0.362   7.217  0.9720  1.4644  0.5497
 9330SOL     OW39625   2.879   2.271  14.119 -0.9380  0.3318 -0.1274
 9330SOL    HW139626   2.940   2.332  14.077  0.3303 -0.3414  0.7410
 9330SOL    HW239627   2.858   2.320  14.198  0.7329 -2.5320  2.0632
 9331SOL     OW39628   0.840   4.260  17.698 -0.1349  0.5754  0.5203
 9331SOL    HW139629   0.833   4.168  17.724  0.5358  0.6302  0.8913
 9331SOL    HW239630   0.920   4.291  17.740 -0.4871 -0.0154  1.6165
 9332SOL     OW39631   4.341   3.998  13.521 -0.8712  0.3555 -0.5343
 9332SOL    HW139632   4.390   3.995  13.603  3.2306 -0.7501 -3.0395
 9332SOL    HW239633   4.259   3.960  13.554  0.3494 -1.6605  0.1872
 9333SOL     OW39634   4.474   3.797   9.244  0.0362 -0.1506 -0.2770
 9333SOL    HW139635   4.469   3.892   9.250 -1.4839 -0.2428 -0.0354
 9333SOL    HW239636   4.535   3.775   9.314 -0.2113 -1.1761 -0.3717
 9334SOL     OW39637   4.209   1.555   9.630 -0.2899 -0.2596 -0.4862
 9334SOL    HW139638   4.164   1.619   9.686 -0.2290 -1.7507  1.2663
 9334SOL    HW239639   4.173   1.585   9.547 -0.1137 -0.6445 -0.7012
 9335SOL     OW39640   2.282   4.164   1.456  0.2077  0.0269  0.1445
 9335SOL    HW139641   2.210   4.104   1.437  0.1342  0.6732 -1.6861
 9335SOL    HW239642   2.278   4.134   1.546 -2.2522 -0.9935 -0.3193
 9336SOL     OW39643   3.182   2.858   1.244  0.1974  0.5637 -0.0544
 9336SOL    HW139644   3.221   2.811   1.171 -0.6617 -0.5348  0.1949
 9336SOL    HW239645   3.246   2.927   1.263  0.9055 -0.3990  1.0455
 9337SOL     OW39646   2.023   0.173   6.790 -0.2204  0.5219  0.3498
 9337SOL    HW139647   2.077   0.241   6.829  0.7569  0.6705 -1.2555
 9337SOL    HW239648   2.021   0.117   6.868 -1.3854 -0.0775 -0.1148
 9338SOL     OW39649   0.511   2.661  10.760  0.2031  0.4227  0.1904
 9338SOL    HW139650   0.475   2.748  10.747 -0.7949  0.3492  2.4149
 9338SOL    HW239651   0.442   2.618  10.710 -1.2398  0.3278  2.2618
 9339SOL     OW39652   2.075   4.349  11.417  0.5507 -0.1216  0.0968
 9339SOL    HW139653   2.025   4.291  11.361  0.5992  0.7351 -0.8309
 9339SOL    HW239654   2.116   4.409  11.354 -1.6342  2.8650  1.4947
 9340SOL     OW39655   0.331   0.203   6.379 -0.5842 -0.5547  0.3370
 9340SOL    HW139656   0.274   0.251   6.319 -0.8050 -1.3719 -0.1120
 9340SOL    HW239657   0.399   0.270   6.385 -2.0738  1.0714 -1.2224
 9341SOL     OW39658   3.375   0.709   2.729 -0.2951  0.5746  0.2986
 9341SOL    HW139659   3.390   0.625   2.773  1.1119  0.8408  0.3281
 9341SOL    HW239660   3.349   0.772   2.795 -1.3744 -0.7668  1.1508
 9342SOL     OW39661   4.019   3.004   2.915  0.1949 -0.0604  0.7606
 9342SOL    HW139662   3.951   2.950   2.876 -1.5039  0.6634  2.7248
 9342SOL    HW239663   3.979   3.009   3.002 -3.0571 -0.6147 -0.7157
 9343SOL     OW39664   4.209   3.729   1.906  0.2665 -0.4796  0.1129
 9343SOL    HW139665   4.255   3.811   1.890 -0.0830 -0.1571  0.7448
 9343SOL    HW239666   4.174   3.721   1.817  0.2254  1.0880 -0.0070
 9344SOL     OW39667   1.126   2.912   0.709  0.5165 -0.2108  0.5293
 9344SOL    HW139668   1.116   2.935   0.617 -0.0043 -0.8682  0.4192
 9344SOL    HW239669   1.203   2.960   0.739  0.5926  1.2307 -1.9517
 9345SOL     OW39670   0.903   3.413  12.685 -0.3539 -0.6795 -0.4920
 9345SOL    HW139671   0.833   3.465  12.645 -2.1508 -1.5734  1.5103
 9345SOL    HW239672   0.935   3.361  12.612  1.2740 -0.7513  0.2799
 9346SOL     OW39673   0.641   3.878   5.015 -0.0208  0.1261  0.5224
 9346SOL    HW139674   0.558   3.831   5.015 -0.1610  0.3729  0.0870
 9346SOL    HW239675   0.668   3.861   4.924  0.6706 -1.0207  0.9357
 9347SOL     OW39676   0.440   0.578   6.648 -0.2390 -0.5037  0.3005
 9347SOL    HW139677   0.439   0.565   6.553 -0.7090  1.2533  0.0708
 9347SOL    HW239678   0.347   0.575   6.672 -0.1162 -0.2244  0.8096
 9348SOL     OW39679   4.331   3.484   8.174 -0.2645  0.4182 -0.1682
 9348SOL    HW139680   4.358   3.396   8.200  3.4634  1.1479 -1.6928
 9348SOL    HW239681   4.406   3.537   8.201 -0.0378 -0.0409  0.1120
 9349SOL     OW39682   3.321   0.262  12.740  0.2181 -1.2628  0.5655
 9349SOL    HW139683   3.234   0.301  12.728 -0.2198 -2.4472 -0.1844
 9349SOL    HW239684   3.337   0.278  12.833  2.6453  0.2928 -0.1314
 9350SOL     OW39685   2.403   3.037   5.834  0.1420 -0.2963 -0.7499
 9350SOL    HW139686   2.324   3.035   5.888  0.3627 -1.9837 -0.5049
 9350SOL    HW239687   2.363   2.984   5.764 -1.0846  1.2600 -1.2271
 9351SOL     OW39688   2.085   3.619   4.940  1.1175  0.2355  0.0217
 9351SOL    HW139689   2.014   3.681   4.924  1.6677  0.2429 -2.2871
 9351SOL    HW239690   2.130   3.620   4.856 -1.0283  1.9963 -1.0951
 9352SOL     OW39691   4.218   2.435   6.767  0.2354  0.2927 -0.0122
 9352SOL    HW139692   4.194   2.521   6.804  1.5107 -0.0534  1.6413
 9352SOL    HW239693   4.251   2.454   6.679  0.7430  0.7238  0.2707
 9353SOL     OW39694   1.659   1.382  13.685  0.4803 -0.3402 -0.5438
 9353SOL    HW139695   1.678   1.437  13.760 -1.9013 -0.9745  0.5145
 9353SOL    HW239696   1.744   1.338  13.682  0.9584  0.4848  1.3523
 9354SOL     OW39697   2.093   3.301  16.061 -0.3280  0.3037 -0.1391
 9354SOL    HW139698   2.139   3.238  16.116 -0.5257 -0.0949 -0.4290
 9354SOL    HW239699   2.002   3.291  16.090 -0.4447 -1.6117 -1.2038
 9355SOL     OW39700   3.299   3.798   8.984 -0.2339  0.0727 -0.2672
 9355SOL    HW139701   3.222   3.742   8.993  0.5938 -0.9349  0.6858
 9355SOL    HW239702   3.315   3.784   8.891  0.6263 -0.7853  0.0073
 9356SOL     OW39703   2.015   1.335   5.151  0.1614  0.5746 -0.1303
 9356SOL    HW139704   1.975   1.249   5.144  0.5939  0.4309 -0.7939
 9356SOL    HW239705   1.961   1.393   5.205  1.6750  0.7732  1.1761
 9357SOL     OW39706   3.042   3.768   4.918 -0.0489 -0.3965  0.8030
 9357SOL    HW139707   3.003   3.856   4.923  1.4923  0.3805 -1.0375
 9357SOL    HW239708   3.057   3.753   5.011  0.3101  0.2416  0.8478
 9358SOL     OW39709   2.860   1.574   6.725  0.6606 -0.0859  0.2338
 9358SOL    HW139710   2.911   1.496   6.704  0.4136  0.0403 -0.8609
 9358SOL    HW239711   2.923   1.640   6.698 -2.0745  2.4874  0.1196
 9359SOL     OW39712   3.494   0.585  13.216  0.5603 -0.1344 -0.0808
 9359SOL    HW139713   3.408   0.623  13.237  0.4739 -0.2310 -0.2648
 9359SOL    HW239714   3.560   0.624  13.273 -0.9517  2.2477  0.0746
 9360SOL     OW39715   3.312   1.629   8.915  0.5097  0.0801 -0.4692
 9360SOL    HW139716   3.256   1.563   8.956  1.7250 -0.7894 -0.2167
 9360SOL    HW239717   3.280   1.616   8.826  1.4739 -0.7696 -0.6829
 9361SOL     OW39718   2.214   4.414   5.500  0.2071 -0.2372 -0.7571
 9361SOL    HW139719   2.152   4.449   5.564  0.4797 -0.2061 -0.5096
 9361SOL    HW239720   2.288   4.462   5.538  0.9083 -1.0987 -1.0524
 9362SOL     OW39721   1.575   0.732   4.636  0.0962 -0.4205  0.3055
 9362SOL    HW139722   1.486   0.736   4.602 -0.1194 -0.5686  0.8497
 9362SOL    HW239723   1.591   0.821   4.669 -2.6923  0.0053  0.5567
 9363SOL     OW39724   0.567   4.120   7.698  0.3280  0.4543 -0.2244
 9363SOL    HW139725   0.533   4.031   7.686  3.1743 -0.7883  0.8921
 9363SOL    HW239726   0.542   4.140   7.788  2.8352  1.1148  0.3254
 9364SOL     OW39727   0.767   4.346  12.092  0.1806  0.2000 -0.1667
 9364SOL    HW139728   0.789   4.290  12.166  1.6260  0.0755 -0.6957
 9364SOL    HW239729   0.704   4.408  12.128  0.1112  0.3577 -0.5624
 9365SOL     OW39730   1.061   0.210  12.130 -0.3254  0.2330  0.4343
 9365SOL    HW139731   1.121   0.251  12.067  1.8076 -1.3294  1.4630
 9365SOL    HW239732   1.108   0.132  12.158  0.9205 -0.4363 -3.4435
 9366SOL     OW39733   3.938   0.166   4.386 -0.7956 -0.2809 -0.2557
 9366SOL    HW139734   3.983   0.082   4.385 -1.5064 -0.6644  0.3866
 9366SOL    HW239735   3.850   0.146   4.354 -1.3670 -1.0547  1.8301
 9367SOL     OW39736   3.268   3.349   0.625  0.0182 -0.5074 -0.1948
 9367SOL    HW139737   3.278   3.331   0.531  2.9346  2.6281 -0.5029
 9367SOL    HW239738   3.214   3.428   0.629 -0.9401 -1.2464  1.3063
 9368SOL     OW39739   1.277   1.869  10.046  0.2550 -0.2714  0.2750
 9368SOL    HW139740   1.265   1.861  10.141 -1.0373 -2.3393 -0.0824
 9368SOL    HW239741   1.187   1.870  10.014  0.6699  0.6308 -0.8718
 9369SOL     OW39742   1.361   3.911   2.448  0.4759  0.1242  0.5712
 9369SOL    HW139743   1.332   4.000   2.426  1.3296  0.2338 -0.0982
 9369SOL    HW239744   1.347   3.866   2.365  1.3498  0.5042  0.2190
 9370SOL     OW39745   1.133   1.489   3.821 -0.0922 -0.1181  0.1897
 9370SOL    HW139746   1.111   1.405   3.861  0.3874 -0.1373  0.4153
 9370SOL    HW239747   1.053   1.489   3.768 -0.1901  0.8831  0.3390
 9371SOL     OW39748   4.639   4.061   2.897  0.2410  0.2770 -0.0079
 9371SOL    HW139749   4.659   4.135   2.841 -0.0943  0.8982  0.6986
 9371SOL    HW239750   4.636   3.986   2.838  1.0527  0.8900 -0.8163
 9372SOL     OW39751   4.161   2.282   7.676  0.2195 -0.5986 -0.8645
 9372SOL    HW139752   4.176   2.222   7.749 -1.1794  0.7573  0.5478
 9372SOL    HW239753   4.247   2.309   7.646 -0.3728 -0.2303 -2.2478
 9373SOL     OW39754   3.991   2.295   5.264  0.4684  0.3633  0.1701
 9373SOL    HW139755   3.921   2.297   5.199 -1.6533 -0.1791  2.4520
 9373SOL    HW239756   4.036   2.378   5.247  0.3732  0.1712 -1.0516
 9374SOL     OW39757   1.952   2.378   2.324 -0.1733  0.4053  0.3677
 9374SOL    HW139758   1.873   2.368   2.377  0.4212  0.6842  1.3066
 9374SOL    HW239759   1.941   2.473   2.310  0.1050  0.3877  0.0120
 9375SOL     OW39760   0.613   4.242  14.570 -0.6297 -0.1512  0.2942
 9375SOL    HW139761   0.522   4.249  14.598 -0.9287  0.8085 -0.8958
 9375SOL    HW239762   0.606   4.257  14.475  1.2212  0.5869  0.2736
 9376SOL     OW39763   4.020   0.352   3.395 -0.3025 -0.2910 -0.1861
 9376SOL    HW139764   3.955   0.391   3.453  0.0999 -0.0684  0.1069
 9376SOL    HW239765   4.074   0.429   3.377 -0.4118 -0.0965  0.3318
 9377SOL     OW39766   0.614   3.871   3.087 -0.6364 -0.3035 -0.0255
 9377SOL    HW139767   0.538   3.904   3.135  0.9962 -0.1556  2.4844
 9377SOL    HW239768   0.629   3.789   3.135 -1.5556 -0.3264  0.2279
 9378SOL     OW39769   3.359   2.709   7.846  0.5894 -0.2405  0.7116
 9378SOL    HW139770   3.346   2.706   7.941  0.2211 -1.4681  0.6269
 9378SOL    HW239771   3.448   2.743   7.842 -0.1065  1.8458  2.3726
 9379SOL     OW39772   2.170   0.473  10.883  0.0879  0.5282 -0.5748
 9379SOL    HW139773   2.127   0.399  10.841 -1.0643 -0.3563  2.1130
 9379SOL    HW239774   2.244   0.496  10.827 -0.3322 -0.2547 -1.4513
 9380SOL     OW39775   0.208   4.015   7.814  0.4680  0.1113  0.6107
 9380SOL    HW139776   0.208   3.931   7.860  1.5832  1.4401  3.0884
 9380SOL    HW239777   0.296   4.015   7.777 -0.2594 -2.4535 -1.0966
 9381SOL     OW39778   1.130   0.410   9.298  0.0059 -0.1524  0.1830
 9381SOL    HW139779   1.162   0.331   9.343 -1.6058 -0.6540  0.4564
 9381SOL    HW239780   1.172   0.479   9.350  0.1235  1.0464 -1.5149
 9382SOL     OW39781   3.184   0.319   8.941 -0.3625 -0.2198  0.2152
 9382SOL    HW139782   3.207   0.339   9.031 -2.2975 -0.8455  0.8334
 9382SOL    HW239783   3.094   0.290   8.957 -0.4009 -0.6376 -0.7415
 9383SOL     OW39784   0.424   4.497   4.519  0.4996 -0.0718  0.6027
 9383SOL    HW139785   0.352   4.435   4.531 -1.2315  1.5023 -1.5297
 9383SOL    HW239786   0.493   4.436   4.493  0.3203 -0.4559  1.0293
 9384SOL     OW39787   0.317   3.432   0.417 -0.0399  0.3206 -0.2854
 9384SOL    HW139788   0.327   3.442   0.323  0.0460 -0.5224 -0.3721
 9384SOL    HW239789   0.373   3.354   0.424 -0.8788 -0.2863 -0.2795
 9385SOL     OW39790   1.644   2.785  11.112  0.1682 -0.1753  0.0310
 9385SOL    HW139791   1.670   2.694  11.128 -0.3772 -0.5361 -1.1337
 9385SOL    HW239792   1.724   2.832  11.134 -0.8458  0.1826  2.9962
 9386SOL     OW39793   3.265   3.630   4.316  0.8530  0.0432 -0.1888
 9386SOL    HW139794   3.336   3.580   4.356  0.7909 -0.6769 -0.9726
 9386SOL    HW239795   3.207   3.561   4.283  2.9335 -2.0267  0.4307
 9387SOL     OW39796   2.514   2.882   3.404  0.1258  0.1484  0.1670
 9387SOL    HW139797   2.552   2.867   3.317 -1.0595 -1.8358 -0.0299
 9387SOL    HW239798   2.482   2.972   3.401 -1.8713 -0.5635 -0.1512
 9388SOL     OW39799   1.536   4.606   7.243  0.0495 -0.2845  0.0566
 9388SOL    HW139800   1.515   4.700   7.235 -1.9612 -0.5652  2.0034
 9388SOL    HW239801   1.468   4.553   7.202 -3.1046  0.0622  4.7968
 9389SOL     OW39802   4.450   2.076   3.660  0.0032 -0.6651  0.2583
 9389SOL    HW139803   4.380   2.104   3.719  2.2335 -0.4761  2.8478
 9389SOL    HW239804   4.404   2.071   3.577 -1.2759  3.2271  0.7325
 9390SOL     OW39805   1.950   1.174  12.543  0.6577  0.0948 -0.6161
 9390SOL    HW139806   1.969   1.226  12.621 -1.4160 -1.8415  1.1941
 9390SOL    HW239807   1.987   1.090  12.571 -0.1232 -0.1357 -0.2639
 9391SOL     OW39808   1.458   2.704  16.100 -0.5089  0.4749 -0.3285
 9391SOL    HW139809   1.478   2.623  16.148 -0.5416 -0.7037 -2.2861
 9391SOL    HW239810   1.516   2.693  16.024 -0.4247  0.3221 -0.2434
 9392SOL     OW39811   3.599   1.351   4.151 -0.0648 -0.3930 -0.0131
 9392SOL    HW139812   3.509   1.378   4.137  0.1519 -0.7533 -2.2495
 9392SOL    HW239813   3.596   1.304   4.234  0.4325  1.0199  0.8018
 9393SOL     OW39814   1.674   3.959   2.059  0.1145 -0.0659 -0.1806
 9393SOL    HW139815   1.635   4.035   2.103  1.2502 -0.6790  1.9116
 9393SOL    HW239816   1.606   3.921   2.004  2.2596 -2.2878 -1.3092
 9394SOL     OW39817   2.370   2.166  17.667  0.0382 -0.0293 -0.5095
 9394SOL    HW139818   2.354   2.135   0.000 -2.0936  0.5776 -0.6743
 9394SOL    HW239819   2.404   2.255  17.683 -0.6904  0.0932  0.3796
 9395SOL     OW39820   4.299   1.999   3.416  0.3233  0.4596 -0.0983
 9395SOL    HW139821   4.339   2.001   3.329 -0.6695  1.0687 -0.5452
 9395SOL    HW239822   4.234   2.068   3.407 -2.1540 -1.3593  3.7110
 9396SOL     OW39823   4.361   3.010   6.046 -0.0736 -0.1044  0.2385
 9396SOL    HW139824   4.357   2.914   6.045  1.4113 -0.1656  1.0509
 9396SOL    HW239825   4.455   3.025   6.033 -0.1667 -0.8964 -1.3670
 9397SOL     OW39826   3.139   3.260   6.356  0.1980 -0.2957  0.3799
 9397SOL    HW139827   3.116   3.216   6.274 -1.1713  0.4113  0.3876
 9397SOL    HW239828   3.116   3.190   6.416  1.9400  0.6055  2.0946
 9398SOL     OW39829   0.087   4.678   8.405  0.4813  0.4813 -0.1071
 9398SOL    HW139830   0.010   4.681   8.349  0.5963  0.0259 -0.2908
 9398SOL    HW239831   0.123   4.590   8.396  0.8969  0.6191  0.1561
 9399SOL     OW39832   1.247   0.786   5.858  0.4503 -0.3736  0.7234
 9399SOL    HW139833   1.252   0.713   5.797 -0.5352  1.0680 -1.0783
 9399SOL    HW239834   1.152   0.794   5.869  0.5654 -0.6553  1.9313
 9400SOL     OW39835   2.355   1.935   2.106 -0.4862  0.2723  0.0620
 9400SOL    HW139836   2.341   1.960   2.198  2.1157 -0.8102  0.7525
 9400SOL    HW239837   2.267   1.909   2.080  0.0126  0.3408 -1.6546
 9401SOL     OW39838   0.303   1.632  17.581 -0.4261 -0.0775  0.9964
 9401SOL    HW139839   0.329   1.672  17.664  0.5759 -1.2046  1.2200
 9401SOL    HW239840   0.230   1.687  17.552 -1.4139 -1.5509  0.7002
 9402SOL     OW39841   2.683   4.583   1.043  0.1392  0.8352  0.3508
 9402SOL    HW139842   2.777   4.573   1.033  0.1589  1.7029 -0.2867
 9402SOL    HW239843   2.653   4.602   0.955 -1.5323 -0.5162  0.6228
 9403SOL     OW39844   0.116   0.940   2.445 -0.6879  0.1966 -0.2929
 9403SOL    HW139845   0.032   0.900   2.426 -0.6930  0.2844 -0.4535
 9403SOL    HW239846   0.175   0.896   2.383  1.8071  0.8052  1.6553
 9404SOL     OW39847   3.446   2.775   2.987 -0.2112  0.0383  0.0869
 9404SOL    HW139848   3.414   2.823   3.063 -1.0778  0.8717 -0.7979
 9404SOL    HW239849   3.365   2.734   2.954 -0.3083  1.6439 -1.6843
 9405SOL     OW39850   2.505   3.306   6.185 -0.1326  0.0339  0.0540
 9405SOL    HW139851   2.467   3.287   6.271  1.0602 -1.5696  0.2220
 9405SOL    HW239852   2.451   3.375   6.147  0.9330  0.4589 -0.6725
 9406SOL     OW39853   1.881   3.145  16.371 -0.0144  0.8879 -0.4766
 9406SOL    HW139854   1.963   3.136  16.420 -0.8220 -0.2176  0.6897
 9406SOL    HW239855   1.827   3.081  16.417 -2.0726  1.4947 -2.0335
 9407SOL     OW39856   4.293   2.081   8.192  0.2918  0.6846 -0.4101
 9407SOL    HW139857   4.240   2.088   8.271 -0.1678 -1.0408 -0.5498
 9407SOL    HW239858   4.256   1.999   8.158  2.3199  0.7777 -2.8038
 9408SOL     OW39859   3.226   2.172  11.576 -0.0477 -0.0236  0.8177
 9408SOL    HW139860   3.139   2.209  11.590 -0.8393 -0.4048 -2.8564
 9408SOL    HW239861   3.220   2.078  11.590  0.6716 -0.3041 -0.6766
 9409SOL     OW39862   1.756   3.980   5.101 -0.1286  0.2327  0.4893
 9409SOL    HW139863   1.819   3.932   5.047  1.9948 -1.9592  4.9399
 9409SOL    HW239864   1.727   4.046   5.038 -1.8172 -0.0053  1.0061
 9410SOL     OW39865   3.845   3.694  10.412 -0.2778  0.1476  0.9125
 9410SOL    HW139866   3.787   3.747  10.467 -0.8178  0.9449 -0.4356
 9410SOL    HW239867   3.782   3.675  10.342  0.7003  0.6157 -0.0877
 9411SOL     OW39868   4.439   3.025   5.161 -0.4069  0.0349  0.2909
 9411SOL    HW139869   4.446   3.054   5.252  1.9781 -1.8013  0.6810
 9411SOL    HW239870   4.503   3.082   5.119 -1.5637  2.1086  1.3240
 9412SOL     OW39871   4.619   3.533   1.628 -0.2610 -0.4051  0.1931
 9412SOL    HW139872   4.628   3.614   1.579 -1.7502  0.6074  1.5949
 9412SOL    HW239873   4.612   3.467   1.559 -0.3535  0.0582 -0.2384
 9413SOL     OW39874   2.084   3.982  16.215 -0.0004 -0.3108  0.4115
 9413SOL    HW139875   2.031   3.917  16.261  1.2343  1.1365  3.8989
 9413SOL    HW239876   2.018   4.047  16.193 -0.1664  0.0434  1.9511
 9414SOL     OW39877   4.480   2.763   7.277 -0.4172 -0.2476  0.1677
 9414SOL    HW139878   4.424   2.728   7.208 -0.7144  0.7972 -0.1225
 9414SOL    HW239879   4.563   2.783   7.233 -0.7451  0.0403 -0.3288
 9415SOL     OW39880   1.223   1.189   3.425  0.3499  0.1398 -0.0446
 9415SOL    HW139881   1.239   1.104   3.467 -2.0834  0.5208  1.6711
 9415SOL    HW239882   1.304   1.213   3.379  0.8132 -0.4171  0.4648
 9416SOL     OW39883   0.804   2.323   9.194 -0.3162  0.6079  0.0983
 9416SOL    HW139884   0.714   2.350   9.175 -0.0786  1.0309 -0.3943
 9416SOL    HW239885   0.793   2.314   9.289 -1.2195 -2.2776 -0.2744
 9417SOL     OW39886   2.788   2.309   3.526 -0.0449 -0.3076 -0.4216
 9417SOL    HW139887   2.734   2.372   3.478  0.8156  0.0594 -0.8929
 9417SOL    HW239888   2.798   2.348   3.612  0.4148  1.2648 -1.2005
 9418SOL     OW39889   4.024   1.017   5.495 -0.2108  0.1423 -0.3946
 9418SOL    HW139890   3.931   1.001   5.480  0.3677 -0.4975 -3.3160
 9418SOL    HW239891   4.038   0.992   5.586 -1.1174 -0.4732 -0.4205
 9419SOL     OW39892   0.136   1.107   1.626  0.1421  0.2081  0.2216
 9419SOL    HW139893   0.218   1.121   1.578  1.5745 -1.3867  2.2171
 9419SOL    HW239894   0.077   1.082   1.554  0.9978 -1.0607 -0.0522
 9420SOL     OW39895   0.536   0.691  16.715 -0.2663  0.4221 -0.0699
 9420SOL    HW139896   0.592   0.640  16.774  0.4725  0.2386 -0.9266
 9420SOL    HW239897   0.531   0.779  16.752 -2.2865 -0.1014  0.8950
 9421SOL     OW39898   2.179   1.665   9.347 -0.8565  0.0050  0.4303
 9421SOL    HW139899   2.090   1.629   9.349 -0.6384 -0.6531 -1.3749
 9421SOL    HW239900   2.225   1.595   9.300  2.4544  2.4048  0.1223
 9422SOL     OW39901   3.980   4.200  11.031  0.4697 -0.3424  0.2032
 9422SOL    HW139902   3.990   4.294  11.043 -3.0102  0.0017  0.1675
 9422SOL    HW239903   3.942   4.166  11.112  2.6462 -1.4193  0.7816
 9423SOL     OW39904   3.359   0.901  12.593 -0.1753 -0.1406 -0.2783
 9423SOL    HW139905   3.277   0.852  12.596 -0.5342  0.5081  0.5848
 9423SOL    HW239906   3.431   0.844  12.620  0.2131  0.8126  0.7165
 9424SOL     OW39907   0.487   3.441   8.998 -0.4001  0.2281  0.1249
 9424SOL    HW139908   0.533   3.522   8.976  1.3230 -1.1970 -1.5443
 9424SOL    HW239909   0.497   3.451   9.093  1.8333  1.5527 -0.2463
 9425SOL     OW39910   0.570   0.343  17.459  0.6453 -0.6536 -0.3376
 9425SOL    HW139911   0.482   0.373  17.434 -0.1036 -1.3802  1.4202
 9425SOL    HW239912   0.581   0.272  17.395  2.7570 -0.9205  0.3400
 9426SOL     OW39913   2.221   0.672   8.992 -0.4974  0.5765 -0.0378
 9426SOL    HW139914   2.142   0.647   9.041 -0.7105 -0.1082 -0.7401
 9426SOL    HW239915   2.250   0.747   9.044  0.9080 -0.6746  0.9592
 9427SOL     OW39916   3.857   1.380   0.852  0.4241 -0.2981 -0.4061
 9427SOL    HW139917   3.838   1.462   0.807 -0.7691 -0.8479 -0.9092
 9427SOL    HW239918   3.811   1.317   0.796 -2.3670  0.6037  0.9179
 9428SOL     OW39919   2.196   4.532  11.234 -0.2154  0.2475  0.5527
 9428SOL    HW139920   2.239   4.506  11.152 -0.2583  0.5679  0.4283
 9428SOL    HW239921   2.206   4.627  11.237  1.9717 -0.0196  1.3499
 9429SOL     OW39922   4.163   2.411  17.137  0.3801  0.2327 -0.3400
 9429SOL    HW139923   4.211   2.346  17.190  1.3167  1.8898  0.8371
 9429SOL    HW239924   4.125   2.468  17.203  1.0814  0.2696  0.0407
 9430SOL     OW39925   2.085   4.721  16.964  0.0736 -0.4497  0.0268
 9430SOL    HW139926   2.108   4.725  16.871 -0.1039  0.0791  0.0078
 9430SOL    HW239927   2.014   0.045  16.960  2.6733  2.3720 -1.1660
 9431SOL     OW39928   3.299   1.196  15.407  0.5235  0.0423 -0.0918
 9431SOL    HW139929   3.228   1.133  15.414  0.5066 -0.1787 -2.3787
 9431SOL    HW239930   3.331   1.201  15.317 -1.0102  0.8080 -0.5864
 9432SOL     OW39931   4.378   0.323   2.515 -0.0067 -0.6951  0.6233
 9432SOL    HW139932   4.439   0.343   2.444 -0.7982 -1.6102 -0.3168
 9432SOL    HW239933   4.328   0.404   2.521 -1.1515 -1.4554  1.2789
 9433SOL     OW39934   2.101   0.968   9.589 -0.4327 -0.1935  0.4747
 9433SOL    HW139935   2.062   1.024   9.656  1.2805  0.8582  0.5799
 9433SOL    HW239936   2.194   0.980   9.608 -0.0108 -0.8152 -1.1539
 9434SOL     OW39937   1.621   4.435   4.382  0.9518  0.4476  0.1103
 9434SOL    HW139938   1.574   4.510   4.345 -0.3187 -0.6709 -0.5520
 9434SOL    HW239939   1.579   4.366   4.331  0.2581  1.2664 -0.4372
 9435SOL     OW39940   0.759   3.651   8.401 -0.1992 -0.2366 -0.4408
 9435SOL    HW139941   0.751   3.661   8.307  0.7130  1.9837 -0.3103
 9435SOL    HW239942   0.765   3.556   8.402 -0.3874 -0.2389  0.8609
 9436SOL     OW39943   3.218   4.737   3.130  0.5342  1.1791 -0.5985
 9436SOL    HW139944   3.261   4.697   3.205 -1.2643 -1.0526 -0.7876
 9436SOL    HW239945   3.191   0.081   3.168 -0.7988 -0.1121  1.2127
 9437SOL     OW39946   3.949   2.914   3.214 -0.3263  0.3144 -0.1145
 9437SOL    HW139947   4.024   2.901   3.271 -0.8264 -2.2461 -0.0568
 9437SOL    HW239948   3.885   2.923   3.284  0.4550  1.5902  0.4390
 9438SOL     OW39949   1.676   0.636  11.809 -0.0346  0.0956 -0.3932
 9438SOL    HW139950   1.740   0.703  11.834  3.2915 -2.9394 -0.8555
 9438SOL    HW239951   1.734   0.574  11.765  2.2850  4.4097 -3.4391
 9439SOL     OW39952   3.523   1.847   7.478 -0.4309 -0.1607  0.1446
 9439SOL    HW139953   3.581   1.874   7.549 -0.2018 -2.2834  0.7709
 9439SOL    HW239954   3.528   1.913   7.409 -0.7382 -0.0243  0.2529
 9440SOL     OW39955   2.744   2.223  13.208  0.2987  0.4104  0.5701
 9440SOL    HW139956   2.767   2.189  13.121 -1.1270  0.0610  0.3370
 9440SOL    HW239957   2.824   2.274  13.220 -0.2446  1.5946 -0.8706
 9441SOL     OW39958   4.050   4.046   2.118 -0.9382  0.0694 -0.1505
 9441SOL    HW139959   4.134   4.007   2.142 -1.7979 -0.9804  1.1395
 9441SOL    HW239960   4.053   4.050   2.023 -2.6239 -0.7499 -0.2400
 9442SOL     OW39961   1.919   3.582   3.406  0.3400 -0.0285 -1.0251
 9442SOL    HW139962   1.852   3.530   3.363  1.1787 -0.2954 -2.0298
 9442SOL    HW239963   1.974   3.611   3.333  1.6979 -0.5439 -0.2067
 9443SOL     OW39964   3.731   1.340  13.979 -0.1160 -0.0897 -0.1842
 9443SOL    HW139965   3.815   1.302  14.005  0.7796  1.6437 -0.5401
 9443SOL    HW239966   3.684   1.299  14.051  1.5276  0.4064  1.1776
 9444SOL     OW39967   0.336   2.301   1.714  0.4108  0.0758  0.1512
 9444SOL    HW139968   0.343   2.209   1.689  1.7278 -0.0647  1.0857
 9444SOL    HW239969   0.243   2.322   1.703  0.5784  0.7409  0.0019
 9445SOL     OW39970   1.635   2.921   0.220  0.2962  0.7004  0.1233
 9445SOL    HW139971   1.582   2.970   0.157 -2.1681  2.6930  3.7396
 9445SOL    HW239972   1.646   2.835   0.180 -1.7533 -0.8550  2.9386
 9446SOL     OW39973   4.526   1.870  17.001  0.0007  0.3085 -0.2798
 9446SOL    HW139974   4.524   1.928  17.078  2.4783 -1.1427  0.8945
 9446SOL    HW239975   4.564   1.933  16.940  0.8288 -1.2405 -1.3437
 9447SOL     OW39976   3.077   3.409   5.226  1.1672  0.0963 -0.5072
 9447SOL    HW139977   3.006   3.373   5.172  2.2537 -1.6360 -0.7789
 9447SOL    HW239978   3.066   3.504   5.219  1.7290  0.0911 -1.4914
 9448SOL     OW39979   1.258   3.488   1.715  0.0245 -0.8122 -0.9482
 9448SOL    HW139980   1.261   3.575   1.673  0.1833  0.0896  0.9397
 9448SOL    HW239981   1.332   3.491   1.775 -1.1565 -0.3546  0.4937
 9449SOL     OW39982   1.714   3.258   6.156 -0.1910  0.1894  0.3222
 9449SOL    HW139983   1.757   3.296   6.232 -1.8821 -1.1106  1.9058
 9449SOL    HW239984   1.656   3.332   6.136  2.2357  1.3637 -2.3527
 9450SOL     OW39985   1.211   0.776  14.500 -0.0846  0.2386  0.1650
 9450SOL    HW139986   1.207   0.868  14.472 -0.1995 -0.2590 -1.4179
 9450SOL    HW239987   1.260   0.782  14.582  0.6983 -1.6145 -0.1814
 9451SOL     OW39988   4.136   3.568  12.181 -0.2125  0.7597  0.0809
 9451SOL    HW139989   4.215   3.622  12.179  1.1208 -1.1540  0.9073
 9451SOL    HW239990   4.100   3.612  12.258 -1.9184  3.2762 -2.1346
 9452SOL     OW39991   0.894   0.048   4.756  0.4998  0.5635  0.3836
 9452SOL    HW139992   0.930   0.070   4.842 -0.6997 -1.0683  1.3160
 9452SOL    HW239993   0.807   0.087   4.769 -0.7101 -2.4688  1.6062
 9453SOL     OW39994   0.406   2.036   6.048  0.9734 -0.3227  0.3205
 9453SOL    HW139995   0.314   2.060   6.042  1.0762  0.4534  1.9333
 9453SOL    HW239996   0.429   2.069   5.961  3.6984 -0.1876  1.0837
 9454SOL     OW39997   3.050   1.009   3.207 -0.1484 -0.6061  0.1998
 9454SOL    HW139998   3.067   1.089   3.157 -1.2880  0.3025  1.2819
 9454SOL    HW239999   3.013   0.960   3.134  2.0334 -0.1297 -1.2504
 9455SOL     OW40000   4.213   1.400   5.594  0.4774  0.1541  0.1061
 9455SOL    HW140001   4.183   1.491   5.595  1.1535  0.3664  0.7891
 9455SOL    HW240002   4.170   1.363   5.517 -1.0224 -1.7033  1.8363
 9456SOL     OW40003   3.244   3.232  13.496  0.3688 -0.2436  0.1827
 9456SOL    HW140004   3.337   3.211  13.489 -0.0733 -1.8602 -0.8907
 9456SOL    HW240005   3.204   3.148  13.517  0.9104 -0.0366  2.0867
 9457SOL     OW40006   3.500   2.160   9.656  0.3971 -0.0357 -0.2616
 9457SOL    HW140007   3.448   2.094   9.610 -2.1882  2.3470 -0.7003
 9457SOL    HW240008   3.549   2.189   9.579 -0.7584  0.1390 -0.9376
 9458SOL     OW40009   3.329   3.365   0.917 -0.3431  0.5952 -0.2387
 9458SOL    HW140010   3.400   3.309   0.950 -0.7210 -0.1215 -0.6531
 9458SOL    HW240011   3.354   3.353   0.826  0.1075  1.9018 -0.2811
 9459SOL     OW40012   4.376   1.519   8.957 -0.2247  0.7503  0.4197
 9459SOL    HW140013   4.445   1.576   8.992 -1.4999  1.3250  1.9651
 9459SOL    HW240014   4.322   1.590   8.922 -1.9151 -1.4401 -1.3710
 9460SOL     OW40015   3.314   2.735   9.608 -0.0236 -0.5527 -0.4317
 9460SOL    HW140016   3.406   2.746   9.632 -0.0204 -0.4698 -0.4820
 9460SOL    HW240017   3.304   2.656   9.556 -1.7321 -0.4967 -0.1942
 9461SOL     OW40018   3.306   4.428   5.132 -0.9007 -0.1466  0.0601
 9461SOL    HW140019   3.277   4.499   5.190  3.1464 -0.0722  2.0370
 9461SOL    HW240020   3.320   4.360   5.198 -1.6660 -2.4677 -2.2202
 9462SOL     OW40021   3.247   0.304   3.945  0.4142  0.1593  0.2869
 9462SOL    HW140022   3.175   0.324   4.005  0.9875 -0.9965  1.3616
 9462SOL    HW240023   3.295   0.386   3.959 -1.3659  1.0273  1.3169
 9463SOL     OW40024   4.115   0.837   3.545  0.4006 -0.2176 -0.3824
 9463SOL    HW140025   4.025   0.812   3.567 -0.4517  3.0750 -0.0740
 9463SOL    HW240026   4.113   0.929   3.518  0.6108  0.4450  1.7920
 9464SOL     OW40027   1.415   1.125   6.837 -0.1745 -0.7243 -0.1944
 9464SOL    HW140028   1.467   1.201   6.811  0.0395 -1.0532 -0.7343
 9464SOL    HW240029   1.348   1.166   6.892 -0.7692  0.4949 -1.8333
 9465SOL     OW40030   2.717   3.259   8.177 -0.0918 -0.0451 -0.0307
 9465SOL    HW140031   2.806   3.292   8.170  0.2391 -0.5518  1.6418
 9465SOL    HW240032   2.681   3.329   8.231  1.4144 -0.1190  1.0700
 9466SOL     OW40033   2.798   1.942   9.418 -0.5603 -0.3461 -0.3128
 9466SOL    HW140034   2.801   1.852   9.450 -0.3614 -0.2850 -0.1620
 9466SOL    HW240035   2.855   1.985   9.482 -0.6735 -1.3677  0.4675
 9467SOL     OW40036   4.596   4.357   1.406 -0.1365  0.5649  0.2559
 9467SOL    HW140037   4.595   4.273   1.452 -2.6624 -0.0584 -0.9493
 9467SOL    HW240038   4.624   4.411   1.479 -1.2024  0.7867  0.4858
 9468SOL     OW40039   3.172   3.938   2.385 -0.1887 -0.0076 -0.5865
 9468SOL    HW140040   3.221   3.978   2.456  0.3323 -1.5895 -0.0523
 9468SOL    HW240041   3.248   3.942   2.327  0.6096  1.0954  0.5589
 9469SOL     OW40042   1.358   1.418  10.501  0.3417  0.1829 -0.1030
 9469SOL    HW140043   1.337   1.369  10.422  0.9705 -0.7627  0.3237
 9469SOL    HW240044   1.385   1.341  10.551 -2.3163 -0.6506  0.0422
 9470SOL     OW40045   0.267   1.105   8.430  0.0506  0.5692  0.2734
 9470SOL    HW140046   0.264   1.107   8.525 -0.5238 -0.8048  0.2824
 9470SOL    HW240047   0.224   1.020   8.419  0.0480  0.9951 -3.0378
 9471SOL     OW40048   0.798   2.094   7.119  0.4946  0.0630 -0.3735
 9471SOL    HW140049   0.820   2.158   7.052  2.1103 -1.6829 -1.5135
 9471SOL    HW240050   0.803   2.012   7.069 -3.5324 -0.3122 -0.1953
 9472SOL     OW40051   2.013   3.145   7.305 -0.8600  0.0456 -0.1787
 9472SOL    HW140052   2.046   3.211   7.365  0.1108 -0.3191 -0.3261
 9472SOL    HW240053   1.969   3.207   7.246 -0.5501 -0.5774 -1.0651
 9473SOL     OW40054   1.722   1.853   9.056  0.2853  0.1889 -0.1866
 9473SOL    HW140055   1.757   1.940   9.076  4.6471 -1.6309  0.0214
 9473SOL    HW240056   1.792   1.804   9.100 -0.3587 -0.1441  0.4773
 9474SOL     OW40057   2.909   3.492   1.085 -0.0125  0.7029 -0.3073
 9474SOL    HW140058   2.907   3.417   1.144 -1.0075 -0.4089 -1.7555
 9474SOL    HW240059   2.906   3.446   1.001 -4.6499 -3.2354  1.9888
 9475SOL     OW40060   4.267   4.434   7.110 -0.3918 -0.0293  0.0823
 9475SOL    HW140061   4.182   4.462   7.141 -1.8602 -2.7827 -1.3997
 9475SOL    HW240062   4.286   4.499   7.043  0.2925  1.5814  1.8609
 9476SOL     OW40063   1.029   0.397   6.636 -0.0479  0.5913 -0.7799
 9476SOL    HW140064   1.045   0.326   6.574  1.0096 -0.9166  1.2444
 9476SOL    HW240065   0.934   0.388   6.650 -0.0576  1.7441 -0.1494
 9477SOL     OW40066   0.346   0.625   5.747  0.4745  0.5644  0.3911
 9477SOL    HW140067   0.313   0.714   5.736 -0.7590 -0.0719 -1.0759
 9477SOL    HW240068   0.332   0.591   5.658 -0.9101  0.5668  0.6097
 9478SOL     OW40069   4.735   0.136   9.313  0.0002 -0.0249  0.4406
 9478SOL    HW140070   0.061   0.202   9.336  0.5091 -0.3006 -0.2165
 9478SOL    HW240071   4.731   0.088   9.396  3.0487 -0.4245  0.3497
 9479SOL     OW40072   1.108   1.170   8.821 -0.0925 -0.1874  0.4910
 9479SOL    HW140073   1.066   1.085   8.804  1.0414 -0.8819  1.1711
 9479SOL    HW240074   1.032   1.226   8.806 -1.5368 -1.2733  3.7919
 9480SOL     OW40075   1.712   1.788   5.362 -0.0071 -0.2026  0.0424
 9480SOL    HW140076   1.703   1.883   5.362 -0.0107 -0.2067  0.9159
 9480SOL    HW240077   1.652   1.748   5.299 -1.5157  0.6956  0.9196
 9481SOL     OW40078   3.775   3.745   6.222 -0.0342 -0.3128  0.1294
 9481SOL    HW140079   3.794   3.746   6.128 -2.7565  1.7027 -0.4022
 9481SOL    HW240080   3.706   3.811   6.235  1.9969  1.4380  1.9501
 9482SOL     OW40081   0.181   2.628   5.252 -0.4527 -0.2231  0.4806
 9482SOL    HW140082   0.113   2.598   5.313  0.0231 -1.6143  0.3111
 9482SOL    HW240083   0.258   2.626   5.309 -0.4211 -1.5156  0.3966
 9483SOL     OW40084   4.250   2.369   2.391 -0.3644 -0.4471  0.4459
 9483SOL    HW140085   4.233   2.442   2.332 -0.5247 -1.3092 -0.5907
 9483SOL    HW240086   4.162   2.337   2.410 -0.8517  0.9610  0.5612
 9484SOL     OW40087   3.680   0.961   2.640  0.2511 -0.2254 -0.1828
 9484SOL    HW140088   3.590   0.967   2.671  0.3148  2.0062 -0.3808
 9484SOL    HW240089   3.727   1.007   2.710  2.5455 -3.0121  0.1029
 9485SOL     OW40090   4.302   3.831   3.624 -0.2758  0.1603  0.5806
 9485SOL    HW140091   4.244   3.768   3.580 -1.5518  1.6691  0.0922
 9485SOL    HW240092   4.383   3.789   3.654 -0.5471  0.3494  1.5459
 9486SOL     OW40093   0.217   0.189   4.295 -0.5135 -0.3123  0.4042
 9486SOL    HW140094   0.154   0.119   4.309 -0.4315 -0.2405  1.1226
 9486SOL    HW240095   0.248   0.206   4.384  2.0826  0.4269 -0.6154
 9487SOL     OW40096   0.699   0.855  16.558 -0.1934 -0.6546 -0.0465
 9487SOL    HW140097   0.684   0.932  16.612  1.3064  0.2322 -0.8852
 9487SOL    HW240098   0.632   0.795  16.590 -1.2981  1.1726  1.0031
 9488SOL     OW40099   2.612   3.968   1.574 -0.2044 -0.1613  0.3617
 9488SOL    HW140100   2.583   4.029   1.505 -0.7911 -1.2198 -0.3174
 9488SOL    HW240101   2.625   3.893   1.517  0.2637  0.1479  0.0618
 9489SOL     OW40102   3.970   0.176  17.518 -0.6181 -0.6626 -0.0146
 9489SOL    HW140103   3.938   0.096  17.475 -0.6794 -1.6844  1.9435
 9489SOL    HW240104   4.027   0.213  17.451 -1.5420 -1.5282 -1.2772
 9490SOL     OW40105   0.272   1.503   3.025 -0.1088  0.2167  0.1147
 9490SOL    HW140106   0.347   1.553   2.993 -0.8599  1.8287  0.9048
 9490SOL    HW240107   0.202   1.526   2.964  1.2421 -1.7643 -2.2091
 9491SOL     OW40108   2.815   2.096   5.093  0.3678  0.0675 -0.1687
 9491SOL    HW140109   2.802   2.120   5.185 -0.3273 -0.2599 -0.1820
 9491SOL    HW240110   2.899   2.141   5.082  0.0860  0.8609  0.8468
 9492SOL     OW40111   4.414   1.395  12.511 -0.5428 -0.2857 -0.4401
 9492SOL    HW140112   4.395   1.325  12.574 -0.5645  0.4508  0.3636
 9492SOL    HW240113   4.484   1.353  12.461 -0.1426 -1.7217  1.3118
 9493SOL     OW40114   0.351   1.080   7.623  0.0628  0.3978  0.1486
 9493SOL    HW140115   0.358   0.991   7.590 -0.8231  0.0208  0.9745
 9493SOL    HW240116   0.442   1.089   7.651 -0.3367  1.9892  0.9699
 9494SOL     OW40117   1.194   1.001  14.369  0.2694  0.1244 -0.3285
 9494SOL    HW140118   1.209   0.948  14.290  0.9835 -2.1704  1.3451
 9494SOL    HW240119   1.147   1.078  14.338  0.3740  0.2924 -0.0698
 9495SOL     OW40120   2.974   3.818  14.467  0.0325 -0.5168  0.9258
 9495SOL    HW140121   2.967   3.887  14.401  0.4406  0.9936  2.4487
 9495SOL    HW240122   3.065   3.792  14.451 -0.5776 -0.5260 -2.5476
 9496SOL     OW40123   3.257   4.245   4.427  0.5118 -0.1484  0.3380
 9496SOL    HW140124   3.177   4.198   4.447  0.6687  0.6159  2.9069
 9496SOL    HW240125   3.315   4.232   4.503  0.4568 -2.1396  0.0167
 9497SOL     OW40126   0.629   4.249   1.993 -0.2500  0.1084 -0.4490
 9497SOL    HW140127   0.701   4.211   1.944  0.1134 -0.0409  0.1997
 9497SOL    HW240128   0.558   4.203   1.947 -2.2429  0.0441  2.6767
 9498SOL     OW40129   2.248   0.150   3.265  0.0247 -0.1788  0.4483
 9498SOL    HW140130   2.161   0.123   3.293 -0.3217  0.3665 -0.0907
 9498SOL    HW240131   2.237   0.245   3.258 -2.3309 -0.5288 -0.7366
 9499SOL     OW40132   4.069   2.250   4.798  0.1351 -0.4901 -0.1773
 9499SOL    HW140133   4.129   2.184   4.762 -1.1629 -0.7124 -1.9401
 9499SOL    HW240134   4.120   2.298   4.863 -0.3800 -0.5825  0.2926
 9500SOL     OW40135   3.771   0.028   2.613 -0.1836  0.5846  0.5195
 9500SOL    HW140136   3.707   0.032   2.684 -1.9328  2.4122 -1.1662
 9500SOL    HW240137   3.799   0.119   2.623  1.8393 -0.0137  0.2640
 9501SOL     OW40138   2.466   0.981  14.850 -0.6015  0.2603 -0.1187
 9501SOL    HW140139   2.480   0.909  14.912 -1.8556 -0.8486 -1.1118
 9501SOL    HW240140   2.470   1.055  14.911  2.9921 -1.2687  1.4876
 9502SOL     OW40141   4.238   0.192  15.770 -0.1037 -1.1354  0.1474
 9502SOL    HW140142   4.283   0.218  15.689  1.2551  1.1591  1.6399
 9502SOL    HW240143   4.254   0.098  15.767  1.2144 -0.8773 -1.6226
 9503SOL     OW40144   0.309   1.829   4.490  0.1569 -0.6663  1.1667
 9503SOL    HW140145   0.300   1.746   4.443 -0.6933  0.3995 -0.5333
 9503SOL    HW240146   0.304   1.887   4.415 -2.8092 -1.4048  0.7998
 9504SOL     OW40147   0.533   4.424   5.062  0.3706  0.4592 -0.0744
 9504SOL    HW140148   0.571   4.422   5.150 -0.8471  1.9605  0.4779
 9504SOL    HW240149   0.591   4.479   5.009  0.3989  0.7052  0.2160
 9505SOL     OW40150   1.353   4.656   7.989 -0.6524 -0.4861 -0.1136
 9505SOL    HW140151   1.355   4.599   8.066  2.2475  0.7727  0.7457
 9505SOL    HW240152   1.424   4.620   7.935 -1.1082 -1.4032 -0.1057
 9506SOL     OW40153   0.731   2.319   3.610 -0.1210 -0.2548  0.0675
 9506SOL    HW140154   0.801   2.305   3.545  1.3638 -0.9717  1.8403
 9506SOL    HW240155   0.697   2.405   3.583  0.0680 -0.4359 -0.7675
 9507SOL     OW40156   1.307   0.888   1.857 -0.7206 -0.1239  0.2363
 9507SOL    HW140157   1.375   0.865   1.920 -1.1592  0.2624  0.8480
 9507SOL    HW240158   1.239   0.927   1.913 -0.1263 -1.6884  2.0464
 9508SOL     OW40159   2.125   3.015   2.704 -0.0244  0.2935  0.3012
 9508SOL    HW140160   2.153   3.086   2.762  0.0447 -0.4607  1.2064
 9508SOL    HW240161   2.188   3.028   2.634 -0.3148 -1.1957 -0.2427
 9509SOL     OW40162   0.712   2.266   2.645  0.1202 -0.0231  0.4770
 9509SOL    HW140163   0.664   2.311   2.576  0.0665  0.4829  0.8436
 9509SOL    HW240164   0.636   2.239   2.697  1.5989 -0.5535  2.3844
 9510SOL     OW40165   0.578   1.515   3.116 -0.0027  0.3051  0.0582
 9510SOL    HW140166   0.615   1.538   3.030 -1.1626  2.3136  0.1036
 9510SOL    HW240167   0.586   1.604   3.151  4.3501  0.2346 -0.6454
 9511SOL     OW40168   4.214   1.440  15.079  0.2134  0.1672  0.5457
 9511SOL    HW140169   4.265   1.402  15.008 -1.6846 -0.1875 -0.6185
 9511SOL    HW240170   4.148   1.498  15.042  2.3245  2.1504 -0.1472
 9512SOL     OW40171   4.702   0.806  15.935 -0.4803 -0.0717 -0.1702
 9512SOL    HW140172   0.018   0.867  15.984 -1.8809  0.5122  0.6628
 9512SOL    HW240173   0.028   0.737  15.929 -0.0945  0.2739  0.0374
 9513SOL     OW40174   1.588   2.977   9.199  0.7136 -0.2015  0.3775
 9513SOL    HW140175   1.518   3.014   9.147  0.0583 -0.2260  1.2431
 9513SOL    HW240176   1.666   3.015   9.158  0.1811 -0.0137 -0.4421
 9514SOL     OW40177   0.446   3.232   1.544  0.1168 -0.0799  0.1552
 9514SOL    HW140178   0.365   3.267   1.507 -0.7405 -0.1241  1.9621
 9514SOL    HW240179   0.504   3.237   1.468 -0.4132 -0.0210 -0.2450
 9515SOL     OW40180   1.142   1.801  14.238 -0.4814  0.2120 -0.3096
 9515SOL    HW140181   1.153   1.804  14.333  1.5874 -0.2812 -0.5239
 9515SOL    HW240182   1.143   1.894  14.216  0.1222  0.6531  1.5718
 9516SOL     OW40183   0.057   3.738   6.598  0.0879  0.4145  0.0321
 9516SOL    HW140184   0.149   3.760   6.588 -0.0600  1.3141  0.5804
 9516SOL    HW240185   0.052   3.688   6.680 -0.4486 -0.0530 -0.2885
 9517SOL     OW40186   2.856   0.497   2.616 -0.2608  0.2646 -0.3048
 9517SOL    HW140187   2.783   0.479   2.557  0.5312 -2.1993 -0.5395
 9517SOL    HW240188   2.899   0.411   2.619  0.0420  0.4281  0.0426
 9518SOL     OW40189   0.968   1.330   8.530 -0.4422  0.0618  0.0031
 9518SOL    HW140190   1.033   1.343   8.461  0.4839 -1.6328  0.5726
 9518SOL    HW240191   0.931   1.244   8.514  0.3486 -0.3917  0.6143
 9519SOL     OW40192   2.481   4.002   9.715  0.2026 -0.0649 -0.0074
 9519SOL    HW140193   2.395   4.024   9.751  0.4100 -0.4566  0.7276
 9519SOL    HW240194   2.456   3.917   9.679  0.9889 -0.8849  1.3592
 9520SOL     OW40195   3.035   2.815   3.098  0.2494  0.0465  0.4142
 9520SOL    HW140196   3.077   2.767   3.169  1.3579 -1.7637 -1.4460
 9520SOL    HW240197   3.077   2.769   3.025 -1.1992 -0.2890 -0.2184
 9521SOL     OW40198   1.788   1.200   5.503  0.1418  0.1394  0.2641
 9521SOL    HW140199   1.874   1.240   5.519  0.1053  0.0279  0.7304
 9521SOL    HW240200   1.748   1.193   5.589 -0.8500  0.7797 -0.1363
 9522SOL     OW40201   0.204   3.281   3.180  0.3941  0.0473 -0.1550
 9522SOL    HW140202   0.195   3.362   3.129 -0.0312 -1.1967 -2.0784
 9522SOL    HW240203   0.228   3.231   3.102 -0.0923 -1.4065  0.6490
 9523SOL     OW40204   1.402   3.965   7.110 -0.7851  0.5518 -0.0774
 9523SOL    HW140205   1.307   3.968   7.115 -0.8702  1.4451 -2.1824
 9523SOL    HW240206   1.420   3.977   7.017 -2.9517  1.9354 -0.3091
 9524SOL     OW40207   2.306   0.645   6.072  0.2630 -0.8202 -0.1546
 9524SOL    HW140208   2.253   0.698   6.011 -1.8002 -1.7337  0.8343
 9524SOL    HW240209   2.384   0.698   6.086 -1.8458  2.5671 -1.3400
 9525SOL     OW40210   1.773   0.028   7.584  0.2543  0.2893 -0.1707
 9525SOL    HW140211   1.846   0.078   7.618  1.9490 -1.0787 -1.7991
 9525SOL    HW240212   1.708   0.099   7.580 -0.5834 -0.6040 -2.6794
 9526SOL     OW40213   1.235   4.435   6.814 -0.2096  0.3838 -0.0028
 9526SOL    HW140214   1.213   4.425   6.907  1.6282  1.0127  0.5016
 9526SOL    HW240215   1.205   4.357   6.767 -1.3552 -1.2889  3.4441
 9527SOL     OW40216   4.016   0.248  15.932 -0.1182 -0.0420 -0.7461
 9527SOL    HW140217   4.095   0.245  15.879  0.3919  2.2105 -0.0891
 9527SOL    HW240218   3.952   0.290  15.875  0.1109  2.3975  0.7877
 9528SOL     OW40219   4.498   3.647   7.563  0.3847  0.3147 -0.4334
 9528SOL    HW140220   4.531   3.592   7.492  2.1813  1.4505 -0.4726
 9528SOL    HW240221   4.440   3.705   7.516 -1.8679  0.5071  2.5661
 9529SOL     OW40222   4.726   2.727   1.322 -0.1532  0.2347  0.1313
 9529SOL    HW140223   4.725   2.682   1.406 -1.9350 -0.1877 -0.1334
 9529SOL    HW240224   4.634   2.709   1.303 -0.4801  1.5667  0.4648
 9530SOL     OW40225   4.046   0.431   4.393  0.2263 -0.2433  0.3090
 9530SOL    HW140226   4.140   0.413   4.385  0.4674  0.4195  1.7482
 9530SOL    HW240227   4.014   0.341   4.386 -0.4901  0.1674 -1.5524
 9531SOL     OW40228   1.844   1.068   7.376 -0.2832  0.1448 -0.7375
 9531SOL    HW140229   1.868   1.145   7.325  1.3428  1.0335  1.3540
 9531SOL    HW240230   1.847   1.112   7.461 -0.1312  0.6758 -1.0220
 9532SOL     OW40231   4.603   1.467   7.762 -0.2294  0.0258 -0.3647
 9532SOL    HW140232   4.614   1.393   7.822  0.6250  0.2122 -0.3029
 9532SOL    HW240233   4.607   1.421   7.678  0.8574 -0.5009 -0.0223
 9533SOL     OW40234   1.621   2.498   2.400 -0.8764  0.5458  0.1052
 9533SOL    HW140235   1.564   2.502   2.477 -0.8050  0.5505  0.1574
 9533SOL    HW240236   1.679   2.570   2.423 -0.6468  0.4192 -0.0802
 9534SOL     OW40237   1.706   4.681   5.240 -0.1994 -0.3758 -0.5266
 9534SOL    HW140238   1.729   4.699   5.149 -0.2373 -3.1510 -1.0944
 9534SOL    HW240239   1.657   0.023   5.251 -0.5996 -0.5101 -1.3519
 9535SOL     OW40240   2.784   3.382   6.216  0.2753 -0.3763 -0.3782
 9535SOL    HW140241   2.828   3.298   6.199 -0.9378 -1.0034 -0.4112
 9535SOL    HW240242   2.700   3.378   6.171 -1.0571  0.4579  2.0272
 9536SOL     OW40243   2.448   1.329  10.948  0.3771 -0.6556  0.2577
 9536SOL    HW140244   2.473   1.420  10.934 -1.5214 -0.0487  0.8559
 9536SOL    HW240245   2.378   1.326  10.883  1.5507 -0.6616 -0.9984
 9537SOL     OW40246   1.713   2.967   7.405 -0.1781  0.2567  0.1275
 9537SOL    HW140247   1.667   2.886   7.382  0.4321 -0.6511  2.0534
 9537SOL    HW240248   1.656   3.007   7.470 -0.5736  3.4374 -2.1574
 9538SOL     OW40249   1.359   0.565  13.500  0.2805 -0.0569 -0.2480
 9538SOL    HW140250   1.357   0.659  13.481 -0.2739  0.1067  0.6520
 9538SOL    HW240251   1.342   0.515  13.420  2.3052 -0.4703 -0.4220
 9539SOL     OW40252   1.295   1.355  13.174  0.4030 -0.1113  0.1303
 9539SOL    HW140253   1.350   1.362  13.252  1.6787 -0.7683 -0.7058
 9539SOL    HW240254   1.237   1.430  13.189  0.5234  0.3799 -1.9124
 9540SOL     OW40255   2.855   4.591   0.666  0.2612  0.1371  0.6590
 9540SOL    HW140256   2.897   4.509   0.689 -0.5641 -0.6860 -0.7695
 9540SOL    HW240257   2.917   4.655   0.701  0.6637  0.6315 -0.9724
 9541SOL     OW40258   3.999   3.274   5.042  0.1726  0.0716  0.2305
 9541SOL    HW140259   4.076   3.308   5.088  0.2166 -0.3913  0.5003
 9541SOL    HW240260   3.995   3.334   4.968  0.6711 -0.5660 -0.3164
 9542SOL     OW40261   4.278   1.197   2.255 -0.7100 -0.2175  0.8793
 9542SOL    HW140262   4.198   1.155   2.285 -0.6949 -1.2269 -0.5188
 9542SOL    HW240263   4.319   1.225   2.337 -1.8546  2.2900  0.5973
 9543SOL     OW40264   2.256   1.605   2.955 -0.0124  0.9987 -0.6751
 9543SOL    HW140265   2.233   1.616   3.047  0.8211 -0.5628 -0.2815
 9543SOL    HW240266   2.317   1.532   2.966 -0.1926  1.3008  2.4197
 9544SOL     OW40267   4.230   0.460   7.768 -0.2539 -0.1015 -0.5994
 9544SOL    HW140268   4.136   0.449   7.786 -0.6257 -0.0069 -2.5282
 9544SOL    HW240269   4.243   0.554   7.780  0.9800 -0.0599 -2.4274
 9545SOL     OW40270   1.959   1.572  12.064  0.2434 -0.3946 -0.1276
 9545SOL    HW140271   1.972   1.577  12.159 -2.6590 -1.2176  0.2965
 9545SOL    HW240272   1.877   1.620  12.058  1.3920  1.6250  0.3434
 9546SOL     OW40273   4.529   2.294   8.375  0.2497 -0.0318 -0.3014
 9546SOL    HW140274   4.534   2.207   8.414  0.1625 -0.9522 -2.3709
 9546SOL    HW240275   4.529   2.355   8.450 -0.3276 -0.4638  0.0479
 9547SOL     OW40276   3.000   0.500   5.701  0.2770  0.6361  0.0256
 9547SOL    HW140277   3.095   0.511   5.699  0.5009 -1.1259  1.3940
 9547SOL    HW240278   2.982   0.542   5.785  2.5054  0.0288  0.8095
 9548SOL     OW40279   2.111   4.346   3.284 -0.2721  0.3466 -0.1689
 9548SOL    HW140280   2.173   4.326   3.354 -0.2803  0.5922 -0.0914
 9548SOL    HW240281   2.067   4.263   3.264  3.5295 -1.7285 -0.0034
 9549SOL     OW40282   2.999   0.270  12.489 -0.5108 -0.0813 -0.6205
 9549SOL    HW140283   2.909   0.238  12.483 -0.4429 -0.6742  1.5155
 9549SOL    HW240284   3.004   0.297  12.397  1.3018  0.9880 -0.2126
 9550SOL     OW40285   1.529   2.857   8.697 -0.1929 -0.5406  0.4651
 9550SOL    HW140286   1.596   2.794   8.671 -0.0982 -0.9378  1.6426
 9550SOL    HW240287   1.507   2.831   8.787  1.4812 -0.9322  0.7653
 9551SOL     OW40288   3.385   3.965   9.386  0.3576 -0.4544  0.3033
 9551SOL    HW140289   3.410   3.907   9.458  0.7256  1.9292  2.1092
 9551SOL    HW240290   3.298   3.931   9.364 -0.1572  0.2627  1.2280
 9552SOL     OW40291   1.990   1.866   2.703 -0.0582  0.0312  0.1507
 9552SOL    HW140292   1.934   1.799   2.663 -0.1694  0.3518 -0.2332
 9552SOL    HW240293   1.939   1.945   2.684 -0.7692 -0.4818 -0.0875
 9553SOL     OW40294   2.018   0.967   2.091 -0.3326 -0.1060  0.1345
 9553SOL    HW140295   1.942   0.979   2.147 -1.3949  2.1623 -1.7657
 9553SOL    HW240296   2.088   0.963   2.156 -1.4740  0.6121  1.3790
 9554SOL     OW40297   1.805   4.160   5.421  0.6679 -0.6970  0.1264
 9554SOL    HW140298   1.823   4.253   5.404 -1.0985 -0.5371 -0.8702
 9554SOL    HW240299   1.854   4.114   5.352 -1.2677 -1.4250 -0.7467
 9555SOL     OW40300   1.715   0.585   8.745  0.3514 -0.1632  0.1900
 9555SOL    HW140301   1.657   0.509   8.757 -0.4389  0.4987  0.5807
 9555SOL    HW240302   1.764   0.580   8.828  0.4284 -1.0537  0.0902
 9556SOL     OW40303   2.046   4.591   3.156  0.1854 -0.0395  0.7939
 9556SOL    HW140304   2.058   4.504   3.193 -0.5631 -1.1356 -1.5058
 9556SOL    HW240305   2.126   4.594   3.104  0.6789 -1.2792  1.4977
 9557SOL     OW40306   2.008   3.092   9.614 -0.1407 -0.3564  0.1208
 9557SOL    HW140307   1.955   3.018   9.644 -1.6513  0.1214 -1.4165
 9557SOL    HW240308   2.096   3.083   9.652 -0.6394  2.9350  2.0322
 9558SOL     OW40309   4.461   0.901  11.392  0.2876  0.9010 -0.1503
 9558SOL    HW140310   4.488   0.928  11.480  1.2771 -0.3159 -0.0708
 9558SOL    HW240311   4.475   0.808  11.410  0.5480  0.9468 -0.1190
 9559SOL     OW40312   4.137   1.132   1.991 -0.0042 -1.0531 -0.0828
 9559SOL    HW140313   4.082   1.178   1.927 -0.3725 -1.1059  0.1951
 9559SOL    HW240314   4.165   1.204   2.048  2.6280 -1.2649 -1.1070
 9560SOL     OW40315   2.981   3.770  13.550 -0.3561 -0.3909  0.0340
 9560SOL    HW140316   2.991   3.686  13.506 -0.3725 -0.5347  0.3037
 9560SOL    HW240317   2.975   3.821  13.470 -1.1830 -0.0361  0.3240
 9561SOL     OW40318   3.364   3.725   2.958  0.0201 -0.1996  0.4494
 9561SOL    HW140319   3.410   3.642   2.943  0.6146  0.2255 -0.1094
 9561SOL    HW240320   3.430   3.775   2.910 -0.7193  0.5253  0.2069
 9562SOL     OW40321   1.223   3.664   3.285  0.4143 -0.0825 -1.0913
 9562SOL    HW140322   1.164   3.681   3.358  0.8044 -1.4309 -0.4608
 9562SOL    HW240323   1.267   3.749   3.285 -0.5200  0.3760  1.1269
 9563SOL     OW40324   3.167   3.172  16.801 -0.2309  0.7377 -0.1499
 9563SOL    HW140325   3.197   3.103  16.741 -3.6831 -0.4829 -0.4877
 9563SOL    HW240326   3.190   3.239  16.737 -0.7288 -0.0153 -1.1340
 9564SOL     OW40327   4.266   0.988   3.331  0.3769 -0.5783 -0.3734
 9564SOL    HW140328   4.336   1.041   3.294  1.5240 -1.5975  0.3479
 9564SOL    HW240329   4.190   1.046   3.326 -0.0986 -1.0684  1.3444
 9565SOL     OW40330   3.404   2.897  11.017 -0.4671  0.6295  0.1808
 9565SOL    HW140331   3.429   2.950  10.942 -2.1129  0.3432 -0.5644
 9565SOL    HW240332   3.353   2.960  11.067 -1.5431  0.8837 -1.2293
 9566SOL     OW40333   2.775   3.290   0.182  0.2281  0.0581  0.1755
 9566SOL    HW140334   2.867   3.311   0.173 -0.2479  1.1400 -2.2205
 9566SOL    HW240335   2.777   3.195   0.188 -2.5931  0.0095  0.7960
 9567SOL     OW40336   2.466   0.966   7.177 -0.4459  0.2057  0.3106
 9567SOL    HW140337   2.371   0.967   7.184 -0.4529  2.6426 -0.0930
 9567SOL    HW240338   2.490   1.030   7.244  1.1117 -1.8337  1.7157
 9568SOL     OW40339   2.507   2.736  10.279 -0.1443 -0.4400 -0.3866
 9568SOL    HW140340   2.601   2.750  10.288 -0.3303  0.5922 -0.0751
 9568SOL    HW240341   2.472   2.817  10.316  0.6660  1.0168 -2.8140
 9569SOL     OW40342   1.730   1.859   6.848  0.3128  0.0144 -0.7924
 9569SOL    HW140343   1.695   1.931   6.900  0.6908  1.3004 -2.3222
 9569SOL    HW240344   1.769   1.805   6.917 -0.4222  1.6653  0.9291
   4.73954   4.73954  17.75587
