Membrane in water
40344
    1TMC1    C1    1   4.073   4.641  12.177  0.0319  0.3349 -0.8648
    1TMC1    C2    2   4.017   4.708  12.069 -0.0302 -0.4777 -0.2390
    1TMC1    C3    3   4.064   0.091  12.041 -0.3473 -1.3746 -0.6825
    1TMC1    C4    4   4.174   4.689  12.255  0.3685  0.1833 -0.1247
    1TMC1    C5    5   4.221   0.072  12.219  0.0315 -0.4226  0.2135
    1TMC1    C6    6   4.168   0.145  12.114 -0.2915 -0.0407  0.3099
    1TMC1     C    7   4.029   4.502  12.194 -0.6080 -0.5724  0.0771
    1TMC1     O    8   3.913   4.479  12.173  0.9325  0.0040  0.2257
    1TMC1     H    9   3.947   4.662  12.000 -0.5019  0.1504 -0.1851
    1TMC1    H1   10   4.226   4.628  12.327 -1.9117 -1.1769  0.3586
    1TMC1    H2   11   4.193   0.246  12.085 -1.6974  0.6451  1.4976
    1TMC1    C7   12   4.296   0.134  12.325  0.1559 -0.0243  0.3916
    1TMC1    C8   13   3.996   0.170  11.943 -0.4639 -0.7480  0.6923
    1TMC1    O1   14   4.276   0.128  12.444 -0.1077  0.0684 -0.0278
    1TMC1    O2   15   4.044   0.272  11.900 -0.0942 -0.0452 -0.1680
    1TMC1    O3   16   4.399   0.198  12.267  0.2163  0.2009  0.5267
    1TMC1    H3   17   4.405   0.157  12.178 -0.4806 -2.8244  1.8674
    1TMC1    O5   18   3.869   0.155  11.984  0.0577 -0.0661 -0.1293
    1TMC1    H5   19   3.856   0.079  12.045  1.0991 -0.2939 -0.1787
    2MPD2     C   20   4.103   4.007  12.276  0.5175 -0.1949 -0.5145
    2MPD2    C1   21   3.986   4.070  12.243 -0.0025  0.4520 -0.6394
    2MPD2    C2   22   4.000   4.201  12.215 -0.6027 -0.3193  0.3750
    2MPD2    C3   23   4.124   4.270  12.237 -0.3720 -0.3561  0.0443
    2MPD2    C4   24   4.235   4.200  12.269  0.5431  0.1090  0.0727
    2MPD2    C5   25   4.221   4.067  12.292 -0.0998  0.5442 -0.2676
    2MPD2     H   26   3.914   4.262  12.190  1.1267  1.1632 -1.9105
    2MPD2    H1   27   4.326   4.255  12.291  0.4421  0.2447  0.1471
    2MPD2    H2   28   4.103   3.900  12.292 -0.5539  0.1065  1.5975
    2MPD2    H3   29   4.309   4.006  12.309 -2.0521 -2.4295 -0.9448
    2MPD2     N   30   4.137   4.412  12.217 -0.3461 -0.9760  0.3391
    2MPD2    H5   31   4.230   4.450  12.227  0.5268 -2.3794 -2.3876
    2MPD2    N1   32   3.859   4.018  12.248  0.2234  0.0555  0.0792
    2MPD2    H7   33   3.792   4.076  12.199  2.6315  1.5248 -1.4657
    3TMC1    C1   34   3.076   1.745   9.554 -0.5934  0.0121 -0.3341
    3TMC1    C2   35   3.158   1.844   9.597  0.2983 -0.0059  0.0364
    3TMC1    C3   36   3.288   1.840   9.552  0.9543  0.2540  0.2134
    3TMC1    C4   37   3.119   1.646   9.466  0.1936 -0.0800  0.9997
    3TMC1    C5   38   3.250   1.656   9.411  0.0437 -0.0600 -0.4325
    3TMC1    C6   39   3.336   1.751   9.458  0.4352  0.4508 -0.5519
    3TMC1     C   40   2.934   1.750   9.590 -0.1343 -0.1633  0.0147
    3TMC1     O   41   2.857   1.671   9.529  0.3238  0.1140 -0.0522
    3TMC1     H   42   3.127   1.928   9.657  0.7648 -0.8103  1.3937
    3TMC1    H1   43   3.051   1.577   9.416  2.0398 -1.6139  0.6200
    3TMC1    H2   44   3.441   1.759   9.431  0.8871 -0.4622  0.8728
    3TMC1    C7   45   3.282   1.572   9.296  0.3089 -0.9125 -0.2855
    3TMC1    C8   46   3.395   1.917   9.615  0.1334 -0.6145  0.3708
    3TMC1    O1   47   3.387   1.592   9.236 -0.3635  0.0985 -0.2182
    3TMC1    O2   48   3.504   1.948   9.570  0.0364  0.3697 -0.3667
    3TMC1    O3   49   3.252   1.450   9.350  0.1517 -0.4384  0.3149
    3TMC1    H3   50   3.182   1.451   9.418 -0.9198 -2.1928 -0.7748
    3TMC1    O5   51   3.357   1.936   9.741  0.0997 -1.0179 -0.4314
    3TMC1    H5   52   3.275   1.896   9.778 -0.4523  0.4170 -0.0829
    4MPD2     C   53   2.577   1.765   9.949  0.5663  0.3523  0.2072
    4MPD2    C1   54   2.690   1.816  10.014 -0.1852  0.0575 -0.4114
    4MPD2    C2   55   2.797   1.824   9.926 -0.5155  0.5545 -0.5447
    4MPD2    C3   56   2.797   1.786   9.791 -1.1609 -0.6010  0.2670
    4MPD2    C4   57   2.683   1.733   9.737  0.0721  0.6929  0.3259
    4MPD2    C5   58   2.570   1.730   9.815  0.0188 -0.0498  0.3866
    4MPD2     H   59   2.889   1.868   9.965  0.7066 -2.4223 -0.0665
    4MPD2    H1   60   2.666   1.711   9.632  1.0594  0.1820  0.2721
    4MPD2    H2   61   2.482   1.762  10.001  0.9587  1.5805  1.0026
    4MPD2    H3   62   2.476   1.696   9.774  0.3196  0.2507 -0.5609
    4MPD2     N   63   2.919   1.795   9.720  0.4331  0.3518  0.2023
    4MPD2    H5   64   2.997   1.829   9.775 -1.1434  1.5621  1.7172
    4MPD2    N1   65   2.698   1.839  10.150 -0.3047  0.6442 -0.4266
    4MPD2    H7   66   2.786   1.873  10.187 -0.4935  0.9557 -0.2616
    5TCq1    O1   67   3.723   1.858  11.912 -0.3652  0.3042 -0.2187
    5TCq1    C1   68   3.785   1.942  11.824 -0.3216  0.0070 -0.8959
    5TCq1    O2   69   3.903   1.948  11.792  0.0487 -0.0792 -0.4481
    5TCq1    C2   70   3.678   2.002  11.755 -0.3565 -0.2583 -0.6516
    5TCq1    C3   71   3.563   2.033  11.817 -0.2448  0.4912 -0.1581
    5TCq1    C4   72   3.473   2.118  11.761  0.9895  0.3543 -0.4345
    5TCq1    C5   73   3.507   2.184  11.643 -0.5576  0.2711 -0.1157
    5TCq1    C6   74   3.628   2.156  11.585  0.6842  0.6958  0.0137
    5TCq1    C7   75   3.712   2.056  11.636  0.2691  0.3286 -0.3470
    5TCq1    C8   76   3.662   2.210  11.452  0.6022 -0.3972  0.7531
    5TCq1    O4   77   3.740   2.132  11.397 -0.4712  0.2432  0.5384
    5TCq1    C9   78   3.356   2.160  11.839  0.0529  0.0108  0.6331
    5TCq1    O5   79   3.256   2.205  11.778  0.1954  0.2371 -0.4758
    5TCq1    O6   80   3.360   2.136  11.960  0.1561  0.3866  0.2918
    5TCq1    H1   81   3.625   1.862  11.904 -0.2989  2.2180 -0.0554
    5TCq1    H2   82   3.539   1.987  11.913 -1.6662 -2.1081 -1.7756
    5TCq1    H3   83   3.439   2.259  11.605  0.5725  0.7770 -1.1475
    5TCq1    H4   84   3.815   2.059  11.606  0.2883 -0.9108 -0.3930
    6MPD2     C   85   3.596   2.521  11.281 -0.2397 -0.1142  0.2683
    6MPD2    C1   86   3.631   2.390  11.291 -0.1131  0.1121  0.2333
    6MPD2    C2   87   3.687   2.325  11.180 -0.0553  0.1301  0.2496
    6MPD2    C3   88   3.709   2.397  11.068  0.2908 -0.1100  0.1958
    6MPD2    C4   89   3.680   2.530  11.066  0.2759 -0.3293  0.4132
    6MPD2    C5   90   3.622   2.586  11.172  0.7341  0.5918  0.0828
    6MPD2     H   91   3.709   2.220  11.165 -0.6919 -0.1487  1.2200
    6MPD2    H1   92   3.681   2.593  10.978 -0.7768 -0.9503 -0.0453
    6MPD2    H2   93   3.542   2.573  11.360 -3.2990  0.1491 -2.0007
    6MPD2    H3   94   3.582   2.687  11.166  0.1247  0.2080 -2.4198
    6MPD2     N   95   3.746   2.323  10.950  0.6604 -0.3900  0.3717
    6MPD2    H5   96   3.736   2.222  10.953  1.1189 -0.4377  0.2269
    6MPD2    N1   97   3.599   2.328  11.413  0.1568  0.2242  0.2394
    6MPD2    H7   98   3.545   2.380  11.481  0.3639 -1.0848  1.4108
    7TCq1    O1   99   0.416   1.751  13.926  0.1047  0.1361  0.0120
    7TCq1    C1  100   0.451   1.873  13.884 -0.1734 -0.0091 -0.1525
    7TCq1    O2  101   0.502   1.957  13.962 -0.0672  0.2250  0.1078
    7TCq1    C2  102   0.521   1.854  13.757  0.5382  0.8021 -0.8213
    7TCq1    C3  103   0.554   1.972  13.708 -0.7248  0.4082 -0.3003
    7TCq1    C4  104   0.623   1.974  13.593 -0.4797  0.2494 -0.2917
    7TCq1    C5  105   0.655   1.860  13.524 -0.1364 -0.7587  0.7628
    7TCq1    C6  106   0.621   1.744  13.582 -0.1336 -0.3746  0.2619
    7TCq1    C7  107   0.558   1.734  13.704  0.4505  0.0909  0.5402
    7TCq1    C8  108   0.662   1.621  13.521 -0.7069  0.1586  0.9657
    7TCq1    O4  109   0.700   1.533  13.596 -0.1909 -0.2615  0.0186
    7TCq1    C9  110   0.651   2.099  13.528 -0.1373  0.5171 -0.0197
    7TCq1    O5  111   0.641   2.100  13.399 -0.4170 -0.2769  0.1414
    7TCq1    O6  112   0.640   2.207  13.600 -0.0095 -0.0224  0.4890
    7TCq1    H1  113   0.381   1.709  13.845 -0.0051  0.2048  0.0238
    7TCq1    H2  114   0.530   2.061  13.764 -0.9572  0.1245  0.0511
    7TCq1    H3  115   0.710   1.864  13.431 -1.1523 -1.2592  0.1484
    7TCq1    H4  116   0.533   1.640  13.752  1.6013 -0.1786  0.6098
    8MPD2     C  117   0.769   1.336  13.097 -0.0863 -0.5319  0.8358
    8MPD2    C1  118   0.758   1.308  13.234  0.1918 -0.0084 -0.3573
    8MPD2    C2  119   0.722   1.409  13.321 -0.0026 -0.0799  0.0817
    8MPD2    C3  120   0.705   1.540  13.284  0.3945 -0.4561  0.0259
    8MPD2    C4  121   0.718   1.569  13.151 -0.8588  0.0792  0.6797
    8MPD2    C5  122   0.755   1.469  13.061  0.1021 -0.3197  0.3028
    8MPD2     H  123   0.711   1.386  13.426  0.1384 -0.5984 -0.0125
    8MPD2    H1  124   0.692   1.668  13.114 -0.4780  0.6187  1.8865
    8MPD2    H2  125   0.803   1.259  13.028 -0.6464 -0.1449  0.1312
    8MPD2    H3  126   0.767   1.503  12.959 -2.3202 -0.1660  0.0576
    8MPD2     N  127   0.677   1.645  13.380 -0.5792 -0.4081 -0.2209
    8MPD2    H5  128   0.658   1.740  13.351  2.5092 -0.4360 -2.3887
    8MPD2    N1  129   0.774   1.169  13.272 -0.2069 -0.1095 -0.3078
    8MPD2    H7  130   0.791   1.097  13.202  0.8229 -0.6367  0.4940
    9TMC1    C1  131   2.886   1.023  11.881  0.3169  1.2213 -0.2196
    9TMC1    C2  132   2.859   1.154  11.858  0.5943  0.1985  0.1080
    9TMC1    C3  133   2.763   1.211  11.937 -0.8093  0.2786 -0.1834
    9TMC1    C4  134   2.837   0.948  11.982  0.6304  0.1281  0.3010
    9TMC1    C5  135   2.752   1.022  12.066 -0.6812  0.5353 -0.2364
    9TMC1    C6  136   2.718   1.153  12.052  0.0132 -0.3950  0.8743
    9TMC1     C  137   2.944   0.951  11.770  0.2584  0.1152  0.2048
    9TMC1     O  138   2.935   1.004  11.659  0.2277  0.6207 -0.0433
    9TMC1     H  139   2.897   1.207  11.771 -1.6564  0.7106 -0.5472
    9TMC1    H1  140   2.840   0.840  11.979 -0.1615  0.2021 -3.9169
    9TMC1    H2  141   2.652   1.197  12.126 -0.9296  0.8369 -0.7184
    9TMC1    C7  142   2.722   0.964  12.192 -0.0038  0.6126 -0.4630
    9TMC1    C8  143   2.713   1.344  11.928  0.4505 -0.4095 -0.9882
    9TMC1    O1  144   2.640   1.002  12.275 -0.3842  0.1346  0.1438
    9TMC1    O2  145   2.673   1.407  12.025  0.6861  0.4320  0.4237
    9TMC1    O3  146   2.828   0.892  12.229  0.1206  0.7840  0.1993
    9TMC1    H3  147   2.880   0.894  12.146 -1.9677 -1.7950 -1.1570
    9TMC1    O5  148   2.704   1.382  11.799  0.0118 -0.7476 -0.2010
    9TMC1    H5  149   2.733   1.308  11.742  1.4739 -0.5604  0.2727
   10MPD2     C  150   3.154   0.796  11.626  0.0268  0.2037 -0.5888
   10MPD2    C1  151   3.083   0.746  11.735 -1.0181 -0.0303 -0.1409
   10MPD2    C2  152   3.115   0.624  11.784 -0.0456 -0.1940 -0.0030
   10MPD2    C3  153   3.211   0.546  11.718  1.1225 -0.1381  0.2677
   10MPD2    C4  154   3.277   0.593  11.609  0.8069  0.3788 -0.0991
   10MPD2    C5  155   3.248   0.717  11.564  0.0864  0.6152 -0.0085
   10MPD2     H  156   3.068   0.596  11.878 -0.0094  2.5431  0.8467
   10MPD2    H1  157   3.365   0.547  11.566 -0.8668 -1.8998 -1.0429
   10MPD2    H2  158   3.153   0.896  11.584  1.8469  0.7430  0.6262
   10MPD2    H3  159   3.292   0.757  11.474 -0.0180 -1.0433 -0.8064
   10MPD2     N  160   3.233   0.415  11.769  0.5061 -0.3367 -0.4030
   10MPD2    H5  161   3.322   0.376  11.740  0.1111 -0.9066 -0.8368
   10MPD2    N1  162   2.998   0.831  11.806  0.5302  0.4102 -0.1092
   10MPD2    H7  163   2.970   0.801  11.898  0.5470 -1.3504 -0.6895
   11TCq1    O1  164   4.039   0.574  14.488  0.1495 -0.2413 -0.0119
   11TCq1    C1  165   4.076   0.543  14.612 -0.0588 -0.0759  0.1097
   11TCq1    O2  166   4.179   0.482  14.646  0.5192  0.4551 -0.1742
   11TCq1    C2  167   3.961   0.579  14.688 -0.4411 -0.2363  0.1576
   11TCq1    C3  168   3.981   0.596  14.822  0.5329 -0.2260  0.4097
   11TCq1    C4  169   3.872   0.635  14.889  0.2540  0.2381 -0.0216
   11TCq1    C5  170   3.744   0.633  14.841 -0.2450  0.2312 -0.2654
   11TCq1    C6  171   3.730   0.595  14.714  0.3248 -0.2586  0.3238
   11TCq1    C7  172   3.837   0.574  14.629 -0.5047 -0.4655 -0.6416
   11TCq1    C8  173   3.594   0.574  14.663  0.0356  0.5994 -0.4959
   11TCq1    O4  174   3.512   0.651  14.712 -0.1113  0.4836 -0.0348
   11TCq1    C9  175   3.879   0.664  15.033 -0.3458  0.0831  0.2614
   11TCq1    O5  176   3.995   0.656  15.085  0.0468  0.2627  0.3853
   11TCq1    O6  177   3.776   0.715  15.088 -0.1231  0.3313 -0.3553
   11TCq1    H1  178   3.970   0.643  14.496  0.2151 -0.0877 -0.7746
   11TCq1    H2  179   4.081   0.602  14.863  1.7249  0.9820 -2.6467
   11TCq1    H3  180   3.654   0.649  14.899 -0.3597  0.5883 -0.5410
   11TCq1    H4  181   3.829   0.543  14.525  1.9045  0.0632 -1.0004
   12MPD2     C  182   3.334   0.504  14.533 -0.2821  0.1234 -0.8788
   12MPD2    C1  183   3.456   0.427  14.527  0.1257 -0.0324  0.6904
   12MPD2    C2  184   3.440   0.303  14.469 -0.7402 -1.2616  0.7528
   12MPD2    C3  185   3.323   0.251  14.419  0.8444 -0.3660 -0.0134
   12MPD2    C4  186   3.207   0.329  14.427  1.0774  0.4192 -0.2387
   12MPD2    C5  187   3.216   0.454  14.483 -0.2458  0.9107  0.2670
   12MPD2     H  188   3.529   0.247  14.442  1.2087  2.2102 -0.0536
   12MPD2    H1  189   3.120   0.294  14.373  0.2921  1.1911  0.5237
   12MPD2    H2  190   3.340   0.607  14.567  1.5307 -0.0416 -0.6609
   12MPD2    H3  191   3.141   0.532  14.477 -1.8119 -0.5987  0.4600
   12MPD2     N  192   3.308   0.131  14.344 -0.1716  0.1418 -0.1314
   12MPD2    H5  193   3.217   0.106  14.307  0.4474  0.7237 -2.0447
   12MPD2    N1  194   3.581   0.468  14.572 -0.2828 -0.2824 -0.7548
   12MPD2    H7  195   3.664   0.416  14.545  0.0046 -0.2811  0.1122
   13TCq1    O1  196   3.989   0.448  11.005 -0.2505  0.0800  0.2743
   13TCq1    C1  197   3.989   0.468  10.871 -0.2456  0.1643  0.4197
   13TCq1    O2  198   4.084   0.510  10.804 -0.3701 -0.4108 -0.2070
   13TCq1    C2  199   3.851   0.513  10.841 -0.2791 -0.3376 -0.5004
   13TCq1    C3  200   3.827   0.610  10.746  0.6298  0.6183  0.4513
   13TCq1    C4  201   3.704   0.645  10.710 -0.5610 -0.4368 -0.5846
   13TCq1    C5  202   3.594   0.581  10.768 -0.3777  0.1030 -0.6291
   13TCq1    C6  203   3.618   0.475  10.859 -0.1629 -0.5260  0.2266
   13TCq1    C7  204   3.747   0.441  10.892  0.2265 -0.3087  0.4219
   13TCq1    C8  205   3.502   0.415  10.928 -0.9290 -0.1274 -0.2477
   13TCq1    O4  206   3.391   0.455  10.900  0.6843  0.5344  0.7111
   13TCq1    C9  207   3.693   0.753  10.614  0.6562 -0.0863  0.0756
   13TCq1    O5  208   3.571   0.775  10.586 -0.2763  0.2942 -0.1330
   13TCq1    O6  209   3.795   0.824  10.587 -0.0008 -0.4654 -0.0795
   13TCq1    H1  210   3.899   0.456  11.042 -1.0296  1.3697 -1.8711
   13TCq1    H2  211   3.908   0.669  10.706 -0.7207  2.1402 -0.0443
   13TCq1    H3  212   3.491   0.610  10.751 -0.0667  0.6235 -1.5976
   13TCq1    H4  213   3.763   0.353  10.954  1.4126  0.7798  1.6642
   14MPD2     C  214   3.476   0.169  11.211  0.1037  0.5487  0.3067
   14MPD2    C1  215   3.444   0.282  11.128  0.0039  0.0213 -0.0956
   14MPD2    C2  216   3.331   0.353  11.166 -0.2138  0.4888 -0.3917
   14MPD2    C3  217   3.245   0.317  11.275 -0.0874 -0.4031 -0.1444
   14MPD2    C4  218   3.271   0.195  11.338 -0.4836 -0.1392  0.3331
   14MPD2    C5  219   3.383   0.124  11.300  0.6234 -0.5240 -0.0206
   14MPD2     H  220   3.294   0.437  11.109  0.7009  1.7636  0.9135
   14MPD2    H1  221   3.219   0.156  11.425 -0.0622  1.5572  1.3370
   14MPD2    H2  222   3.566   0.110  11.204  1.2694  2.2503  1.1531
   14MPD2    H3  223   3.408   0.028  11.345  0.1468 -1.0344 -0.8450
   14MPD2     N  224   3.150   0.407  11.320 -0.3163 -0.0461 -0.6602
   14MPD2    H5  225   3.137   0.489  11.262  0.7471  2.3873  2.5241
   14MPD2    N1  226   3.534   0.327  11.029 -0.0185  0.3148 -0.0305
   14MPD2    H7  227   3.630   0.293  11.029 -0.9103 -2.1719  1.3052
   15TCq1    O1  228   0.200   4.680   0.852  0.0112 -0.8456  0.2786
   15TCq1    C1  229   0.148   4.559   0.871 -1.0158  0.5028 -0.2240
   15TCq1    O2  230   0.101   4.493   0.779  0.0259 -0.0061  0.2788
   15TCq1    C2  231   0.221   4.492   0.974  0.9055  0.2424 -0.7502
   15TCq1    C3  232   0.232   4.567   1.090 -0.5347 -0.5233 -0.7609
   15TCq1    C4  233   0.297   4.507   1.194  0.3049 -0.2818 -0.0148
   15TCq1    C5  234   0.340   4.377   1.185 -0.1673 -0.2780 -0.2010
   15TCq1    C6  235   0.314   4.305   1.064 -0.0316 -0.1736 -0.3140
   15TCq1    C7  236   0.256   4.362   0.957  0.2143 -0.4944 -0.7134
   15TCq1    C8  237   0.355   4.166   1.063  0.6136  0.1055 -0.0975
   15TCq1    O4  238   0.437   4.137   1.145  0.2378 -0.3554 -0.2182
   15TCq1    C9  239   0.321   4.581   1.312 -0.5464 -1.0973 -0.0467
   15TCq1    O5  240   0.252   4.684   1.307 -0.3575 -0.1159  0.2470
   15TCq1    O6  241   0.380   4.526   1.411 -0.0522 -0.2417  0.0159
   15TCq1    H1  242   0.258   4.700   0.930 -0.2310 -0.3524  0.3305
   15TCq1    H2  243   0.201   4.671   1.093 -1.2720 -0.8352  2.2069
   15TCq1    H3  244   0.392   4.339   1.271  1.7085  0.8600 -0.8299
   15TCq1    H4  245   0.236   4.307   0.866  1.9010  0.6905 -1.7993
   16MPD2     C  246   0.244   3.909   0.822  0.2956  0.5214  0.0438
   16MPD2    C1  247   0.325   3.968   0.917 -0.2667 -0.6728 -0.5011
   16MPD2    C2  248   0.443   3.907   0.955  0.6315 -0.1241  0.3027
   16MPD2    C3  249   0.474   3.781   0.915 -0.4351 -0.0686  0.3583
   16MPD2    C4  250   0.380   3.721   0.826  0.5333  0.1172  0.1794
   16MPD2    C5  251   0.271   3.782   0.781 -0.0372  0.0559 -1.7884
   16MPD2     H  252   0.512   3.963   1.017  2.6520  0.0994 -2.1652
   16MPD2    H1  253   0.385   3.620   0.789  0.6195 -0.0916  0.7623
   16MPD2    H2  254   0.146   3.950   0.800 -0.0576 -0.4820 -0.2602
   16MPD2    H3  255   0.199   3.732   0.718 -0.6427 -0.9956 -0.2754
   16MPD2     N  256   0.610   3.735   0.934 -0.7386  0.1085 -0.1794
   16MPD2    H5  257   0.669   3.792   0.995 -0.5631 -0.4456  0.1742
   16MPD2    N1  258   0.282   4.093   0.968  0.3973  0.1211 -0.1244
   16MPD2    H7  259   0.202   4.135   0.923 -0.0261 -0.6404 -0.0731
   17TMC1    C1  260   3.354   3.816  10.286 -1.0218  0.7473  0.1656
   17TMC1    C2  261   3.288   3.746  10.188  0.2994 -0.1299  0.0155
   17TMC1    C3  262   3.336   3.750  10.059 -1.2831  0.7499 -0.6834
   17TMC1    C4  263   3.462   3.888  10.249 -0.0338 -1.0374  0.4558
   17TMC1    C5  264   3.507   3.891  10.123 -0.3259  0.6156 -0.4690
   17TMC1    C6  265   3.449   3.823  10.026  0.1656  0.1149 -0.2488
   17TMC1     C  266   3.297   3.820  10.423 -0.0635 -0.1098  0.0485
   17TMC1     O  267   3.244   3.715  10.459  0.0810 -0.1704  0.2712
   17TMC1     H  268   3.204   3.684  10.217  2.2540 -2.2082  1.1612
   17TMC1    H1  269   3.507   3.946  10.329  0.0333 -0.3234 -0.1074
   17TMC1    H2  270   3.493   3.829   9.927 -1.5071  2.3815 -0.8743
   17TMC1    C7  271   3.617   3.977  10.083  0.4567  0.0424 -0.1049
   17TMC1    C8  272   3.275   3.678   9.951  1.4739 -0.1570 -0.0303
   17TMC1    O1  273   3.637   4.007   9.966  0.7565  0.5628 -0.0624
   17TMC1    O2  274   3.266   3.715   9.835 -0.3748  0.6870 -0.4140
   17TMC1    O3  275   3.677   4.031  10.197 -0.2866  0.4356  0.0761
   17TMC1    H3  276   3.661   3.974  10.276  0.0885  1.7753  1.1325
   17TMC1    O5  277   3.202   3.574  10.011  0.0815 -0.1359 -0.3331
   17TMC1    H5  278   3.229   3.549  10.102  1.1510 -1.0541 -0.8955
   18MPD2     C  279   3.218   3.892  10.706  0.8854 -0.7441 -0.2405
   18MPD2    C1  280   3.287   3.974  10.621 -0.1883  0.3578 -0.4259
   18MPD2    C2  281   3.320   4.101  10.665 -0.0215 -0.1737  0.0971
   18MPD2    C3  282   3.275   4.154  10.785  0.4853 -0.4277 -0.0292
   18MPD2    C4  283   3.207   4.066  10.871  0.2962 -0.3937 -0.5140
   18MPD2    C5  284   3.190   3.934  10.831 -0.3438 -0.4557  0.1950
   18MPD2     H  285   3.391   4.160  10.608 -0.9196 -0.1426 -0.9876
   18MPD2    H1  286   3.175   4.101  10.968  2.0931 -0.2717  0.0423
   18MPD2    H2  287   3.192   3.789  10.682 -0.6078 -0.5074  0.3824
   18MPD2    H3  288   3.155   3.855  10.896  0.8640 -0.9218  0.2843
   18MPD2     N  289   3.299   4.291  10.831  0.2613 -0.1786 -0.0334
   18MPD2    H5  290   3.261   4.320  10.921 -1.6035  1.2777 -1.2885
   18MPD2    N1  291   3.320   3.943  10.485  0.9199 -0.9194  0.1706
   18MPD2    H7  292   3.370   4.015  10.434 -1.9513  0.9870  0.1043
   19TMC2    C1  293   0.389   0.276  14.127  0.0699  0.4709 -0.4360
   19TMC2    C2  294   0.359   0.409  14.156 -0.5128 -0.1791  0.5986
   19TMC2    C3  295   0.234   0.444  14.161 -0.3718 -0.1732  0.3188
   19TMC2    C4  296   0.292   0.188  14.091  0.9074 -0.3097  0.2985
   19TMC2    C5  297   0.157   0.225  14.098 -0.1813 -0.2442  0.9820
   19TMC2    C6  298   0.134   0.356  14.134 -0.7388  0.0265  0.2394
   19TMC2     C  299   0.533   0.241  14.139  0.3874  0.0887 -0.5197
   19TMC2     O  300   0.621   0.324  14.151 -0.4406 -0.4953 -0.0884
   19TMC2     H  301   0.439   0.467  14.201 -0.6479  1.0433 -0.7611
   19TMC2    H1  302   0.317   0.087  14.060 -0.3870 -1.0096  1.5076
   19TMC2    H2  303   0.033   0.389  14.159 -0.7427  0.5137 -0.4013
   19TMC2    C7  304   0.053   0.129  14.086  0.2361  0.3297 -0.2006
   19TMC2    C8  305   0.193   0.560  14.246  0.0109 -0.5249  0.1680
   19TMC2    O1  306   0.077   0.010  14.056 -0.3739 -0.4061  0.2517
   19TMC2    O2  307   0.075   0.573  14.282 -0.3320  0.5351  0.1219
   19TMC2    O5  308   0.280   0.656  14.253 -0.3261 -0.4321 -0.2641
   19TMC2    H5  309   0.352   0.655  14.187  1.6533 -1.4058  1.8912
   20MPD2     C  310   0.797   0.108  14.166  1.4558  0.6841  0.3091
   20MPD2    C1  311   0.676   0.045  14.167  0.0329  0.1357 -0.6699
   20MPD2    C2  312   0.674   4.656  14.200 -0.0758 -0.5799  0.3331
   20MPD2    C3  313   0.790   4.582  14.214 -0.4900 -0.5075  0.2598
   20MPD2    C4  314   0.910   4.649  14.191 -0.2318  0.0733 -1.0773
   20MPD2    C5  315   0.907   0.039  14.178 -0.2571  0.3728  0.2199
   20MPD2     H  316   0.579   4.604  14.208 -0.1673  0.0248  3.2567
   20MPD2    H1  317   1.006   4.599  14.194  0.5371  1.4863 -2.3346
   20MPD2    H2  318   0.811   0.215  14.159 -2.9419  1.3238  1.1065
   20MPD2    H3  319   0.998   0.096  14.179 -0.1167  0.1180  2.0232
   20MPD2     N  320   0.791   4.447  14.241  0.1930 -0.1042  0.0262
   20MPD2    H5  321   0.881   4.401  14.245  1.9381  3.2797  0.3378
   20MPD2    N1  322   0.551   0.107  14.159 -0.1013 -0.2079  0.1087
   20MPD2    H7  323   0.468   0.050  14.172  0.6016 -1.7451 -2.2922
   21TMC2    C1  324   2.546   0.327  14.254  0.7564 -0.2638 -0.6650
   21TMC2    C2  325   2.676   0.289  14.241 -0.4221  0.1385 -0.5224
   21TMC2    C3  326   2.721   0.196  14.333  0.7330 -0.0152 -0.0210
   21TMC2    C4  327   2.468   0.287  14.352 -0.7185  0.1764 -0.6679
   21TMC2    C5  328   2.526   0.215  14.450 -0.3143  0.7323 -0.0074
   21TMC2    C6  329   2.652   0.165  14.445 -0.3475 -0.0497 -0.6110
   21TMC2     C  330   2.499   0.449  14.176 -0.3521  0.1321  0.5691
   21TMC2     O  331   2.480   0.444  14.059 -0.0500 -0.5070 -0.2889
   21TMC2     H  332   2.737   0.316  14.155 -2.1310  1.3697 -1.3349
   21TMC2    H1  333   2.372   0.335  14.369 -0.6911 -0.5098  1.4572
   21TMC2    H2  334   2.694   0.116  14.532  0.0302 -0.7443 -1.1864
   21TMC2    C7  335   2.461   0.213  14.582 -0.2783  0.6465 -0.4605
   21TMC2    C8  336   2.855   0.227  14.375 -0.1034  0.5872  0.9486
   21TMC2    O1  337   2.515   0.148  14.668  0.6450  0.1236 -0.1240
   21TMC2    O2  338   2.880   0.339  14.415 -0.4043  0.1281  0.0379
   21TMC2    O5  339   2.925   0.165  14.275  0.4262  0.5762 -0.7876
   21TMC2    H5  340   2.879   0.092  14.229 -0.4056  0.2699  0.5344
   22MPD2     C  341   2.572   0.664  14.634  0.6174  0.4485  0.0080
   22MPD2    C1  342   2.656   0.596  14.549 -0.1432 -1.0227 -0.1867
   22MPD2    C2  343   2.617   0.552  14.425  0.5977 -0.5008  0.7258
   22MPD2    C3  344   2.486   0.584  14.383 -0.2788 -0.0279  0.1908
   22MPD2    C4  345   2.405   0.657  14.465 -0.4947 -0.0519  0.8066
   22MPD2    C5  346   2.449   0.704  14.588 -0.9532  0.0016 -0.3204
   22MPD2     H  347   2.689   0.504  14.361  2.0869  0.7910  1.4129
   22MPD2    H1  348   2.316   0.702  14.423 -1.0429 -1.0901  0.8492
   22MPD2    H2  349   2.588   0.676  14.741 -1.1896  0.8322  0.2443
   22MPD2    H3  350   2.378   0.756  14.651  0.2418 -0.3220  1.2905
   22MPD2     N  351   2.434   0.539  14.258  0.0130 -0.5209 -0.2499
   22MPD2    H5  352   2.352   0.584  14.219 -0.4134 -1.2465 -0.1954
   22MPD2    N1  353   2.775   0.543  14.591 -0.1046 -0.5597  0.0520
   22MPD2    H7  354   2.824   0.475  14.533 -0.1974 -0.5987  0.0196
   23TMC2    C1  355   3.570   1.708  14.630 -0.7333  0.0584 -0.3488
   23TMC2    C2  356   3.566   1.778  14.513 -0.5454  0.0574 -0.3184
   23TMC2    C3  357   3.465   1.747  14.428  0.9174  0.2676 -0.0134
   23TMC2    C4  358   3.478   1.615  14.660  0.1145  0.1242  0.4032
   23TMC2    C5  359   3.374   1.590  14.575  0.1075  0.8056  0.2570
   23TMC2    C6  360   3.362   1.656  14.455 -0.3169 -1.0271 -0.5070
   23TMC2     C  361   3.686   1.716  14.712  0.1408 -0.6383  0.8732
   23TMC2     O  362   3.727   1.611  14.759  0.0541  0.0704  0.2349
   23TMC2     H  363   3.646   1.843  14.482  0.8233 -1.2005  0.5854
   23TMC2    H1  364   3.485   1.556  14.750 -1.6666 -0.1740  0.3425
   23TMC2    H2  365   3.296   1.621  14.377 -0.3099 -0.9363 -0.5539
   23TMC2    C7  366   3.263   1.506  14.626  0.7311  0.4262  0.6344
   23TMC2    C8  367   3.475   1.816  14.302 -0.2092  0.3421  0.3645
   23TMC2    O1  368   3.282   1.412  14.702  0.4641  0.1955  0.1258
   23TMC2    O2  369   3.483   1.938  14.301  0.4601  0.1762  0.3440
   23TMC2    O5  370   3.420   1.736  14.208  0.4224  0.1983 -0.6592
   23TMC2    H5  371   3.427   1.641  14.231  1.0815  0.7769  1.5284
   24MPD2     C  372   3.910   2.019  15.067 -0.5678 -0.4554 -0.0103
   24MPD2    C1  373   3.892   1.884  15.066  0.4250  0.3993 -0.1271
   24MPD2    C2  374   3.829   1.816  14.966 -0.2113  0.1043 -0.3804
   24MPD2    C3  375   3.777   1.892  14.868  0.3730 -0.0656 -0.6786
   24MPD2    C4  376   3.784   2.031  14.872 -0.2033 -0.4354  0.2546
   24MPD2    C5  377   3.853   2.096  14.964 -0.0877 -0.5653 -0.2518
   24MPD2     H  378   3.821   1.708  14.963  2.6280 -0.1329  0.8681
   24MPD2    H1  379   3.731   2.087  14.796 -0.5579 -0.3790  0.5462
   24MPD2    H2  380   3.967   2.064  15.147 -2.6201  1.3327  0.4296
   24MPD2    H3  381   3.862   2.204  14.961 -1.8268 -0.4284 -0.2410
   24MPD2     N  382   3.710   1.845  14.748 -0.0408  1.0254  0.1760
   24MPD2    H5  383   3.659   1.907  14.687  2.1371  1.1494 -1.4888
   24MPD2    N1  384   3.955   1.801  15.162 -0.1224 -0.0484  0.2198
   24MPD2    H7  385   3.952   1.702  15.138 -2.1061 -0.4221  2.0614
   25TMC2    C1  386   3.438   2.934  11.500  0.1834  0.2818  0.5457
   25TMC2    C2  387   3.531   2.849  11.562 -0.2059  0.5091 -0.1891
   25TMC2    C3  388   3.553   2.875  11.699  0.3161  0.1668 -0.8424
   25TMC2    C4  389   3.364   3.035  11.555 -0.2615  0.1917 -0.0385
   25TMC2    C5  390   3.397   3.057  11.692 -0.6588  0.0125  0.3991
   25TMC2    C6  391   3.488   2.972  11.762 -0.1081  0.5661 -0.3241
   25TMC2     C  392   3.398   2.887  11.368 -0.4371 -0.1361  0.2839
   25TMC2     O  393   3.488   2.850  11.292  0.0487  0.4328 -0.0783
   25TMC2     H  394   3.588   2.775  11.508  1.5433  0.0572  2.2510
   25TMC2    H1  395   3.287   3.091  11.503  0.9853 -0.4162 -2.5535
   25TMC2    H2  396   3.512   2.992  11.866  1.7851 -2.2695 -0.2195
   25TMC2    C7  397   3.337   3.174  11.757 -0.2137 -0.9460 -0.4105
   25TMC2    C8  398   3.664   2.828  11.771 -0.2770 -0.1450 -0.8985
   25TMC2    O1  399   3.222   3.198  11.731  0.4163 -0.1542  0.3163
   25TMC2    O2  400   3.674   2.820  11.894  0.2801  0.2529 -0.0646
   25TMC2    O5  401   3.760   2.795  11.683 -0.3427  0.2286  0.1137
   25TMC2    H5  402   3.742   2.837  11.596 -1.4132  1.7064  1.0642
   26MPD2     C  403   3.062   2.823  10.984  0.0974  0.1225 -0.4172
   26MPD2    C1  404   2.994   2.868  11.098 -1.0770  0.2133  0.3079
   26MPD2    C2  405   3.062   2.899  11.212  0.6553 -0.6220  0.7100
   26MPD2    C3  406   3.198   2.892  11.217 -0.8307 -0.2862 -0.3737
   26MPD2    C4  407   3.260   2.848  11.105 -0.7840 -0.1243  0.1016
   26MPD2    C5  408   3.199   2.812  10.988 -0.1823  0.1197  0.5156
   26MPD2     H  409   3.006   2.915  11.304 -0.5095 -3.1359  0.4247
   26MPD2    H1  410   3.367   2.826  11.106 -0.6261  0.6224 -0.6927
   26MPD2    H2  411   3.012   2.812  10.888 -0.5293 -0.4890 -0.0211
   26MPD2    H3  412   3.253   2.779  10.899 -0.1509  0.2219  0.4961
   26MPD2     N  413   3.265   2.913  11.343 -0.0879 -0.0753 -0.0870
   26MPD2    H5  414   3.211   2.945  11.423  3.0975 -0.8829  2.4092
   26MPD2    N1  415   2.851   2.873  11.103 -0.2445 -0.2785  0.1519
   26MPD2    H7  416   2.804   2.904  11.188  2.9651 -1.2287  2.2657
   27TMC2    C1  417   1.934   1.225  12.087  0.4839 -0.9564  0.0327
   27TMC2    C2  418   1.982   1.245  11.961 -0.2325  0.0714 -0.2519
   27TMC2    C3  419   2.025   1.372  11.925  0.0380  0.0980  0.1487
   27TMC2    C4  420   1.922   1.325  12.176  0.3078 -0.2653 -0.1636
   27TMC2    C5  421   1.969   1.446  12.138  0.2383 -0.4961  0.0287
   27TMC2    C6  422   2.022   1.473  12.013  0.3917  0.1602  0.3571
   27TMC2     C  423   1.878   1.099  12.111  0.4371 -0.2312 -0.0800
   27TMC2     O  424   1.936   1.007  12.053 -0.5408  0.1739 -0.3667
   27TMC2     H  425   1.976   1.166  11.886 -1.7700  1.5310 -1.6571
   27TMC2    H1  426   1.882   1.311  12.276 -0.0257 -2.7824 -0.6437
   27TMC2    H2  427   2.062   1.570  11.985  0.2838 -0.8292 -3.1845
   27TMC2    C7  428   1.978   1.551  12.235 -0.0117  0.0097  0.1331
   27TMC2    C8  429   2.030   1.394  11.787  0.0265  0.5172  0.0052
   27TMC2    O1  430   2.032   1.651  12.197 -0.4821  0.6866  0.1979
   27TMC2    O2  431   2.019   1.301  11.716 -0.2659  0.0166  0.5050
   27TMC2    O5  432   1.988   1.520  11.755  0.1260 -0.6739 -0.0901
   27TMC2    H5  433   1.946   1.568  11.830 -0.9728 -1.9851  0.1173
   28MPD2     C  434   1.578   0.827  12.406  0.6011 -0.4670 -0.1970
   28MPD2    C1  435   1.515   0.942  12.391 -0.4401 -0.2949 -0.3104
   28MPD2    C2  436   1.572   1.030  12.300 -0.1974  0.0577 -0.1824
   28MPD2    C3  437   1.691   1.001  12.230 -0.4563  0.8370  0.6830
   28MPD2    C4  438   1.750   0.873  12.249  0.3035 -0.0697  0.0998
   28MPD2    C5  439   1.692   0.788  12.337 -0.0357  0.4120  0.0413
   28MPD2     H  440   1.523   1.121  12.268 -1.3306 -0.7352 -0.6779
   28MPD2    H1  441   1.838   0.847  12.191  0.5466  1.1507 -0.0792
   28MPD2    H2  442   1.536   0.744  12.462 -0.8975  0.7336  0.4467
   28MPD2    H3  443   1.732   0.687  12.347 -2.4160 -0.2424  3.2109
   28MPD2     N  444   1.755   1.108  12.172  0.4109  0.1673  0.3572
   28MPD2    H5  445   1.718   1.200  12.189  0.4903  0.2507  0.0783
   28MPD2    N1  446   1.396   0.977  12.467 -0.2243  0.3005  0.1779
   28MPD2    H7  447   1.359   0.908  12.531  0.9493 -0.8164 -0.3368
   29TMC2    C1  448   1.503   3.335  14.286  0.5304 -0.4122  0.2852
   29TMC2    C2  449   1.623   3.314  14.347  0.4184  0.2890 -0.8927
   29TMC2    C3  450   1.672   3.412  14.432 -0.6411  0.7679 -0.3970
   29TMC2    C4  451   1.435   3.455  14.306  0.2576 -0.5108  0.4580
   29TMC2    C5  452   1.496   3.559  14.371 -0.4175 -0.2403 -0.5812
   29TMC2    C6  453   1.609   3.538  14.438 -0.2018 -0.2667 -0.1815
   29TMC2     C  454   1.441   3.209  14.237 -0.3772  0.0471  0.1436
   29TMC2     O  455   1.502   3.106  14.255  0.1841  0.0142 -0.2935
   29TMC2     H  456   1.671   3.218  14.330  0.1745 -0.3340  1.8944
   29TMC2    H1  457   1.337   3.472  14.263 -0.3761 -2.5603  1.0739
   29TMC2    H2  458   1.663   3.619  14.485  0.8137 -1.1699  0.1983
   29TMC2    C7  459   1.436   3.687  14.374 -0.3928 -0.2417 -0.4578
   29TMC2    C8  460   1.811   3.406  14.449  0.7014  0.3443 -0.5751
   29TMC2    O1  461   1.317   3.684  14.358  0.0871  0.0068  0.3573
   29TMC2    O2  462   1.884   3.486  14.390  0.1512 -0.7016  0.2419
   29TMC2    O5  463   1.837   3.273  14.473 -0.1204 -0.1184  0.1271
   29TMC2    H5  464   1.758   3.236  14.518 -0.1766 -0.8593 -0.5759
   30MPD2     C  465   1.097   2.947  13.959 -0.3099 -0.3656  0.4233
   30MPD2    C1  466   1.197   2.906  14.044 -0.9742 -0.1381 -0.4451
   30MPD2    C2  467   1.276   2.996  14.106 -0.1866  0.3981 -0.5765
   30MPD2    C3  468   1.257   3.140  14.090  0.4421 -0.2778  0.8495
   30MPD2    C4  469   1.162   3.180  14.002 -0.2534 -0.7651  0.1465
   30MPD2    C5  470   1.089   3.082  13.931 -0.4996  0.5987 -0.1284
   30MPD2     H  471   1.351   2.953  14.171 -1.7125 -0.1694  0.8059
   30MPD2    H1  472   1.148   3.285  13.976  0.7229 -0.1648  2.0537
   30MPD2    H2  473   1.038   2.885  13.892  0.0382 -0.9319  0.6439
   30MPD2    H3  474   1.018   3.124  13.861  0.6671  2.7847  0.0048
   30MPD2     N  475   1.329   3.237  14.161  0.2133  0.8259  0.0638
   30MPD2    H5  476   1.296   3.332  14.149  2.7691  1.5706 -1.0698
   30MPD2    N1  477   1.220   2.771  14.069 -0.0239  0.6114  0.4429
   30MPD2    H7  478   1.299   2.755  14.130 -0.6186 -0.0074  1.0544
   31TMC2    C1  479   4.035   2.350  15.304 -0.0025  1.3230  0.2796
   31TMC2    C2  480   3.901   2.334  15.308  0.1948 -0.2465 -0.5701
   31TMC2    C3  481   3.843   2.323  15.429 -0.6561 -0.7154 -0.0596
   31TMC2    C4  482   4.111   2.327  15.419 -0.3124  0.5381 -0.5395
   31TMC2    C5  483   4.054   2.304  15.540  0.0219  0.8308  0.0803
   31TMC2    C6  484   3.913   2.303  15.549 -0.1740  0.3143 -0.5332
   31TMC2     C  485   4.093   2.426  15.197 -0.1420  0.5918 -0.0290
   31TMC2     O  486   4.039   2.410  15.086  0.6835 -0.4903  0.3257
   31TMC2     H  487   3.843   2.348  15.218 -0.7066  0.1501  0.0697
   31TMC2    H1  488   4.219   2.333  15.421 -0.2286 -1.1148 -0.2383
   31TMC2    H2  489   3.858   2.276  15.639  2.8143  0.1509  1.2570
   31TMC2    C7  490   4.141   2.256  15.644  0.2750  0.1504  0.3357
   31TMC2    C8  491   3.696   2.342  15.455 -0.0087 -0.2113 -0.3624
   31TMC2    O1  492   4.256   2.223  15.619 -0.1079 -0.2280 -0.0260
   31TMC2    O2  493   3.629   2.304  15.550  0.2936  0.0704  0.2773
   31TMC2    O5  494   3.648   2.411  15.353 -0.2224  0.1801 -0.0439
   31TMC2    H5  495   3.720   2.459  15.307  0.0678 -0.4248 -0.2212
   32MPD2     C  496   4.359   2.832  15.011 -0.3606  0.3768  0.1341
   32MPD2    C1  497   4.250   2.761  14.967  0.5686  0.6142 -0.1565
   32MPD2    C2  498   4.190   2.653  15.041 -0.3922  0.7861  0.3810
   32MPD2    C3  499   4.243   2.617  15.162 -0.0572 -0.2922  1.0098
   32MPD2    C4  500   4.357   2.692  15.207  0.0070 -0.1421 -0.2822
   32MPD2    C5  501   4.414   2.794  15.131  0.5225  0.3820  0.9314
   32MPD2     H  502   4.102   2.603  15.002  0.1022  1.7726 -2.0301
   32MPD2    H1  503   4.394   2.658  15.303  0.8700  0.6037 -0.3506
   32MPD2    H2  504   4.404   2.916  14.959  1.6724 -0.2498  0.8719
   32MPD2    H3  505   4.506   2.840  15.165  2.1368 -3.2218  1.3724
   32MPD2     N  506   4.186   2.518  15.244  0.2706 -0.8127  0.0045
   32MPD2    H5  507   4.211   2.519  15.342  2.3140  1.0055 -0.5183
   32MPD2    N1  508   4.201   2.797  14.838 -0.7435 -0.8607  0.2513
   32MPD2    H7  509   4.256   2.874  14.801 -1.9456  0.1225  0.5123
   33TMC2    C1  510   3.997   0.441  10.432  0.8537 -0.3094 -0.9061
   33TMC2    C2  511   4.099   0.355  10.422 -1.1488  0.5159  0.2196
   33TMC2    C3  512   4.219   0.413  10.383  0.5424  0.5997  0.7355
   33TMC2    C4  513   4.002   0.572  10.387  1.2610 -0.2133 -0.0733
   33TMC2    C5  514   4.124   0.622  10.342  0.4735 -0.0060  1.0628
   33TMC2    C6  515   4.236   0.539  10.340 -0.2239  0.2974 -0.9351
   33TMC2     C  516   3.881   0.389  10.507 -0.0429 -0.2857 -0.2803
   33TMC2     O  517   3.905   0.287  10.577  0.3535  0.4759  0.7498
   33TMC2     H  518   4.092   0.253  10.456  0.3477  0.4418  0.2732
   33TMC2    H1  519   3.920   0.642  10.400  2.9031  2.0728 -2.0367
   33TMC2    H2  520   4.322   0.571  10.283 -0.5187  0.5825 -1.2158
   33TMC2    C7  521   4.133   0.742  10.264  0.4849 -0.0852  0.3895
   33TMC2    C8  522   4.311   0.317  10.334 -0.2472 -0.5998 -0.1546
   33TMC2    O1  523   4.226   0.774  10.190  0.5148  0.1013 -0.6923
   33TMC2    O2  524   4.267   0.215  10.290 -0.1986  0.1024  0.4116
   33TMC2    O5  525   4.426   0.369  10.289 -0.2041  0.3358  0.0593
   33TMC2    H5  526   4.452   0.460  10.315  0.3157  0.0587  0.5229
   34MPD2     C  527   3.384   0.251  10.529  0.4087 -0.7695 -0.1069
   34MPD2    C1  528   3.497   0.212  10.599  0.9761  0.3703 -0.0265
   34MPD2    C2  529   3.621   0.266  10.575 -0.2319 -0.0611 -0.3951
   34MPD2    C3  530   3.636   0.360  10.481  0.0996  0.5160  0.3387
   34MPD2    C4  531   3.529   0.393  10.402  0.1277  0.4050 -0.1403
   34MPD2    C5  532   3.403   0.347  10.431  0.0202 -0.1878  0.5956
   34MPD2     H  533   3.701   0.236  10.641 -1.0101 -2.8803 -0.7277
   34MPD2    H1  534   3.528   0.475  10.331 -1.0683  2.8097  2.6692
   34MPD2    H2  535   3.295   0.192  10.546 -0.4760  0.8514  0.8971
   34MPD2    H3  536   3.314   0.372  10.373  1.6938  0.6884 -1.5807
   34MPD2     N  537   3.761   0.429  10.452 -0.4313 -0.1366 -0.0144
   34MPD2    H5  538   3.763   0.493  10.373 -2.6789 -0.4341 -0.3139
   34MPD2    N1  539   3.481   0.114  10.692 -0.0554  0.4405  0.1408
   34MPD2    H7  540   3.389   0.073  10.702  0.3037  0.2933  2.9174
   35TMC2    C1  541   0.145   1.357  11.800 -0.2100  0.1569 -0.2836
   35TMC2    C2  542   0.017   1.367  11.742 -0.1557 -0.4462  0.0500
   35TMC2    C3  543   4.664   1.328  11.827  0.3669 -0.6235  0.1354
   35TMC2    C4  544   0.172   1.291  11.915  0.1489  0.1841  0.1415
   35TMC2    C5  545   0.068   1.253  11.990 -0.1183 -0.1335  0.3285
   35TMC2    C6  546   4.680   1.277  11.951 -0.4610  0.5372  0.0875
   35TMC2     C  547   0.253   1.412  11.723  0.5459 -0.4363  1.0452
   35TMC2     O  548   0.220   1.476  11.623  0.0913  0.8243 -0.4506
   35TMC2     H  549   4.743   1.419  11.649  1.3154 -2.6217 -1.4698
   35TMC2    H1  550   0.272   1.265  11.949  0.1376 -0.0183  0.0209
   35TMC2    H2  551   4.592   1.261  12.013 -1.1615  0.9487 -0.8030
   35TMC2    C7  552   0.099   1.158  12.085  0.4041  0.4573 -0.4246
   35TMC2    C8  553   4.547   1.282  11.757 -0.7058 -0.2492 -0.1850
   35TMC2    O1  554   0.217   1.143  12.112 -0.1420 -0.0311  0.0117
   35TMC2    O2  555   4.445   1.260  11.818  0.1304 -0.1597 -0.5999
   35TMC2    O5  556   4.603   1.182  11.692 -0.3996 -0.1301  0.1920
   35TMC2    H5  557   4.686   1.205  11.646  0.2030 -2.3582  0.1634
   36MPD2     C  558   0.737   1.477  11.603  0.4279  0.1523  0.5674
   36MPD2    C1  559   0.727   1.424  11.725  0.2597 -0.1687 -0.1257
   36MPD2    C2  560   0.608   1.391  11.777  0.4783 -0.7467 -0.3130
   36MPD2    C3  561   0.496   1.429  11.714 -0.0923 -0.6431 -0.2560
   36MPD2    C4  562   0.504   1.503  11.595  0.3983 -0.1721  0.3029
   36MPD2    C5  563   0.628   1.515  11.529 -0.3071 -0.2460 -0.1853
   36MPD2     H  564   0.603   1.345  11.875 -3.5669  0.4730  0.0735
   36MPD2    H1  565   0.415   1.532  11.540  0.4198  0.3843  0.5733
   36MPD2    H2  566   0.834   1.496  11.558  0.3814  2.0378  1.2525
   36MPD2    H3  567   0.651   1.549  11.429 -1.7999  1.9238  0.1905
   36MPD2     N  568   0.382   1.375  11.770 -0.2250 -0.1098 -0.3099
   36MPD2    H5  569   0.396   1.318  11.852 -0.0990 -0.3401 -0.4935
   36MPD2    N1  570   0.848   1.396  11.787 -0.4758  0.0552 -0.3458
   36MPD2    H7  571   0.932   1.427  11.740 -0.7502  0.8564 -0.3132
   37TMC2    C1  572   2.626   1.777  12.105 -0.0115  0.9471 -0.1243
   37TMC2    C2  573   2.546   1.883  12.070  0.5304 -0.1420  0.8688
   37TMC2    C3  574   2.553   1.924  11.935 -0.3019  0.6170  0.2469
   37TMC2    C4  575   2.718   1.713  12.019 -0.0720 -0.1569 -0.2402
   37TMC2    C5  576   2.725   1.772  11.888 -0.0374  0.9607 -0.9000
   37TMC2    C6  577   2.650   1.884  11.845  0.1757 -0.2414 -0.3580
   37TMC2     C  578   2.618   1.733  12.245  0.1420 -0.2939  0.0534
   37TMC2     O  579   2.574   1.817  12.320 -0.0358  0.0113 -0.3241
   37TMC2     H  580   2.472   1.929  12.134  1.9820  1.5035  1.3684
   37TMC2    H1  581   2.774   1.626  12.051  1.4412  0.8341 -0.1685
   37TMC2    H2  582   2.660   1.935  11.749 -0.8820 -1.0202 -0.8802
   37TMC2    C7  583   2.833   1.718  11.802  0.1298 -0.6138  0.3425
   37TMC2    C8  584   2.453   2.026  11.892 -0.0521  0.3607 -0.1335
   37TMC2    O1  585   2.911   1.647  11.860  0.0850  0.2338  0.4452
   37TMC2    O2  586   2.474   2.111  11.806 -0.2538 -0.3603 -0.8809
   37TMC2    O5  587   2.341   2.034  11.971  0.3738 -0.2111 -0.0476
   37TMC2    H5  588   2.332   1.959  12.034  2.3189 -0.8667 -0.5684
   38MPD2     C  589   2.624   1.396  12.633  0.1048 -0.7274  0.3820
   38MPD2    C1  590   2.646   1.330  12.512 -0.1578 -0.6289  0.5678
   38MPD2    C2  591   2.649   1.395  12.390 -0.3835 -0.7009 -0.4792
   38MPD2    C3  592   2.623   1.530  12.387  0.2265 -0.2632  0.0927
   38MPD2    C4  593   2.573   1.595  12.506  0.1998  0.7408 -0.2632
   38MPD2    C5  594   2.582   1.524  12.627  0.3447 -0.1995  0.7702
   38MPD2     H  595   2.669   1.350  12.294 -2.9715 -0.6526 -1.0609
   38MPD2    H1  596   2.540   1.698  12.515  0.6733  0.5502  3.6739
   38MPD2    H2  597   2.625   1.355  12.734 -2.9577 -0.1719  0.6350
   38MPD2    H3  598   2.548   1.572  12.718  1.0487  1.9466 -0.0799
   38MPD2     N  599   2.633   1.596  12.263  0.6962  0.7706  0.7694
   38MPD2    H5  600   2.649   1.546  12.177  1.0247  2.0452  0.0858
   38MPD2    N1  601   2.658   1.190  12.516 -0.0538 -0.2364  0.4467
   38MPD2    H7  602   2.655   1.139  12.429 -1.0951 -0.9257  0.8864
   39TMC2    C1  603   1.530   3.411   1.356  0.1984  0.5714  0.2715
   39TMC2    C2  604   1.516   3.520   1.437 -0.4618 -0.6178  0.2873
   39TMC2    C3  605   1.624   3.579   1.496  0.8805  0.1944  0.0751
   39TMC2    C4  606   1.649   3.357   1.330  0.9947  0.3073 -0.0960
   39TMC2    C5  607   1.758   3.421   1.397  0.0424 -0.4777 -0.3389
   39TMC2    C6  608   1.747   3.540   1.467 -0.2220  0.0874 -0.5368
   39TMC2     C  609   1.411   3.357   1.292 -1.0390  0.5939 -0.1985
   39TMC2     O  610   1.308   3.425   1.322 -0.5746 -0.3643  0.3830
   39TMC2     H  611   1.417   3.561   1.455  0.7409  2.1757  0.6634
   39TMC2    H1  612   1.668   3.289   1.248  0.4767 -0.5903  0.5313
   39TMC2    H2  613   1.822   3.608   1.505  0.4202 -0.1805 -1.3179
   39TMC2    C7  614   1.886   3.382   1.340 -0.7765 -0.1237  0.3831
   39TMC2    C8  615   1.604   3.705   1.551 -0.1990 -0.0343  0.2459
   39TMC2    O1  616   1.892   3.274   1.291 -0.3819 -0.0971 -0.2085
   39TMC2    O2  617   1.696   3.790   1.547  0.4174  0.0780 -0.3801
   39TMC2    O5  618   1.492   3.710   1.627 -0.3079  0.1443 -0.0902
   39TMC2    H5  619   1.434   3.631   1.629 -1.2120  0.7594 -1.7919
   40MPD2     C  620   1.376   3.092   1.031  0.0419  0.0690  0.3503
   40MPD2    C1  621   1.330   3.198   1.117  0.2772 -0.3502 -0.0776
   40MPD2    C2  622   1.197   3.233   1.125 -0.2901  0.7918  0.0482
   40MPD2    C3  623   1.111   3.157   1.048  0.5984  0.2570 -0.1855
   40MPD2    C4  624   1.158   3.066   0.953  0.2455  0.2493  0.2494
   40MPD2    C5  625   1.288   3.030   0.949 -0.3560  0.5504 -0.1038
   40MPD2     H  626   1.156   3.296   1.203 -0.3997  3.7132 -2.3673
   40MPD2    H1  627   1.082   3.010   0.900  0.7859 -0.9014  0.6862
   40MPD2    H2  628   1.478   3.057   1.030  0.7799  2.2959 -1.1043
   40MPD2    H3  629   1.329   2.959   0.878 -1.0721  1.4257 -1.3822
   40MPD2     N  630   0.970   3.160   1.054 -0.1561 -0.5071  0.3313
   40MPD2    H5  631   0.917   3.087   1.010  1.0431 -0.9576 -0.3743
   40MPD2    N1  632   1.433   3.253   1.201 -0.0146 -0.1037  1.2283
   40MPD2    H7  633   1.526   3.216   1.182 -0.0909  0.3577 -0.0185
   41TMC2    C1  634   0.312   1.023  13.806  0.0874  0.1944 -0.2685
   41TMC2    C2  635   0.365   1.140  13.763  0.0379 -0.4703 -0.1572
   41TMC2    C3  636   0.342   1.172  13.625 -0.1949  0.9688  0.3105
   41TMC2    C4  637   0.236   0.934  13.733  0.5171  0.1846  0.8193
   41TMC2    C5  638   0.227   0.962  13.591  0.3380 -0.1987 -0.3319
   41TMC2    C6  639   0.277   1.084  13.538  0.0418  0.4786 -0.3416
   41TMC2     C  640   0.331   0.998  13.940  0.1045 -0.3783 -0.2250
   41TMC2     O  641   0.377   0.888  13.957 -0.3249 -0.5880  0.3792
   41TMC2     H  642   0.426   1.199  13.830  1.5225 -0.7614 -1.2576
   41TMC2    H1  643   0.191   0.843  13.770  2.3035 -0.5920  1.0477
   41TMC2    H2  644   0.246   1.121  13.441  0.4343 -3.3019 -1.9068
   41TMC2    C7  645   0.135   0.875  13.516 -0.4636  0.4155 -0.7629
   41TMC2    C8  646   0.405   1.288  13.560  0.2589  0.1561 -0.4245
   41TMC2    O1  647   0.076   0.789  13.581  0.5425 -0.5926 -0.3448
   41TMC2    O2  648   0.430   1.282  13.443  0.2287  0.4294 -0.6424
   41TMC2    O5  649   0.410   1.400  13.638 -0.3144 -0.4567 -0.0023
   41TMC2    H5  650   0.366   1.379  13.723 -0.5283 -1.0450 -0.2531
   42MPD2     C  651   0.289   0.970  14.231 -0.2757 -0.0602 -0.7310
   42MPD2    C1  652   0.250   1.082  14.168 -0.1161  0.5278 -0.0499
   42MPD2    C2  653   0.167   1.176  14.238 -0.0742  0.5706 -0.2563
   42MPD2    C3  654   0.143   1.164  14.372  0.6656 -0.7754 -0.7258
   42MPD2    C4  655   0.190   1.050  14.430  0.1787 -0.2969 -0.3536
   42MPD2    C5  656   0.266   0.953  14.363 -0.3072  0.3184  0.4489
   42MPD2     H  657   0.128   1.259  14.180 -1.1434 -1.5170 -2.5229
   42MPD2    H1  658   0.161   1.026  14.532  1.2422 -0.5855 -0.1198
   42MPD2    H2  659   0.357   0.901  14.181  0.7467 -0.2633  0.9431
   42MPD2    H3  660   0.290   0.865  14.421 -0.0608  0.1883  0.1471
   42MPD2     N  661   0.087   1.263  14.463 -0.3341  0.0139  0.3268
   42MPD2    H5  662   0.098   1.237  14.561  0.7714  0.2663  0.2668
   42MPD2    N1  663   0.279   1.097  14.030 -0.0004 -0.0899 -0.7231
   42MPD2    H7  664   0.247   1.181  13.983  0.1023  0.2320 -0.2263
   43TMC2    C1  665   1.657   4.733   0.693  0.6959  0.2507 -0.3416
   43TMC2    C2  666   1.566   0.088   0.687  0.3806  0.3102 -0.4413
   43TMC2    C3  667   1.511   0.138   0.800 -0.5375  0.5432 -0.6821
   43TMC2    C4  668   1.714   4.696   0.816  0.5173  0.3146 -0.0680
   43TMC2    C5  669   1.661   0.007   0.931 -0.8847 -0.2459  0.6913
   43TMC2    C6  670   1.552   0.095   0.924 -0.2331  0.2315  0.4587
   43TMC2     C  671   1.686   4.660   0.566  0.2978  0.6215 -0.0768
   43TMC2     O  672   1.768   4.569   0.576  0.1210  0.4516 -0.2268
   43TMC2     H  673   1.540   0.137   0.593  1.6844  1.0579 -0.4060
   43TMC2    H1  674   1.780   4.611   0.820 -2.0337 -1.7302 -1.4952
   43TMC2    H2  675   1.507   0.130   1.016  1.4377  2.9932  0.2369
   43TMC2    C7  676   1.694   4.687   1.053  0.3268 -0.0031  0.2365
   43TMC2    C8  677   1.412   0.240   0.801 -0.2924 -0.0602  0.0483
   43TMC2    O1  678   1.711   4.564   1.048  0.4971  0.0374  0.6070
   43TMC2    O2  679   1.393   0.316   0.899 -0.3912 -0.2474 -0.3746
   43TMC2    O5  680   1.350   0.257   0.680 -0.1629  0.1780  0.5186
   43TMC2    H5  681   1.372   0.196   0.607  0.4335  1.1173 -0.0891
   44MPD2     C  682   1.637   4.537   0.063 -0.8979 -1.0066  0.0072
   44MPD2    C1  683   1.706   4.473   0.172 -0.2098 -0.1095 -0.0822
   44MPD2    C2  684   1.689   4.521   0.302  0.0985  0.0820  0.5186
   44MPD2    C3  685   1.612   4.631   0.330 -0.5739 -0.2994  0.3072
   44MPD2    C4  686   1.541   4.686   0.227 -0.4152 -0.7678 -0.1917
   44MPD2    C5  687   1.553   4.646   0.089 -0.1955  0.4541  0.5432
   44MPD2     H  688   1.738   4.476   0.387 -0.7544  1.9571  2.0013
   44MPD2    H1  689   1.465   0.016   0.250  0.7857 -0.6047  3.3603
   44MPD2    H2  690   1.634   4.504  17.732 -2.8766  0.4193 -0.4028
   44MPD2    H3  691   1.496   4.699   0.013  1.0162  0.6333 -0.2413
   44MPD2     N  692   1.610   4.698   0.455  0.2597 -0.8954  0.0087
   44MPD2    H5  693   1.533   0.019   0.473 -0.0065 -0.8140 -1.4504
   44MPD2    N1  694   1.778   4.349   0.155 -0.8168  0.5203  0.3125
   44MPD2    H7  695   1.823   4.308   0.237 -0.8930  0.1548  0.1718
   45TMC2    C1  696   1.804   2.353   9.802  0.1640  0.2526  0.2754
   45TMC2    C2  697   1.683   2.379   9.750 -0.2529  0.1949  0.5935
   45TMC2    C3  698   1.670   2.489   9.672  0.1578  0.1595  0.4577
   45TMC2    C4  699   1.908   2.437   9.782 -0.2168  0.1919  1.1795
   45TMC2    C5  700   1.890   2.554   9.710  0.1483 -0.1688  0.1058
   45TMC2    C6  701   1.772   2.576   9.645  0.1392  0.0306 -0.1528
   45TMC2     C  702   1.826   2.233   9.886  0.1022  0.8646 -0.4607
   45TMC2     O  703   1.907   2.252   9.974 -0.4778 -0.4457 -0.4356
   45TMC2     H  704   1.595   2.322   9.778  1.2705 -1.2689  2.4014
   45TMC2    H1  705   1.998   2.420   9.839 -0.9450  0.9526  2.5702
   45TMC2    H2  706   1.750   2.668   9.592 -1.5189  0.5069  1.3478
   45TMC2    C7  707   1.989   2.655   9.731  0.8035  0.1355 -0.2755
   45TMC2    C8  708   1.541   2.511   9.616  0.1572  0.1930  0.0201
   45TMC2    O1  709   2.052   2.662   9.835  0.8189  0.2205  0.1556
   45TMC2    O2  710   1.502   2.620   9.575  0.0313 -0.3274  0.1112
   45TMC2    O5  711   1.514   2.394   9.566 -0.1623  0.0496  0.4768
   45TMC2    H5  712   1.581   2.325   9.587  0.6180  0.9581  0.9634
   46MPD2     C  713   1.849   1.956   9.993 -0.2124  0.0609  0.0920
   46MPD2    C1  714   1.753   2.002   9.905 -0.0814  0.2381 -0.4457
   46MPD2    C2  715   1.650   1.916   9.859 -0.6694 -0.9267  0.4222
   46MPD2    C3  716   1.643   1.782   9.906  0.5428  0.3036 -0.3060
   46MPD2    C4  717   1.744   1.734   9.983 -0.0511  0.1706 -0.0699
   46MPD2    C5  718   1.841   1.823  10.027  0.5716  0.0023 -0.4305
   46MPD2     H  719   1.575   1.941   9.785  1.3408  1.1620 -0.9141
   46MPD2    H1  720   1.754   1.632  10.020 -0.6748  0.4137  0.7559
   46MPD2    H2  721   1.926   2.019  10.035 -1.6930  0.8791  1.5487
   46MPD2    H3  722   1.916   1.794  10.100 -0.0456 -2.5353 -0.8328
   46MPD2     N  723   1.529   1.705   9.873 -0.8507  0.8953 -0.5828
   46MPD2    H5  724   1.462   1.757   9.816 -0.1864  1.9997 -0.3493
   46MPD2    N1  725   1.747   2.129   9.849  0.1727 -0.8039  0.1306
   46MPD2    H7  726   1.690   2.142   9.766 -0.7080 -1.5285  0.6240
   47TMC2    C1  727   4.332   3.127   9.889  0.1981  0.1087 -0.8196
   47TMC2    C2  728   4.287   3.202   9.993  0.0228 -0.0573  0.0757
   47TMC2    C3  729   4.171   3.159  10.052 -0.0376  0.6912  0.2170
   47TMC2    C4  730   4.268   3.019   9.837  0.3676  0.6878 -0.1730
   47TMC2    C5  731   4.158   2.972   9.913 -0.0562 -0.1481 -0.8441
   47TMC2    C6  732   4.106   3.047  10.013  0.3973  0.4634 -0.5105
   47TMC2     C  733   4.475   3.128   9.862 -0.3303 -0.2456  0.2948
   47TMC2     O  734   4.532   3.231   9.889  0.1348  0.4555 -0.1189
   47TMC2     H  735   4.330   3.298  10.015  0.9872 -0.0786 -1.7100
   47TMC2    H1  736   4.309   2.971   9.748  0.7578 -0.8265  0.8196
   47TMC2    H2  737   4.008   3.032  10.059  2.3108  0.2422  3.4842
   47TMC2    C7  738   4.084   2.866   9.850 -0.0897 -0.9326  0.1272
   47TMC2    C8  739   4.127   3.231  10.172  0.1874  0.3647 -0.7700
   47TMC2    O1  740   4.123   2.830   9.739 -0.7408  0.3387  0.2072
   47TMC2    O2  741   4.008   3.246  10.209  0.4574 -0.3597 -0.6307
   47TMC2    O5  742   4.234   3.260  10.247 -0.2462  0.4958 -0.0472
   47TMC2    H5  743   4.316   3.222  10.208  0.1787  2.2221 -0.8407
   48MPD2     C  744   0.022   3.080   9.813  0.3823  0.3167  0.6460
   48MPD2    C1  745   4.668   2.983   9.819 -0.1872 -0.4008  0.3238
   48MPD2    C2  746   4.710   2.849   9.816  0.0007 -0.3582  0.0112
   48MPD2    C3  747   0.093   2.808   9.794  0.0069 -0.4237 -0.0044
   48MPD2    C4  748   0.185   2.906   9.772  0.4018 -0.2191  0.5910
   48MPD2    C5  749   0.150   3.036   9.788  0.0338  0.1423  0.2422
   48MPD2     H  750   4.639   2.767   9.819  0.1511 -0.4711  0.5511
   48MPD2    H1  751   0.290   2.895   9.749  0.2498  0.3279 -0.3620
   48MPD2    H2  752   0.009   3.187   9.822 -0.5546  0.4091 -1.9046
   48MPD2    H3  753   0.226   3.111   9.775  0.1961 -0.0622  0.0093
   48MPD2     N  754   0.120   2.673   9.782 -0.2295 -0.2778  0.5535
   48MPD2    H5  755   0.038   2.613   9.783  0.5795 -1.4138 -2.1261
   48MPD2    N1  756   4.528   3.007   9.838 -0.2427  0.9810 -0.5079
   48MPD2    H7  757   4.468   2.926   9.832 -1.8439  2.2500 -1.5592
   49TMC2    C1  758   2.929   4.023  10.480  0.1045 -0.2030 -0.2591
   49TMC2    C2  759   2.926   3.980  10.349  0.0627 -0.5245 -0.2637
   49TMC2    C3  760   2.908   3.848  10.327  0.5372  0.0873  0.1638
   49TMC2    C4  761   2.919   3.940  10.589 -0.4169  0.3906  0.4249
   49TMC2    C5  762   2.922   3.807  10.558  0.2984 -0.3370  0.2600
   49TMC2    C6  763   2.905   3.759  10.431 -0.0571 -0.0089  0.2379
   49TMC2     C  764   2.905   4.167  10.507 -0.6045  0.9060  0.3272
   49TMC2     O  765   2.874   4.234  10.406  0.0393  0.1481 -0.4109
   49TMC2     H  766   2.928   4.055  10.270 -0.5859  0.7926  0.9766
   49TMC2    H1  767   2.922   3.981  10.690  1.7505 -0.3230  0.6500
   49TMC2    H2  768   2.908   3.653  10.410  1.1429 -0.1714  1.2432
   49TMC2    C7  769   2.911   3.725  10.676 -0.2127 -0.2294 -0.0007
   49TMC2    C8  770   2.802   3.811  10.236 -0.2369 -0.3845  0.1156
   49TMC2    O1  771   2.902   3.781  10.785  0.2141  0.1142  0.0577
   49TMC2    O2  772   2.722   3.721  10.263 -0.1147 -0.7195 -0.0317
   49TMC2    O5  773   2.839   3.849  10.114 -0.3443 -0.2231 -0.4016
   49TMC2    H5  774   2.921   3.901  10.123 -1.2831  1.1516  0.1343
   50MPD2     C  775   2.875   4.449  10.592 -0.1257  1.1432  0.3354
   50MPD2    C1  776   2.933   4.354  10.670  0.0090  0.0185 -0.1078
   50MPD2    C2  777   2.966   4.392  10.801 -0.5206  0.2939 -0.2688
   50MPD2    C3  778   2.964   4.520  10.847 -0.5861  0.1735  0.1398
   50MPD2    C4  779   2.909   4.612  10.763  0.4267 -0.1484 -0.4383
   50MPD2    C5  780   2.855   4.580  10.638 -0.2937  0.3234 -0.0887
   50MPD2     H  781   2.994   4.310  10.868 -2.4669 -0.1230  0.0278
   50MPD2    H1  782   2.893   4.716  10.792  1.6318  0.7198 -2.9128
   50MPD2    H2  783   2.852   4.436  10.486  1.0786 -0.3437  0.2503
   50MPD2    H3  784   2.794   4.647  10.579  0.3353  1.0482  0.0921
   50MPD2     N  785   2.996   4.560  10.983 -0.9197  0.0099 -0.3579
   50MPD2    H5  786   2.973   4.657  11.006 -2.2973 -0.0136 -1.6000
   50MPD2    N1  787   2.952   4.217  10.630  0.0283 -0.3795  0.0832
   50MPD2    H7  788   2.981   4.151  10.702 -0.3426 -0.0986  0.4897
   51TMC2    C1  789   3.487   2.279   0.692 -0.4299 -0.0826  0.2325
   51TMC2    C2  790   3.349   2.289   0.667  0.0097 -0.9942 -0.4113
   51TMC2    C3  791   3.302   2.427   0.673  0.2986 -0.2752  0.0542
   51TMC2    C4  792   3.555   2.390   0.728 -0.1402 -0.7779 -0.5952
   51TMC2    C5  793   3.498   2.515   0.742 -0.1312  0.1388 -0.3889
   51TMC2    C6  794   3.369   2.532   0.712  0.0987  0.1263  0.2185
   51TMC2     C  795   3.554   2.150   0.669 -1.2202  0.5002  0.4127
   51TMC2     O  796   3.676   2.151   0.668 -0.3864 -0.4990 -0.5213
   51TMC2     H  797   3.281   2.209   0.640 -0.9985  0.6775 -2.8973
   51TMC2    H1  798   3.662   2.374   0.737  0.1886  1.5114 -0.5168
   51TMC2    H2  799   3.321   2.629   0.708  2.5460  1.0841 -4.9207
   51TMC2    C7  800   3.571   2.640   0.728 -0.5993  0.0921  0.4991
   51TMC2    C8  801   3.160   2.445   0.677 -0.0665  0.2340 -0.5404
   51TMC2    O1  802   3.531   2.736   0.665 -0.8172 -0.1319  0.0475
   51TMC2    O2  803   3.113   2.551   0.715  0.2672 -0.6843 -0.1532
   51TMC2    O5  804   3.101   2.338   0.620 -0.8777  0.6494  0.4507
   51TMC2    H5  805   3.158   2.286   0.559  1.4577  1.0664  2.2706
   52MPD2     C  806   3.544   1.647   0.541  0.4188  0.4328 -0.2180
   52MPD2    C1  807   3.652   1.738   0.539  0.0651 -0.3473  0.0622
   52MPD2    C2  808   3.620   1.872   0.570  0.4815 -0.0918 -0.0653
   52MPD2    C3  809   3.496   1.916   0.613 -0.0036 -0.1323 -0.2622
   52MPD2    C4  810   3.394   1.830   0.596 -0.2468  0.2400  0.4516
   52MPD2    C5  811   3.419   1.694   0.559 -0.0261  0.5256  0.0962
   52MPD2     H  812   3.704   1.940   0.571 -0.9170  1.6268 -0.7661
   52MPD2    H1  813   3.291   1.862   0.602 -0.3743 -0.2679  1.0127
   52MPD2    H2  814   3.556   1.546   0.502 -1.5026  0.8526 -1.9002
   52MPD2    H3  815   3.329   1.637   0.539  1.4924 -1.6359 -0.4669
   52MPD2     N  816   3.464   2.047   0.661  0.4457  0.1116 -0.2471
   52MPD2    H5  817   3.366   2.067   0.677  0.5225  0.3110 -0.0278
   52MPD2    N1  818   3.790   1.706   0.514  0.2583 -0.1379 -0.9693
   52MPD2    H7  819   3.854   1.784   0.509 -1.9742  1.6584 -1.5658
   53TMC2    C1  820   3.315   1.272  11.487  0.3364 -0.1632 -0.2919
   53TMC2    C2  821   3.452   1.268  11.504  0.0195  0.5957  0.8765
   53TMC2    C3  822   3.502   1.216  11.616 -0.5231  0.0801 -0.2313
   53TMC2    C4  823   3.232   1.212  11.585 -0.0554  0.3441 -0.1392
   53TMC2    C5  824   3.292   1.164  11.700  0.9023 -0.7168  0.1187
   53TMC2    C6  825   3.425   1.179  11.716 -0.4605  0.0928 -0.0438
   53TMC2     C  826   3.257   1.387  11.415  0.1480 -0.2527  0.8086
   53TMC2     O  827   3.319   1.431  11.319  0.4822  0.0853  0.2322
   53TMC2     H  828   3.507   1.315  11.424 -0.0827  0.9662  1.0269
   53TMC2    H1  829   3.125   1.209  11.575 -0.0507  1.7771 -0.7182
   53TMC2    H2  830   3.474   1.145  11.807  0.1955 -1.3256 -0.9316
   53TMC2    C7  831   3.211   1.187  11.812  0.1757 -0.3396  0.4055
   53TMC2    C8  832   3.647   1.193  11.631  0.1684 -0.0671  0.5936
   53TMC2    O1  833   3.155   1.295  11.815  0.3410 -0.5295  0.0872
   53TMC2    O2  834   3.716   1.167  11.537  0.4772  0.3364  0.1519
   53TMC2    O5  835   3.695   1.268  11.735  0.3776  0.4391  0.2236
   53TMC2    H5  836   3.639   1.314  11.802 -0.7802  0.6335 -0.8877
   54MPD2     C  837   3.060   1.599  11.351  0.1621 -0.3557  0.0763
   54MPD2    C1  838   3.067   1.552  11.475 -0.6585 -0.2028 -0.1803
   54MPD2    C2  839   2.991   1.595  11.577  0.0877 -0.3310 -0.0493
   54MPD2    C3  840   2.901   1.698  11.562  0.5431  0.3302 -0.2337
   54MPD2    C4  841   2.883   1.742  11.436 -0.4293  0.6598  0.5766
   54MPD2    C5  842   2.957   1.690  11.330 -0.1980  0.2138  0.2950
   54MPD2     H  843   3.013   1.556  11.677  2.2639  2.5666  0.6031
   54MPD2    H1  844   2.809   1.819  11.418 -1.2226 -0.3724 -0.5974
   54MPD2    H2  845   3.111   1.564  11.262 -0.8814 -2.5348  0.3256
   54MPD2    H3  846   2.933   1.724  11.230  0.3050 -1.7168 -0.4951
   54MPD2     N  847   2.832   1.759  11.672  0.1919  0.0890 -0.1132
   54MPD2    H5  848   2.751   1.815  11.649  1.0406  2.0305  1.6424
   54MPD2    N1  849   3.166   1.447  11.506 -0.1892  0.8789 -0.6760
   54MPD2    H7  850   3.171   1.410  11.600 -0.8073  0.4025 -0.8296
   55TMC2    C1  851   4.449   4.547   0.002  0.2761 -0.8369  0.3985
   55TMC2    C2  852   4.516   4.567  17.661 -0.0729  0.5005 -0.3302
   55TMC2    C3  853   4.548   4.460  17.585  0.4166 -0.7250 -0.4099
   55TMC2    C4  854   4.407   4.418   0.035  0.4395 -0.6052 -0.3580
   55TMC2    C5  855   4.437   4.314  17.723  0.1607 -0.2327  0.1810
   55TMC2    C6  856   4.505   4.337  17.614 -0.3588  0.7679 -0.6726
   55TMC2     C  857   4.373   4.655   0.058  0.7955  0.0535 -0.4171
   55TMC2     O  858   4.261   4.627   0.094  0.0100  0.2381 -0.9281
   55TMC2     H  859   4.554   4.667  17.643  2.0326 -0.0704  0.9607
   55TMC2    H1  860   4.333   4.405   0.113  0.0711 -0.0128 -0.6086
   55TMC2    H2  861   4.540   4.257  17.549 -0.0696  1.8489 -1.8339
   55TMC2    C7  862   4.443   4.178   0.005 -0.1050 -0.0154 -0.4503
   55TMC2    C8  863   4.592   4.499  17.458  0.1367 -0.0191 -0.1251
   55TMC2    O1  864   4.487   4.097  17.694 -0.4869 -0.4624 -0.8195
   55TMC2    O2  865   4.608   4.617  17.430 -0.1982  0.3425  0.6700
   55TMC2    O5  866   4.558   4.402  17.367 -0.2451  0.0382 -0.0111
   55TMC2    H5  867   4.574   4.436  17.276  0.1255  0.4662  0.2091
   56MPD2     C  868   4.489   0.257   0.091 -0.7136 -0.1152  0.0817
   56MPD2    C1  869   4.403   0.147   0.109 -0.3314 -0.2837 -0.7865
   56MPD2    C2  870   4.288   0.165   0.179 -0.1996 -0.5110 -0.1053
   56MPD2    C3  871   4.272   0.287   0.246 -0.0889  0.1896 -0.3368
   56MPD2    C4  872   4.363   0.385   0.252 -0.2330 -0.1505  0.5277
   56MPD2    C5  873   4.472   0.372   0.163  0.0838  0.3408  0.1665
   56MPD2     H  874   4.218   0.086   0.205  2.3811 -2.1462  1.8612
   56MPD2    H1  875   4.363   0.476   0.312 -1.2573 -0.6027  1.2132
   56MPD2    H2  876   4.586   0.241   0.046 -0.6174 -0.4682  0.4129
   56MPD2    H3  877   4.544   0.453   0.174  0.0217  0.1173  2.3242
   56MPD2     N  878   4.153   0.299   0.325 -0.0029  0.6177 -0.0240
   56MPD2    H5  879   4.082   0.230   0.302  0.2245 -0.0085  1.1187
   56MPD2    N1  880   4.442   0.027   0.054 -0.3078 -0.4724 -0.1298
   56MPD2    H7  881   4.540   0.018   0.029 -0.2734  0.9908 -0.5264
   57TMC2    C1  882   3.652   0.240  14.058 -0.2820 -0.2622 -0.1399
   57TMC2    C2  883   3.712   0.186  14.167 -0.4611 -0.0425  0.4106
   57TMC2    C3  884   3.785   0.071  14.132  0.5135  0.3774 -0.1060
   57TMC2    C4  885   3.670   0.196  13.928  0.5587  1.2197  0.4285
   57TMC2    C5  886   3.750   0.088  13.906 -0.2740 -0.8598  0.5213
   57TMC2    C6  887   3.804   0.020  14.007  0.1291  0.3794 -0.2458
   57TMC2     C  888   3.531   0.318  14.084  0.1961  0.4235  0.8093
   57TMC2     O  889   3.529   0.376  14.192 -0.0528 -0.3875  0.2448
   57TMC2     H  890   3.690   0.220  14.267  0.9226  0.6398  0.4683
   57TMC2    H1  891   3.634   0.262  13.850 -1.3702 -1.3707 -0.8712
   57TMC2    H2  892   3.857   4.670  13.994  2.0796  1.1937  1.7740
   57TMC2    C7  893   3.832   0.108  13.791  0.2495  0.0008 -0.4910
   57TMC2    C8  894   3.845   4.730  14.232 -0.3078 -0.4156  0.4544
   57TMC2    O1  895   3.828   0.216  13.725 -0.0416 -0.0363  0.1479
   57TMC2    O2  896   3.951   4.673  14.209 -0.7590 -0.3026  0.2770
   57TMC2    O5  897   3.789   0.002  14.348  0.0892 -0.2664 -0.0198
   57TMC2    H5  898   3.703   0.050  14.342 -1.2411 -2.7716 -0.7927
   58MPD2     C  899   3.028   0.375  14.050  0.2073  0.2558 -0.4005
   58MPD2    C1  900   3.121   0.459  14.106 -0.1486 -0.2332 -0.1224
   58MPD2    C2  901   3.256   0.425  14.092  0.3245  0.1075  0.0183
   58MPD2    C3  902   3.292   0.313  14.026  0.3336  0.3989  0.6134
   58MPD2    C4  903   3.207   0.228  13.965  0.4713 -0.7692  0.0121
   58MPD2    C5  904   3.073   0.265  13.976 -0.8614 -0.0028  0.6202
   58MPD2     H  905   3.324   0.492  14.144 -0.6853  1.1392  0.0207
   58MPD2    H1  906   3.231   0.140  13.907 -0.1786 -1.0438  0.1560
   58MPD2    H2  907   2.921   0.395  14.055  0.3958  0.8555  1.3008
   58MPD2    H3  908   3.006   0.208  13.912  0.2870 -3.6116  2.6569
   58MPD2     N  909   3.425   0.268  14.016  0.7105  0.6268 -0.2592
   58MPD2    H5  910   3.447   0.191  13.953 -2.5275  0.4118 -1.1419
   58MPD2    N1  911   3.084   0.577  14.171  0.2075  0.2913  0.5331
   58MPD2    H7  912   3.161   0.636  14.203  0.5176  0.5563 -0.7283
   59TMC2    C1  913   1.036   0.656  12.833  0.1973 -0.2942  0.1146
   59TMC2    C2  914   1.017   0.547  12.915 -0.2442 -0.8094 -0.0008
   59TMC2    C3  915   1.039   0.425  12.861 -0.6468 -0.2493 -0.0642
   59TMC2    C4  916   1.077   0.648  12.701  0.9341  0.1078  0.5628
   59TMC2    C5  917   1.100   0.525  12.644  0.2900  0.1397 -0.6125
   59TMC2    C6  918   1.082   0.413  12.727 -0.6382 -0.6252  0.3200
   59TMC2     C  919   1.021   0.787  12.903 -0.0833 -0.4586 -0.3728
   59TMC2     O  920   0.964   0.878  12.845  0.0411 -0.0798 -0.1163
   59TMC2     H  921   0.996   0.552  13.021 -0.9974 -0.9900 -0.1438
   59TMC2    H1  922   1.096   0.742  12.651  2.8927 -1.9637 -2.5396
   59TMC2    H2  923   1.103   0.313  12.691 -0.0108  0.5671 -2.6119
   59TMC2    C7  924   1.175   0.517  12.525  0.6817 -0.6683  0.4174
   59TMC2    C8  925   1.059   0.311  12.953 -0.2421 -0.4039  0.5706
   59TMC2    O1  926   1.256   0.425  12.506 -0.4137 -0.1928  0.2669
   59TMC2    O2  927   1.103   0.332  13.067 -0.2286 -0.4761  0.0831
   59TMC2    O5  928   1.077   0.197  12.884  0.0540  0.2282 -0.7126
   59TMC2    H5  929   1.006   0.196  12.816  0.5296 -2.5383 -1.1767
   60MPD2     C  930   1.083   1.042  13.063  0.5438  0.0758 -0.9146
   60MPD2    C1  931   1.125   0.911  13.094  0.4439  0.5094  0.8227
   60MPD2    C2  932   1.182   0.894  13.217  0.0659 -0.4648 -0.5814
   60MPD2    C3  933   1.221   0.997  13.304  0.6623 -0.5188 -0.2870
   60MPD2    C4  934   1.177   1.125  13.268  0.4474  0.7377 -0.6629
   60MPD2    C5  935   1.098   1.140  13.158  0.1604  0.3912 -0.4366
   60MPD2     H  936   1.208   0.791  13.239 -3.6058 -1.6696 -1.8057
   60MPD2    H1  937   1.196   1.212  13.329  1.1017  0.5301 -0.5727
   60MPD2    H2  938   1.039   1.062  12.966 -0.6793  0.1916 -0.3363
   60MPD2    H3  939   1.079   1.240  13.121  0.3558  0.3720 -0.5950
   60MPD2     N  940   1.296   0.971  13.418  0.3924 -0.0862 -0.3094
   60MPD2    H5  941   1.317   1.043  13.487 -1.8606 -1.6088  1.9752
   60MPD2    N1  942   1.098   0.795  13.015  0.1717 -0.1857  0.8644
   60MPD2    H7  943   1.138   0.708  13.050 -0.8072 -0.1537  2.0199
   61TMC2    C1  944   0.238   2.276  15.840 -0.5965 -0.1076  0.0565
   61TMC2    C2  945   0.190   2.265  15.965 -0.0751 -0.3774 -0.6972
   61TMC2    C3  946   0.155   2.376  16.026 -0.4533 -0.1357  0.2108
   61TMC2    C4  947   0.244   2.392  15.774 -0.6466  0.1765  0.2602
   61TMC2    C5  948   0.207   2.507  15.840  0.0065 -0.4113  0.0069
   61TMC2    C6  949   0.161   2.501  15.969  0.3703  0.5371 -0.3288
   61TMC2     C  950   0.275   2.157  15.760  0.3453  0.5297 -0.1088
   61TMC2     O  951   0.230   2.050  15.793  0.2909 -0.1501 -0.0863
   61TMC2     H  952   0.181   2.166  16.010  0.8274 -0.5339 -0.8484
   61TMC2    H1  953   0.290   2.397  15.676 -2.0425 -1.5550 -0.4819
   61TMC2    H2  954   0.121   2.588  16.020 -1.5192 -0.3122 -0.3534
   61TMC2    C7  955   0.250   2.633  15.778  0.1051 -0.2137 -0.7819
   61TMC2    C8  956   0.151   2.378  16.170 -0.0182  0.1674 -0.3967
   61TMC2    O1  957   0.293   2.622  15.665  0.0461  0.1593  0.0851
   61TMC2    O2  958   0.099   2.463  16.238 -0.2260 -0.4379  0.7155
   61TMC2    O5  959   0.203   2.261  16.207  0.0196  0.4163  0.3713
   61TMC2    H5  960   0.208   2.259  16.305  0.4691 -1.2925  0.3077
   62MPD2     C  961   0.371   1.952  15.552 -0.5403  0.0215 -0.1137
   62MPD2    C1  962   0.408   2.086  15.556  0.5850  0.3295 -0.0685
   62MPD2    C2  963   0.483   2.136  15.450 -0.0539 -0.2144  0.7357
   62MPD2    C3  964   0.536   2.052  15.357 -0.0336 -0.8387 -1.0686
   62MPD2    C4  965   0.497   1.924  15.360 -0.3172  0.4667 -0.1749
   62MPD2    C5  966   0.412   1.871  15.454 -0.8274 -0.4838 -0.0866
   62MPD2     H  967   0.508   2.242  15.456  0.4123 -0.2136 -1.3189
   62MPD2    H1  968   0.547   1.859  15.289  2.1352 -0.9434  2.8203
   62MPD2    H2  969   0.308   1.903  15.625 -1.1311  1.6361  0.4731
   62MPD2    H3  970   0.378   1.768  15.449  2.9124 -1.7447  0.0469
   62MPD2     N  971   0.623   2.101  15.261 -0.3873 -0.6227  0.0276
   62MPD2    H5  972   0.670   2.029  15.207 -0.4443 -0.0348 -0.8106
   62MPD2    N1  973   0.366   2.173  15.659  0.6942 -0.0261 -0.0730
   62MPD2    H7  974   0.405   2.266  15.659 -3.7810  1.8596  1.7906
   63TMC2    C1  975   0.271   2.323  10.694  0.1652  0.3194 -0.8888
   63TMC2    C2  976   0.294   2.342  10.826  0.1730  0.2052 -0.2418
   63TMC2    C3  977   0.393   2.436  10.853  0.2390  0.4404  0.1964
   63TMC2    C4  978   0.332   2.375  10.582  0.3178 -0.2983 -0.0291
   63TMC2    C5  979   0.425   2.466  10.618 -0.3497 -0.3161 -0.6700
   63TMC2    C6  980   0.452   2.498  10.746  0.0683  0.4284 -0.0675
   63TMC2     C  981   0.157   2.240  10.655  0.9399 -0.2970  0.0957
   63TMC2     O  982   0.083   2.283  10.568 -0.1383  0.4398 -0.6560
   63TMC2     H  983   0.235   2.287  10.898 -2.5194  1.5155 -1.4407
   63TMC2    H1  984   0.294   2.359  10.481 -0.5520 -0.8354  0.3793
   63TMC2    H2  985   0.537   2.558  10.775 -1.9632  3.0081  0.5680
   63TMC2    C7  986   0.445   2.566  10.518 -0.5122 -0.6000  0.3143
   63TMC2    C8  987   0.446   2.442  10.985  0.2661  0.3979  0.1614
   63TMC2    O1  988   0.346   2.570  10.444  0.6605  0.6810 -0.2658
   63TMC2    O2  989   0.565   2.459  11.012  0.1724  0.1103  0.3796
   63TMC2    O5  990   0.337   2.487  11.055 -0.7990  0.8836 -0.0449
   63TMC2    H5  991   0.249   2.485  11.011 -2.9076 -0.1618  4.1618
   64MPD2     C  992   4.600   1.809  10.670  0.3702 -0.4021  0.0831
   64MPD2    C1  993   4.701   1.801  10.761 -0.2283  0.3431 -0.3521
   64MPD2    C2  994   0.047   1.908  10.775 -0.2741 -0.1757  0.2124
   64MPD2    C3  995   0.049   2.024  10.703 -0.4964 -0.9034 -0.0338
   64MPD2    C4  996   4.694   2.028  10.604 -0.4731  0.8461  0.2185
   64MPD2    C5  997   4.599   1.922  10.591 -0.3773 -0.8932  1.1222
   64MPD2     H  998   0.125   1.906  10.850  1.1131 -1.5141 -1.2626
   64MPD2    H1  999   4.687   2.099  10.522  1.7370 -0.6562 -1.2513
   64MPD2    H2 1000   4.527   1.732  10.648  1.2946 -1.7041  1.5474
   64MPD2    H3 1001   4.520   1.932  10.517 -1.9222  0.7330  2.9665
   64MPD2     N 1002   0.157   2.111  10.716 -0.2420 -0.4385 -0.7254
   64MPD2    H5 1003   0.230   2.093  10.784  0.8561 -1.2126 -2.1294
   64MPD2    N1 1004   4.712   1.693  10.850 -1.0823  0.2120  1.0682
   64MPD2    H7 1005   0.050   1.702  10.909 -0.1648  2.1634 -0.4824
   65TMC2    C1 1006   0.908   1.517  15.790 -0.6158  0.1909  0.3493
   65TMC2    C2 1007   1.013   1.475  15.710 -0.8279  0.5587 -0.0355
   65TMC2    C3 1008   1.033   1.538  15.591  0.5344  0.3300 -0.2082
   65TMC2    C4 1009   0.832   1.626  15.757 -0.0512 -0.1198 -0.9156
   65TMC2    C5 1010   0.852   1.677  15.627 -0.3931 -0.0905 -0.1889
   65TMC2    C6 1011   0.950   1.635  15.547  0.6920 -0.3540  0.3584
   65TMC2     C 1012   0.891   1.446  15.912  0.3310 -0.0910  0.1483
   65TMC2     O 1013   0.845   1.509  16.006  0.2327 -0.3414  0.5982
   65TMC2     H 1014   1.075   1.395  15.748 -0.2325  0.5551 -1.0093
   65TMC2    H1 1015   0.763   1.671  15.828  0.2211 -0.6809 -0.3069
   65TMC2    H2 1016   0.957   1.677  15.447 -2.2575  0.8426  0.6596
   65TMC2    C7 1017   0.809   1.808  15.588  0.4783 -0.2654  0.9037
   65TMC2    C8 1018   1.135   1.485  15.506 -0.6147 -0.2101  0.1169
   65TMC2    O1 1019   0.773   1.822  15.473 -0.0907 -0.1022 -0.1958
   65TMC2    O2 1020   1.179   1.371  15.515  0.1750 -0.1352 -0.5516
   65TMC2    O5 1021   1.182   1.581  15.420  0.0566  0.3968  0.0722
   65TMC2    H5 1022   1.149   1.672  15.437 -1.5442 -0.3027  0.7594
   66MPD2     C 1023   0.886   1.239  16.134 -0.7457 -0.1653  0.3982
   66MPD2    C1 1024   0.877   1.208  15.995 -0.0852 -0.6918 -0.0190
   66MPD2    C2 1025   0.851   1.078  15.958 -0.6261 -0.0602  0.4136
   66MPD2    C3 1026   0.845   0.972  16.056 -0.9684 -0.0489 -0.1004
   66MPD2    C4 1027   0.864   1.004  16.188  0.4913  0.6138 -0.1672
   66MPD2    C5 1028   0.880   1.135  16.220 -0.2042 -0.0935  0.3824
   66MPD2     H 1029   0.827   1.061  15.853 -1.2551  3.0073  0.0827
   66MPD2    H1 1030   0.865   0.924  16.260 -1.1583 -1.3959 -2.4021
   66MPD2    H2 1031   0.894   1.341  16.171 -1.9203  0.2965 -0.6084
   66MPD2    H3 1032   0.898   1.163  16.324  2.0238 -0.0054 -0.0324
   66MPD2     N 1033   0.814   0.834  16.029 -0.3622 -0.0723  0.2585
   66MPD2    H5 1034   0.806   0.765  16.103  1.6836 -2.3618 -1.6119
   66MPD2    N1 1035   0.892   1.311  15.892  0.1629  0.0770 -0.3221
   66MPD2    H7 1036   0.887   1.276  15.797 -0.5545  0.8942 -0.5861
   67TMC2    C1 1037   1.532   0.536  14.705 -0.5648 -0.7267 -0.2084
   67TMC2    C2 1038   1.405   0.490  14.742  0.1425  0.0890 -0.5404
   67TMC2    C3 1039   1.387   0.475  14.875 -0.0797  0.2097 -0.0488
   67TMC2    C4 1040   1.631   0.548  14.796  0.0404 -0.6292 -0.3323
   67TMC2    C5 1041   1.599   0.520  14.929 -0.1795  0.3360 -0.2268
   67TMC2    C6 1042   1.477   0.479  14.975 -0.0748  0.3125 -0.0217
   67TMC2     C 1043   1.559   0.584  14.577 -0.3186 -0.5670  0.2410
   67TMC2     O 1044   1.658   0.654  14.566  0.2970  0.5215 -0.0393
   67TMC2     H 1045   1.318   0.505  14.679 -0.2561  2.0200  0.4860
   67TMC2    H1 1046   1.727   0.592  14.771  0.9544 -1.6424  1.3699
   67TMC2    H2 1047   1.471   0.442  15.077  3.7781 -1.9750 -0.6474
   67TMC2    C7 1048   1.694   0.565  15.030 -0.1988  0.0033 -0.4216
   67TMC2    C8 1049   1.251   0.439  14.911  0.0145  0.3403 -0.0060
   67TMC2    O1 1050   1.812   0.562  15.001 -0.0677 -0.0636 -0.2446
   67TMC2    O2 1051   1.211   0.460  15.022 -0.0532 -0.6478 -0.4311
   67TMC2    O5 1052   1.228   0.326  14.836  0.3460 -0.1824  0.2610
   67TMC2    H5 1053   1.285   0.329  14.756  0.0597  1.1572  0.1065
   68MPD2     C 1054   1.540   0.668  14.286 -0.3651 -0.4150  0.7140
   68MPD2    C1 1055   1.479   0.561  14.339  0.0966 -0.0434  0.0239
   68MPD2    C2 1056   1.391   0.488  14.261 -0.1093 -0.0087 -0.7774
   68MPD2    C3 1057   1.361   0.523  14.133  0.6318 -0.4472  0.2208
   68MPD2    C4 1058   1.425   0.628  14.079  0.0765 -1.1063  1.1407
   68MPD2    C5 1059   1.509   0.696  14.163 -0.4893 -0.0970 -0.6666
   68MPD2     H 1060   1.344   0.397  14.298 -3.7766  2.2774  0.1692
   68MPD2    H1 1061   1.391   0.660  13.981  0.0522  0.6775  1.7128
   68MPD2    H2 1062   1.597   0.740  14.345 -1.5455  2.1947 -1.3546
   68MPD2    H3 1063   1.547   0.790  14.125  1.0042 -0.4582 -0.0660
   68MPD2     N 1064   1.274   0.454  14.050  0.5538 -0.5515 -0.2781
   68MPD2    H5 1065   1.260   0.499  13.961 -1.1314  1.0192  0.7767
   68MPD2    N1 1066   1.475   0.534  14.478  0.0756  0.7528 -0.4980
   68MPD2    H7 1067   1.405   0.466  14.506 -0.4517  0.5385 -2.2883
   69TMC2    C1 1068   3.328   1.731  12.342 -0.6202  0.3418  0.3462
   69TMC2    C2 1069   3.280   1.865  12.359  0.6481 -0.1134 -0.1053
   69TMC2    C3 1070   3.242   1.942  12.253 -0.2834 -0.5323  0.1539
   69TMC2    C4 1071   3.337   1.683  12.217 -0.1617 -0.1359 -0.6375
   69TMC2    C5 1072   3.304   1.762  12.112 -1.2703 -0.0667  0.0695
   69TMC2    C6 1073   3.256   1.889  12.128  0.7051  0.3087  0.3980
   69TMC2     C 1074   3.320   1.633  12.448  0.6844 -0.3776  0.1025
   69TMC2     O 1075   3.251   1.673  12.540  0.2396 -0.2477 -0.0100
   69TMC2     H 1076   3.271   1.915  12.455 -0.1715  2.4299 -1.5135
   69TMC2    H1 1077   3.367   1.581  12.196  1.1646  0.2495 -0.6391
   69TMC2    H2 1078   3.212   1.939  12.042  3.2613  1.6608 -0.1122
   69TMC2    C7 1079   3.368   1.729  11.984  0.5372  0.3433  0.8597
   69TMC2    C8 1080   3.202   2.083  12.282 -0.1977 -1.5311  0.1041
   69TMC2    O1 1081   3.475   1.665  11.977 -0.7188  0.1598  0.8281
   69TMC2    O2 1082   3.175   2.114  12.398  0.8044 -0.2123  0.5489
   69TMC2    O5 1083   3.227   2.164  12.176  0.4949  0.2354  0.3096
   69TMC2    H5 1084   3.271   2.115  12.104 -0.6079 -0.4509  0.1013
   70MPD2     C 1085   3.501   1.334  12.478 -0.2748 -0.5061  0.1646
   70MPD2    C1 1086   3.395   1.411  12.516 -0.6707 -0.3142  0.3639
   70MPD2    C2 1087   3.302   1.378  12.608 -0.1505 -0.4867  0.7352
   70MPD2    C3 1088   3.332   1.269  12.679  0.3579 -0.3540  0.8953
   70MPD2    C4 1089   3.442   1.193  12.653 -0.2606  1.1871 -0.2629
   70MPD2    C5 1090   3.528   1.228  12.550  0.0231 -0.3304 -0.4199
   70MPD2     H 1091   3.220   1.444  12.634 -0.8477 -0.7342 -0.8309
   70MPD2    H1 1092   3.478   1.119  12.724  0.3280  1.4712 -0.2659
   70MPD2    H2 1093   3.576   1.361  12.405 -0.0529  0.2986  0.6852
   70MPD2    H3 1094   3.619   1.171  12.535  0.0027 -0.5632  0.3299
   70MPD2     N 1095   3.267   1.235  12.801 -0.1173  0.5866 -0.4120
   70MPD2    H5 1096   3.305   1.155  12.850  0.3185  0.4690 -0.9488
   70MPD2    N1 1097   3.393   1.521  12.426 -0.6425 -0.3446 -0.4264
   70MPD2    H7 1098   3.458   1.529  12.348 -1.0826  1.4819 -0.6084
   71TMC2    C1 1099   1.221   2.835   1.313 -0.1335  0.3648  0.7615
   71TMC2    C2 1100   1.322   2.837   1.405 -0.4786  0.0033  0.4011
   71TMC2    C3 1101   1.305   2.909   1.523  0.1520  0.6659  0.5806
   71TMC2    C4 1102   1.106   2.896   1.334  0.0365  0.7046 -0.1517
   71TMC2    C5 1103   1.086   2.965   1.454  0.7766 -0.3396 -0.2861
   71TMC2    C6 1104   1.186   2.981   1.541 -0.5844 -0.1116 -0.1229
   71TMC2     C 1105   1.232   2.769   1.187 -1.0331 -0.1415  0.2474
   71TMC2     O 1106   1.128   2.746   1.131 -0.1161  0.3198  0.3987
   71TMC2     H 1107   1.383   2.748   1.409  2.6977  2.0527 -2.8275
   71TMC2    H1 1108   1.023   2.891   1.265 -0.4835  2.7128  0.3316
   71TMC2    H2 1109   1.169   3.043   1.629 -0.6427 -1.8114  1.0460
   71TMC2    C7 1110   0.982   3.065   1.457 -0.1682  0.8806 -0.4934
   71TMC2    C8 1111   1.398   2.879   1.630 -0.0357 -0.5104 -0.0869
   71TMC2    O1 1112   1.005   3.175   1.500 -0.5767 -0.2785  0.2496
   71TMC2    O2 1113   1.485   2.797   1.613  0.8955  0.1259  0.0387
   71TMC2    O5 1114   1.397   2.982   1.718 -0.2225  0.1461  0.2898
   71TMC2    H5 1115   1.352   3.062   1.683 -2.9512 -3.2933 -4.2827
   72MPD2     C 1116   1.529   2.578   0.802 -0.2018 -0.5915 -0.0186
   72MPD2    C1 1117   1.392   2.580   0.819 -0.8740 -0.1315 -0.0642
   72MPD2    C2 1118   1.337   2.652   0.925  0.5080  0.2110  0.1000
   72MPD2    C3 1119   1.417   2.703   1.027  0.8711  0.4858 -0.0959
   72MPD2    C4 1120   1.550   2.719   1.002 -0.3116 -0.4059 -0.2426
   72MPD2    C5 1121   1.603   2.658   0.887  0.0421 -0.0280 -0.5278
   72MPD2     H 1122   1.229   2.651   0.935  0.5043 -1.2513 -0.0453
   72MPD2    H1 1123   1.626   2.758   1.069 -1.7476 -0.6889  1.5543
   72MPD2    H2 1124   1.585   2.529   0.723  1.8460  0.0635  1.0250
   72MPD2    H3 1125   1.709   2.661   0.867  0.1376  0.9810  0.1900
   72MPD2     N 1126   1.362   2.757   1.149  0.2706  0.5046  0.3571
   72MPD2    H5 1127   1.442   2.791   1.201  0.6822 -1.7325  1.1944
   72MPD2    N1 1128   1.301   2.532   0.719 -0.6525 -0.4058 -0.1826
   72MPD2    H7 1129   1.201   2.533   0.737 -0.5930  1.6659 -0.0161
   73TMC2    C1 1130   0.356   4.143  14.077  0.2085 -0.4485  0.1930
   73TMC2    C2 1131   0.296   4.211  14.181 -0.1801 -0.0021  0.0608
   73TMC2    C3 1132   0.271   4.145  14.297  0.0927 -0.3541  0.1074
   73TMC2    C4 1133   0.375   4.004  14.097  0.5264  0.2911  0.1250
   73TMC2    C5 1134   0.362   3.948  14.214 -0.0251  0.3125  0.1640
   73TMC2    C6 1135   0.314   4.016  14.325 -0.4891  0.0708 -0.2321
   73TMC2     C 1136   0.466   4.205  14.025  0.4071  0.1608  0.5047
   73TMC2     O 1137   0.561   4.128  14.010  0.0082 -0.7256  0.0821
   73TMC2     H 1138   0.267   4.314  14.164 -1.9608 -0.5040  0.0856
   73TMC2    H1 1139   0.410   3.941  14.016  0.7257 -1.3013  1.4640
   73TMC2    H2 1140   0.306   3.981  14.428  1.3516  0.7142  0.1312
   73TMC2    C7 1141   0.479   3.859  14.247  0.3068  0.0221  0.8640
   73TMC2    C8 1142   0.201   4.219  14.399  0.3934  0.2876 -0.0885
   73TMC2    O1 1143   0.474   3.793  14.351  0.4028  0.7324 -0.4016
   73TMC2    O2 1144   0.205   4.340  14.402 -0.0528 -0.2222 -0.5206
   73TMC2    O5 1145   0.088   4.147  14.401  0.0695 -0.2922 -0.0213
   73TMC2    H5 1146   0.104   4.062  14.356 -0.2693 -0.0347 -0.6160
   74MPD2     C 1147   0.749   4.586  13.832  0.6964  0.3195 -0.6121
   74MPD2    C1 1148   0.782   4.465  13.889  0.4211  0.2349  0.3109
   74MPD2    C2 1149   0.681   4.388  13.943  0.2015 -0.0419 -0.3771
   74MPD2    C3 1150   0.543   4.424  13.934 -0.4328  0.2732 -1.0057
   74MPD2    C4 1151   0.508   4.540  13.875  0.3933 -0.3206 -1.0060
   74MPD2    C5 1152   0.613   4.606  13.819  0.0995 -0.6167  0.8396
   74MPD2     H 1153   0.705   4.290  13.984 -0.4136  0.0917  0.3036
   74MPD2    H1 1154   0.412   4.589  13.862  1.0109  1.4306  0.9022
   74MPD2    H2 1155   0.815   4.660  13.789  0.5248 -1.2137 -3.5210
   74MPD2    H3 1156   0.573   4.688  13.761 -4.2929 -3.2799  0.0730
   74MPD2     N 1157   0.446   4.335  13.992 -0.0486  0.2136 -0.0308
   74MPD2    H5 1158   0.354   4.378  13.999 -1.3983 -2.3032 -2.4267
   74MPD2    N1 1159   0.911   4.419  13.893 -0.0232 -0.0774 -0.1323
   74MPD2    H7 1160   0.980   4.485  13.860 -1.0406  2.0235  1.9322
   75TMC2    C1 1161   1.150   0.266  13.964 -0.5227  0.3104 -0.2752
   75TMC2    C2 1162   1.163   0.131  13.960 -0.4888  0.5231  0.7154
   75TMC2    C3 1163   1.091   0.063  13.862 -0.1070 -0.0493 -0.4124
   75TMC2    C4 1164   1.052   0.337  13.900 -0.1456  0.2553 -0.2819
   75TMC2    C5 1165   0.988   0.270  13.798  0.2449  1.2118  0.9815
   75TMC2    C6 1166   1.002   0.135  13.784  0.2818 -0.4235 -0.1142
   75TMC2     C 1167   1.213   0.336  14.075 -0.9472  0.2574  0.7026
   75TMC2     O 1168   1.237   0.263  14.166 -0.1645 -0.7193 -0.3261
   75TMC2     H 1169   1.247   0.094  14.018 -2.0393 -2.6172  0.9443
   75TMC2    H1 1170   1.046   0.443  13.918 -1.4637 -0.2059  1.9082
   75TMC2    H2 1171   0.929   0.075  13.730  0.3595 -0.7522  0.1555
   75TMC2    C7 1172   0.887   0.344  13.725 -0.0193 -0.2880  0.1209
   75TMC2    C8 1173   1.120   4.664  13.849  0.2475  0.1914  0.1156
   75TMC2    O1 1174   0.874   0.300  13.612  0.1429 -0.5152 -0.3332
   75TMC2    O2 1175   1.121   4.595  13.950  0.3415 -0.1830 -0.0421
   75TMC2    O5 1176   1.074   4.618  13.727 -0.9799 -0.3024 -0.0941
   75TMC2    H5 1177   1.079   4.693  13.664 -1.6691  0.0437  0.2580
   76TMC2    C1 1178   3.858   0.685  11.897 -0.0065  0.1962 -0.4066
   76TMC2    C2 1179   3.735   0.630  11.895 -0.3590  0.0841  0.9099
   76TMC2    C3 1180   3.713   0.524  11.979 -0.1100  0.2207 -0.6609
   76TMC2    C4 1181   3.956   0.646  11.978 -0.0272 -0.0549 -0.3432
   76TMC2    C5 1182   3.925   0.548  12.064  0.0370 -1.0693 -0.0713
   76TMC2    C6 1183   3.809   0.482  12.067 -0.2445  0.0145 -0.2457
   76TMC2     C 1184   3.889   0.776  11.792 -0.0882 -0.2298 -0.0021
   76TMC2     O 1185   3.798   0.824  11.726 -0.0473  0.2467 -0.4558
   76TMC2     H 1186   3.663   0.673  11.827  2.0480  1.8271 -0.5577
   76TMC2    H1 1187   4.052   0.696  11.988 -0.4589  0.3493  1.8015
   76TMC2    H2 1188   3.779   0.411  12.143  0.8997 -1.4886 -1.2123
   76TMC2    C7 1189   4.019   0.507  12.168 -0.1212  0.3678 -0.3097
   76TMC2    C8 1190   3.580   0.474  11.994 -0.4431 -0.5686  0.5186
   76TMC2    O1 1191   4.003   0.390  12.205  0.3769  0.0355 -0.0440
   76TMC2    O2 1192   3.516   0.488  12.097  0.6662  0.1995 -0.0526
   76TMC2    O5 1193   3.527   0.457  11.869  0.1279  0.0173  0.4054
   76TMC2    H5 1194   3.588   0.455  11.792  1.0793  0.9734  1.1432
   77MPD2     C 1195   4.219   1.108  11.576 -0.0192  0.1233 -0.4179
   77MPD2    C1 1196   4.081   1.112  11.578 -0.9555  0.0697  1.0449
   77MPD2    C2 1197   4.011   1.001  11.629 -0.3913 -0.0660 -0.1901
   77MPD2    C3 1198   4.080   0.897  11.698 -0.3683 -0.3946  0.4006
   77MPD2    C4 1199   4.218   0.896  11.687 -0.2766  0.6509 -0.1455
   77MPD2    C5 1200   4.288   1.009  11.637 -0.6594  0.2586  0.2325
   77MPD2     H 1201   3.903   1.000  11.634 -0.3407  0.0669  0.9265
   77MPD2    H1 1202   4.276   0.822  11.742  0.3646  0.6997 -0.7627
   77MPD2    H2 1203   4.266   1.188  11.521  0.6627  0.3815  0.5299
   77MPD2    H3 1204   4.393   1.004  11.662 -0.8233 -2.3531  0.4412
   77MPD2     N 1205   4.024   0.794  11.770 -0.3822 -0.3215  0.3207
   77MPD2    H5 1206   4.090   0.738  11.822 -0.6783  0.4026  1.4670
   77MPD2    N1 1207   4.005   1.219  11.519 -0.6328  0.3326  0.6968
   77MPD2    H7 1208   3.905   1.211  11.504 -0.9088 -0.1155  2.8412
   78TMC2    C1 1209   0.672   3.118   1.828  0.2588 -0.1035 -0.6707
   78TMC2    C2 1210   0.547   3.071   1.789 -0.3825 -0.3434  0.2553
   78TMC2    C3 1211   0.534   2.942   1.751  0.1720  0.0815 -0.4642
   78TMC2    C4 1212   0.783   3.046   1.815 -0.0759 -0.0474 -0.5009
   78TMC2    C5 1213   0.769   2.915   1.761 -0.0411  0.0659 -0.1613
   78TMC2    C6 1214   0.644   2.858   1.734 -0.0172  0.8900 -0.0269
   78TMC2     C 1215   0.688   3.264   1.847 -0.3585  0.0839  0.9435
   78TMC2     O 1216   0.800   3.310   1.843  0.1925  0.3295  0.8128
   78TMC2     H 1217   0.459   3.135   1.780  0.3593  0.7138  0.5740
   78TMC2    H1 1218   0.879   3.096   1.825 -2.0252  3.5023  0.4681
   78TMC2    H2 1219   0.628   2.755   1.706 -1.6951  1.2381 -0.3928
   78TMC2    C7 1220   0.880   2.830   1.738 -0.1837  0.0690 -0.3137
   78TMC2    C8 1221   0.417   2.873   1.796 -0.0301 -0.4249  0.7164
   78TMC2    O1 1222   0.874   2.736   1.657 -0.5040  0.7045  0.1473
   78TMC2    O2 1223   0.365   2.776   1.740 -0.3233 -0.2098  0.1357
   78TMC2    O5 1224   0.345   2.949   1.879  0.3794 -0.1900 -0.0240
   78TMC2    H5 1225   0.395   3.026   1.915 -2.7532  1.9735 -0.3430
   79MPD1     C 1226   0.477   3.734   1.871 -0.5916 -0.8368  0.4341
   79MPD1    C1 1227   0.610   3.698   1.846 -0.3038 -0.3349 -0.3080
   79MPD1    C2 1228   0.643   3.562   1.850 -0.1569  0.3562  0.3472
   79MPD1    C3 1229   0.549   3.470   1.876 -0.4671 -0.2102 -0.0237
   79MPD1    C4 1230   0.418   3.509   1.912  0.1639 -0.3573  0.2350
   79MPD1    C5 1231   0.386   3.641   1.909  0.1717  0.3952  0.1781
   79MPD1     H 1232   0.735   3.528   1.804 -1.0880  0.6522 -1.7377
   79MPD1    H1 1233   0.347   3.428   1.916  1.8740 -1.8445  0.7140
   79MPD1    H2 1234   0.463   3.840   1.890  1.0520 -0.1633 -1.9706
   79MPD1    H3 1235   0.281   3.664   1.924  0.3209  0.5673  0.9597
   79MPD1     N 1236   0.569   3.330   1.855  0.1196  0.3641 -0.0484
   79MPD1    H5 1237   0.491   3.265   1.854 -0.2214  0.7426  2.1886
   79MPD1    N1 1238   0.706   3.793   1.804 -0.3327 -0.7116  0.6516
   79MPD1    H6 1239   0.682   3.887   1.834 -0.7530  0.1709 -2.4512
   79MPD1    H7 1240   0.802   3.777   1.833 -0.1938  0.9724  1.1145
   80TMC2    C1 1241   1.954   0.118  12.941  0.1995  0.0942 -0.4260
   80TMC2    C2 1242   1.845   0.056  12.991 -0.1964  0.1176 -0.2074
   80TMC2    C3 1243   1.856   4.676  13.025  0.3735  0.4674 -1.2347
   80TMC2    C4 1244   2.073   0.050  12.911  0.0078  0.6631 -0.4850
   80TMC2    C5 1245   2.080   4.662  12.949  0.5251 -0.4960  0.1587
   80TMC2    C6 1246   1.975   4.603  13.018  0.8279  0.1873  0.4754
   80TMC2     C 1247   1.958   0.262  12.967  0.4417  0.2388 -0.3486
   80TMC2     O 1248   1.872   0.317  13.035  0.2639 -0.2383 -0.4914
   80TMC2     H 1249   1.762   0.115  13.027  0.8037  1.2516  0.2448
   80TMC2    H1 1250   2.157   0.096  12.860  1.2426 -0.6068  0.4098
   80TMC2    H2 1251   1.986   4.503  13.058 -2.3676 -1.3868 -2.5489
   80TMC2    C7 1252   2.198   4.593  12.953 -0.2134 -0.6967  0.8571
   80TMC2    C8 1253   1.735   4.626  13.080  0.2727 -0.6724  0.3169
   80TMC2    O1 1254   2.199   4.481  12.899 -0.2294 -0.3326  0.2750
   80TMC2    O2 1255   1.643   4.692  13.131  0.0181  0.8594  0.3309
   80TMC2    O5 1256   1.737   4.502  13.031  0.2483  0.2219  0.5166
   80TMC2    H5 1257   1.815   4.467  12.983 -0.4856 -1.0741  0.2562
   81MPD2     C 1258   2.041   0.549  12.998 -0.1111  0.3829 -0.3715
   81MPD2    C1 1259   2.107   0.455  12.920 -0.0202 -0.1070 -0.3266
   81MPD2    C2 1260   2.217   0.494  12.845  0.2748 -0.1687  0.3718
   81MPD2    C3 1261   2.252   0.629  12.837 -0.4640  0.2309 -0.0351
   81MPD2    C4 1262   2.195   0.722  12.921  0.0043 -0.2764  0.0920
   81MPD2    C5 1263   2.084   0.686  12.995 -0.0039  0.1235  0.2163
   81MPD2     H 1264   2.263   0.422  12.777  0.5125 -0.5290  0.9149
   81MPD2    H1 1265   2.237   0.822  12.928 -0.8679  0.1155 -0.2323
   81MPD2    H2 1266   1.950   0.521  13.049  1.2446 -2.1462  0.6960
   81MPD2    H3 1267   2.027   0.757  13.054 -2.2972  0.7763 -2.8003
   81MPD2     N 1268   2.351   0.671  12.738 -0.3584  0.2632  0.3752
   81MPD2    H5 1269   2.404   0.596  12.695 -0.3971  0.3743  0.1344
   81MPD2    N1 1270   2.068   0.324  12.909  0.2654  0.4725 -0.1051
   81MPD2    H7 1271   2.123   0.272  12.842 -2.6983 -1.1857 -1.2608
   82TMC2    C1 1272   1.899   0.057  11.684 -0.5485  0.7999 -0.0126
   82TMC2    C2 1273   1.986   0.035  11.792 -0.6805  0.2654 -0.3966
   82TMC2    C3 1274   1.994   4.652  11.840  0.4762  0.0825  0.1276
   82TMC2    C4 1275   1.818   4.694  11.632 -0.8516 -0.1597  0.2961
   82TMC2    C5 1276   1.820   4.570  11.695  0.2728 -0.2981 -0.6318
   82TMC2    C6 1277   1.912   4.551  11.795  0.4710  0.1363 -0.9771
   82TMC2     C 1278   1.869   0.193  11.638  0.1019 -1.3610  1.0008
   82TMC2     O 1279   1.769   0.200  11.564  0.1792 -0.8118 -0.0714
   82TMC2     H 1280   2.037   0.114  11.846 -2.3572  0.4024  0.9975
   82TMC2    H1 1281   1.750   4.716  11.550 -0.0113  0.4112 -0.2551
   82TMC2    H2 1282   1.922   4.451  11.835 -1.9599  0.5737  0.7657
   82TMC2    C7 1283   1.700   4.485  11.724 -0.0783 -0.1632  0.5696
   82TMC2    C8 1284   2.094   4.610  11.934 -1.2705 -0.0124 -0.1753
   82TMC2    O1 1285   1.694   4.452  11.844 -0.3365 -0.0413 -0.2260
   82TMC2    O2 1286   2.138   4.498  11.937 -0.5330 -0.1525  0.0736
   82TMC2    O5 1287   2.055   4.679  12.041  0.0838 -0.2211 -0.1236
   82TMC2    H5 1288   1.978   4.738  12.024 -0.8171 -1.6563 -1.0516
   83MPD2     C 1289   1.882   0.692  11.605  0.2930 -0.5524  0.3775
   83MPD2    C1 1290   1.774   0.609  11.598  1.0125 -0.6672 -0.6430
   83MPD2    C2 1291   1.793   0.472  11.631 -0.1863  0.6228 -0.5478
   83MPD2    C3 1292   1.923   0.431  11.669 -0.2892 -0.6824  0.0696
   83MPD2    C4 1293   2.024   0.519  11.689 -0.5506 -0.3775  0.5275
   83MPD2    C5 1294   2.002   0.649  11.658 -0.5485  0.3964  0.0473
   83MPD2     H 1295   1.709   0.405  11.624  0.1632  0.0986  0.3589
   83MPD2    H1 1296   2.128   0.495  11.709 -0.6895  0.8330  2.6697
   83MPD2    H2 1297   1.880   0.797  11.580  2.1015 -0.6600 -0.2508
   83MPD2    H3 1298   2.081   0.722  11.667  0.7979 -1.2129  1.2619
   83MPD2     N 1299   1.953   0.296  11.687 -0.0889  0.5302  0.6475
   83MPD2    H5 1300   2.042   0.264  11.724  0.0566  0.2927  0.0889
   83MPD2    N1 1301   1.642   0.660  11.557 -1.1014  0.2746 -0.1657
   83MPD2    H7 1302   1.634   0.758  11.534  0.8498  0.2007 -1.1962
   84TMC2    C1 1303   3.069   4.671  11.378 -0.0451  0.3406  0.7815
   84TMC2    C2 1304   3.165   4.616  11.449  0.5168  0.3024  0.7746
   84TMC2    C3 1305   3.227   4.512  11.394 -0.3186  0.2589  0.0634
   84TMC2    C4 1306   3.045   4.644  11.246 -0.0697  0.1231  0.2334
   84TMC2    C5 1307   3.116   4.543  11.191  0.3279  0.2937 -0.6308
   84TMC2    C6 1308   3.204   4.469  11.262  0.3040 -0.8265 -0.0928
   84TMC2     C 1309   2.977   0.005  11.445 -0.7424  0.3331 -0.9241
   84TMC2     O 1310   2.963   4.734  11.567 -0.2311  0.4467  0.0994
   84TMC2     H 1311   3.196   4.661  11.542  0.4582 -2.2287  2.0252
   84TMC2    H1 1312   2.956   4.664  11.187 -0.8421 -0.5571  1.1643
   84TMC2    H2 1313   3.251   4.383  11.215  1.5948 -0.9980  1.4933
   84TMC2    C7 1314   3.073   4.483  11.065 -0.5816  0.5485  0.0855
   84TMC2    C8 1315   3.299   4.424  11.484 -0.2447  0.7285 -0.3290
   84TMC2    O1 1316   3.129   4.377  11.038 -0.0055 -0.6582 -0.2161
   84TMC2    O2 1317   3.286   4.435  11.605 -0.6669 -0.5146  0.2194
   84TMC2    O5 1318   3.365   4.326  11.414 -0.3048  0.3382  0.2289
   84TMC2    H5 1319   3.405   4.362  11.332 -1.1815 -2.2031 -1.3216
   85TMC2    C1 1320   3.291   3.060  15.915  0.4882 -0.6579 -0.4096
   85TMC2    C2 1321   3.248   3.188  15.924 -0.1889 -0.0012  0.6465
   85TMC2    C3 1322   3.344   3.280  15.901 -1.0294 -0.3547 -0.2162
   85TMC2    C4 1323   3.418   3.024  15.890  0.6706  0.0096 -0.4814
   85TMC2    C5 1324   3.498   3.121  15.854 -0.2780 -0.0400  0.1168
   85TMC2    C6 1325   3.463   3.254  15.861 -0.1092 -0.0941  0.4345
   85TMC2     C 1326   3.211   2.968  15.999  0.0720  0.4708  0.2146
   85TMC2     O 1327   3.143   3.016  16.094 -0.0536  1.0473 -1.0873
   85TMC2     H 1328   3.143   3.206  15.948 -0.1065  0.4110  0.6884
   85TMC2    H1 1329   3.460   2.926  15.906 -0.3538 -0.2808  0.4033
   85TMC2    H2 1330   3.534   3.334  15.844 -0.3177  0.0455  0.2247
   85TMC2    C7 1331   3.581   3.071  15.736 -0.2242  0.4844 -0.1556
   85TMC2    C8 1332   3.281   3.402  15.868  0.6246 -0.3622  0.5737
   85TMC2    O1 1333   3.632   2.966  15.759 -0.5135 -0.0485  0.2832
   85TMC2    O2 1334   3.271   3.434  15.753  0.2197 -0.1699  0.2138
   85TMC2    O5 1335   3.198   3.438  15.959 -0.1426 -0.2113 -0.4448
   85TMC2    H5 1336   3.236   3.408  16.045  0.2438 -0.1218 -0.5864
   86MPD2     C 1337   3.098   2.532  16.226  0.4638 -0.9842  0.5053
   86MPD2    C1 1338   3.132   2.504  16.097 -0.0410  0.7141  0.3975
   86MPD2    C2 1339   3.183   2.606  16.013  0.1705 -0.2068 -0.1530
   86MPD2    C3 1340   3.198   2.730  16.067 -0.3209 -0.0783  0.6858
   86MPD2    C4 1341   3.182   2.751  16.203  0.3657 -0.3343  0.3481
   86MPD2    C5 1342   3.128   2.653  16.283  0.1645  0.3313 -0.1144
   86MPD2     H 1343   3.209   2.596  15.908 -0.1697 -1.5726 -0.1049
   86MPD2    H1 1344   3.221   2.842  16.250 -0.7366  0.1629  0.2996
   86MPD2    H2 1345   3.049   2.465  16.296 -1.5377 -0.0829 -0.0309
   86MPD2    H3 1346   3.103   2.672  16.387 -0.4760 -1.7361  0.1092
   86MPD2     N 1347   3.240   2.832  15.978 -0.2392 -0.5923 -0.1105
   86MPD2    H5 1348   3.289   2.798  15.895 -0.8069 -1.7019  0.0163
   86MPD2    N1 1349   3.099   2.374  16.053 -0.0869 -0.8911  0.7109
   86MPD2    H7 1350   3.039   2.314  16.107 -0.9279 -0.9499 -0.2903
   87TMC2    C1 1351   0.765   1.087   1.114  0.3945 -0.0515  0.1990
   87TMC2    C2 1352   0.784   1.051   1.242 -0.0962  0.3359  1.0468
   87TMC2    C3 1353   0.709   1.111   1.336  0.4975 -0.5825 -0.0823
   87TMC2    C4 1354   0.684   1.195   1.079  0.4768  0.0699  0.2802
   87TMC2    C5 1355   0.607   1.259   1.174  0.9559  0.2966  0.2274
   87TMC2    C6 1356   0.629   1.221   1.302 -0.1144 -0.1408  0.0037
   87TMC2     C 1357   0.826   1.012   0.999  1.0913 -0.1345 -0.7918
   87TMC2     O 1358   0.906   0.926   1.037 -0.0320 -0.4038  0.2559
   87TMC2     H 1359   0.855   0.973   1.265 -0.1116 -0.6249 -2.1598
   87TMC2    H1 1360   0.650   1.219   0.979  3.8501  0.7974 -0.6728
   87TMC2    H2 1361   0.575   1.268   1.384  0.6619 -1.7670  1.4455
   87TMC2    C7 1362   0.527   1.372   1.131  0.2866  0.8008 -0.0121
   87TMC2    C8 1363   0.728   1.080   1.474 -0.8315 -0.9666 -0.2541
   87TMC2    O1 1364   0.467   1.371   1.024 -0.0202  0.2068 -0.2352
   87TMC2    O2 1365   0.739   1.166   1.561 -0.0735  0.6531  0.3878
   87TMC2    O5 1366   0.727   0.944   1.491  0.4394 -0.3890  0.2859
   87TMC2    H5 1367   0.679   0.916   1.411 -0.9146 -0.7148  1.2152
   88MPD2     C 1368   0.496   1.687   1.328 -0.5232 -0.3054 -0.3598
   88MPD2    C1 1369   0.472   1.598   1.227  0.8524  0.0646  1.1860
   88MPD2    C2 1370   0.394   1.643   1.117  0.5457 -0.2583  0.0037
   88MPD2    C3 1371   0.322   1.765   1.133  0.2446 -0.0100 -0.1137
   88MPD2    C4 1372   0.344   1.851   1.230  0.1851  0.0573 -0.3579
   88MPD2    C5 1373   0.431   1.813   1.332 -0.1919 -0.3473  0.6060
   88MPD2     H 1374   0.384   1.582   1.027  1.3775  0.9730 -0.9253
   88MPD2    H1 1375   0.314   1.955   1.221  1.6623  0.1907 -3.6192
   88MPD2    H2 1376   0.554   1.659   1.415 -2.8856 -2.9304  0.3814
   88MPD2    H3 1377   0.454   1.875   1.418  0.3124  0.5909 -0.2048
   88MPD2     N 1378   0.239   1.816   1.029 -0.4102  0.5749  0.7700
   88MPD2    H5 1379   0.195   1.905   1.048 -0.1589  0.4775  1.7997
   88MPD2    N1 1380   0.531   1.467   1.229 -0.6782  0.1438 -0.6132
   88MPD2    H7 1381   0.594   1.448   1.307  0.9349  2.0208 -1.4449
   89TMC2    C1 1382   2.454   3.857   0.984 -0.2153 -0.1467 -0.2484
   89TMC2    C2 1383   2.487   3.857   0.851 -0.2232  0.7235 -0.3749
   89TMC2    C3 1384   2.459   3.963   0.768  0.0905  0.0463  0.0208
   89TMC2    C4 1385   2.358   3.943   1.023 -0.3507 -0.0775 -0.3275
   89TMC2    C5 1386   2.330   4.057   0.947 -0.7621  0.1788  0.1822
   89TMC2    C6 1387   2.376   4.069   0.813 -0.2725 -0.3251  0.2017
   89TMC2     C 1388   2.442   3.722   1.049 -0.2500 -0.2298  0.0779
   89TMC2     O 1389   2.507   3.630   1.001 -0.3258 -0.0355 -0.2822
   89TMC2     H 1390   2.563   3.787   0.818 -0.8105 -0.0608 -0.0617
   89TMC2    H1 1391   2.349   3.957   1.130  3.5974  0.0950 -0.0351
   89TMC2    H2 1392   2.353   4.157   0.753 -2.6113 -0.6703  0.5952
   89TMC2    C7 1393   2.275   4.172   1.019  1.2227  0.3963  0.3422
   89TMC2    C8 1394   2.548   3.980   0.658 -0.8800 -0.0401  0.6842
   89TMC2    O1 1395   2.244   4.156   1.138 -0.4281 -0.2789  0.3367
   89TMC2    O2 1396   2.658   3.927   0.637 -0.0491 -0.5863 -0.0543
   89TMC2    O5 1397   2.497   4.078   0.581 -0.4428  0.0829  0.5134
   89TMC2    H5 1398   2.400   4.093   0.584 -0.5244  0.0199 -2.0789
   90MPD2     C 1399   2.169   3.348   1.261  0.1648  0.4054  0.5876
   90MPD2    C1 1400   2.104   3.470   1.281  0.9811 -0.0645 -0.2932
   90MPD2    C2 1401   2.155   3.591   1.230 -0.1834  0.6256 -0.3891
   90MPD2    C3 1402   2.275   3.587   1.165  0.1516  0.0864 -0.2045
   90MPD2    C4 1403   2.338   3.467   1.149  0.5686  0.1880 -0.2064
   90MPD2    C5 1404   2.294   3.355   1.203 -0.3963  0.1860  0.3638
   90MPD2     H 1405   2.111   3.688   1.251 -1.6841 -0.1338  0.0327
   90MPD2    H1 1406   2.445   3.462   1.132  0.5259 -0.6469 -0.2207
   90MPD2    H2 1407   2.137   3.251   1.298  2.6556  0.1035  1.9354
   90MPD2    H3 1408   2.354   3.265   1.211 -0.3491  0.2408  0.6292
   90MPD2     N 1409   2.340   3.711   1.135  0.3730 -0.6801 -0.7037
   90MPD2    H5 1410   2.296   3.800   1.156  0.3670 -0.4479 -1.7025
   90MPD2    N1 1411   1.984   3.483   1.344 -0.3189 -0.5122 -0.4442
   90MPD2    H7 1412   1.946   3.575   1.368 -0.0329 -0.4350 -0.2882
   91TMC2    C1 1413   3.245   3.647  16.420  0.0290 -0.0274 -0.4770
   91TMC2    C2 1414   3.341   3.585  16.495 -0.0967 -0.2056 -0.0759
   91TMC2    C3 1415   3.317   3.568  16.628 -0.2205  0.0476  0.4711
   91TMC2    C4 1416   3.130   3.693  16.479 -0.2454 -0.0710  0.0715
   91TMC2    C5 1417   3.109   3.669  16.612  0.0851 -0.2483 -0.1396
   91TMC2    C6 1418   3.203   3.606  16.690  0.4500  0.1255 -0.7036
   91TMC2     C 1419   3.262   3.665  16.271 -0.1019 -0.0321  0.0989
   91TMC2     O 1420   3.163   3.670  16.197 -0.2467  0.3185  0.0957
   91TMC2     H 1421   3.420   3.527  16.448 -1.5412 -2.3816  0.1440
   91TMC2    H1 1422   3.064   3.747  16.411  2.1198 -1.1203 -3.0552
   91TMC2    H2 1423   3.171   3.559  16.783  1.1200 -0.2743 -0.6672
   91TMC2    C7 1424   2.971   3.641  16.649  0.0714  0.3338  1.1547
   91TMC2    C8 1425   3.421   3.487  16.691 -0.4602 -0.9697 -0.1389
   91TMC2    O1 1426   2.961   3.603  16.766  0.2081  0.3051 -0.2250
   91TMC2    O2 1427   3.486   3.399  16.635  0.6188  0.4647  0.5171
   91TMC2    O5 1428   3.411   3.516  16.821 -0.8481 -0.0868  0.0338
   91TMC2    H5 1429   3.359   3.596  16.844  0.0230  0.5003 -0.0613
   92MPD2     C 1430   3.351   3.718  15.988 -0.5081 -0.2498  0.0240
   92MPD2    C1 1431   3.430   3.680  16.092 -0.3924  0.2889  0.0580
   92MPD2    C2 1432   3.575   3.665  16.062 -0.1852 -0.1661 -0.0637
   92MPD2    C3 1433   3.622   3.699  15.938  0.2685 -0.0337  1.1798
   92MPD2    C4 1434   3.536   3.746  15.840 -0.5698 -0.5761 -0.7040
   92MPD2    C5 1435   3.405   3.749  15.865  0.1630  0.1873  0.5250
   92MPD2     H 1436   3.643   3.623  16.135 -1.5298  0.0827  1.3284
   92MPD2    H1 1437   3.569   3.782  15.743 -1.9595  0.5610 -0.7495
   92MPD2    H2 1438   3.243   3.719  15.994 -0.6085 -1.0952 -1.6993
   92MPD2    H3 1439   3.343   3.776  15.781  3.3357 -0.5535 -2.0690
   92MPD2     N 1440   3.763   3.679  15.928  0.4579  0.4694  0.2442
   92MPD2    H5 1441   3.813   3.651  16.012 -1.0001 -3.0082 -0.0252
   92MPD2    N1 1442   3.391   3.660  16.231  0.1347 -0.3123  0.7604
   92MPD2    H7 1443   3.461   3.645  16.303  2.0908  2.8301 -0.5159
   93TMC2    C1 1444   0.932   3.523  13.692 -0.0740 -1.0454 -0.9450
   93TMC2    C2 1445   0.890   3.660  13.686  0.5499 -0.3495 -0.6491
   93TMC2    C3 1446   0.984   3.753  13.717  0.6186 -0.2016  0.2659
   93TMC2    C4 1447   1.057   3.487  13.737 -0.4719 -0.1125 -0.4481
   93TMC2    C5 1448   1.145   3.586  13.766 -0.1775  0.3940 -0.3268
   93TMC2    C6 1449   1.109   3.721  13.755 -0.4668  0.4386 -0.2119
   93TMC2     C 1450   0.837   3.417  13.678 -0.5555  0.2748  0.3683
   93TMC2     O 1451   0.881   3.302  13.674  0.1869 -0.1086  0.1932
   93TMC2     H 1452   0.797   3.695  13.642  0.5328  2.2969  1.4862
   93TMC2    H1 1453   1.077   3.384  13.763 -1.0040 -0.3186 -0.8740
   93TMC2    H2 1454   1.182   3.801  13.762 -1.0790  0.8461  1.7364
   93TMC2    C7 1455   1.274   3.548  13.817 -0.1694 -0.1799 -0.0115
   93TMC2    C8 1456   0.952   3.890  13.694  0.0304 -0.1244  0.3441
   93TMC2    O1 1457   1.303   3.432  13.790 -0.4237  0.8688  0.3700
   93TMC2    O2 1458   1.028   3.987  13.695 -0.3172 -0.4682 -0.3862
   93TMC2    O5 1459   0.816   3.908  13.726  0.8943  0.6641  0.3160
   93TMC2    H5 1460   0.788   3.820  13.760 -1.3777  0.6986 -1.4433
   94MPD2     C 1461   0.590   3.259  13.704  0.5810 -1.1514  0.1652
   94MPD2    C1 1462   0.591   3.395  13.711 -0.2837  0.4120  0.4357
   94MPD2    C2 1463   0.472   3.460  13.746 -0.3744  0.0761 -0.8252
   94MPD2    C3 1464   0.355   3.387  13.773  0.0669  0.3558 -0.3563
   94MPD2    C4 1465   0.358   3.250  13.756  0.0593  0.7749  0.8090
   94MPD2    C5 1466   0.475   3.187  13.725 -0.0754 -0.6962  0.1145
   94MPD2     H 1467   0.461   3.567  13.758 -1.6918 -0.2675  1.1194
   94MPD2    H1 1468   0.272   3.185  13.768 -1.8067  3.1407  0.2333
   94MPD2    H2 1469   0.678   3.197  13.687  1.3759  0.2670 -0.8935
   94MPD2    H3 1470   0.466   3.079  13.736 -0.1520 -0.5423  1.4681
   94MPD2     N 1471   0.234   3.436  13.819 -0.6855 -0.7836 -0.5835
   94MPD2    H5 1472   0.158   3.368  13.820 -1.3384 -0.0172  1.0774
   94MPD2    N1 1473   0.708   3.467  13.689  0.2440  0.1489 -0.4054
   94MPD2    H7 1474   0.695   3.566  13.710  0.6960  0.0365  0.3985
   95TMC2    C1 1475   0.393   0.328  16.788 -0.2273 -0.2197  0.2286
   95TMC2    C2 1476   0.370   0.218  16.863 -0.6544  0.1454  0.9172
   95TMC2    C3 1477   0.323   0.239  16.991 -0.4504 -0.1776  0.8497
   95TMC2    C4 1478   0.346   0.448  16.829 -0.8385 -0.1212 -0.3454
   95TMC2    C5 1479   0.309   0.470  16.962 -0.7957  0.0751  0.3157
   95TMC2    C6 1480   0.283   0.361  17.044  0.3664  0.2761  0.3153
   95TMC2     C 1481   0.412   0.309  16.645  0.3148  0.3112  0.5443
   95TMC2     O 1482   0.381   0.403  16.575 -0.1023 -0.8215 -0.4554
   95TMC2     H 1483   0.362   0.119  16.819 -1.1460  0.6870 -0.2174
   95TMC2    H1 1484   0.349   0.535  16.764  1.9623  0.4959  0.5899
   95TMC2    H2 1485   0.240   0.368  17.143 -1.1704 -0.1642 -0.3182
   95TMC2    C7 1486   0.248   0.593  17.009 -0.6027 -0.6097 -0.2596
   95TMC2    C8 1487   0.322   0.135  17.092  0.3615  0.4525  0.3766
   95TMC2    O1 1488   0.222   0.589  17.134  0.3016 -0.5391  0.2009
   95TMC2    O2 1489   0.274   0.153  17.205  0.2159  0.1310 -0.0818
   95TMC2    O5 1490   0.398   0.034  17.052 -0.3282  0.0389 -0.4862
   95TMC2    H5 1491   0.425   0.046  16.959 -2.0882 -0.0453 -1.0137
   96MPD2     C 1492   0.690   0.081  16.276 -0.2335  0.1027  0.7497
   96MPD2    C1 1493   0.629   0.200  16.271  0.4072  0.3370 -0.6053
   96MPD2    C2 1494   0.556   0.234  16.393 -0.1519  0.0762 -0.5934
   96MPD2    C3 1495   0.550   0.156  16.505 -0.1850 -0.1462 -0.3308
   96MPD2    C4 1496   0.627   0.042  16.509 -0.1257  0.5183  0.6936
   96MPD2    C5 1497   0.684   0.007  16.389  0.1906  0.6520 -0.7541
   96MPD2     H 1498   0.498   0.326  16.396 -1.2436 -0.6243 -0.0295
   96MPD2    H1 1499   0.627   4.709  16.586 -1.5311  0.5587  0.7424
   96MPD2    H2 1500   0.740   0.043  16.187  2.7324  0.5008  2.2274
   96MPD2    H3 1501   0.746   4.663  16.383 -2.5651 -1.3172 -0.1036
   96MPD2     N 1502   0.489   0.199  16.621 -0.5314 -0.2464 -0.2880
   96MPD2    H5 1503   0.510   0.143  16.703  1.2214 -1.0696 -1.2919
   96MPD2    N1 1504   0.636   0.271  16.147 -0.6591  0.3001  0.7132
   96MPD2    H7 1505   0.684   0.230  16.068 -0.5291  0.5048  0.6855
   97TMC2    C1 1506   2.503   3.381   0.086  0.1050  0.2898  0.1433
   97TMC2    C2 1507   2.367   3.411   0.085 -0.6082  0.1021 -0.1215
   97TMC2    C3 1508   2.324   3.532   0.030 -0.4203 -0.1074 -0.6856
   97TMC2    C4 1509   2.598   3.471   0.048 -0.3173 -0.2429 -0.3163
   97TMC2    C5 1510   2.549   3.592   0.004  1.6357  0.7323  0.3891
   97TMC2    C6 1511   2.415   3.628  17.762 -0.1480  0.6632  0.4503
   97TMC2     C 1512   2.545   3.255   0.146 -0.1173  0.6010 -0.0062
   97TMC2     O 1513   2.452   3.178   0.162 -0.3387  0.3577  0.3453
   97TMC2     H 1514   2.298   3.334   0.118 -0.3524 -0.1093 -0.0763
   97TMC2    H1 1515   2.705   3.461   0.062 -0.4847 -3.1222 -0.9032
   97TMC2    H2 1516   2.388   3.729  17.734  1.4428  1.2374  0.9894
   97TMC2    C7 1517   2.652   3.697  17.758 -0.0888  0.1401  0.2260
   97TMC2    C8 1518   2.195   3.574   0.071 -0.4805 -0.7307 -0.0773
   97TMC2    O1 1519   2.764   3.669   0.025 -0.7228  0.0502 -0.0620
   97TMC2    O2 1520   2.129   3.672   0.034 -0.5108  0.7705 -0.8601
   97TMC2    O5 1521   2.168   3.507   0.185  0.2408 -0.1800  0.2886
   97TMC2    H5 1522   2.229   3.439   0.220  2.0269  2.1522  1.6997
   98MPD2     C 1523   2.838   2.980   0.449  0.1811  0.0040  0.6726
   98MPD2    C1 1524   2.716   2.951   0.393  0.0991  0.0765  0.7627
   98MPD2    C2 1525   2.667   3.024   0.290  0.1454  0.1025 -0.3806
   98MPD2    C3 1526   2.725   3.152   0.276  0.5613 -0.9419 -0.5643
   98MPD2    C4 1527   2.850   3.183   0.331 -0.3608  0.0777  0.0978
   98MPD2    C5 1528   2.908   3.090   0.413 -0.1048 -0.2892  0.1172
   98MPD2     H 1529   2.567   3.007   0.252  0.3085  0.1372 -0.8265
   98MPD2    H1 1530   2.902   3.276   0.312 -2.3749  1.1300 -0.2574
   98MPD2    H2 1531   2.875   2.922   0.533 -0.0978  0.8174  1.3565
   98MPD2    H3 1532   3.003   3.117   0.459 -1.2728  1.4969  1.5166
   98MPD2     N 1533   2.675   3.252   0.191 -0.0765  0.1561  0.1860
   98MPD2    H5 1534   2.732   3.336   0.193 -1.4038  1.0481  0.7468
   98MPD2    N1 1535   2.648   2.838   0.440 -0.5094  0.4273 -0.3206
   98MPD2    H7 1536   2.671   2.812   0.535 -0.6904  1.2152 -0.0612
   99TMC2    C1 1537   1.769   0.262   1.808  0.0817  0.0435 -0.5210
   99TMC2    C2 1538   1.853   0.311   1.906 -0.2460 -0.4589  0.1997
   99TMC2    C3 1539   1.802   0.399   1.991 -0.4655  0.4775 -0.0938
   99TMC2    C4 1540   1.633   0.295   1.797 -0.1250  0.2526  0.4793
   99TMC2    C5 1541   1.594   0.399   1.881  0.3353 -0.0889 -0.7493
   99TMC2    C6 1542   1.673   0.442   1.983 -0.0213  0.3397 -0.3306
   99TMC2     C 1543   1.813   0.148   1.734 -0.3778  0.7903 -0.0456
   99TMC2     O 1544   1.891   0.071   1.790  0.4051 -0.2253 -0.1937
   99TMC2     H 1545   1.958   0.284   1.904  0.1536  0.9645  2.5573
   99TMC2    H1 1546   1.568   0.253   1.721 -0.6692 -0.3136  1.2643
   99TMC2    H2 1547   1.633   0.519   2.048 -0.6968 -0.1749 -0.1468
   99TMC2    C7 1548   1.456   0.440   1.892  0.5492 -0.0734  0.2475
   99TMC2    C8 1549   1.883   0.435   2.114 -0.0370 -0.9293 -0.4302
   99TMC2    O1 1550   1.435   0.555   1.922 -0.1950 -0.3114 -0.0054
   99TMC2    O2 1551   2.005   0.410   2.116 -0.1834  0.2989 -0.3709
   99TMC2    O5 1552   1.807   0.492   2.207  0.7070  0.0302  0.5610
   99TMC2    H5 1553   1.712   0.471   2.196  0.3733  0.6639  2.2630
  100MPD2     C 1554   1.828   4.677   1.538 -0.5688  0.5237 -0.0437
  100MPD2    C1 1555   1.788   0.058   1.508  0.0023  0.0376 -0.2952
  100MPD2    C2 1556   1.743   0.082   1.382 -0.0767  0.3101  0.6161
  100MPD2    C3 1557   1.747   4.730   1.289  0.5297  0.1417  0.0818
  100MPD2    C4 1558   1.790   4.605   1.325  0.5075 -0.3429 -0.3227
  100MPD2    C5 1559   1.821   4.574   1.449  0.1794 -0.4161 -0.1033
  100MPD2     H 1560   1.712   0.185   1.368  1.8435  0.5410 -1.9759
  100MPD2    H1 1561   1.798   4.523   1.254 -1.2404  1.2410 -2.3577
  100MPD2    H2 1562   1.857   4.646   1.638  1.8117  0.3588 -0.7771
  100MPD2    H3 1563   1.838   4.473   1.483 -1.4714 -0.6888 -0.0896
  100MPD2     N 1564   1.695   0.026   1.163  0.0059  0.2473  0.8307
  100MPD2    H5 1565   1.677   0.126   1.160  1.1715  0.4263 -0.6329
  100MPD2    N1 1566   1.776   0.160   1.605  0.0613 -0.0264 -0.3482
  100MPD2    H7 1567   1.728   0.246   1.583 -1.9174 -1.5578 -1.9850
  101TMC2    C1 1568   2.048   1.622  13.223 -0.1694  0.1243  0.1780
  101TMC2    C2 1569   1.984   1.740  13.193 -0.6651  0.0163 -0.7426
  101TMC2    C3 1570   2.055   1.834  13.127 -0.0163 -0.2348 -0.8212
  101TMC2    C4 1571   2.173   1.596  13.180 -0.0172 -0.5288  0.9201
  101TMC2    C5 1572   2.246   1.699  13.122  0.0232 -0.5103  0.9031
  101TMC2    C6 1573   2.186   1.822  13.083  0.1668 -0.1945 -0.8718
  101TMC2     C 1574   1.956   1.513  13.238 -0.2338  0.0901 -0.1689
  101TMC2     O 1575   1.863   1.533  13.314  0.6732 -0.2420 -0.1463
  101TMC2     H 1576   1.889   1.760  13.241  0.6336  0.2618  1.7554
  101TMC2    H1 1577   2.224   1.501  13.182  0.2124 -0.4370 -0.3955
  101TMC2    H2 1578   2.239   1.912  13.054 -2.4794  2.4703  2.4496
  101TMC2    C7 1579   2.383   1.689  13.080 -0.2279 -0.1966 -0.5009
  101TMC2    C8 1580   1.985   1.949  13.074 -0.2538  0.1023 -0.9116
  101TMC2    O1 1581   2.419   1.782  13.009 -0.4253 -0.5283  0.3984
  101TMC2    O2 1582   2.059   2.046  13.051 -0.1152 -0.5709  0.4332
  101TMC2    O5 1583   1.890   1.902  12.996  0.0175  0.4885  0.8971
  101TMC2    H5 1584   1.863   1.809  13.014 -1.4647  0.7223 -0.1245
  102MPD2     C 1585   2.014   1.176  13.110 -0.5432 -0.4906 -0.6809
  102MPD2    C1 1586   1.954   1.273  13.189 -0.1286 -0.5261  0.0654
  102MPD2    C2 1587   1.867   1.236  13.294 -0.8309 -0.5525 -0.2340
  102MPD2    C3 1588   1.861   1.097  13.321  0.0132 -0.5585 -0.3701
  102MPD2    C4 1589   1.925   1.002  13.238 -0.4884  0.4357  0.1873
  102MPD2    C5 1590   1.995   1.040  13.130  0.7511  0.4568 -0.1270
  102MPD2     H 1591   1.826   1.313  13.359 -0.4434 -0.6878  0.1659
  102MPD2    H1 1592   1.932   0.895  13.256  3.1217  0.8845  1.4016
  102MPD2    H2 1593   2.088   1.201  13.034  1.7259  1.6310  2.2176
  102MPD2    H3 1594   2.050   0.959  13.082  1.5876  0.1014  1.4246
  102MPD2     N 1595   1.788   1.067  13.440 -0.0625 -0.0242 -0.1638
  102MPD2    H5 1596   1.739   1.143  13.487  0.6000  0.2054  0.1674
  102MPD2    N1 1597   1.997   1.404  13.167  0.0497 -0.2929 -0.4400
  102MPD2    H7 1598   2.072   1.421  13.101  0.5809 -2.6201 -0.4429
  103TMC2    C1 1599   4.540   0.996  12.569  0.2892 -0.6127  0.4036
  103TMC2    C2 1600   4.590   1.103  12.509  0.5952  0.5032 -0.3120
  103TMC2    C3 1601   4.706   1.157  12.553 -0.2097 -0.0104  0.2667
  103TMC2    C4 1602   4.602   0.941  12.680  0.0974  0.1487  0.5829
  103TMC2    C5 1603   4.717   0.997  12.732  0.1469 -0.4852  1.0177
  103TMC2    C6 1604   0.018   1.109  12.671 -0.1277 -0.4419  0.5239
  103TMC2     C 1605   4.437   0.922  12.496  0.4095  0.6752 -0.3678
  103TMC2     O 1606   4.362   0.986  12.422  0.1283  0.4686  0.2921
  103TMC2     H 1607   4.543   1.132  12.416 -1.4411  0.7915  0.7980
  103TMC2    H1 1608   4.569   0.851  12.730  2.0857 -0.8649  0.0827
  103TMC2    H2 1609   0.115   1.150  12.697 -0.4442  0.5347  0.1909
  103TMC2    C7 1610   0.023   0.963  12.864 -0.4601  0.1995 -0.4929
  103TMC2    C8 1611   0.040   1.239  12.466 -0.0864 -0.0714 -0.3504
  103TMC2    O1 1612   0.114   1.033  12.909  0.3758 -0.6335 -0.8645
  103TMC2    O2 1613   0.161   1.259  12.472  0.3370  0.4650  0.0330
  103TMC2    O5 1614   4.692   1.336  12.439 -0.3254 -0.7058 -0.3223
  103TMC2    H5 1615   4.602   1.308  12.467 -0.0536 -1.0615  0.2007
  104MPD2     C 1616   4.359   0.568  12.556 -0.2035 -0.3361 -0.7166
  104MPD2    C1 1617   4.357   0.683  12.480 -0.1326 -0.0424  0.0197
  104MPD2    C2 1618   4.285   0.690  12.360  0.4354 -0.1860  0.7665
  104MPD2    C3 1619   4.202   0.584  12.320  0.4351 -0.4583 -0.1407
  104MPD2    C4 1620   4.212   0.465  12.394  0.1639 -0.1578 -0.3607
  104MPD2    C5 1621   4.290   0.459  12.509 -0.4021 -0.3432  0.0278
  104MPD2     H 1622   4.276   0.785  12.310 -0.5588  0.0110  1.3103
  104MPD2    H1 1623   4.171   0.370  12.361 -3.3414  0.7451  1.4083
  104MPD2    H2 1624   4.410   0.562  12.651 -0.4794  0.0959 -0.5446
  104MPD2    H3 1625   4.287   0.363  12.560 -3.3517  1.0401  2.4961
  104MPD2     N 1626   4.108   0.600  12.215 -0.1422 -0.1223  1.0785
  104MPD2    H5 1627   4.097   0.692  12.175  0.2335 -0.5367  0.0306
  104MPD2    N1 1628   4.433   0.787  12.532  0.6552 -0.2673 -0.0089
  104MPD2    H7 1629   4.492   0.764  12.611 -2.2198  0.2711  2.3060
  105TMC2    C1 1630   1.424   0.489   0.496  0.0936  0.5462  0.2691
  105TMC2    C2 1631   1.487   0.518   0.616  0.2719  0.4881 -0.4118
  105TMC2    C3 1632   1.437   0.616   0.700  0.1694  0.8714 -0.8245
  105TMC2    C4 1633   1.308   0.548   0.463 -0.8171 -0.5613 -0.4237
  105TMC2    C5 1634   1.258   0.640   0.549 -0.5302  0.5944  0.1323
  105TMC2    C6 1635   1.320   0.682   0.666  0.0780  0.0135  0.1035
  105TMC2     C 1636   1.493   0.406   0.397  0.3096 -0.4739  0.3127
  105TMC2     O 1637   1.570   0.323   0.446 -0.3630 -0.1846  0.2232
  105TMC2     H 1638   1.585   0.474   0.636  0.3845  0.9354  0.0032
  105TMC2    H1 1639   1.260   0.524   0.369 -2.3609 -0.1365  0.2668
  105TMC2    H2 1640   1.289   0.764   0.730 -0.0220  0.5335 -0.6074
  105TMC2    C7 1641   1.133   0.694   0.510 -0.0922 -0.0892 -0.0747
  105TMC2    C8 1642   1.528   0.657   0.812  0.4116 -0.0660  0.1439
  105TMC2    O1 1643   1.103   0.692   0.392  0.8007 -0.6963 -0.2756
  105TMC2    O2 1644   1.645   0.633   0.818  0.2563 -0.3247  0.2361
  105TMC2    O5 1645   1.444   0.642   0.916 -0.0487 -0.2566  0.4289
  105TMC2    H5 1646   1.351   0.631   0.888  0.2251 -0.0435 -0.5469
  106MPD2     C 1647   1.672   0.338  17.681 -0.5347  0.1696  0.2571
  106MPD2    C1 1648   1.603   0.452  17.688 -0.1365  0.4266 -0.3949
  106MPD2    C2 1649   1.547   0.495   0.036 -0.1980  0.4847 -0.2350
  106MPD2    C3 1650   1.552   0.415   0.150 -0.1974 -0.1305 -0.0809
  106MPD2    C4 1651   1.630   0.302   0.144  0.2133 -0.2052 -0.0190
  106MPD2    C5 1652   1.697   0.265   0.028  0.4284  0.0955  0.0716
  106MPD2     H 1653   1.484   0.583   0.035 -0.9062 -0.0437 -1.3566
  106MPD2    H1 1654   1.633   0.238   0.231  0.3124 -1.4758 -0.9629
  106MPD2    H2 1655   1.704   0.283  17.594  0.0764  1.7214 -0.4879
  106MPD2    H3 1656   1.743   0.167   0.027 -1.4210 -0.7895 -0.2189
  106MPD2     N 1657   1.483   0.461   0.273  0.2216  0.1473 -0.0051
  106MPD2    H5 1658   1.427   0.545   0.259 -1.6632 -1.3250 -1.1460
  106MPD2    N1 1659   1.585   0.536  17.576 -0.1231  0.7872  1.0966
  106MPD2    H7 1660   1.514   0.606  17.594 -0.6660  0.7151 -0.8158
  107TMC2    C1 1661   2.427   0.278  12.115 -0.4272 -0.4283 -0.1543
  107TMC2    C2 1662   2.535   0.212  12.155 -0.8501  0.0534 -0.3868
  107TMC2    C3 1663   2.647   0.201  12.079 -0.1342 -0.2126  0.5166
  107TMC2    C4 1664   2.416   0.316  11.983  0.2636  0.9118  0.4127
  107TMC2    C5 1665   2.533   0.311  11.909 -0.0059  0.8098  0.2534
  107TMC2    C6 1666   2.650   0.251  11.953  0.4894  0.3805  0.1383
  107TMC2     C 1667   2.308   0.277  12.197  0.0403 -0.4523 -0.2813
  107TMC2     O 1668   2.318   0.217  12.307  0.0988  0.1282  0.4824
  107TMC2     H 1669   2.528   0.166  12.253  0.2547 -1.1883 -0.8909
  107TMC2    H1 1670   2.338   0.380  11.945  1.7577  2.7549  0.4473
  107TMC2    H2 1671   2.742   0.252  11.895 -1.3790 -0.3410 -2.8482
  107TMC2    C7 1672   2.520   0.325  11.767  0.3962 -0.6546 -0.3415
  107TMC2    C8 1673   2.761   0.144  12.137 -0.1142  0.7418  0.7683
  107TMC2    O1 1674   2.424   0.386  11.723  0.3637  0.0157 -0.0124
  107TMC2    O2 1675   2.769   0.150  12.258  0.4288  0.3678 -0.1340
  107TMC2    O5 1676   2.825   0.068  12.042 -0.4039  0.6916  0.0135
  107TMC2    H5 1677   2.777   0.073  11.957 -2.8956 -3.5554  1.1516
  108MPD2     C 1678   1.985   0.423  12.149 -0.3315  0.4836  0.0339
  108MPD2    C1 1679   2.071   0.329  12.193  0.2926 -0.6977  0.3083
  108MPD2    C2 1680   2.033   0.228  12.279  0.0213 -0.2644  0.0234
  108MPD2    C3 1681   1.906   0.218  12.324  0.3044  0.3424  0.0662
  108MPD2    C4 1682   1.818   0.312  12.281  0.0076  0.3564  0.1989
  108MPD2    C5 1683   1.858   0.415  12.193  0.0232 -0.1276  0.0304
  108MPD2     H 1684   2.107   0.153  12.307  0.6550  0.0914 -0.7060
  108MPD2    H1 1685   1.720   0.314  12.328 -0.7234  0.3113 -1.3148
  108MPD2    H2 1686   2.010   0.503  12.080 -0.1916  0.8089  0.4638
  108MPD2    H3 1687   1.778   0.481  12.161 -1.2494 -1.9687 -0.6612
  108MPD2     N 1688   1.861   0.114  12.405  0.5307  1.0744  0.0846
  108MPD2    H5 1689   1.762   0.109  12.424  0.4418  0.1608 -0.5999
  108MPD2    N1 1690   2.202   0.343  12.141 -0.4476  0.1257  0.4403
  108MPD2    H7 1691   2.223   0.411  12.069  0.5720  0.2647  0.8712
  109TMC2    C1 1692   1.395   2.086   0.387 -0.1868 -0.5067  0.2634
  109TMC2    C2 1693   1.365   1.993   0.292  0.4048  0.4446 -0.6815
  109TMC2    C3 1694   1.465   1.952   0.209  0.0279  0.7123 -0.2203
  109TMC2    C4 1695   1.526   2.125   0.402 -0.3339 -0.3997 -0.1242
  109TMC2    C5 1696   1.616   2.092   0.304 -0.7921 -0.3026  0.3941
  109TMC2    C6 1697   1.594   1.995   0.209  0.1341 -0.9156 -0.1543
  109TMC2     C 1698   1.287   2.115   0.480  0.6403 -0.2221 -0.7448
  109TMC2     O 1699   1.177   2.081   0.445  0.0612  0.0322 -0.1345
  109TMC2     H 1700   1.266   1.952   0.276  0.6667 -0.6143  0.4788
  109TMC2    H1 1701   1.539   2.202   0.477  0.5274 -1.3123  0.6729
  109TMC2    H2 1702   1.657   1.971   0.124 -1.3280  1.4457 -1.8910
  109TMC2    C7 1703   1.746   2.155   0.314 -0.7312 -0.1828 -0.2569
  109TMC2    C8 1704   1.424   1.841   0.119  0.1386 -0.1079 -0.2934
  109TMC2    O1 1705   1.759   2.243   0.397  0.0553  0.4074 -0.7038
  109TMC2    O2 1706   1.459   1.833   0.004  0.5820 -0.0428 -0.0999
  109TMC2    O5 1707   1.408   1.736   0.207 -0.0269  0.2937  0.0916
  109TMC2    H5 1708   1.430   1.753   0.301 -1.1355 -0.6031  0.5098
  110MPD2     C 1709   1.097   2.188   0.949  0.7325  0.5348  0.4447
  110MPD2    C1 1710   1.227   2.226   0.953  0.2282 -0.1129 -0.1986
  110MPD2    C2 1711   1.300   2.210   0.840 -0.3975  0.3696 -0.1244
  110MPD2    C3 1712   1.236   2.168   0.721  0.3402 -0.3008  0.2648
  110MPD2    C4 1713   1.102   2.123   0.722 -1.0741  0.2867  0.7250
  110MPD2    C5 1714   1.043   2.118   0.844 -0.6089 -0.8892  0.2925
  110MPD2     H 1715   1.404   2.242   0.834 -0.3025  0.2863  1.0686
  110MPD2    H1 1716   1.048   2.077   0.640 -0.3110  1.3234 -0.3585
  110MPD2    H2 1717   1.047   2.208   1.043  1.1916 -0.3102  0.8698
  110MPD2    H3 1718   0.941   2.082   0.859 -0.4614 -1.8347 -1.0565
  110MPD2     N 1719   1.318   2.165   0.606 -0.3518  0.0578 -0.4066
  110MPD2    H5 1720   1.418   2.165   0.624  0.1130 -0.0909 -2.9907
  110MPD2    N1 1721   1.275   2.289   1.071 -0.0518 -0.0490  0.5894
  110MPD2    H7 1722   1.204   2.299   1.142 -0.0266 -0.6378  0.7005
  111TMC2    C1 1723   2.766   2.241  11.558  0.0755  0.1253 -0.2349
  111TMC2    C2 1724   2.878   2.242  11.479  0.2737  0.1917 -0.0911
  111TMC2    C3 1725   2.992   2.176  11.531 -0.8124  0.5763  0.5566
  111TMC2    C4 1726   2.778   2.212  11.693 -0.5455 -0.0120  0.4591
  111TMC2    C5 1727   2.894   2.155  11.738  0.1492  1.1076  0.1303
  111TMC2    C6 1728   3.000   2.131  11.655 -0.9114 -0.6659  0.0927
  111TMC2     C 1729   2.649   2.292  11.490  0.2368  0.0376 -0.2316
  111TMC2     O 1730   2.675   2.373  11.406 -0.1786  0.5236  0.0006
  111TMC2     H 1731   2.873   2.270  11.375 -0.1470 -1.6626 -0.5651
  111TMC2    H1 1732   2.691   2.215  11.758 -0.6275  1.2532  0.2921
  111TMC2    H2 1733   3.089   2.085  11.696  0.8628  2.9799  0.3044
  111TMC2    C7 1734   2.906   2.100  11.871  0.1069 -0.0107 -0.1408
  111TMC2    C8 1735   3.110   2.146  11.451 -0.9339  0.3178 -0.3625
  111TMC2    O1 1736   2.977   2.007  11.898 -0.0410 -0.7286  0.0341
  111TMC2    O2 1737   3.102   2.135  11.331  0.2632 -0.7637  0.5479
  111TMC2    O5 1738   3.217   2.193  11.517  0.3758 -0.0160  0.4539
  111TMC2    H5 1739   3.193   2.200  11.612 -3.0160 -0.0082 -0.3872
  112MPD2     C 1740   2.142   2.339  11.393  0.6634  0.1390 -0.4354
  112MPD2    C1 1741   2.254   2.398  11.330 -0.3987  0.2565 -0.3615
  112MPD2    C2 1742   2.381   2.364  11.377 -0.1931  0.6013  0.0599
  112MPD2    C3 1743   2.402   2.275  11.477 -0.2399 -0.4388 -0.8086
  112MPD2    C4 1744   2.292   2.210  11.533 -0.8566 -0.3926 -1.5650
  112MPD2    C5 1745   2.167   2.254  11.501  0.0109 -0.1991 -0.3061
  112MPD2     H 1746   2.461   2.413  11.324 -0.3964  0.5875 -0.2661
  112MPD2    H1 1747   2.299   2.146  11.620 -2.6444  0.8934 -0.4564
  112MPD2    H2 1748   2.040   2.375  11.391  0.9911  1.0375 -1.0027
  112MPD2    H3 1749   2.085   2.211  11.557  1.2696 -0.9319  0.9754
  112MPD2     N 1750   2.526   2.242  11.535 -0.4270  0.3667  0.4031
  112MPD2    H5 1751   2.512   2.189  11.620 -0.1061 -0.6476 -0.1726
  112MPD2    N1 1752   2.247   2.465  11.204  0.2693  0.3106  0.0241
  112MPD2    H7 1753   2.335   2.503  11.171  2.2052 -1.8831  2.6313
  113TMC2    C1 1754   0.231   4.705   0.438  0.1896 -0.1154  0.8264
  113TMC2    C2 1755   0.186   0.040   0.337 -0.7794 -0.1585 -0.1570
  113TMC2    C3 1756   0.092   4.744   0.248 -0.0501 -0.3755 -0.6802
  113TMC2    C4 1757   0.172   4.587   0.469 -0.9232 -0.4420 -0.1115
  113TMC2    C5 1758   0.072   4.551   0.386  0.3286  0.4436 -0.5043
  113TMC2    C6 1759   0.043   4.618   0.265  0.4264 -0.3984  0.6933
  113TMC2     C 1760   0.348   0.010   0.506  0.8998 -0.0898  0.1724
  113TMC2     O 1761   0.380   0.128   0.489  0.1246 -0.2727 -0.4740
  113TMC2     H 1762   0.230   0.136   0.312 -1.2563  0.2891  0.7372
  113TMC2    H1 1763   0.205   4.511   0.539 -2.0188 -1.0305 -0.2383
  113TMC2    H2 1764   4.707   4.584   0.200  0.8557  0.3399 -0.2366
  113TMC2    C7 1765   4.737   4.433   0.417 -0.2689  0.3524 -0.0356
  113TMC2    C8 1766   0.049   0.084   0.142  0.2063 -0.3431  0.1190
  113TMC2    O1 1767   4.678   4.385   0.323  0.0913  0.2656  0.2317
  113TMC2    O2 1768   4.733   0.038   0.043  0.2664 -0.2096 -0.0471
  113TMC2    O5 1769   0.056   0.205   0.183  0.2821 -0.5507  0.0509
  113TMC2    H5 1770   0.071   0.211   0.280 -1.7984  0.3980  0.3231
  114MPD2     C 1771   0.738   4.672   0.840  0.1100 -0.6048  0.7074
  114MPD2    C1 1772   0.678   0.043   0.799  0.2464 -0.0261  0.1823
  114MPD2    C2 1773   0.567   0.032   0.710 -0.3994 -0.1095 -0.2408
  114MPD2    C3 1774   0.519   4.657   0.661 -0.4362 -0.0523 -0.2394
  114MPD2    C4 1775   0.581   4.546   0.702  0.0233  0.2157  0.9224
  114MPD2    C5 1776   0.689   4.552   0.788  0.0323 -0.0094  0.3038
  114MPD2     H 1777   0.506   0.121   0.692  0.1271  0.3827  0.4187
  114MPD2    H1 1778   0.538   4.450   0.672 -2.9616  1.4565  1.2168
  114MPD2    H2 1779   0.812   4.659   0.919 -1.3161 -0.2554  2.0943
  114MPD2    H3 1780   0.732   4.459   0.824  1.2802  0.6433  0.4786
  114MPD2     N 1781   0.408   4.648   0.571  0.4805  0.3551 -0.0618
  114MPD2    H5 1782   0.376   4.554   0.551  1.2104 -0.3645  2.0805
  114MPD2    N1 1783   0.713   0.175   0.854  0.2285  1.0888 -0.0216
  114MPD2    H7 1784   0.639   0.244   0.849 -0.3723  0.3691 -0.9808
  115TMC2    C1 1785   1.436   2.412  17.329  0.2614  0.5145 -0.3714
  115TMC2    C2 1786   1.485   2.313  17.249 -0.0888 -0.4385 -0.2582
  115TMC2    C3 1787   1.622   2.287  17.260  0.1083 -0.4808  0.2389
  115TMC2    C4 1788   1.515   2.488  17.410 -0.8752  0.2473 -0.0614
  115TMC2    C5 1789   1.652   2.456  17.415 -0.1096  0.1196 -0.3027
  115TMC2    C6 1790   1.704   2.358  17.341  0.4929  0.4837 -0.4230
  115TMC2     C 1791   1.298   2.397  17.372  0.2580  0.7397  0.0779
  115TMC2     O 1792   1.252   2.282  17.373 -0.0564  0.0530  0.3146
  115TMC2     H 1793   1.411   2.258  17.192  0.8883 -0.1150 -1.8177
  115TMC2    H1 1794   1.473   2.560  17.479 -3.4951 -1.0927 -0.2594
  115TMC2    H2 1795   1.809   2.333  17.351  0.0807 -1.5119 -0.9670
  115TMC2    C7 1796   1.741   2.544  17.483 -0.3869  0.6283 -0.2971
  115TMC2    C8 1797   1.682   2.200  17.172 -0.1740  0.2233 -0.0412
  115TMC2    O1 1798   1.841   2.489  17.526  0.4683 -0.0938 -0.0421
  115TMC2    O2 1799   1.795   2.220  17.138  0.2307  0.1714  0.2965
  115TMC2    O5 1800   1.629   2.083  17.211 -0.2726  0.0186 -0.4875
  115TMC2    H5 1801   1.532   2.092  17.210 -0.1637  1.5591  1.7757
  116MPD2     C 1802   0.858   2.589  17.565 -0.6309  0.7194 -0.0032
  116MPD2    C1 1803   0.906   2.462  17.564 -0.2667 -0.2157  0.1184
  116MPD2    C2 1804   1.034   2.443  17.515 -0.3881 -0.7300  0.8044
  116MPD2    C3 1805   1.107   2.544  17.462 -0.1583 -0.5159 -0.3653
  116MPD2    C4 1806   1.065   2.674  17.471 -0.4713 -0.2637  0.3985
  116MPD2    C5 1807   0.938   2.694  17.518 -0.1838  0.7230  0.5216
  116MPD2     H 1808   1.066   2.342  17.493 -1.2478 -0.9720  0.6652
  116MPD2    H1 1809   1.125   2.750  17.421  0.7915 -1.4239  0.1405
  116MPD2    H2 1810   0.754   2.606  17.591 -0.5119 -0.2559  1.1380
  116MPD2    H3 1811   0.904   2.797  17.512  0.7630  1.0747  1.1516
  116MPD2     N 1812   1.237   2.520  17.406  0.3506  0.2264  0.6081
  116MPD2    H5 1813   1.294   2.601  17.383 -2.4047  1.8248 -0.4959
  116MPD2    N1 1814   0.815   2.352  17.591  0.3177 -0.1854  0.2279
  116MPD2    H7 1815   0.719   2.381  17.609  0.0503 -0.0031 -1.5195
  117TMC2    C1 1816   4.273   4.137  14.111 -0.3541 -0.0982 -0.1065
  117TMC2    C2 1817   4.332   4.060  14.201  0.1503 -0.0594  0.7985
  117TMC2    C3 1818   4.453   4.106  14.246 -0.6921  0.4638 -0.3182
  117TMC2    C4 1819   4.316   4.261  14.068  0.9263  0.6038 -0.7099
  117TMC2    C5 1820   4.430   4.308  14.128 -0.1339  0.2209 -0.3259
  117TMC2    C6 1821   4.492   4.235  14.220 -0.2040  0.2105  0.5427
  117TMC2     C 1822   4.147   4.092  14.064 -0.4916 -0.1051 -0.7881
  117TMC2     O 1823   4.141   3.973  14.051 -0.0217  0.6115  0.2332
  117TMC2     H 1824   4.285   3.973  14.244 -2.0020  0.2799 -0.9136
  117TMC2    H1 1825   4.279   4.301  13.975  0.1713  1.1191 -0.1914
  117TMC2    H2 1826   4.574   4.275  14.280  1.7168 -0.3895 -1.6890
  117TMC2    C7 1827   4.489   4.440  14.100 -0.0110  0.2384  0.3419
  117TMC2    C8 1828   4.494   4.055  14.378  0.1895 -0.1192  0.1094
  117TMC2    O1 1829   4.605   4.456  14.130  0.4373  0.5594 -0.5543
  117TMC2    O2 1830   4.498   4.131  14.476  0.4016  0.0529  0.3672
  117TMC2    O5 1831   4.471   3.925  14.389 -0.1333  0.1202  0.1450
  117TMC2    H5 1832   4.481   3.873  14.306 -0.6487  0.7602 -0.3184
  118MPD2     C 1833   4.304   4.741  14.035 -0.4188  0.1789  0.8823
  118MPD2    C1 1834   4.414   4.663  14.045 -0.6813  0.2872 -0.6417
  118MPD2    C2 1835   4.541   4.724  14.043 -0.5982 -0.5610 -0.1564
  118MPD2    C3 1836   4.554   0.117  14.057 -0.4300  0.3595 -0.6496
  118MPD2    C4 1837   4.440   0.196  14.059 -0.5113 -0.2058 -0.0825
  118MPD2    C5 1838   4.317   0.132  14.049 -0.6633 -0.8148 -0.5791
  118MPD2     H 1839   4.632   4.665  14.049 -0.3501 -0.0859  0.7157
  118MPD2    H1 1840   4.444   0.304  14.070  2.2518 -0.3744  0.6649
  118MPD2    H2 1841   4.206   4.696  14.026 -0.6366  0.4885  1.7703
  118MPD2    H3 1842   4.228   0.193  14.060 -1.9829 -1.8891 -5.4555
  118MPD2     N 1843   4.676   0.189  14.082 -0.2947 -1.3823 -0.3472
  118MPD2    H5 1844   4.664   0.286  14.111  1.4816 -1.2932  0.0642
  118MPD2    N1 1845   4.395   4.525  14.050 -0.3589  0.5264  0.2097
  118MPD2    H7 1846   4.301   4.489  14.036  0.0101 -0.6399  0.7538
  119TMC2    C1 1847   2.883   1.060  13.792  0.0675  0.1926  0.0650
  119TMC2    C2 1848   2.917   1.153  13.704 -0.4086  0.3210 -0.9958
  119TMC2    C3 1849   2.903   1.127  13.571 -0.5400 -0.5952  0.1812
  119TMC2    C4 1850   2.827   0.940  13.754  0.8470 -0.4161 -0.4998
  119TMC2    C5 1851   2.808   0.920  13.623 -0.6977  0.4870 -0.0733
  119TMC2    C6 1852   2.851   1.009  13.526 -0.2011  0.3038 -0.2318
  119TMC2     C 1853   2.934   1.065  13.929  0.2235  0.7350  1.0186
  119TMC2     O 1854   2.924   0.973  14.004  0.5444  0.2967  0.0214
  119TMC2     H 1855   2.957   1.249  13.732 -0.9840  0.5637 -1.0123
  119TMC2    H1 1856   2.784   0.881  13.834  1.4387 -1.4741 -0.9759
  119TMC2    H2 1857   2.834   0.999  13.419  1.2670  1.5226 -0.5795
  119TMC2    C7 1858   2.712   0.822  13.577 -0.3447  0.2722 -1.0124
  119TMC2    C8 1859   2.940   1.234  13.478 -0.2700  0.2378 -0.0814
  119TMC2    O1 1860   2.697   0.834  13.457 -0.5415 -0.2375 -0.0519
  119TMC2    O2 1861   2.889   1.346  13.481 -0.6419  0.2519 -0.1707
  119TMC2    O5 1862   3.003   1.171  13.380  0.4300  0.2327  0.5730
  119TMC2    H5 1863   3.043   1.091  13.420  1.0633  0.6516  0.7767
  120MPD2     C 1864   3.171   1.346  14.300 -0.1744 -0.2721 -0.5103
  120MPD2    C1 1865   3.143   1.216  14.289  0.6102 -1.0915  0.3679
  120MPD2    C2 1866   3.092   1.169  14.169  0.3712 -0.6961  0.0155
  120MPD2    C3 1867   3.048   1.247  14.069  0.4600  0.4358 -0.1018
  120MPD2    C4 1868   3.079   1.379  14.071 -0.1381 -0.9693  0.0277
  120MPD2    C5 1869   3.136   1.427  14.191  0.4199 -0.1550 -0.8563
  120MPD2     H 1870   3.070   1.063  14.164  0.0985 -0.6469  0.1763
  120MPD2    H1 1871   3.056   1.455  13.997  0.4300 -0.4413  0.3912
  120MPD2    H2 1872   3.232   1.375  14.385 -0.5628 -0.0696 -0.3003
  120MPD2    H3 1873   3.166   1.531  14.190 -2.4363  0.6753  1.0919
  120MPD2     N 1874   2.987   1.192  13.947  0.0498  0.0570  0.3022
  120MPD2    H5 1875   2.967   1.267  13.882 -0.0334  1.0497  1.4550
  120MPD2    N1 1876   3.182   1.131  14.396 -0.0015 -0.7392 -0.1808
  120MPD2    H7 1877   3.254   1.173  14.453 -0.7007 -1.0190  0.8928
  121TMC2    C1 1878   4.329   2.167  14.836  0.3204 -0.1793 -0.3620
  121TMC2    C2 1879   4.346   2.159  14.971 -0.0577 -0.4989  0.0794
  121TMC2    C3 1880   4.288   2.051  15.036 -0.2888  0.7452  0.4195
  121TMC2    C4 1881   4.264   2.075  14.761  0.3014  0.8251 -0.1711
  121TMC2    C5 1882   4.202   1.975  14.834 -0.5067 -0.0131 -0.0803
  121TMC2    C6 1883   4.218   1.961  14.969 -0.1717 -0.3547  0.4942
  121TMC2     C 1884   4.362   2.295  14.774 -0.0640 -0.5240 -0.7524
  121TMC2     O 1885   4.342   2.394  14.842 -0.3378  0.5333  0.4485
  121TMC2     H 1886   4.392   2.227  15.042  2.1747 -0.8708 -1.0007
  121TMC2    H1 1887   4.259   2.068  14.653 -1.3747  4.5659 -0.3284
  121TMC2    H2 1888   4.165   1.879  15.017 -0.4705 -0.7947 -0.6015
  121TMC2    C7 1889   4.128   1.868  14.767  0.0756 -0.4359  0.2021
  121TMC2    C8 1890   4.295   2.043  15.177  0.1330  0.4793 -0.2461
  121TMC2    O1 1891   4.144   1.753  14.813  0.1290  0.5490 -0.0000
  121TMC2    O2 1892   4.296   2.142  15.246  0.7677 -0.2201 -0.5918
  121TMC2    O5 1893   4.395   1.952  15.199  0.1697  0.0891 -0.0753
  121TMC2    H5 1894   4.388   1.871  15.143  1.0735  0.7180 -1.0800
  122MPD2     C 1895   4.402   2.521  14.585 -0.2696 -1.2501  0.0055
  122MPD2    C1 1896   4.412   2.391  14.551 -0.5528 -0.0303 -0.1780
  122MPD2    C2 1897   4.449   2.362  14.422 -0.6452  0.0804  0.3672
  122MPD2    C3 1898   4.465   2.466  14.329 -0.5306 -0.7900  0.0202
  122MPD2    C4 1899   4.466   2.599  14.368  0.0096  0.0801 -0.5497
  122MPD2    C5 1900   4.422   2.619  14.494 -0.2056  0.1517 -0.0110
  122MPD2     H 1901   4.465   2.256  14.407  0.0660  0.0909  1.0295
  122MPD2    H1 1902   4.483   2.684  14.303  0.2591 -0.6966 -1.4931
  122MPD2    H2 1903   4.379   2.547  14.687 -0.0131 -3.3545  0.6027
  122MPD2    H3 1904   4.401   2.724  14.514 -2.2936 -0.8893  3.2230
  122MPD2     N 1905   4.486   2.433  14.192  0.1694  0.0560  0.1060
  122MPD2    H5 1906   4.493   2.511  14.128  0.2747 -1.1296 -1.3468
  122MPD2    N1 1907   4.398   2.284  14.643 -0.6584  0.1054 -0.2103
  122MPD2    H7 1908   4.416   2.189  14.611 -1.6884 -0.0541 -0.3199
  123TMC2    C1 1909   2.614   1.132  10.794 -0.4109 -0.2904 -0.0601
  123TMC2    C2 1910   2.639   1.262  10.841 -0.1534  0.6048 -0.6205
  123TMC2    C3 1911   2.636   1.365  10.744 -0.0403 -0.0381 -0.6447
  123TMC2    C4 1912   2.602   1.110  10.660  0.7101 -0.4381 -0.3896
  123TMC2    C5 1913   2.619   1.215  10.567 -0.2683  0.6001  0.0835
  123TMC2    C6 1914   2.621   1.344  10.608 -1.7003 -0.3660  0.8705
  123TMC2     C 1915   2.600   1.030  10.900  0.4569  0.5812 -0.5033
  123TMC2     O 1916   2.643   1.056  11.014  0.1094  0.8300 -0.1403
  123TMC2     H 1917   2.657   1.285  10.946 -0.0485 -0.3714 -0.4288
  123TMC2    H1 1918   2.599   1.017  10.605  1.4935 -1.8274  1.9152
  123TMC2    H2 1919   2.654   1.422  10.541  1.2623 -0.6542  1.9777
  123TMC2    C7 1920   2.582   1.193  10.428 -0.1393 -0.0122 -1.0213
  123TMC2    C8 1921   2.685   1.497  10.789  0.1903 -0.5200 -0.3165
  123TMC2    O1 1922   2.570   1.079  10.391  0.3226 -0.4666 -0.5159
  123TMC2    O2 1923   2.749   1.515  10.895 -0.2347  0.2417 -0.2130
  123TMC2    O5 1924   2.647   1.603  10.712  0.1621  0.2516  0.0399
  123TMC2    H5 1925   2.583   1.581  10.641 -1.1453  1.9767  0.6674
  124MPD2     C 1926   2.433   0.563  11.044  0.5937 -0.0088 -0.3659
  124MPD2    C1 1927   2.378   0.592  10.922  0.6978  0.3066 -0.4541
  124MPD2    C2 1928   2.402   0.718  10.873  0.8782 -0.0158  0.3225
  124MPD2    C3 1929   2.495   0.810  10.929  0.1193  0.2583  0.2460
  124MPD2    C4 1930   2.549   0.780  11.048 -0.2769 -0.6878  0.0520
  124MPD2    C5 1931   2.516   0.661  11.103  0.0380 -0.3768  0.7782
  124MPD2     H 1932   2.357   0.742  10.778  1.1139  0.5176  0.3483
  124MPD2    H1 1933   2.591   0.861  11.107  1.3271 -2.4605  1.3227
  124MPD2    H2 1934   2.416   0.466  11.089  0.2924  1.8107  3.4213
  124MPD2    H3 1935   2.563   0.651  11.200  0.2881  0.5539  0.7526
  124MPD2     N 1936   2.521   0.927  10.855 -0.1013  0.3450 -0.1932
  124MPD2    H5 1937   2.477   0.940  10.765 -0.9299  0.0445  0.1665
  124MPD2    N1 1938   2.291   0.495  10.862 -0.0541 -0.6414 -0.3146
  124MPD2    H7 1939   2.272   0.409  10.911 -0.4667 -0.4364 -0.1145
  125TMC2    C1 1940   3.593   2.508   9.123 -0.0772  0.9172  1.3262
  125TMC2    C2 1941   3.674   2.589   9.050 -0.3861 -0.5511  0.2094
  125TMC2    C3 1942   3.753   2.665   9.126 -0.1348 -0.4364 -0.2082
  125TMC2    C4 1943   3.578   2.499   9.255  0.0120  0.3945  0.6687
  125TMC2    C5 1944   3.666   2.574   9.329  0.1984 -0.2121  0.3984
  125TMC2    C6 1945   3.760   2.658   9.267 -0.3520  0.2191  0.6734
  125TMC2     C 1946   3.493   2.457   9.039  0.2798  0.1436  0.2956
  125TMC2     O 1947   3.529   2.427   8.928  0.0196  0.4378 -0.0623
  125TMC2     H 1948   3.672   2.600   8.942  0.7868  0.3686  0.2852
  125TMC2    H1 1949   3.513   2.426   9.301 -0.1376  1.6634  2.4769
  125TMC2    H2 1950   3.830   2.719   9.323  0.4798  0.1648 -0.3182
  125TMC2    C7 1951   3.643   2.579   9.470 -0.2680  0.2750  0.0042
  125TMC2    C8 1952   3.844   2.769   9.078 -0.4305  0.5580 -0.1144
  125TMC2    O1 1953   3.536   2.543   9.516  0.2299  0.6953 -0.1330
  125TMC2    O2 1954   3.948   2.799   9.134  0.3347 -0.6701 -0.1506
  125TMC2    O5 1955   3.799   2.815   8.961  0.0830 -0.0416  0.3552
  125TMC2    H5 1956   3.701   2.821   8.955  0.0906 -1.2122 -1.3424
  126MPD1     C 1957   3.060   2.201   8.991 -0.1385 -0.7109  0.2056
  126MPD1    C1 1958   3.053   2.281   9.105  0.0980  0.0820  0.0880
  126MPD1    C2 1959   3.156   2.367   9.141 -0.1164 -0.2380 -0.8484
  126MPD1    C3 1960   3.274   2.360   9.063  0.1819  0.1379 -0.0889
  126MPD1    C4 1961   3.287   2.261   8.964  0.3311  0.1069 -0.2809
  126MPD1    C5 1962   3.179   2.185   8.931  0.3131 -0.6642 -0.6177
  126MPD1     H 1963   3.138   2.436   9.223 -1.1549 -0.8541 -0.5422
  126MPD1    H1 1964   3.376   2.254   8.902  0.6803  0.2142  0.2092
  126MPD1    H2 1965   2.983   2.127   8.970  0.4944 -0.8060 -1.7041
  126MPD1    H3 1966   3.181   2.114   8.849  0.4516 -0.9463 -0.3692
  126MPD1     N 1967   3.379   2.446   9.107 -0.2973  0.9169  0.1744
  126MPD1    H5 1968   3.370   2.503   9.191  0.8332 -0.1680  1.0315
  126MPD1    N1 1969   2.928   2.295   9.166  0.3829 -0.1410  0.1862
  126MPD1    H6 1970   2.934   2.316   9.265 -0.2186 -0.6423  0.3300
  126MPD1    H7 1971   2.864   2.216   9.160  0.3931 -0.2292  1.2071
  127TMC2    C1 1972   4.424   1.612  10.131 -0.5359 -0.2804  0.2576
  127TMC2    C2 1973   4.468   1.608  10.256  0.1014  0.2139  0.1104
  127TMC2    C3 1974   4.419   1.518  10.343  0.3917 -0.9053 -0.9656
  127TMC2    C4 1975   4.310   1.543  10.090 -0.2021  0.4168  0.0608
  127TMC2    C5 1976   4.262   1.448  10.179 -0.3072  0.1161  0.5984
  127TMC2    C6 1977   4.322   1.428  10.305  0.3841  0.5162 -0.1572
  127TMC2     C 1978   4.481   1.720  10.044 -0.7246 -0.3888  0.2589
  127TMC2     O 1979   4.541   1.809  10.103 -0.4971  0.4223 -0.1750
  127TMC2     H 1980   4.552   1.667  10.290  1.1730 -1.2212 -0.0398
  127TMC2    H1 1981   4.262   1.546   9.993 -1.0770  0.1260  0.4904
  127TMC2    H2 1982   4.281   1.349  10.368  0.4348  1.0868  0.5945
  127TMC2    C7 1983   4.143   1.370  10.136 -0.2420  0.8751 -0.1461
  127TMC2    C8 1984   4.509   1.475  10.449 -0.0360  0.2615  0.9134
  127TMC2    O1 1985   4.062   1.429  10.065  0.0291  0.1923  0.1806
  127TMC2    O2 1986   4.628   1.485  10.426 -0.0006  0.5090 -0.1600
  127TMC2    O5 1987   4.453   1.372  10.516  0.4837 -0.7468 -0.4802
  127TMC2    H5 1988   4.359   1.382  10.540  0.1523 -1.7091 -1.4340
  128MPD2     C 1989   4.485   1.761   9.676  0.3719  1.0940  0.4685
  128MPD2    C1 1990   4.518   1.790   9.811 -0.7427  1.0827 -0.0413
  128MPD2    C2 1991   4.606   1.894   9.828  0.2215  0.3750 -0.4283
  128MPD2    C3 1992   4.652   1.971   9.724  0.1934  1.1593  1.0681
  128MPD2    C4 1993   4.605   1.943   9.597 -0.1756 -0.3914  0.3466
  128MPD2    C5 1994   4.518   1.843   9.577  0.1397  0.3347 -0.2637
  128MPD2     H 1995   4.620   1.935   9.927 -0.2178  0.2160 -0.3062
  128MPD2    H1 1996   4.630   1.997   9.506 -1.8570  1.5196  1.0130
  128MPD2    H2 1997   4.418   1.679   9.650 -0.1591  0.9054  2.4360
  128MPD2    H3 1998   4.473   1.821   9.480  0.5061  1.3914 -0.6729
  128MPD2     N 1999   4.742   2.076   9.752  0.1125  0.4104 -0.4490
  128MPD2    H5 2000   0.040   2.068   9.844  0.2956 -3.0319 -0.8469
  128MPD2    N1 2001   4.467   1.705   9.913  0.1724  0.0792  0.0447
  128MPD2    H7 2002   4.413   1.626   9.878 -0.1332  0.1634  0.3297
  129TMC2    C1 2003   3.842   0.968   1.255  0.5276 -0.3208  1.0612
  129TMC2    C2 2004   3.829   0.848   1.324 -0.3492  0.3946  0.0577
  129TMC2    C3 2005   3.701   0.809   1.362  0.0704  0.1061  0.8417
  129TMC2    C4 2006   3.735   1.053   1.235  0.2845 -0.1981  0.2109
  129TMC2    C5 2007   3.616   1.003   1.263  0.0065 -0.3005  0.6258
  129TMC2    C6 2008   3.589   0.885   1.320  0.1548  0.8267 -0.1441
  129TMC2     C 2009   3.976   0.973   1.185 -0.6714  0.0986 -0.5248
  129TMC2     O 2010   4.048   0.875   1.183 -0.0026  0.5200 -0.5914
  129TMC2     H 2011   3.914   0.783   1.341  0.2209  1.3821  0.9762
  129TMC2    H1 2012   3.746   1.141   1.172  2.4408 -0.0633  0.7976
  129TMC2    H2 2013   3.489   0.843   1.319 -0.1307  1.4518  1.9461
  129TMC2    C7 2014   3.501   1.087   1.241 -0.0912 -0.0783 -0.6532
  129TMC2    C8 2015   3.691   0.665   1.350  0.0651 -0.1353  0.3513
  129TMC2    O1 2016   3.396   1.032   1.228  0.1145 -0.0641  0.1783
  129TMC2    O2 2017   3.779   0.599   1.286  0.3220 -0.1500  0.0473
  129TMC2    O5 2018   3.572   0.628   1.397  0.4003 -0.0337  0.3276
  129TMC2    H5 2019   3.519   0.688   1.454 -0.1589  0.4018 -0.6519
  130MPD2     C 2020   4.181   1.019   0.982 -0.2809  0.4052  0.0528
  130MPD2    C1 2021   4.090   1.115   1.018 -0.7237  0.5286 -0.7279
  130MPD2    C2 2022   4.096   1.236   0.953 -0.1444  0.5843  0.1631
  130MPD2    C3 2023   4.190   1.256   0.853 -0.1480 -0.3202  0.1950
  130MPD2    C4 2024   4.281   1.156   0.828  0.8560  0.2166  0.6823
  130MPD2    C5 2025   4.272   1.037   0.888  0.0662 -0.4535  0.4313
  130MPD2     H 2026   4.034   1.323   0.972  1.2439  1.4941  0.6385
  130MPD2    H1 2027   4.361   1.176   0.758  1.2508  1.9297  1.6089
  130MPD2    H2 2028   4.185   0.918   1.021 -2.8198  1.5856  3.3171
  130MPD2    H3 2029   4.337   0.957   0.855  0.4806 -0.1484  0.5065
  130MPD2     N 2030   4.175   1.375   0.781 -0.1564  0.3323  0.1012
  130MPD2    H5 2031   4.093   1.432   0.803  0.3941  2.0049 -2.2249
  130MPD2    N1 2032   3.992   1.090   1.114  0.2059 -0.2746  0.2294
  130MPD2    H7 2033   3.921   1.160   1.132 -0.3408 -0.6498 -0.4733
  131TMC2    C1 2034   1.976   1.238  10.240 -0.1129  0.1587 -0.1510
  131TMC2    C2 2035   2.048   1.312  10.339  0.5153  0.5548  0.0045
  131TMC2    C3 2036   2.053   1.447  10.321 -0.2983  0.3787 -0.2844
  131TMC2    C4 2037   1.929   1.296  10.125  0.4780  0.0356  0.0939
  131TMC2    C5 2038   1.961   1.427  10.109 -0.3734  0.3338 -0.1190
  131TMC2    C6 2039   2.022   1.506  10.208 -0.2466 -0.3013 -0.4234
  131TMC2     C 2040   1.966   1.095  10.258  0.0441 -0.1661  0.3819
  131TMC2     O 2041   2.040   1.051  10.346  0.2191  0.5790 -0.3441
  131TMC2     H 2042   2.085   1.270  10.432 -0.0099 -0.8164 -0.4062
  131TMC2    H1 2043   1.871   1.238  10.054  1.3858  0.4470 -0.9730
  131TMC2    H2 2044   2.058   1.606  10.187 -1.4633  0.5626  1.5423
  131TMC2    C7 2045   1.973   1.465   9.972  0.0121 -0.6420  0.3826
  131TMC2    C8 2046   2.141   1.494  10.423 -0.2725 -0.9962  0.2185
  131TMC2    O1 2047   1.937   1.386   9.883  0.3241 -0.0017 -0.2731
  131TMC2    O2 2048   2.221   1.428  10.489  0.1352  0.8856 -0.2378
  131TMC2    O5 2049   2.156   1.629  10.398  0.5913 -0.3370 -0.1991
  131TMC2    H5 2050   2.064   1.662  10.388  1.2957  1.1177 -1.9459
  132MPD2     C 2051   1.805   0.833  10.060  0.0771  0.6118  0.2197
  132MPD2    C1 2052   1.878   0.877  10.168  0.0524  0.0602 -0.2066
  132MPD2    C2 2053   1.921   0.787  10.263  0.2665  0.2332  0.1865
  132MPD2    C3 2054   1.883   0.655  10.264 -0.6121 -0.8265 -0.5119
  132MPD2    C4 2055   1.789   0.617  10.176  0.5170 -0.2120 -0.2331
  132MPD2    C5 2056   1.760   0.709  10.070  0.1213  0.0878 -0.2431
  132MPD2     H 2057   1.972   0.834  10.346  1.3210  2.2761 -1.6229
  132MPD2    H1 2058   1.767   0.512  10.162  0.1631 -0.2009  0.2278
  132MPD2    H2 2059   1.774   0.907   9.988  0.2883  1.0781  0.6101
  132MPD2    H3 2060   1.702   0.659   9.993  0.9926 -1.2704 -0.0227
  132MPD2     N 2061   1.933   0.574  10.374 -1.1370  0.4269 -0.2513
  132MPD2    H5 2062   1.999   0.619  10.437  0.6522  0.3276 -2.0409
  132MPD2    N1 2063   1.891   1.024  10.174  0.1808  0.0308 -0.1957
  132MPD2    H7 2064   1.847   1.081  10.102  0.1065 -2.1791 -1.9094
  133TMC2    C1 2065   1.450   0.614  10.141  0.7308 -0.2278 -0.9837
  133TMC2    C2 2066   1.472   0.590  10.269  0.0028 -0.3245  0.2749
  133TMC2    C3 2067   1.515   0.464  10.310 -0.4964 -0.9724  0.1052
  133TMC2    C4 2068   1.467   0.522  10.047 -0.1740  0.4092 -0.4594
  133TMC2    C5 2069   1.503   0.400  10.086 -0.1264  0.1436 -0.0941
  133TMC2    C6 2070   1.529   0.364  10.217 -0.1012 -0.2519 -0.9678
  133TMC2     C 2071   1.386   0.741  10.112 -0.3565  0.3225 -1.0891
  133TMC2     O 2072   1.393   0.781   9.998  0.2273 -0.6933 -0.3416
  133TMC2     H 2073   1.463   0.668  10.344  0.7459  1.7999 -1.8545
  133TMC2    H1 2074   1.439   0.548   9.945 -1.9256  2.7671  0.6277
  133TMC2    H2 2075   1.564   0.268  10.251 -0.5799 -0.2970 -0.6023
  133TMC2    C7 2076   1.462   0.297   9.993  0.0623 -0.0757  0.0318
  133TMC2    C8 2077   1.538   0.438  10.449  0.3554 -0.3372  0.1059
  133TMC2    O1 2078   1.438   0.328   9.876 -0.0041  0.0628  0.3992
  133TMC2    O2 2079   1.547   0.528  10.534 -0.3776 -0.0331  0.0584
  133TMC2    O5 2080   1.513   0.309  10.476  0.0136  0.1151  0.5439
  133TMC2    H5 2081   1.462   0.266  10.404 -1.4845  2.7192  0.0324
  134MPD2     C 2082   1.119   0.876  10.305 -0.3151 -0.1369  0.5840
  134MPD2    C1 2083   1.209   0.886  10.208  0.4787  0.3182  0.3501
  134MPD2    C2 2084   1.217   0.989  10.118  0.4493  0.7480 -0.3789
  134MPD2    C3 2085   1.129   1.089  10.119 -0.1710  0.6498  0.3943
  134MPD2    C4 2086   1.027   1.076  10.209  0.0628  0.1621  0.5708
  134MPD2    C5 2087   1.022   0.973  10.299  0.0900  1.3954  0.6362
  134MPD2     H 2088   1.300   0.982  10.049 -0.0574  3.5787 -1.2917
  134MPD2    H1 2089   0.955   1.157  10.215 -3.4326 -2.9397  0.5255
  134MPD2    H2 2090   1.106   0.795  10.376 -0.7797 -1.5662 -1.1506
  134MPD2    H3 2091   0.940   0.966  10.370 -1.9283  1.6872 -1.6721
  134MPD2     N 2092   1.133   1.201  10.033 -0.0140  0.0596 -0.1516
  134MPD2    H5 2093   1.086   1.287  10.059 -0.0642 -0.0013 -0.0415
  134MPD2    N1 2094   1.300   0.779  10.207 -0.2107 -0.0118 -0.1105
  134MPD2    H7 2095   1.275   0.714  10.282 -1.5043  0.3682 -0.2082
  135TMC2    C1 2096   3.891   3.371  10.543  0.5878  0.7004  0.5257
  135TMC2    C2 2097   3.881   3.385  10.679 -0.2686  0.8102  0.0259
  135TMC2    C3 2098   3.789   3.312  10.753 -0.3114 -0.3434 -0.1669
  135TMC2    C4 2099   3.800   3.298  10.473  0.2369 -0.0324  0.3401
  135TMC2    C5 2100   3.704   3.229  10.549  0.1602 -0.1791 -0.2047
  135TMC2    C6 2101   3.693   3.234  10.685  0.5729 -0.3735 -0.5291
  135TMC2     C 2102   3.960   3.483  10.481 -0.7743  0.2861 -0.3948
  135TMC2     O 2103   4.014   3.556  10.562  0.3246 -0.2587  0.3340
  135TMC2     H 2104   3.946   3.447  10.740  0.5367  0.5033 -0.5204
  135TMC2    H1 2105   3.821   3.269  10.371  0.4219 -0.7110  0.5755
  135TMC2    H2 2106   3.620   3.175  10.738  1.3026  0.2900  1.2441
  135TMC2    C7 2107   3.629   3.136  10.467  0.0667  0.5558 -0.5654
  135TMC2    C8 2108   3.811   3.307  10.898  0.8836  0.1136  0.5299
  135TMC2    O1 2109   3.622   3.165  10.350  0.0590 -0.1363  0.2290
  135TMC2    O2 2110   3.855   3.394  10.967  0.3092 -0.0155 -0.0522
  135TMC2    O5 2111   3.755   3.197  10.941 -0.2761  0.4360  0.0139
  135TMC2    H5 2112   3.739   3.134  10.867 -0.9387 -0.1068  0.6313
  136MPD2     C 2113   3.963   3.740  10.332  0.1354 -0.1108 -0.8134
  136MPD2    C1 2114   3.993   3.623  10.281 -0.0924 -0.6429  0.4101
  136MPD2    C2 2115   4.050   3.606  10.156  0.1162  0.5529 -0.2982
  136MPD2    C3 2116   4.095   3.712  10.082 -0.2042  0.6550 -0.6287
  136MPD2    C4 2117   4.074   3.831  10.139  0.3179  0.6757 -0.2223
  136MPD2    C5 2118   4.002   3.849  10.255  0.3457 -0.0902  0.5462
  136MPD2     H 2119   4.054   3.505  10.117  0.2583 -0.3341  2.0022
  136MPD2    H1 2120   4.110   3.921  10.092  2.6949 -0.7005 -1.0568
  136MPD2    H2 2121   3.912   3.752  10.427  1.7845 -1.8684  0.2851
  136MPD2    H3 2122   3.967   3.945  10.292 -0.5570  0.2200 -1.1211
  136MPD2     N 2123   4.171   3.714   9.963  0.3403 -0.1504 -0.6921
  136MPD2    H5 2124   4.191   3.803   9.918 -2.2797  0.5326 -0.5041
  136MPD2    N1 2125   3.950   3.501  10.342  0.0116  0.3427  0.3755
  136MPD2    H7 2126   3.935   3.416  10.288 -0.0821  0.3910  0.3251
  137TMC2    C1 2127   3.519   2.049   9.167 -0.2482 -0.4740  0.1015
  137TMC2    C2 2128   3.581   1.984   9.069 -0.0322 -0.3253 -0.2503
  137TMC2    C3 2129   3.509   1.887   9.001  0.6431 -0.6720  0.0615
  137TMC2    C4 2130   3.391   2.031   9.218 -0.5392  0.4852 -0.0504
  137TMC2    C5 2131   3.320   1.932   9.146  0.9110 -0.1115 -0.7818
  137TMC2    C6 2132   3.380   1.871   9.031  0.4063  0.3749  0.6134
  137TMC2     C 2133   3.602   2.133   9.249 -0.1480 -0.4592  0.4587
  137TMC2     O 2134   3.559   2.162   9.362  0.0059 -0.2278  0.1566
  137TMC2     H 2135   3.680   2.009   9.034  0.7286 -1.8914  0.7656
  137TMC2    H1 2136   3.360   2.083   9.307 -2.0778 -0.9211  0.2417
  137TMC2    H2 2137   3.320   1.814   8.961  0.1223  0.1140  1.0688
  137TMC2    C7 2138   3.183   1.886   9.176 -0.1879 -1.0803 -0.5842
  137TMC2    C8 2139   3.538   1.853   8.868 -0.1224 -0.6188  0.4689
  137TMC2    O1 2140   3.149   1.778   9.125 -0.5807 -0.0548 -0.0151
  137TMC2    O2 2141   3.457   1.842   8.772  0.0285 -0.0253  0.1625
  137TMC2    O5 2142   3.671   1.835   8.862 -0.0259  0.4818  0.5132
  137TMC2    H5 2143   3.720   1.818   8.946  0.4234 -0.3508  0.0865
  138MPD2     C 2144   3.914   2.318   9.149  0.0483  0.0469 -0.2910
  138MPD2    C1 2145   3.816   2.261   9.231 -0.6003  0.3355  0.1756
  138MPD2    C2 2146   3.838   2.260   9.370  0.3994 -0.8266  0.7528
  138MPD2    C3 2147   3.942   2.327   9.429 -0.0010  0.1361 -0.1591
  138MPD2    C4 2148   4.047   2.371   9.346  0.3875  0.1782  0.1977
  138MPD2    C5 2149   4.029   2.372   9.209 -0.6688 -0.0051 -0.1377
  138MPD2     H 2150   3.760   2.214   9.430 -0.7370  0.7242  0.4484
  138MPD2    H1 2151   4.139   2.405   9.392 -0.3253 -0.3868  2.0517
  138MPD2    H2 2152   3.910   2.303   9.042 -0.8704 -0.1054 -0.2392
  138MPD2    H3 2153   4.112   2.407   9.148  0.1281 -1.5505  0.0449
  138MPD2     N 2154   3.953   2.339   9.572  0.2999  0.1256  0.1948
  138MPD2    H5 2155   3.890   2.285   9.630  1.3919  0.4398  1.6460
  138MPD2    N1 2156   3.706   2.191   9.175  0.4180 -0.6298 -0.3322
  138MPD2    H7 2157   3.694   2.177   9.075 -0.5645  0.6083 -0.3897
  139TMC2    C1 2158   4.510   0.645  13.984  0.2248  0.0349 -0.2297
  139TMC2    C2 2159   4.550   0.706  14.102  0.6548 -0.2396  0.1629
  139TMC2    C3 2160   4.485   0.820  14.142 -0.1774 -0.4397  0.6466
  139TMC2    C4 2161   4.404   0.697  13.913 -0.1244  0.5454  0.0990
  139TMC2    C5 2162   4.327   0.793  13.974 -0.2285 -0.2229 -0.2184
  139TMC2    C6 2163   4.366   0.861  14.085  1.1955  0.1831  0.3217
  139TMC2     C 2164   4.599   0.555  13.913 -0.3848 -0.3361  0.7888
  139TMC2     O 2165   4.534   0.472  13.849  0.0315  0.1616  0.3013
  139TMC2     H 2166   4.637   0.676  14.158  0.5613 -0.8375 -0.0114
  139TMC2    H1 2167   4.385   0.658  13.813 -0.6191  0.4416  0.2375
  139TMC2    H2 2168   4.301   0.933  14.134  0.3366  0.0562 -0.6199
  139TMC2    C7 2169   4.197   0.800  13.923  0.3199  0.0646 -0.7499
  139TMC2    C8 2170   4.523   0.864  14.276  0.0558  0.1086 -0.0546
  139TMC2    O1 2171   4.173   0.753  13.809  0.5364  0.0188  0.7585
  139TMC2    O2 2172   4.559   0.786  14.364 -0.0162  0.3000  0.2709
  139TMC2    O5 2173   4.509   1.001  14.295 -0.5760 -0.1655  0.1573
  139TMC2    H5 2174   4.509   1.041  14.206 -1.3323 -0.9641 -0.2047
  140MPD2     C 2175   0.213   0.574  13.849  0.3727  0.1608 -0.5141
  140MPD2    C1 2176   0.084   0.523  13.848 -0.1017 -0.2616 -0.1310
  140MPD2    C2 2177   0.062   0.401  13.788  0.0967  0.5099 -0.0925
  140MPD2    C3 2178   0.167   0.330  13.731 -0.0319  0.5783  0.1773
  140MPD2    C4 2179   0.298   0.376  13.744  0.0402  0.5648  0.2321
  140MPD2    C5 2180   0.317   0.497  13.804  0.4764 -0.2171 -0.1224
  140MPD2     H 2181   4.708   0.356  13.788  1.1287 -1.7347  3.3491
  140MPD2    H1 2182   0.385   0.321  13.709 -0.6330 -0.9242  0.9032
  140MPD2    H2 2183   0.244   0.665  13.899  0.3000 -2.4932  4.3431
  140MPD2    H3 2184   0.418   0.538  13.800 -0.2351  1.6806  1.5308
  140MPD2     N 2185   0.139   0.205  13.676  0.4960 -0.0686  0.1295
  140MPD2    H5 2186   0.048   0.173  13.709  0.2110  0.9897  0.3613
  140MPD2    N1 2187   4.728   0.595  13.913 -0.2441  0.0906 -0.2167
  140MPD2    H7 2188   0.010   0.681  13.961 -4.2702  0.6640  0.9062
  141TMC2    C1 2189   4.742   1.474  14.539 -0.0530 -0.5158  0.1994
  141TMC2    C2 2190   4.722   1.421  14.666  0.4282 -0.3247  0.5462
  141TMC2    C3 2191   4.725   1.510  14.774 -0.4555 -0.3110 -0.6844
  141TMC2    C4 2192   0.005   1.611  14.520  0.3499  0.6069 -0.0618
  141TMC2    C5 2193   0.002   1.694  14.629 -0.0621  0.3534  0.2059
  141TMC2    C6 2194   4.739   1.646  14.755 -0.4914  0.2594 -0.7184
  141TMC2     C 2195   0.045   1.387  14.431  0.6742 -0.2020  0.1952
  141TMC2     O 2196   0.066   1.446  14.324 -0.2641 -0.4492 -0.0609
  141TMC2     H 2197   4.710   1.315  14.683 -1.0551 -0.3025 -0.3075
  141TMC2    H1 2198   0.032   1.647  14.422  0.3552 -0.9663 -0.6204
  141TMC2    H2 2199   4.744   1.719  14.835 -1.1210  1.0752 -1.4242
  141TMC2    C7 2200   0.061   1.815  14.599 -0.2619  0.0688  0.0373
  141TMC2    C8 2201   4.708   1.483  14.915 -0.2658  0.4138 -0.1430
  141TMC2    O1 2202   0.007   1.891  14.515  0.1783 -0.3463  0.1327
  141TMC2    O2 2203   0.028   1.540  15.006 -0.1558 -0.2777  0.2624
  141TMC2    O5 2204   4.676   1.350  14.926 -0.3210  0.1809 -0.1895
  141TMC2    H5 2205   4.606   1.322  14.863 -2.2501  0.4808  1.8136
  142TMC2    C1 2206   2.136   0.638   9.952  0.8767  0.0910 -0.1923
  142TMC2    C2 2207   2.155   0.657   9.818  0.8274  0.7432  0.2357
  142TMC2    C3 2208   2.202   0.772   9.771  0.1246 -0.5709 -0.2370
  142TMC2    C4 2209   2.166   0.747  10.029 -0.6229  0.3866 -0.4490
  142TMC2    C5 2210   2.208   0.864   9.975  0.3887 -0.3275  0.2155
  142TMC2    C6 2211   2.215   0.887   9.839 -0.5614  0.8423 -0.2499
  142TMC2     C 2212   2.122   0.506  10.009 -1.0340 -0.7774  0.2061
  142TMC2     O 2213   2.074   0.420   9.933  0.5203  0.2009 -0.0811
  142TMC2     H 2214   2.156   0.567   9.757 -2.3726  0.7285  0.2208
  142TMC2    H1 2215   2.162   0.748  10.137  0.9309 -0.1290 -0.3907
  142TMC2    H2 2216   2.250   0.978   9.792 -0.5809  0.3579 -1.1822
  142TMC2    C7 2217   2.262   0.958  10.070 -0.0420 -0.2848  0.4695
  142TMC2    C8 2218   2.198   0.798   9.630  0.1699  0.4602  0.3599
  142TMC2    O1 2219   2.310   0.916  10.175  0.1632  0.4750  0.4940
  142TMC2    O2 2220   2.159   0.902   9.581  0.3138  0.3533 -0.0144
  142TMC2    O5 2221   2.260   0.691   9.564  0.3423 -0.7577 -0.4500
  142TMC2    H5 2222   2.272   0.616   9.626 -1.2390  0.4479  1.3259
  143MPD2     C 2223   2.308   0.172  10.369 -0.2827 -0.4871  0.8886
  143MPD2    C1 2224   2.226   0.154  10.262 -0.8839 -0.8041  0.4424
  143MPD2    C2 2225   2.188   0.258  10.178  0.3019  0.1063 -0.1306
  143MPD2    C3 2226   2.229   0.386  10.210  0.1930 -0.3245 -0.1635
  143MPD2    C4 2227   2.320   0.406  10.316  1.0718 -0.0319  0.9310
  143MPD2    C5 2228   2.356   0.299  10.397 -0.1723  0.5460  0.4565
  143MPD2     H 2229   2.133   0.235  10.088  1.8062 -0.1362 -0.9860
  143MPD2    H1 2230   2.357   0.502  10.353 -2.1563  1.7687 -0.5894
  143MPD2    H2 2231   2.321   0.091  10.439 -2.1111 -0.6676  1.0148
  143MPD2    H3 2232   2.409   0.325  10.488  0.0604  2.3145 -0.1758
  143MPD2     N 2233   2.199   0.501  10.126  0.1076  0.5344  0.3282
  143MPD2    H5 2234   2.232   0.593  10.152  1.7857  0.5208 -1.6714
  143MPD2    N1 2235   2.189   0.020  10.248  0.1761 -0.5546 -0.0223
  143MPD2    H7 2236   2.224   4.698  10.316 -2.2705 -1.4263  0.4068
  144TMC2    C1 2237   1.118   3.913   0.773  0.1544 -0.3106  0.0045
  144TMC2    C2 2238   1.193   3.803   0.749  0.6112 -0.2791  0.9376
  144TMC2    C3 2239   1.332   3.807   0.756 -0.1966  0.1126 -0.2633
  144TMC2    C4 2240   1.176   4.029   0.817 -0.6854  0.2819 -0.2224
  144TMC2    C5 2241   1.308   4.026   0.854  0.1988  0.8108 -0.3235
  144TMC2    C6 2242   1.390   3.916   0.825  0.6168 -0.4269  0.0845
  144TMC2     C 2243   0.981   3.907   0.732  0.5088 -0.2860  0.1411
  144TMC2     O 2244   0.948   3.829   0.643  0.2787  0.2284 -0.4602
  144TMC2     H 2245   1.146   3.714   0.711 -0.5798  0.4924  0.6045
  144TMC2    H1 2246   1.119   4.122   0.818  0.4093  0.9480 -0.2681
  144TMC2    H2 2247   1.491   3.909   0.864  0.6997 -0.8480 -0.2052
  144TMC2    C7 2248   1.369   4.135   0.925  0.2009  0.7238  0.1085
  144TMC2    C8 2249   1.392   3.677   0.748 -0.6113 -0.1966 -0.4743
  144TMC2    O1 2250   1.491   4.127   0.942  0.7877  0.5712 -0.5116
  144TMC2    O2 2251   1.329   3.582   0.791 -0.6959  0.0593  0.2171
  144TMC2    O5 2252   1.525   3.692   0.746  0.0144 -0.0937 -0.0135
  144TMC2    H5 2253   1.551   3.785   0.728  1.1306 -0.4250 -0.1532
  145MPD2     C 2254   0.522   4.134   0.684  0.0773  0.3096  0.5006
  145MPD2    C1 2255   0.569   4.018   0.624 -0.1373 -0.1649 -0.2134
  145MPD2    C2 2256   0.697   3.970   0.656  0.5821 -0.6905  0.1203
  145MPD2    C3 2257   0.774   4.036   0.748 -0.1418 -0.4999  0.4869
  145MPD2    C4 2258   0.724   4.151   0.809 -0.6026  0.1680 -0.4283
  145MPD2    C5 2259   0.599   4.195   0.778 -0.2143  0.3832  0.1075
  145MPD2     H 2260   0.728   3.881   0.602  1.8792 -1.4289  2.0574
  145MPD2    H1 2261   0.772   4.204   0.890 -3.0319  1.6468  0.0397
  145MPD2    H2 2262   0.418   4.165   0.672  0.4828  2.1835  1.9107
  145MPD2    H3 2263   0.553   4.281   0.826  0.2106  0.2717  0.7237
  145MPD2     N 2264   0.903   4.009   0.785 -0.4531 -0.0336  0.4544
  145MPD2    H5 2265   0.947   4.066   0.857  2.6583 -0.1490 -1.3287
  145MPD2    N1 2266   0.490   3.950   0.534  0.6082 -0.1451 -0.0685
  145MPD2    H7 2267   0.526   3.862   0.501  1.6633 -0.1342  1.0606
  146TMC2    C1 2268   2.042   2.480  12.298 -0.3094  0.0602 -0.1453
  146TMC2    C2 2269   2.017   2.510  12.168 -0.2924 -0.2888 -0.3770
  146TMC2    C3 2270   2.039   2.410  12.081 -0.6475 -0.3443  0.5025
  146TMC2    C4 2271   2.110   2.375  12.345 -0.2085 -0.5044  0.0084
  146TMC2    C5 2272   2.131   2.273  12.255  0.0407 -0.6678 -0.5863
  146TMC2    C6 2273   2.094   2.289  12.121  0.2748 -0.3879 -0.1627
  146TMC2     C 2274   2.000   2.589  12.389 -0.6469  0.3345  0.2065
  146TMC2     O 2275   1.981   2.696  12.338  0.0500  0.1114 -0.1603
  146TMC2     H 2276   1.970   2.601  12.131  0.1339 -0.6404 -1.7781
  146TMC2    H1 2277   2.140   2.366  12.449 -0.3624  0.6354  0.1438
  146TMC2    H2 2278   2.124   2.211  12.053 -0.0168 -0.0525 -0.6713
  146TMC2    C7 2279   2.144   2.141  12.302 -0.7783  0.7851  0.6081
  146TMC2    C8 2280   1.960   2.409  11.954 -0.1216  0.9190  0.7898
  146TMC2    O1 2281   2.077   2.061  12.242 -0.0443 -0.1367 -0.2343
  146TMC2    O2 2282   1.845   2.441  11.950 -0.4939  0.0006  0.6184
  146TMC2    O5 2283   2.023   2.369  11.842 -0.0762 -1.1481  0.7454
  146TMC2    H5 2284   2.116   2.346  11.862  0.3466 -0.9957 -0.9855
  147MPD2     C 2285   2.313   1.837  12.701 -0.3001  0.4528  0.2729
  147MPD2    C1 2286   2.357   1.964  12.714 -0.0057 -0.8586  0.2417
  147MPD2    C2 2287   2.318   2.058  12.611  0.1929 -0.1627  0.2198
  147MPD2    C3 2288   2.237   2.029  12.504  0.3572  0.4537  0.8089
  147MPD2    C4 2289   2.201   1.900  12.491  0.0036 -0.6284 -0.0494
  147MPD2    C5 2290   2.228   1.813  12.590 -0.6180  0.6310 -0.1889
  147MPD2     H 2291   2.331   2.165  12.627  0.1867 -0.4652  2.3233
  147MPD2    H1 2292   2.137   1.867  12.410  1.7102 -2.1861 -0.7474
  147MPD2    H2 2293   2.356   1.765  12.770  3.4911 -1.1763 -3.8475
  147MPD2    H3 2294   2.188   1.713  12.577  0.6770  0.2268 -1.0680
  147MPD2     N 2295   2.220   2.142  12.420 -0.0072  0.2758  0.1611
  147MPD2    H5 2296   2.263   2.233  12.437 -1.9550  0.8973  1.7491
  147MPD2    N1 2297   2.426   2.016  12.825 -0.3389 -0.2446 -0.0971
  147MPD2    H7 2298   2.419   1.959  12.908  0.0271 -0.8751 -0.5040
  148TMC2    C1 2299   1.841   2.026  10.765 -0.1204 -0.7487 -0.9715
  148TMC2    C2 2300   1.882   2.148  10.735 -0.8462 -0.7187 -0.5582
  148TMC2    C3 2301   2.006   2.165  10.690 -0.1457  0.3290 -0.0378
  148TMC2    C4 2302   1.918   1.917  10.757  0.0130  0.6793 -0.2166
  148TMC2    C5 2303   2.039   1.931  10.699  0.2379 -0.0539 -0.2491
  148TMC2    C6 2304   2.092   2.055  10.669 -0.1569 -0.1406  0.6507
  148TMC2     C 2305   1.710   2.004  10.708 -0.4893 -0.2468  0.0486
  148TMC2     O 2306   1.657   2.105  10.665 -0.3717  0.0742 -0.5148
  148TMC2     H 2307   1.818   2.235  10.736 -0.4189 -0.3990 -0.9306
  148TMC2    H1 2308   1.894   1.826  10.810  0.0744  2.2049  2.4569
  148TMC2    H2 2309   2.182   2.070  10.611 -0.6254  0.9696  0.2047
  148TMC2    C7 2310   2.105   1.803  10.678 -0.0991 -0.1703  0.1300
  148TMC2    C8 2311   2.047   2.298  10.662 -0.0598 -0.0258  0.2238
  148TMC2    O1 2312   2.030   1.716  10.641  0.1845 -0.1541  0.7698
  148TMC2    O2 2313   1.970   2.395  10.655 -0.3334  0.3102 -0.4133
  148TMC2    O5 2314   2.169   2.304  10.730  0.1047  0.3048  0.2060
  148TMC2    H5 2315   2.197   2.220  10.772 -0.7455 -0.1935 -0.2343
  149MPD2     C 2316   1.464   1.898  10.595  0.1351 -0.0353  0.1578
  149MPD2    C1 2317   1.563   1.821  10.649  0.1437 -0.2605  0.0678
  149MPD2    C2 2318   1.542   1.684  10.667 -0.2439  0.4299  0.1439
  149MPD2    C3 2319   1.419   1.625  10.631  0.3500 -0.2539  0.1327
  149MPD2    C4 2320   1.318   1.705  10.585 -0.5610  0.5926 -0.4676
  149MPD2    C5 2321   1.346   1.837  10.568 -0.5695  0.2050 -0.4342
  149MPD2     H 2322   1.626   1.629  10.709 -0.2636 -1.8015 -2.7495
  149MPD2    H1 2323   1.218   1.666  10.571 -0.2145 -0.2449 -0.6300
  149MPD2    H2 2324   1.461   2.004  10.570  0.9920  0.2299  1.1958
  149MPD2    H3 2325   1.262   1.895  10.530 -0.8128  1.7468  2.4122
  149MPD2     N 2326   1.396   1.488  10.648 -0.4350 -0.3303 -0.3056
  149MPD2    H5 2327   1.300   1.466  10.624 -0.7132  0.5105  0.0479
  149MPD2    N1 2328   1.680   1.877  10.700 -0.2313  0.1409 -0.1250
  149MPD2    H7 2329   1.744   1.819  10.755 -0.9776 -0.1441  0.4484
  150TMC2    C1 2330   3.846   0.411  12.675  0.2801  0.3275 -0.7709
  150TMC2    C2 2331   3.850   0.501  12.572  0.0576  0.2649 -0.6079
  150TMC2    C3 2332   3.937   0.600  12.570 -0.1911  0.2831 -0.5776
  150TMC2    C4 2333   3.927   0.434  12.788 -0.8443  0.7300  0.4430
  150TMC2    C5 2334   4.000   0.542  12.792  0.0727 -0.3639  0.3121
  150TMC2    C6 2335   4.015   0.632  12.687  0.8186  0.1551  0.7358
  150TMC2     C 2336   3.748   0.307  12.677 -0.5655 -0.5272 -0.3119
  150TMC2     O 2337   3.734   0.253  12.787 -0.7405  0.2620  0.1734
  150TMC2     H 2338   3.783   0.492  12.488 -0.7248  1.0918 -0.0699
  150TMC2    H1 2339   3.934   0.365  12.872 -1.4103  1.7702  1.3557
  150TMC2    H2 2340   4.078   0.720  12.691 -0.0049  0.6092  3.5137
  150TMC2    C7 2341   4.130   0.526  12.861  0.7930  0.0422 -0.1471
  150TMC2    C8 2342   3.896   0.704  12.473 -1.1412  0.3264 -0.7241
  150TMC2    O1 2343   4.185   0.624  12.910 -0.2326 -0.3175 -0.1781
  150TMC2    O2 2344   3.979   0.793  12.443  0.3667 -0.4147 -0.0687
  150TMC2    O5 2345   3.760   0.735  12.493 -0.7253 -0.1095  0.7009
  150TMC2    H5 2346   3.701   0.678  12.547 -0.3154 -0.5390  0.6938
  151MPD2     C 2347   3.356   0.045  12.485  0.7678  0.0905  0.7246
  151MPD2    C1 2348   3.416   0.109  12.388 -0.0835  0.0462 -0.7192
  151MPD2    C2 2349   3.521   0.190  12.413 -0.1575 -0.4900 -0.3538
  151MPD2    C3 2350   3.572   0.197  12.537 -0.2506  0.0820  0.2466
  151MPD2    C4 2351   3.509   0.125  12.640 -0.0681  0.7869 -0.2532
  151MPD2    C5 2352   3.401   0.043  12.613  0.3125  0.4819  0.0858
  151MPD2     H 2353   3.579   0.236  12.335 -1.1765  0.9358 -0.2540
  151MPD2    H1 2354   3.538   0.130  12.744 -3.4975  1.9583  0.6489
  151MPD2    H2 2355   3.272   4.726  12.455  1.0413 -0.7201  1.6766
  151MPD2    H3 2356   3.351   4.740  12.697 -0.0959 -0.7128 -0.8306
  151MPD2     N 2357   3.673   0.291  12.560  0.0524 -0.3549 -0.0434
  151MPD2    H5 2358   3.698   0.347  12.478  0.5331 -1.9019 -0.9524
  151MPD2    N1 2359   3.359   0.087  12.265 -0.1329 -0.8964  0.3973
  151MPD2    H7 2360   3.272   0.036  12.265 -0.2824 -0.6637 -2.5001
  152TMC2    C1 2361   3.983   0.008  13.252  0.3723  0.2545 -0.2599
  152TMC2    C2 2362   4.051   4.653  13.196 -0.5809  0.5050 -0.4227
  152TMC2    C3 2363   4.174   4.688  13.130 -0.2324 -0.0982 -0.1540
  152TMC2    C4 2364   4.035   0.138  13.272 -0.2352  0.5515 -0.2418
  152TMC2    C5 2365   4.160   0.160  13.220  0.2396  0.0363  0.5649
  152TMC2    C6 2366   4.224   0.075  13.140 -0.6537  0.6418 -0.2691
  152TMC2     C 2367   3.844   4.728  13.292 -0.9386  0.4909 -0.4452
  152TMC2     O 2368   3.761   0.079  13.290 -0.4081 -0.1346 -0.3576
  152TMC2     H 2369   3.996   4.561  13.184  0.7272 -0.2351 -0.8278
  152TMC2    H1 2370   3.984   0.222  13.318 -0.6073 -0.7437  1.7175
  152TMC2    H2 2371   4.323   0.098  13.102 -0.5830 -0.0298 -0.5002
  152TMC2    C7 2372   4.227   0.284  13.270  0.2020 -0.1785 -0.0263
  152TMC2    C8 2373   4.267   4.583  13.108  0.2906 -0.3568  0.3718
  152TMC2    O1 2374   4.154   0.369  13.312 -0.7536  0.1386  0.4779
  152TMC2    O2 2375   4.384   4.586  13.142  0.2740 -0.1171 -0.2287
  152TMC2    O5 2376   4.204   4.467  13.076 -0.5103 -0.4294 -0.6893
  152TMC2    H5 2377   4.119   4.491  13.031 -1.3264 -0.5372  0.8164
  153MPD2     C 2378   3.704   4.423  13.453 -0.6076  0.2836  0.2429
  153MPD2    C1 2379   3.705   4.550  13.397 -0.1867  0.3126  0.3318
  153MPD2    C2 2380   3.585   4.622  13.394  0.7162  0.3123  0.1381
  153MPD2    C3 2381   3.463   4.558  13.427  0.1417 -0.1902 -0.7328
  153MPD2    C4 2382   3.469   4.431  13.486 -0.7605 -0.1474 -0.6868
  153MPD2    C5 2383   3.586   4.360  13.492  0.0652  0.0133  0.0334
  153MPD2     H 2384   3.576   4.721  13.351 -0.0371 -0.1848 -0.8547
  153MPD2    H1 2385   3.375   4.379  13.506 -0.0863 -0.9369  0.4393
  153MPD2    H2 2386   3.801   4.375  13.445 -0.3738  0.9286 -0.7612
  153MPD2    H3 2387   3.591   4.258  13.529 -0.5199 -0.6334 -1.6442
  153MPD2     N 2388   3.349   4.635  13.408  0.6553  0.4208  0.4895
  153MPD2    H5 2389   3.365   4.735  13.409  2.1008  0.1883 -1.1010
  153MPD2    N1 2390   3.831   4.604  13.344 -0.0155 -0.4039  0.9351
  153MPD2    H7 2391   3.914   4.549  13.358  0.7050  0.0075 -1.8815
  154TMC2    C1 2392   0.437   4.710   0.007  0.3902 -0.0695 -0.5387
  154TMC2    C2 2393   0.339   4.631  17.719 -0.4593 -0.1125  0.1817
  154TMC2    C3 2394   0.327   4.507   0.002  0.0931  0.3198  0.1330
  154TMC2    C4 2395   0.520   4.662   0.113 -0.0986 -0.0769  0.3162
  154TMC2    C5 2396   0.504   4.530   0.150  0.3162 -0.8533 -0.1878
  154TMC2    C6 2397   0.412   4.448   0.091  0.5944 -0.1512  0.4168
  154TMC2     C 2398   0.410   0.103   0.024  0.0136  0.3036 -0.7251
  154TMC2     O 2399   0.418   0.160   0.132 -0.8887 -0.1164 -0.0641
  154TMC2     H 2400   0.266   4.682  17.658  0.3919  0.5560 -0.2897
  154TMC2    H1 2401   0.575   4.735   0.170 -0.0084  0.3636 -0.3311
  154TMC2    H2 2402   0.396   4.346   0.124 -0.1369  0.5457  2.1720
  154TMC2    C7 2403   0.590   4.460   0.240 -0.5483  0.3584 -0.2108
  154TMC2    C8 2404   0.207   4.431  17.742  0.4746 -0.3716 -0.0512
  154TMC2    O1 2405   0.545   4.360   0.296  0.3141  0.0228  0.3839
  154TMC2    O2 2406   0.180   4.322   0.024 -0.3098  0.2209 -0.1874
  154TMC2    O5 2407   0.146   4.470  17.629  0.0246 -0.1933  0.1862
  154TMC2    H5 2408   0.168   4.555  17.585 -1.9526 -0.0217 -0.4705
  155MPD2     C 2409   0.341   0.319  17.503 -0.6221 -0.5635  0.1174
  155MPD2    C1 2410   0.349   0.289  17.642  0.1211  0.8147 -0.4291
  155MPD2    C2 2411   0.336   0.386  17.742 -0.0594  0.0943  0.4354
  155MPD2    C3 2412   0.289   0.511  17.692 -0.8093 -0.3245  0.0558
  155MPD2    C4 2413   0.285   0.544  17.555  0.4911 -0.2237 -0.0376
  155MPD2    C5 2414   0.297   0.443  17.459 -0.3570  0.4222  0.3570
  155MPD2     H 2415   0.364   0.366   0.072 -0.0384 -0.8968  0.2353
  155MPD2    H1 2416   0.254   0.642  17.523  2.1207  0.4992  0.5917
  155MPD2    H2 2417   0.352   0.246  17.423 -0.8354  0.2393 -0.6428
  155MPD2    H3 2418   0.281   0.468  17.354  0.4065 -2.3811 -0.4226
  155MPD2     N 2419   0.266   0.612   0.021 -0.0117 -0.4985 -0.4528
  155MPD2    H5 2420   0.273   0.578   0.116  2.4010 -0.6934 -0.6991
  155MPD2    N1 2421   0.386   0.155  17.674 -0.3362 -0.3991 -0.4007
  155MPD2    H7 2422   0.401   0.088  17.600  0.4739  0.2303 -0.8084
  156TMC2    C1 2423   4.603   2.289  12.174  0.0550  0.2186  0.1759
  156TMC2    C2 2424   4.729   2.291  12.130  0.7017  1.1891  0.0467
  156TMC2    C3 2425   0.027   2.397  12.055 -0.9866 -0.1022  0.3215
  156TMC2    C4 2426   4.514   2.394  12.142 -0.3088 -0.1112 -0.3628
  156TMC2    C5 2427   4.563   2.500  12.082  0.5995  0.4509  0.1076
  156TMC2    C6 2428   4.693   2.505  12.033  0.0055  0.2911  0.5271
  156TMC2     C 2429   4.568   2.221  12.292 -1.0131  0.6820 -0.2729
  156TMC2     O 2430   4.451   2.178  12.304 -0.4165  0.6943 -0.6014
  156TMC2     H 2431   0.061   2.222  12.165  0.9689  0.4048 -2.1106
  156TMC2    H1 2432   4.414   2.384  12.183 -0.9081  0.4275 -1.6935
  156TMC2    H2 2433   4.730   2.586  11.970 -0.6813  0.8940  0.9031
  156TMC2    C7 2434   4.475   2.607  12.045 -0.4500 -0.0051  0.4124
  156TMC2    C8 2435   0.161   2.397  12.008  0.6564 -0.5960  0.3083
  156TMC2    O1 2436   4.529   2.715  12.035  0.4280 -0.3237 -0.0001
  156TMC2    O2 2437   0.233   2.499  11.999  0.5660  0.2018 -0.1839
  156TMC2    O5 2438   0.164   2.299  11.925 -0.5063  0.1291 -0.1682
  156TMC2    H5 2439   0.088   2.237  11.934  1.1678 -1.9069 -0.1057
  157MPD2     C 2440   4.729   2.175  12.618  0.8174  0.2473  0.3017
  157MPD2    C1 2441   4.635   2.209  12.531  0.6771  0.2324 -0.3601
  157MPD2    C2 2442   4.504   2.218  12.583  0.1780  0.1510 -0.5340
  157MPD2    C3 2443   4.482   2.215  12.720 -0.3485  0.2512 -0.1293
  157MPD2    C4 2444   4.583   2.172  12.803  0.1909 -0.4110  0.6774
  157MPD2    C5 2445   4.704   2.154  12.748  0.3919 -0.1868  0.2343
  157MPD2     H 2446   4.418   2.231  12.517 -0.9616 -0.9858  0.7136
  157MPD2    H1 2447   4.569   2.159  12.909  1.1359 -1.2772  0.6900
  157MPD2    H2 2448   0.084   2.168  12.575  1.7182  1.4855  2.1213
  157MPD2    H3 2449   0.040   2.121  12.814 -0.4389  0.3937  1.5244
  157MPD2     N 2450   4.349   2.226  12.753  0.4585 -0.3495 -0.4697
  157MPD2    H5 2451   4.292   2.256  12.675  0.9473 -0.2580 -0.7905
  157MPD2    N1 2452   4.666   2.231  12.395 -0.6484 -0.1427 -0.1484
  157MPD2    H7 2453   0.012   2.267  12.365  0.2146 -0.2498  2.3391
  158TMC2    C1 2454   4.331   1.518  13.124 -0.2103 -0.6204  0.1347
  158TMC2    C2 2455   4.346   1.646  13.074 -0.3071 -0.5734  0.3352
  158TMC2    C3 2456   4.273   1.675  12.964  0.2608  0.5030  0.2127
  158TMC2    C4 2457   4.259   1.428  13.064 -0.1568  0.2630  0.3342
  158TMC2    C5 2458   4.206   1.455  12.949  0.6584  0.9812  0.6212
  158TMC2    C6 2459   4.198   1.582  12.899 -0.4244  0.4061 -0.1008
  158TMC2     C 2460   4.396   1.488  13.247 -0.5353  0.0522  0.3063
  158TMC2     O 2461   4.500   1.553  13.272 -0.0137 -0.3941  0.5135
  158TMC2     H 2462   4.389   1.726  13.133  0.6903  0.0953 -1.2898
  158TMC2    H1 2463   4.264   1.322  13.089  3.5806  0.1828 -0.7142
  158TMC2    H2 2464   4.129   1.606  12.819 -3.0482 -0.5380  1.9012
  158TMC2    C7 2465   4.103   1.372  12.891 -0.5599 -0.1156  0.1797
  158TMC2    C8 2466   4.213   1.812  12.953 -0.0150 -0.3086 -0.4209
  158TMC2    O1 2467   4.078   1.380  12.773  0.5200 -0.6383 -0.3607
  158TMC2    O2 2468   4.104   1.830  12.905 -0.1221  0.0628  0.3187
  158TMC2    O5 2469   4.322   1.888  12.922 -0.2020 -0.4914 -0.0190
  158TMC2    H5 2470   4.402   1.863  12.973  1.1503 -1.8563 -2.7773
  159MPD2     C 2471   4.333   1.377  13.747  0.7512 -0.8075  0.1065
  159MPD2    C1 2472   4.228   1.330  13.679  0.5177 -0.3140  0.4228
  159MPD2    C2 2473   4.222   1.340  13.540 -0.0993  0.5590 -0.0130
  159MPD2    C3 2474   4.322   1.406  13.467  0.8531  1.0724 -0.1233
  159MPD2    C4 2475   4.430   1.459  13.540  0.9764 -0.4336 -0.3137
  159MPD2    C5 2476   4.441   1.439  13.683 -0.2078 -0.2090  0.0512
  159MPD2     H 2477   4.127   1.312  13.495 -0.2270  2.7759 -1.1432
  159MPD2    H1 2478   4.512   1.515  13.498 -1.1287  1.2278 -2.2074
  159MPD2    H2 2479   4.330   1.362  13.854  1.0346 -1.6710 -0.0066
  159MPD2    H3 2480   4.530   1.463  13.741 -1.1157  1.6266  0.6904
  159MPD2     N 2481   4.313   1.411  13.326  0.5224  0.0579  0.4066
  159MPD2    H5 2482   4.227   1.366  13.296  0.0988  2.0649 -1.4295
  159MPD2    N1 2483   4.125   1.271  13.751  0.8915  0.4353 -0.2164
  159MPD2    H7 2484   4.116   1.283  13.851  1.4846 -1.7286  0.0980
  160TMC2    C1 2485   4.354   4.609   1.192  1.2382  0.0670 -0.3471
  160TMC2    C2 2486   4.331   4.486   1.244  0.3581  0.3195 -0.2425
  160TMC2    C3 2487   4.329   4.377   1.165  0.2026 -0.7660 -0.6144
  160TMC2    C4 2488   4.387   4.622   1.063 -0.4812 -0.4777 -0.0271
  160TMC2    C5 2489   4.395   4.510   0.985  0.0610  0.8514  0.2175
  160TMC2    C6 2490   4.349   4.388   1.029  0.0071 -0.1872 -0.4791
  160TMC2     C 2491   4.320   4.729   1.264  0.1232  0.1078 -0.6464
  160TMC2     O 2492   4.314   4.713   1.389  0.5166  0.2285  0.0398
  160TMC2     H 2493   4.310   4.467   1.349 -2.4483 -1.6553 -1.1771
  160TMC2    H1 2494   4.384   4.715   1.009  2.9062 -0.3825 -0.0330
  160TMC2    H2 2495   4.339   4.308   0.956  0.1800 -1.0549  0.4469
  160TMC2    C7 2496   4.428   4.525   0.846 -0.3449  0.4448 -0.5555
  160TMC2    C8 2497   4.280   4.257   1.225  1.0812 -0.3304 -0.4276
  160TMC2    O1 2498   4.378   4.451   0.763 -0.4914 -0.5324  0.4928
  160TMC2    O2 2499   4.300   4.233   1.346  0.2313  0.2558  1.2108
  160TMC2    O5 2500   4.196   4.190   1.147  0.0904  0.1737  0.0580
  160TMC2    H5 2501   4.190   4.221   1.054 -1.9632 -2.3856 -0.6483
  161MPD2     C 2502   4.211   0.242   1.356  0.2675 -0.4436 -0.3334
  161MPD2    C1 2503   4.197   0.199   1.228 -0.1684 -0.6660  0.5027
  161MPD2    C2 2504   4.111   0.271   1.144 -0.6798 -0.5611 -0.4961
  161MPD2    C3 2505   4.032   0.378   1.194 -0.0541 -0.5116  0.6252
  161MPD2    C4 2506   4.058   0.427   1.322 -0.0474 -0.1729 -0.6162
  161MPD2    C5 2507   4.151   0.356   1.402  0.8113  0.2584  0.6048
  161MPD2     H 2508   4.097   0.229   1.045  2.5941 -2.2381 -0.2283
  161MPD2    H1 2509   4.002   0.510   1.363  0.3431 -1.6594  3.0146
  161MPD2    H2 2510   4.290   0.196   1.413  0.9228  1.9733  0.7166
  161MPD2    H3 2511   4.184   0.397   1.497 -0.7791  2.7743  0.0850
  161MPD2     N 2512   3.924   0.436   1.123  0.0388 -0.0465 -0.4601
  161MPD2    H5 2513   3.873   0.508   1.174 -1.2588 -0.8398 -0.6454
  161MPD2    N1 2514   4.263   0.085   1.184  0.5826  0.7472  0.2978
  161MPD2    H7 2515   4.257   0.066   1.084  0.9310 -2.8330  0.9298
  162TMC2    C1 2516   1.829   1.821   0.793  0.6273  0.7075  0.2433
  162TMC2    C2 2517   1.775   1.912   0.706 -0.1465 -0.1406  0.2511
  162TMC2    C3 2518   1.788   2.045   0.738  0.5111  0.1647  0.5027
  162TMC2    C4 2519   1.900   1.863   0.903 -0.2630  0.7572  0.0977
  162TMC2    C5 2520   1.919   1.993   0.922 -0.7146 -0.6024 -0.2709
  162TMC2    C6 2521   1.854   2.085   0.847  0.3107  0.6297 -0.1423
  162TMC2     C 2522   1.802   1.677   0.783  0.8340  0.9051 -0.6225
  162TMC2     O 2523   1.818   1.607   0.881  0.0495  0.6052  0.4309
  162TMC2     H 2524   1.703   1.885   0.630  1.8170 -0.1019 -1.5978
  162TMC2    H1 2525   1.946   1.783   0.961  0.4014 -0.7821 -2.5396
  162TMC2    H2 2526   1.858   2.190   0.872 -0.0558  0.4134  0.8311
  162TMC2    C7 2527   2.030   2.034   1.010  0.1634  0.1927  1.1137
  162TMC2    C8 2528   1.659   2.110   0.728  0.6427  0.3650 -0.1113
  162TMC2    O1 2529   2.022   2.147   1.056 -0.4469  0.1947 -0.0783
  162TMC2    O2 2530   1.556   2.056   0.694  0.5598 -0.1535 -0.7141
  162TMC2    O5 2531   1.691   2.236   0.716 -0.1522 -0.0866 -0.6024
  162TMC2    H5 2532   1.786   2.259   0.726 -0.9543  2.3556  1.3416
  163MPD2     C 2533   1.703   1.273   0.480  0.6746 -0.4271  0.1761
  163MPD2    C1 2534   1.750   1.372   0.400 -0.5511 -0.1237 -0.5661
  163MPD2    C2 2535   1.790   1.490   0.463  0.3109 -0.3395  0.2791
  163MPD2    C3 2536   1.766   1.507   0.600 -0.2376 -0.5560  0.1287
  163MPD2    C4 2537   1.714   1.410   0.677 -0.7863 -0.3823  0.2884
  163MPD2    C5 2538   1.683   1.290   0.610 -0.2764  0.2452 -0.5671
  163MPD2     H 2539   1.839   1.566   0.404  2.8345 -1.7229  0.6378
  163MPD2    H1 2540   1.692   1.433   0.781  0.8806  0.0747  0.5532
  163MPD2    H2 2541   1.675   1.174   0.448 -0.4166 -0.5159  1.4264
  163MPD2    H3 2542   1.631   1.213   0.666 -0.5615 -0.0013 -1.1741
  163MPD2     N 2543   1.786   1.640   0.655  0.3097 -0.7928 -0.7583
  163MPD2    H5 2544   1.802   1.707   0.580  3.5140 -1.8634 -1.0324
  163MPD2    N1 2545   1.768   1.354   0.257 -0.4434 -0.1715 -0.0111
  163MPD2    H7 2546   1.735   1.265   0.220  1.4642 -0.0933 -1.8869
  164TMC2    C1 2547   2.652   1.845  10.376 -0.1353  0.1203 -0.0296
  164TMC2    C2 2548   2.783   1.816  10.398 -0.3566  0.1065  0.1247
  164TMC2    C3 2549   2.835   1.845  10.522  0.2109  0.6368  0.5306
  164TMC2    C4 2550   2.563   1.897  10.467  0.4051 -0.3974  0.0518
  164TMC2    C5 2551   2.621   1.930  10.590 -0.1700  0.0179 -0.3913
  164TMC2    C6 2552   2.756   1.900  10.617  0.2484  0.4136 -0.2169
  164TMC2     C 2553   2.599   1.819  10.245  0.2177 -0.6955  0.6584
  164TMC2     O 2554   2.476   1.813  10.225 -0.3005 -0.1195  0.5144
  164TMC2     H 2555   2.848   1.769  10.325  0.6986  0.7669  0.6395
  164TMC2    H1 2556   2.459   1.916  10.446  0.1720 -1.2665  0.4317
  164TMC2    H2 2557   2.818   1.922  10.704  2.5247 -2.4455 -1.1147
  164TMC2    C7 2558   2.538   1.989  10.697 -0.0911  0.4388 -0.4659
  164TMC2    C8 2559   2.981   1.840  10.554 -0.4149 -0.0052 -0.1303
  164TMC2    O1 2560   2.419   2.004  10.671 -0.2114  0.2466  0.0032
  164TMC2    O2 2561   3.035   1.921  10.627 -0.2402 -0.7362 -0.3811
  164TMC2    O5 2562   3.038   1.784  10.445 -0.8620 -0.5046  0.5017
  164TMC2    H5 2563   2.983   1.704  10.445  1.1313 -1.8879 -3.0287
  165TMC2    C1 2564   3.807   3.271   0.645 -0.5832  0.0027 -0.0544
  165TMC2    C2 2565   3.675   3.326   0.627  0.0606  0.0905 -0.4171
  165TMC2    C3 2566   3.662   3.461   0.648  0.6231 -0.1997 -0.5830
  165TMC2    C4 2567   3.911   3.348   0.692  0.4560  0.2471  0.2965
  165TMC2    C5 2568   3.886   3.481   0.727 -0.3440  0.4548 -0.8447
  165TMC2    C6 2569   3.764   3.542   0.704 -0.1863 -0.1805 -0.1881
  165TMC2     C 2570   3.813   3.118   0.649 -0.2952 -0.8343  0.2275
  165TMC2     O 2571   3.711   3.062   0.607  0.0226  0.3081 -0.4565
  165TMC2     H 2572   3.590   3.276   0.582 -1.1659  0.2212  1.7493
  165TMC2    H1 2573   4.005   3.310   0.730 -2.0673 -2.5325  3.7180
  165TMC2    H2 2574   3.753   3.648   0.722  0.2247 -0.3435  1.0421
  165TMC2    C7 2575   3.977   3.539   0.819 -0.2612  0.1205 -0.0548
  165TMC2    C8 2576   3.527   3.497   0.675  0.1158 -0.0941  0.3579
  165TMC2    O1 2577   4.090   3.491   0.828  0.3086 -0.4614 -0.1700
  165TMC2    O2 2578   3.445   3.405   0.690 -0.6394  0.0894  0.3600
  165TMC2    O5 2579   3.504   3.615   0.624 -0.5021 -0.2855 -1.1981
  165TMC2    H5 2580   3.586   3.669   0.622 -0.5824 -0.1132  0.2205
  166MPD2     C 2581   3.929   2.651   0.841  0.0274  0.4231  0.1571
  166MPD2    C1 2582   3.814   2.698   0.784  0.4156  0.4594  0.4232
  166MPD2    C2 2583   3.814   2.830   0.735  0.2542 -0.2729 -0.2638
  166MPD2    C3 2584   3.920   2.923   0.750  0.0560  0.2108  0.2777
  166MPD2    C4 2585   4.030   2.874   0.817 -0.1177  0.0403 -0.1805
  166MPD2    C5 2586   4.035   2.743   0.856  0.1371  0.9910 -1.6069
  166MPD2     H 2587   3.723   2.868   0.692 -0.9134 -2.5057  0.2280
  166MPD2    H1 2588   4.109   2.944   0.839  1.4289 -1.4497 -1.0059
  166MPD2    H2 2589   3.941   2.553   0.885  0.2886  0.3895  0.0122
  166MPD2    H3 2590   4.130   2.708   0.895 -1.6328 -0.2991  1.5846
  166MPD2     N 2591   3.915   3.061   0.717  0.2942 -0.0403 -0.5425
  166MPD2    H5 2592   3.994   3.119   0.743  0.2859 -0.7861  1.1326
  166MPD2    N1 2593   3.696   2.621   0.780  0.6143 -0.4095 -0.3586
  166MPD2    H7 2594   3.695   2.534   0.832 -0.2030 -0.8973 -1.1971
  167TMC2    C1 2595   1.680   1.465  13.019  0.3378 -0.0473 -0.3533
  167TMC2    C2 2596   1.620   1.508  13.133 -0.3161  0.2439  0.1033
  167TMC2    C3 2597   1.560   1.409  13.212 -0.2042  0.9637 -0.5656
  167TMC2    C4 2598   1.681   1.334  12.981  0.6659  0.1536  0.0834
  167TMC2    C5 2599   1.629   1.237  13.061 -0.1834  0.1430 -0.6038
  167TMC2    C6 2600   1.569   1.274  13.180  0.2836  0.0122  0.1424
  167TMC2     C 2601   1.752   1.570  12.937 -0.6273 -0.3170 -0.2708
  167TMC2     O 2602   1.750   1.685  12.974  0.5257 -0.4323 -0.2815
  167TMC2     H 2603   1.613   1.613  13.157 -2.4284  0.0264  0.4154
  167TMC2    H1 2604   1.699   1.317  12.876 -1.0583  0.7198 -0.2876
  167TMC2    H2 2605   1.531   1.194  13.243 -3.5015  0.9384 -0.9510
  167TMC2    C7 2606   1.635   1.098  13.035  0.3161 -0.1830  0.2955
  167TMC2    C8 2607   1.499   1.453  13.334  0.0273  0.4878  0.7969
  167TMC2    O1 2608   1.556   1.029  13.099  0.1652  0.5172 -0.6439
  167TMC2    O2 2609   1.493   1.381  13.435  0.1110 -0.2887  0.2906
  167TMC2    O5 2610   1.414   1.562  13.311 -0.1000  0.5703  0.0795
  167TMC2    H5 2611   1.425   1.600  13.222  1.6509 -1.0162 -0.3840
  168MPD2     C 2612   1.859   1.732  12.701 -0.5620  0.6650 -0.1215
  168MPD2    C1 2613   1.852   1.591  12.702 -0.2643 -0.0355  0.0802
  168MPD2    C2 2614   1.876   1.517  12.592  0.2576  0.2595  0.7694
  168MPD2    C3 2615   1.909   1.585  12.476  0.1695  0.4380 -0.6415
  168MPD2    C4 2616   1.904   1.724  12.462 -0.4181  0.1498 -0.3752
  168MPD2    C5 2617   1.886   1.796  12.579 -0.1920 -0.3502 -0.4311
  168MPD2     H 2618   1.879   1.409  12.603  1.0300  0.1892 -0.1728
  168MPD2    H1 2619   1.921   1.772  12.366 -0.9460  1.2268  0.0688
  168MPD2    H2 2620   1.845   1.799  12.784  1.2037  1.6522 -0.6392
  168MPD2    H3 2621   1.876   1.904  12.576 -0.9419 -0.3694  1.2595
  168MPD2     N 2622   1.938   1.508  12.360 -0.4009 -0.1792  0.1350
  168MPD2    H5 2623   1.909   1.412  12.375 -0.8365 -0.0124  0.3457
  168MPD2    N1 2624   1.806   1.524  12.818 -0.0815  0.8736 -0.5120
  168MPD2    H7 2625   1.822   1.424  12.811  0.1105  0.6891  2.5920
  169MPD1     C 2626   0.160   1.575   9.560 -0.1248 -0.4210  1.2709
  169MPD1    C1 2627   0.214   1.444   9.573 -0.1423 -0.3419  0.4544
  169MPD1    C2 2628   0.163   1.370   9.684 -0.0760  0.3288  1.0791
  169MPD1    C3 2629   0.071   1.422   9.774 -0.2021  0.3937  0.0220
  169MPD1    C4 2630   0.011   1.542   9.748  0.2737  0.3350 -0.6584
  169MPD1    C5 2631   0.062   1.616   9.642 -0.4474 -0.7242 -0.5959
  169MPD1     H 2632   0.213   1.277   9.708 -2.0385 -1.2913 -1.0609
  169MPD1    H1 2633   4.682   1.588   9.814  0.9112  0.9055 -0.3489
  169MPD1    H2 2634   0.195   1.636   9.477 -2.2609  1.5092  1.7984
  169MPD1    H3 2635   0.021   1.716   9.629  1.0570 -0.2528 -1.6862
  169MPD1     N 2636   0.038   1.337   9.879  0.1284  0.1466 -0.0450
  169MPD1    H5 2637   0.079   1.245   9.871  1.1748  0.3949  2.5685
  169MPD1    N1 2638   0.319   1.398   9.488  0.3509 -0.2660 -0.6872
  169MPD1    H6 2639   0.339   1.442   9.399 -1.0955 -0.7803 -1.2639
  169MPD1    H7 2640   0.328   1.296   9.486 -0.2251 -0.3447  1.1549
  170MPD1     C 2641   3.738   3.680  13.579  1.1704 -0.0161  0.5168
  170MPD1    C1 2642   3.767   3.556  13.622  0.3947  0.2770 -0.3550
  170MPD1    C2 2643   3.684   3.463  13.572  0.2428  0.1859 -0.0522
  170MPD1    C3 2644   3.580   3.485  13.482  0.1963  0.0656  0.1385
  170MPD1    C4 2645   3.558   3.607  13.438 -0.7233  0.0404 -0.0984
  170MPD1    C5 2646   3.639   3.706  13.490  0.6039  0.1542 -0.3831
  170MPD1     H 2647   3.693   3.361  13.607  3.7877  0.0935 -1.2583
  170MPD1    H1 2648   3.477   3.632  13.371 -1.4632  0.1190  0.8210
  170MPD1    H2 2649   3.780   3.772  13.617  0.8129  0.8976 -1.3499
  170MPD1    H3 2650   3.624   3.811  13.468 -1.6237 -0.8317 -3.5694
  170MPD1     N 2651   3.484   3.378  13.448  0.2980 -0.1893  0.2415
  170MPD1    H5 2652   3.488   3.291  13.500 -0.2067  1.0877  2.4183
  170MPD1    N1 2653   3.845   3.535  13.740  1.0885 -0.0849  0.1409
  170MPD1    H6 2654   3.894   3.447  13.736 -1.6445 -1.6216  0.3820
  170MPD1    H7 2655   3.913   3.609  13.754 -0.4724  1.2910  0.4617
  171MPD1     C 2656   1.554   4.621  15.426 -0.0329  0.2346  0.1042
  171MPD1    C1 2657   1.534   4.486  15.389  0.1978  0.1024 -0.4976
  171MPD1    C2 2658   1.580   4.395  15.480 -0.6189 -0.0481 -0.4737
  171MPD1    C3 2659   1.671   4.424  15.585 -0.4063 -0.2331  0.1991
  171MPD1    C4 2660   1.690   4.557  15.621 -0.1667 -0.0664  0.5292
  171MPD1    C5 2661   1.633   4.655  15.537  0.3516 -0.1037 -0.5556
  171MPD1     H 2662   1.536   4.297  15.462  4.3037 -2.6185  1.4645
  171MPD1    H1 2663   1.757   4.579  15.703  0.8290  2.6491 -1.0178
  171MPD1    H2 2664   1.519   4.694  15.354  1.6174  0.9076 -0.0049
  171MPD1    H3 2665   1.655   0.014  15.561 -1.7563  0.1097  0.4380
  171MPD1     N 2666   1.727   4.330  15.675  0.3461 -0.2270 -0.0401
  171MPD1    H5 2667   1.779   4.360  15.756 -1.6139  1.6234  0.5298
  171MPD1    N1 2668   1.431   4.447  15.302 -1.1117  0.3403  0.2486
  171MPD1    H6 2669   1.447   4.356  15.259 -2.6185 -0.0940  0.6322
  171MPD1    H7 2670   1.428   4.517  15.229 -1.4604  1.0249  0.9253
  172MPD1     C 2671   0.693   3.383   0.349 -0.0754  0.0626  0.6887
  172MPD1    C1 2672   0.653   3.464   0.248 -0.4703 -0.5646 -0.0793
  172MPD1    C2 2673   0.693   3.599   0.259  0.1151  0.6912 -0.8431
  172MPD1    C3 2674   0.756   3.647   0.373  0.3772  0.6305  0.3024
  172MPD1    C4 2675   0.780   3.556   0.474 -0.0014 -0.5206 -0.0650
  172MPD1    C5 2676   0.763   3.425   0.454  0.3056 -0.3721  0.2377
  172MPD1     H 2677   0.672   3.669   0.179 -3.4148  0.3876 -0.1731
  172MPD1    H1 2678   0.845   3.588   0.555  0.0276  0.6498 -0.5456
  172MPD1    H2 2679   0.683   3.276   0.336  2.3302 -0.4595  3.1622
  172MPD1    H3 2680   0.802   3.352   0.524 -1.3641 -1.3928  0.0825
  172MPD1     N 2681   0.812   3.776   0.380  0.0785 -0.5775 -0.0870
  172MPD1    H5 2682   0.863   3.798   0.464  0.4741 -1.2501 -0.1544
  172MPD1    N1 2683   0.606   3.409   0.122  0.7263  0.2927  0.2463
  172MPD1    H6 2684   0.549   3.325   0.122  0.4513  0.4802  0.1250
  172MPD1    H7 2685   0.543   3.474   0.075  1.8008  0.3403 -1.1534
  173MPD1     C 2686   2.372   3.939  13.844 -0.0343 -0.4285 -0.7554
  173MPD1    C1 2687   2.302   3.969  13.958  0.3172  0.0679  0.5648
  173MPD1    C2 2688   2.299   3.873  14.064  0.3312  0.9008  0.3858
  173MPD1    C3 2689   2.387   3.761  14.070 -0.5290 -0.8202  0.5103
  173MPD1    C4 2690   2.459   3.749  13.956  0.3292 -0.4446 -0.7236
  173MPD1    C5 2691   2.447   3.830  13.851 -0.6753  0.4248 -0.2730
  173MPD1     H 2692   2.223   3.874  14.142  0.1833  4.4511  0.2044
  173MPD1    H1 2693   2.523   3.663  13.939 -1.0551 -1.6889  0.3335
  173MPD1    H2 2694   2.371   4.003  13.756 -3.3230  0.7681  0.1374
  173MPD1    H3 2695   2.498   3.818  13.756  0.4216  1.0865  0.2366
  173MPD1     N 2696   2.388   3.666  14.177 -0.3134 -0.0666  0.0762
  173MPD1    H5 2697   2.328   3.688  14.257  1.7495 -1.8790  2.1059
  173MPD1    N1 2698   2.203   4.066  13.947  0.4557 -0.4085  0.2199
  173MPD1    H6 2699   2.239   4.130  13.877  0.6570 -2.6783 -1.7541
  173MPD1    H7 2700   2.194   4.120  14.033 -2.9946  0.6335 -0.8069
  174MPD1     C 2701   3.004   2.972  14.560 -0.2233 -0.2924 -1.1337
  174MPD1    C1 2702   2.901   2.989  14.649 -0.3101  0.0458  0.8199
  174MPD1    C2 2703   2.788   3.049  14.603  0.8518  0.2677 -0.2158
  174MPD1    C3 2704   2.774   3.087  14.470  0.0745  0.5151  0.2801
  174MPD1    C4 2705   2.875   3.071  14.382  0.5522  0.0777  0.6656
  174MPD1    C5 2706   2.989   3.010  14.429  0.4150  0.1554 -1.0120
  174MPD1     H 2707   2.710   3.081  14.671  0.9179 -2.6918  1.2375
  174MPD1    H1 2708   2.866   3.103  14.279 -0.9087  1.5665  1.2585
  174MPD1    H2 2709   3.100   2.940  14.599 -0.6359 -0.9095 -0.6027
  174MPD1    H3 2710   3.077   3.004  14.366  1.2131 -0.7366  0.1871
  174MPD1     N 2711   2.664   3.165  14.426 -0.2481 -0.6228 -0.1007
  174MPD1    H5 2712   2.674   3.177  14.326 -1.2410  1.1127  0.0104
  174MPD1    N1 2713   2.917   2.947  14.788  0.4116 -0.2733 -0.6129
  174MPD1    H6 2714   2.992   2.882  14.810 -0.7011 -1.0258  0.9446
  174MPD1    H7 2715   2.831   2.909  14.827  0.6940  0.7206  1.0020
  175MPD1     C 2716   1.384   4.041  15.636 -0.1779 -0.3527  0.0434
  175MPD1    C1 2717   1.268   4.109  15.582  0.2868  0.0842  0.2865
  175MPD1    C2 2718   1.161   4.142  15.669  0.4311  0.1264  0.4329
  175MPD1    C3 2719   1.158   4.099  15.799  0.2776  0.0186 -0.4633
  175MPD1    C4 2720   1.257   4.019  15.841  0.1376 -0.6637  0.2854
  175MPD1    C5 2721   1.374   4.003  15.766  0.4944 -0.3004  0.1984
  175MPD1     H 2722   1.093   4.210  15.619 -0.1939 -1.5813 -1.0523
  175MPD1    H1 2723   1.259   3.983  15.943 -1.5096 -1.4506  0.0349
  175MPD1    H2 2724   1.469   4.017  15.574  0.3027 -0.1687  0.6252
  175MPD1    H3 2725   1.461   3.954  15.809 -0.3470 -1.1504  0.9359
  175MPD1     N 2726   1.056   4.127  15.891 -0.2143 -0.5613 -0.1422
  175MPD1    H5 2727   1.069   4.085  15.983  3.8897 -1.0408 -0.9620
  175MPD1    N1 2728   1.262   4.162  15.450  0.1818  0.3611 -0.3611
  175MPD1    H6 2729   1.168   4.154  15.413  0.0564 -0.7553  0.1877
  175MPD1    H7 2730   1.337   4.115  15.399  0.5609 -0.9141  1.3560
  176MPD1     C 2731   3.237   2.511  16.873  0.0640  0.0031  0.4128
  176MPD1    C1 2732   3.139   2.588  16.924 -0.3283  0.2877  0.0319
  176MPD1    C2 2733   3.003   2.539  16.917  0.5430  0.2052 -0.1091
  176MPD1    C3 2734   2.976   2.417  16.858 -0.4741  0.1035 -0.0248
  176MPD1    C4 2735   3.080   2.351  16.800 -0.2473 -0.3113 -0.4245
  176MPD1    C5 2736   3.207   2.390  16.814 -0.0772  0.3414 -0.4412
  176MPD1     H 2737   2.932   2.591  16.980  0.6191  1.8702 -1.3821
  176MPD1    H1 2738   3.062   2.267  16.733  0.7177 -1.6628  1.0086
  176MPD1    H2 2739   3.341   2.541  16.888 -0.8295  4.0640 -1.2522
  176MPD1    H3 2740   3.285   2.334  16.765 -0.4451  0.5443 -1.2508
  176MPD1     N 2741   2.833   2.387  16.853 -0.4424 -0.0458 -0.4564
  176MPD1    H5 2742   2.773   2.459  16.892 -0.0174  0.6666 -1.1037
  176MPD1    N1 2743   3.166   2.708  16.986 -0.0632 -0.3375 -0.1020
  176MPD1    H6 2744   3.230   2.765  16.932 -0.2537  0.7221  0.7902
  176MPD1    H7 2745   3.088   2.768  17.011  0.1913  0.0130 -0.1453
  177MPD1     C 2746   0.674   1.869  10.170  0.6066  0.4133  0.4307
  177MPD1    C1 2747   0.574   1.808  10.099  0.1804 -0.8873 -0.0100
  177MPD1    C2 2748   0.497   1.889  10.017 -0.8593 -0.2296  0.6977
  177MPD1    C3 2749   0.538   2.014   9.977  0.4114 -0.2017  0.1539
  177MPD1    C4 2750   0.658   2.055  10.026 -0.4410  0.5987 -0.4575
  177MPD1    C5 2751   0.721   1.987  10.124  0.3421 -0.4941 -0.6043
  177MPD1     H 2752   0.410   1.852   9.963  0.2647 -0.0216 -1.2178
  177MPD1    H1 2753   0.713   2.141   9.988  3.6498 -0.8914  2.1540
  177MPD1    H2 2754   0.724   1.814  10.249 -0.0673 -1.6781 -0.5925
  177MPD1    H3 2755   0.813   2.030  10.162  0.1163  0.7524 -1.4605
  177MPD1     N 2756   0.451   2.085   9.894 -0.0566  0.0817 -0.2128
  177MPD1    H5 2757   0.366   2.038   9.866  0.6525  0.4358 -2.9189
  177MPD1    N1 2758   0.527   1.686  10.145 -0.2713 -0.1794 -0.2335
  177MPD1    H6 2759   0.599   1.623  10.179  0.0988  0.2110 -0.2854
  177MPD1    H7 2760   0.482   1.640  10.066  2.3230 -0.8973 -1.2874
  178MPD1     C 2761   2.733   2.506   0.431 -0.6339  0.3560  0.4968
  178MPD1    C1 2762   2.699   2.424   0.328 -0.2457 -0.1874  0.2190
  178MPD1    C2 2763   2.798   2.382   0.243  0.7313  0.9796 -0.8900
  178MPD1    C3 2764   2.927   2.435   0.249 -0.3332 -0.2712 -0.4232
  178MPD1    C4 2765   2.955   2.527   0.347 -0.0653 -0.7731 -0.6484
  178MPD1    C5 2766   2.855   2.556   0.435 -0.7873 -0.0706  0.3036
  178MPD1     H 2767   2.787   2.300   0.173 -0.5323 -0.1862  0.6739
  178MPD1    H1 2768   3.051   2.577   0.353  1.2187 -3.3300  0.1743
  178MPD1    H2 2769   2.661   2.525   0.510 -0.0752 -1.3270  1.4228
  178MPD1    H3 2770   2.865   2.640   0.502  2.2446 -0.5943  0.5042
  178MPD1     N 2771   3.038   2.392   0.167  0.0011  0.5538 -0.4930
  178MPD1    H5 2772   3.127   2.425   0.203 -0.3963  0.4316  0.6296
  178MPD1    N1 2773   2.571   2.357   0.334  0.0176  0.4913 -0.2742
  178MPD1    H6 2774   2.548   2.323   0.241 -4.1243  2.4231  0.0540
  178MPD1    H7 2775   2.565   2.283   0.404 -1.5280 -0.7846 -1.7283
  179MPD1     C 2776   2.721   0.550  15.065 -0.1155  0.0791  0.0111
  179MPD1    C1 2777   2.594   0.507  15.026 -0.4086  0.0495 -0.1479
  179MPD1    C2 2778   2.509   0.497  15.138 -0.1101  0.2248 -0.0801
  179MPD1    C3 2779   2.546   0.542  15.265  1.1347 -0.1578  1.1082
  179MPD1    C4 2780   2.666   0.606  15.284 -0.1239  0.3873  0.0822
  179MPD1    C5 2781   2.752   0.601  15.187  0.2509  0.7164  0.0127
  179MPD1     H 2782   2.414   0.453  15.111 -1.1131  1.2170  1.8150
  179MPD1    H1 2783   2.696   0.648  15.379  1.0739  2.4041 -1.1793
  179MPD1    H2 2784   2.799   0.541  14.991 -0.0080 -0.0823  0.1458
  179MPD1    H3 2785   2.851   0.643  15.204 -0.3919  2.3799 -0.3479
  179MPD1     N 2786   2.450   0.550  15.371 -0.6774  0.2919  0.1521
  179MPD1    H5 2787   2.477   0.600  15.454 -1.8009  0.0695  0.6540
  179MPD1    N1 2788   2.565   0.440  14.907 -0.6951  0.2368 -0.1119
  179MPD1    H6 2789   2.463   0.444  14.897 -0.7694 -4.0068 -0.9614
  179MPD1    H7 2790   2.599   0.484  14.822 -0.7719  1.2400  0.3769
  180MPD1     C 2791   2.139   1.140  14.756 -0.0669  0.1572  0.7988
  180MPD1    C1 2792   2.092   1.179  14.876  0.0108  0.1423  0.4340
  180MPD1    C2 2793   1.963   1.222  14.893 -0.0894 -0.3374  0.8141
  180MPD1    C3 2794   1.884   1.247  14.784  0.1875 -0.3500  0.4208
  180MPD1    C4 2795   1.930   1.217  14.661  0.4298 -0.4791  0.4387
  180MPD1    C5 2796   2.049   1.158  14.649  0.4075  0.4428  0.0974
  180MPD1     H 2797   1.922   1.251  14.989  0.6488 -0.5206  1.1864
  180MPD1    H1 2798   1.863   1.236  14.578  0.4316  1.4090  0.8691
  180MPD1    H2 2799   2.234   1.091  14.739 -0.3973 -0.4628  0.7615
  180MPD1    H3 2800   2.077   1.111  14.555 -1.2162 -0.8194  0.2557
  180MPD1     N 2801   1.761   1.311  14.808 -0.0944  0.3556 -0.0015
  180MPD1    H5 2802   1.749   1.351  14.901 -0.6097 -0.0464  0.1049
  180MPD1    N1 2803   2.172   1.125  14.980  0.3043 -0.1684 -0.1134
  180MPD1    H6 2804   2.158   1.177  15.066 -0.3353 -1.1420  0.3713
  180MPD1    H7 2805   2.271   1.142  14.960 -0.2967  1.2763 -1.9072
  181MPD1     C 2806   3.804   3.716  10.954  0.5474 -0.5880 -0.9523
  181MPD1    C1 2807   3.843   3.823  11.027 -0.5010 -0.1130 -0.2162
  181MPD1    C2 2808   3.934   3.910  10.975  0.1803  0.0496  0.1598
  181MPD1    C3 2809   3.987   3.883  10.851  0.3987  0.5587  0.1685
  181MPD1    C4 2810   3.940   3.781  10.773 -1.1696 -0.6994  0.0449
  181MPD1    C5 2811   3.843   3.704  10.827  0.2277 -1.0431  0.3679
  181MPD1     H 2812   3.973   3.988  11.039 -0.8657  1.0090 -0.3670
  181MPD1    H1 2813   3.963   3.754  10.670  1.0545  1.6520 -0.0564
  181MPD1    H2 2814   3.728   3.657  11.004 -1.1248  2.0439 -0.3713
  181MPD1    H3 2815   3.800   3.622  10.771  0.8099 -1.7191  0.9159
  181MPD1     N 2816   4.083   3.956  10.786 -0.1965 -0.0353 -0.0563
  181MPD1    H5 2817   4.118   3.916  10.700 -0.4100  0.0119 -0.1660
  181MPD1    N1 2818   3.796   3.851  11.155 -0.6272 -0.0744  0.0470
  181MPD1    H6 2819   3.787   3.766  11.210  1.2959 -0.5753 -0.3986
  181MPD1    H7 2820   3.846   3.923  11.206  0.1351  1.0264 -2.2204
  182MPD1     C 2821   0.823   2.790   0.827 -0.3746 -0.4195  0.4634
  182MPD1    C1 2822   0.789   2.841   0.952 -0.4910  0.2701 -0.0098
  182MPD1    C2 2823   0.656   2.889   0.982 -0.4856 -0.6190  0.3426
  182MPD1    C3 2824   0.561   2.870   0.883  0.0410  0.2053  0.1605
  182MPD1    C4 2825   0.600   2.814   0.761 -0.0731  0.1510 -0.8983
  182MPD1    C5 2826   0.732   2.781   0.733  0.6931 -0.1347  0.1774
  182MPD1     H 2827   0.631   2.934   1.077 -1.6832 -2.4784  0.8975
  182MPD1    H1 2828   0.538   2.791   0.675  0.9218  0.4281 -1.6928
  182MPD1    H2 2829   0.917   2.747   0.793 -1.1810 -0.4150 -1.7658
  182MPD1    H3 2830   0.761   2.736   0.639  0.7280 -0.4830  0.3543
  182MPD1     N 2831   0.431   2.917   0.892  0.2520  0.4169 -0.2572
  182MPD1    H5 2832   0.366   2.913   0.814  1.1259 -1.6986 -0.8806
  182MPD1    N1 2833   0.881   2.855   1.047 -0.1959  0.5165  0.2878
  182MPD1    H6 2834   0.958   2.789   1.035 -0.8410 -0.1882  0.0100
  182MPD1    H7 2835   0.860   2.823   1.141 -1.3221  0.3483 -0.0250
  183MPD1     C 2836   1.424   4.625   9.396  0.7241 -0.1872  0.2596
  183MPD1    C1 2837   1.357   4.728   9.462  0.1660 -0.2444  0.8104
  183MPD1    C2 2838   1.240   4.695   9.534 -0.3312 -0.1032  0.2366
  183MPD1    C3 2839   1.194   4.561   9.550 -0.6313  1.0225 -0.1680
  183MPD1    C4 2840   1.271   4.464   9.489 -0.0592  0.0442 -0.0752
  183MPD1    C5 2841   1.382   4.492   9.414 -0.3526  0.0271  0.1835
  183MPD1     H 2842   1.182   0.028   9.584  0.2681 -0.3013  1.2464
  183MPD1    H1 2843   1.238   4.361   9.482  1.0553 -0.3664  0.5717
  183MPD1    H2 2844   1.517   4.640   9.342 -0.5319  2.8757 -1.0424
  183MPD1    H3 2845   1.439   4.413   9.366  1.6128  1.9103 -0.5592
  183MPD1     N 2846   1.086   4.529   9.630 -0.4570 -0.0193  0.6053
  183MPD1    H5 2847   1.027   4.603   9.666  0.2441  0.2283  1.2193
  183MPD1    N1 2848   1.400   0.117   9.457 -0.0534 -0.7545  0.0477
  183MPD1    H6 2849   1.501   0.124   9.458 -0.1617  0.8912  0.2857
  183MPD1    H7 2850   1.354   0.181   9.522  0.0153 -1.7007  1.0172
  184MPD1     C 2851   3.984   1.585  10.478 -0.3727 -0.3289  0.1971
  184MPD1    C1 2852   4.085   1.663  10.527 -0.3633 -0.1798 -0.3351
  184MPD1    C2 2853   4.152   1.737  10.431 -0.3457 -0.0528  0.6298
  184MPD1    C3 2854   4.100   1.754  10.303 -0.2501  0.2553  1.0767
  184MPD1    C4 2855   3.986   1.687  10.261  0.2986 -0.0623  0.4357
  184MPD1    C5 2856   3.933   1.596  10.354  0.1161  0.9550 -0.1581
  184MPD1     H 2857   4.245   1.782  10.464  0.1276  0.4241 -1.3551
  184MPD1    H1 2858   3.942   1.693  10.163 -0.7553  0.9740  0.9704
  184MPD1    H2 2859   3.944   1.509  10.544  0.9964  0.9086  2.4900
  184MPD1    H3 2860   3.852   1.531  10.323  1.0760 -0.5645  0.5317
  184MPD1     N 2861   4.148   1.853  10.211  0.0030 -0.3326 -0.5101
  184MPD1    H5 2862   4.105   1.858  10.119 -3.3476 -1.9624  0.9690
  184MPD1    N1 2863   4.144   1.626  10.652 -0.2808  0.3106 -0.1871
  184MPD1    H6 2864   4.193   1.708  10.685 -0.5182  0.3181  0.1446
  184MPD1    H7 2865   4.063   1.619  10.713 -0.4685  2.0691 -0.2364
  185MPD1     C 2866   4.189   2.011   9.232 -0.6253  0.0835 -0.1078
  185MPD1    C1 2867   4.086   1.992   9.326  0.1269 -0.1867 -0.5226
  185MPD1    C2 2868   4.115   2.022   9.462  0.2938  0.0106  0.0721
  185MPD1    C3 2869   4.239   2.071   9.500 -0.0469  0.1565 -0.0616
  185MPD1    C4 2870   4.326   2.107   9.400  0.3270  0.2817 -0.0066
  185MPD1    C5 2871   4.300   2.077   9.272  0.1529 -0.4735 -0.3028
  185MPD1     H 2872   4.041   2.010   9.540 -0.7380  0.1861 -0.8854
  185MPD1    H1 2873   4.414   2.165   9.427 -0.3454  0.5518  1.5920
  185MPD1    H2 2874   4.185   1.982   9.127  4.6131 -2.3860  0.3836
  185MPD1    H3 2875   4.374   2.093   9.194  1.7198 -1.8821  0.8971
  185MPD1     N 2876   4.276   2.084   9.634 -0.0192 -0.2200 -0.3829
  185MPD1    H5 2877   4.359   2.141   9.646 -0.2017 -0.0983  0.3251
  185MPD1    N1 2878   3.970   1.925   9.284  0.0298  0.4600 -0.2198
  185MPD1    H6 2879   3.889   1.938   9.344 -1.0579 -0.0240 -1.5933
  185MPD1    H7 2880   3.950   1.953   9.188  0.5098 -0.6989 -0.6634
  186MPD1     C 2881   3.602   0.685  16.113 -0.1830 -0.4922  0.6737
  186MPD1    C1 2882   3.685   0.795  16.095  0.0863 -0.2532  0.2652
  186MPD1    C2 2883   3.628   0.919  16.109  0.5389 -0.1099 -0.9534
  186MPD1    C3 2884   3.504   0.939  16.170 -0.4048  0.1890  0.3228
  186MPD1    C4 2885   3.424   0.830  16.191 -0.3414  0.0469 -0.2586
  186MPD1    C5 2886   3.475   0.702  16.163 -0.4275  0.2062 -0.4493
  186MPD1     H 2887   3.692   1.003  16.085  1.5952 -0.7534 -0.3883
  186MPD1    H1 2888   3.320   0.832  16.221 -0.7690  0.3929 -1.7698
  186MPD1    H2 2889   3.627   0.584  16.082 -0.4471 -0.1628 -0.5925
  186MPD1    H3 2890   3.413   0.613  16.159 -1.2460  0.7493  0.0231
  186MPD1     N 2891   3.448   1.068  16.178 -0.1204  0.0978  0.1796
  186MPD1    H5 2892   3.356   1.064  16.220 -1.5179 -1.9757 -3.0206
  186MPD1    N1 2893   3.820   0.784  16.066  0.2702 -0.0063 -0.1315
  186MPD1    H6 2894   3.834   0.684  16.074 -0.7364 -0.1147  0.2745
  186MPD1    H7 2895   3.866   0.842  16.136  1.1965 -0.0919 -0.6805
  187MPD1     C 2896   2.630   2.163  17.226 -1.0196 -0.2638 -0.4658
  187MPD1    C1 2897   2.506   2.121  17.183  0.3319  0.1715  0.8066
  187MPD1    C2 2898   2.397   2.204  17.212 -0.1570 -0.6125 -0.1635
  187MPD1    C3 2899   2.416   2.330  17.270  0.4446 -0.4328 -0.1558
  187MPD1    C4 2900   2.541   2.365  17.296  0.2423  0.2269 -0.4591
  187MPD1    C5 2901   2.648   2.285  17.283  0.6818 -0.0393  0.2460
  187MPD1     H 2902   2.301   2.171  17.173 -0.5380  1.2458 -0.8024
  187MPD1    H1 2903   2.549   2.459  17.350  0.7822  0.4838 -0.9952
  187MPD1    H2 2904   2.713   2.097  17.207 -1.2257 -0.6168 -0.1480
  187MPD1    H3 2905   2.746   2.326  17.305  0.7982  0.3953 -1.0818
  187MPD1     N 2906   2.310   2.420  17.291  0.3164 -0.7277 -0.0104
  187MPD1    H5 2907   2.337   2.516  17.311  1.4084 -1.2763  1.1637
  187MPD1    N1 2908   2.498   1.996  17.122  0.1418 -0.2627  0.1367
  187MPD1    H6 2909   2.571   1.997  17.051 -0.9568 -0.4426 -0.9865
  187MPD1    H7 2910   2.405   1.987  17.083  0.5694  2.1433 -1.4611
  188MPD1     C 2911   1.968   3.414   9.801  0.1485 -0.0745  0.2257
  188MPD1    C1 2912   2.016   3.367   9.923  0.2795  0.0781 -0.2468
  188MPD1    C2 2913   1.982   3.238   9.954 -0.8793 -0.3522  0.1677
  188MPD1    C3 2914   1.918   3.149   9.874 -0.0156  0.3115  0.4829
  188MPD1    C4 2915   1.874   3.201   9.754 -0.6850 -0.2256 -0.5648
  188MPD1    C5 2916   1.901   3.328   9.714 -0.5176 -1.0244  0.0803
  188MPD1     H 2917   2.023   3.213  10.051  0.7510 -2.3582 -1.0594
  188MPD1    H1 2918   1.821   3.141   9.681 -2.2448 -0.9894  1.1946
  188MPD1    H2 2919   1.986   3.517   9.774 -0.6853  0.7574  2.8318
  188MPD1    H3 2920   1.879   3.359   9.612  0.5066  1.9727  0.7626
  188MPD1     N 2921   1.893   3.019   9.922 -0.4112  0.3956  0.1520
  188MPD1    H5 2922   1.834   2.969   9.856  0.3305  0.0717 -0.2563
  188MPD1    N1 2923   2.078   3.456  10.014 -0.3083  0.0876 -0.3784
  188MPD1    H6 2924   2.139   3.413  10.083  0.5320 -0.7502 -1.6298
  188MPD1    H7 2925   2.134   3.523   9.961  1.4022 -1.8133 -0.9801
  189MPD1     C 2926   3.819   3.639   0.331  0.8379 -0.1899  0.4928
  189MPD1    C1 2927   3.683   3.603   0.311 -0.4277  0.9080 -0.0176
  189MPD1    C2 2928   3.599   3.710   0.284  0.2221 -0.2088  0.2548
  189MPD1    C3 2929   3.642   3.837   0.260  0.5469  0.2132  0.1954
  189MPD1    C4 2930   3.777   3.874   0.272 -0.4108 -0.5981  0.0013
  189MPD1    C5 2931   3.860   3.773   0.310  0.0023 -0.3528 -0.3838
  189MPD1     H 2932   3.494   3.687   0.265  0.3481 -0.5324 -0.0478
  189MPD1    H1 2933   3.818   3.974   0.278  0.9477 -1.0797 -1.1021
  189MPD1    H2 2934   3.892   3.564   0.360  2.9663  1.4034 -0.6921
  189MPD1    H3 2935   3.964   3.802   0.325 -0.8297  2.0078  0.8154
  189MPD1     N 2936   3.539   3.922   0.217  0.3347 -0.1295  0.1007
  189MPD1    H5 2937   3.449   3.880   0.200  1.0111 -1.1169 -1.0282
  189MPD1    N1 2938   3.636   3.478   0.339 -0.7288 -0.0560  0.3124
  189MPD1    H6 2939   3.705   3.403   0.338 -0.1423  0.4370  2.5674
  189MPD1    H7 2940   3.553   3.448   0.288  0.1214 -3.0584  0.7005
  190MPD1     C 2941   1.973   2.408  15.421 -0.7985  0.6374  0.2660
  190MPD1    C1 2942   2.017   2.439  15.555  0.1856  0.2310 -0.8731
  190MPD1    C2 2943   2.159   2.420  15.578  0.4460  0.1841 -0.3535
  190MPD1    C3 2944   2.242   2.369  15.476 -0.9382  0.4039 -0.0833
  190MPD1    C4 2945   2.193   2.327  15.355 -0.8438  0.6643 -0.2894
  190MPD1    C5 2946   2.060   2.348  15.330  0.3831 -0.2188 -0.6082
  190MPD1     H 2947   2.204   2.448  15.673  2.0758 -0.8695 -0.8271
  190MPD1    H1 2948   2.251   2.280  15.277  0.3425 -0.4087  1.2467
  190MPD1    H2 2949   1.874   2.442  15.395 -0.4742  0.9948 -0.5337
  190MPD1    H3 2950   2.021   2.315  15.234 -0.1367 -2.1971  0.2813
  190MPD1     N 2951   2.378   2.358  15.511  0.6132  0.3883  0.4155
  190MPD1    H5 2952   2.396   2.377  15.610 -0.1260 -1.3542  0.8882
  190MPD1    N1 2953   1.937   2.503  15.654  0.2727 -0.2803 -0.2353
  190MPD1    H6 2954   1.842   2.467  15.660  1.0974 -2.4015  0.1912
  190MPD1    H7 2955   1.962   2.494  15.752  1.2427  0.8433 -0.3732
  191MPD1     C 2956   1.848   3.595  12.287  0.1574 -0.5474  0.0784
  191MPD1    C1 2957   1.975   3.542  12.268 -0.4220 -0.2918  0.8129
  191MPD1    C2 2958   2.062   3.612  12.184  0.1798 -0.2438  0.3445
  191MPD1    C3 2959   2.016   3.714  12.101  0.0166 -0.0560 -0.3980
  191MPD1    C4 2960   1.883   3.760  12.119  0.1572 -0.4953 -0.0862
  191MPD1    C5 2961   1.810   3.703  12.224 -0.0909 -0.0711  0.9229
  191MPD1     H 2962   2.161   3.571  12.171  0.0610 -1.0504  1.9967
  191MPD1    H1 2963   1.843   3.841  12.059 -2.0335 -1.2782  0.3359
  191MPD1    H2 2964   1.784   3.547  12.360 -0.4290 -1.2936 -0.9212
  191MPD1    H3 2965   1.714   3.745  12.252  0.6788  2.1247  0.3371
  191MPD1     N 2966   2.108   3.763  12.012  0.0638 -0.4586 -0.6744
  191MPD1    H5 2967   2.198   3.718  11.996  0.3479 -0.5475  1.2677
  191MPD1    N1 2968   2.036   3.447  12.342 -0.0661  0.0165 -0.2232
  191MPD1    H6 2969   1.963   3.398  12.394 -1.1559  0.3208 -1.4706
  191MPD1    H7 2970   2.084   3.374  12.288  0.7465 -0.0086  0.5435
  192MPD1     C 2971   2.094   4.026  11.054 -0.2047  0.4050  0.1777
  192MPD1    C1 2972   2.227   3.996  11.088 -0.1343  0.0415 -0.2309
  192MPD1    C2 2973   2.264   3.997  11.223 -0.0329 -0.0917  0.6302
  192MPD1    C3 2974   2.178   4.021  11.323 -0.3928  0.3600  0.0610
  192MPD1    C4 2975   2.047   4.041  11.289 -0.2739 -0.2285  0.2688
  192MPD1    C5 2976   2.003   4.042  11.159 -0.9006 -0.1600 -0.6102
  192MPD1     H 2977   2.368   3.981  11.247  0.5927  1.2657 -1.1311
  192MPD1    H1 2978   1.972   4.053  11.366  0.4017  2.2531  0.5663
  192MPD1    H2 2979   2.062   4.029  10.951  0.9764 -1.6820 -0.2577
  192MPD1    H3 2980   1.902   4.055  11.122 -1.1751  1.5674  0.7283
  192MPD1     N 2981   2.202   4.010  11.464  0.2812 -0.4205 -0.2434
  192MPD1    H5 2982   2.127   4.024  11.530  0.3979  1.6182 -0.5463
  192MPD1    N1 2983   2.324   3.977  10.990  0.1663  0.8725 -0.4047
  192MPD1    H6 2984   2.406   3.925  11.020  1.3926  2.8155 -0.3825
  192MPD1    H7 2985   2.290   3.969  10.894 -0.8374 -1.2905  0.1388
  193MPD1     C 2986   1.473   3.973  16.189 -0.4575 -0.3130  0.5859
  193MPD1    C1 2987   1.425   4.084  16.258 -0.4896 -0.0952  0.4523
  193MPD1    C2 2988   1.507   4.153  16.344 -0.4890 -0.0509 -0.0709
  193MPD1    C3 2989   1.642   4.107  16.363  0.1271 -0.1023 -0.2040
  193MPD1    C4 2990   1.686   3.994  16.296 -0.0883  0.2806 -0.6372
  193MPD1    C5 2991   1.593   3.926  16.216  0.2752 -0.5323 -0.4265
  193MPD1     H 2992   1.473   4.246  16.390  2.2570  1.0933 -0.3682
  193MPD1    H1 2993   1.785   3.961  16.326 -0.0688  0.4063 -0.5638
  193MPD1    H2 2994   1.413   3.910  16.124  0.7427 -0.2784 -0.5423
  193MPD1    H3 2995   1.626   3.834  16.169 -1.2532 -1.3175  0.0328
  193MPD1     N 2996   1.741   4.174  16.437  0.1413  0.0294 -1.0085
  193MPD1    H5 2997   1.830   4.125  16.439 -0.4504 -1.0114 -0.2212
  193MPD1    N1 2998   1.294   4.135  16.228  0.1829 -0.2144  0.4977
  193MPD1    H6 2999   1.226   4.064  16.202  1.2667 -1.3205  0.6593
  193MPD1    H7 3000   1.260   4.192  16.305 -0.7597  0.9146 -0.7472
  194MPD1     C 3001   3.599   0.730  16.877  0.3929  0.5778  0.9203
  194MPD1    C1 3002   3.597   0.868  16.881 -0.8652  0.4049  0.4304
  194MPD1    C2 3003   3.702   0.937  16.841 -0.6308  0.2889 -0.4371
  194MPD1    C3 3004   3.808   0.869  16.790 -0.2216  0.2381  0.4399
  194MPD1    C4 3005   3.810   0.734  16.774 -0.5884 -0.1120 -0.2506
  194MPD1    C5 3006   3.706   0.662  16.820  0.2096  0.5793 -0.6479
  194MPD1     H 3007   3.706   1.044  16.858 -0.6483  0.3023 -0.5128
  194MPD1    H1 3008   3.886   0.681  16.718 -0.7732 -2.7600  1.9677
  194MPD1    H2 3009   3.511   0.669  16.893 -0.6175  2.4066  2.3453
  194MPD1    H3 3010   3.718   0.556  16.800 -0.3666  0.2777  0.6099
  194MPD1     N 3011   3.923   0.932  16.738 -0.2453  0.1293  0.8401
  194MPD1    H5 3012   3.993   0.872  16.696 -0.5085  0.8337 -0.5940
  194MPD1    N1 3013   3.466   0.926  16.912  0.5282  0.2797 -0.0712
  194MPD1    H6 3014   3.474   1.018  16.954 -1.1123 -0.1134  1.0906
  194MPD1    H7 3015   3.426   0.874  16.990  3.5947  0.1000  1.3975
  195MPD1     C 3016   2.363   2.719   0.005  0.0739 -0.0959  0.3242
  195MPD1    C1 3017   2.421   2.618  17.706 -0.4560  0.5906 -0.0228
  195MPD1    C2 3018   2.346   2.512  17.679 -0.4560  0.5163  0.9542
  195MPD1    C3 3019   2.213   2.501  17.716 -0.8437  0.2254 -0.6520
  195MPD1    C4 3020   2.164   2.604   0.020 -0.4264  0.5649  0.4686
  195MPD1    C5 3021   2.240   2.708   0.056  0.5595  0.3101  0.2312
  195MPD1     H 3022   2.388   2.431  17.620 -0.4847  1.2408 -0.0601
  195MPD1    H1 3023   2.063   2.591   0.056 -0.5266  1.0547  0.3716
  195MPD1    H2 3024   2.427   2.803   0.029  1.4744 -0.8609 -0.7487
  195MPD1    H3 3025   2.209   2.784   0.127 -1.3811  0.4321 -0.7569
  195MPD1     N 3026   2.118   2.402  17.684  0.3086  0.3557 -0.2057
  195MPD1    H5 3027   2.028   2.411  17.729  0.9600  1.7381  0.8243
  195MPD1    N1 3028   2.557   2.628  17.659 -0.0146 -0.2041 -0.2381
  195MPD1    H6 3029   2.611   2.697  17.709 -1.4816  0.9474 -0.2276
  195MPD1    H7 3030   2.600   2.536  17.665 -2.7674 -1.3494  2.2493
  196MPD1     C 3031   0.394   2.475   0.611  0.6157  0.2564 -0.6605
  196MPD1    C1 3032   0.495   2.405   0.673 -0.4423  0.1111 -0.5867
  196MPD1    C2 3033   0.626   2.423   0.627 -0.5606 -0.6186  0.3908
  196MPD1    C3 3034   0.653   2.500   0.513  0.4941 -0.0573 -0.2637
  196MPD1    C4 3035   0.545   2.574   0.464  0.2492 -0.0056 -0.0626
  196MPD1    C5 3036   0.421   2.561   0.507 -0.3202  0.8455  0.1598
  196MPD1     H 3037   0.700   2.363   0.679  1.5472  0.8728 -0.9010
  196MPD1    H1 3038   0.557   2.629   0.372  0.3471  0.3143  0.1431
  196MPD1    H2 3039   0.292   2.475   0.647  1.0273  0.3808  0.5201
  196MPD1    H3 3040   0.344   2.626   0.468 -0.7112 -0.0847 -0.6191
  196MPD1     N 3041   0.780   2.516   0.456 -0.0116  0.1643 -0.2007
  196MPD1    H5 3042   0.790   2.584   0.382 -0.7219  3.2153  2.5125
  196MPD1    N1 3043   0.463   2.347   0.795 -0.1104  0.1925  0.0788
  196MPD1    H6 3044   0.375   2.297   0.788  0.6999 -1.0985 -1.0585
  196MPD1    H7 3045   0.529   2.273   0.820 -2.0570 -1.6979 -0.3736
  197MPD1     C 3046   0.992   0.256   0.629  0.0717 -0.0333 -0.1487
  197MPD1    C1 3047   0.954   0.145   0.555 -0.1882  0.5059 -0.2346
  197MPD1    C2 3048   0.893   0.176   0.433 -0.1845  0.1743 -0.4768
  197MPD1    C3 3049   0.879   0.305   0.383 -0.8595  0.4291  0.0949
  197MPD1    C4 3050   0.927   0.409   0.463 -0.4539  0.2859  0.0792
  197MPD1    C5 3051   0.987   0.385   0.582  0.2927  0.1448  0.2334
  197MPD1     H 3052   0.848   0.101   0.369  0.1665 -1.4900  1.2401
  197MPD1    H1 3053   0.924   0.517   0.447 -1.2462  0.3214  0.4518
  197MPD1    H2 3054   1.049   0.232   0.718  0.5257  3.2866  0.4561
  197MPD1    H3 3055   1.015   0.461   0.654 -0.6537  2.1110 -1.4526
  197MPD1     N 3056   0.808   0.345   0.263 -0.3904  0.4860  0.1332
  197MPD1    H5 3057   0.808   0.444   0.241  2.5918  0.8968  1.9950
  197MPD1    N1 3058   0.963   0.020   0.613 -0.7432 -0.6497 -0.1729
  197MPD1    H6 3059   0.909   0.011   0.698  0.6765  2.2604  1.0273
  197MPD1    H7 3060   0.923   4.692   0.552  0.6624 -3.4713  2.2298
  198MPD1     C 3061   2.150   2.816  15.526  0.4651  0.0147  1.1661
  198MPD1    C1 3062   2.238   2.904  15.468 -0.3186  0.2747 -0.5715
  198MPD1    C2 3063   2.277   3.012  15.540 -0.3422  0.2396  0.4572
  198MPD1    C3 3064   2.225   3.050  15.665 -0.0165  0.1014 -0.1246
  198MPD1    C4 3065   2.138   2.958  15.719  0.4870  0.2168 -0.4120
  198MPD1    C5 3066   2.099   2.844  15.652 -0.2709  0.4304  0.8767
  198MPD1     H 3067   2.344   3.081  15.491 -0.6555  0.3591  0.2010
  198MPD1    H1 3068   2.104   2.971  15.821 -1.9246  0.5091 -1.2453
  198MPD1    H2 3069   2.102   2.734  15.474 -0.0396 -0.1904  1.9632
  198MPD1    H3 3070   2.025   2.773  15.687  0.1809 -0.9124 -0.8706
  198MPD1     N 3071   2.263   3.176  15.728  0.0253  0.0820 -0.0839
  198MPD1    H5 3072   2.327   3.238  15.679  0.1606  0.3526  0.4360
  198MPD1    N1 3073   2.273   2.883  15.335 -0.0301  0.3190 -0.4202
  198MPD1    H6 3074   2.361   2.931  15.320 -0.5792  1.4892  0.0448
  198MPD1    H7 3075   2.295   2.786  15.316 -1.7680  0.1061 -1.4005
  199MPD1     C 3076   4.162   0.556  11.503  0.4343 -0.2121 -0.0139
  199MPD1    C1 3077   4.245   0.439  11.502  0.0646  0.1746  0.3005
  199MPD1    C2 3078   4.285   0.390  11.374 -0.0054 -0.0105  0.1280
  199MPD1    C3 3079   4.253   0.457  11.253 -0.0019 -0.1897  0.1128
  199MPD1    C4 3080   4.166   0.562  11.261 -0.2843  0.0058 -0.5013
  199MPD1    C5 3081   4.121   0.601  11.378  0.1602 -0.3829  0.4575
  199MPD1     H 3082   4.351   0.305  11.376  0.5430  0.3892 -1.3224
  199MPD1    H1 3083   4.128   0.607  11.170 -0.1520 -0.4102 -0.7598
  199MPD1    H2 3084   4.131   0.607  11.593  2.3656 -1.6473  1.4709
  199MPD1    H3 3085   4.049   0.683  11.379  2.0403  1.2720 -0.3711
  199MPD1     N 3086   4.290   0.423  11.121  0.1203 -0.3357  0.5390
  199MPD1    H5 3087   4.235   0.473  11.052  0.5809 -1.6578 -0.7929
  199MPD1    N1 3088   4.286   0.370  11.618 -0.3907 -0.3212  0.5618
  199MPD1    H6 3089   4.384   0.341  11.615  0.1284  1.5216 -0.1713
  199MPD1    H7 3090   4.252   0.408  11.706 -2.2266  0.3477 -0.4383
  200MPD1     C 3091   3.171   4.388  15.184  0.1142 -0.5088 -0.0819
  200MPD1    C1 3092   3.151   4.373  15.048 -0.5923 -0.2069 -0.0940
  200MPD1    C2 3093   3.264   4.389  14.967  0.2314  0.7470  0.0677
  200MPD1    C3 3094   3.389   4.403  15.029 -0.0647  0.2448  0.3784
  200MPD1    C4 3095   3.398   4.436  15.163  0.5005 -0.4113 -0.0039
  200MPD1    C5 3096   3.291   4.431  15.243 -0.6925  0.4561  0.5384
  200MPD1     H 3097   3.265   4.375  14.859 -0.1378  1.2588  0.0014
  200MPD1    H1 3098   3.491   4.459  15.215  1.2018 -3.0776 -0.1047
  200MPD1    H2 3099   3.085   4.377  15.249  0.6232  0.5352  0.7532
  200MPD1    H3 3100   3.302   4.461  15.346  0.3098  0.7763  0.3320
  200MPD1     N 3101   3.502   4.398  14.951 -0.1301 -0.8197  0.3486
  200MPD1    H5 3102   3.498   4.358  14.858  3.5073  0.0152 -0.1725
  200MPD1    N1 3103   3.022   4.368  14.993  0.1452  0.3285  0.0591
  200MPD1    H6 3104   2.986   4.457  14.958 -3.8783 -1.8540 -1.2804
  200MPD1    H7 3105   2.956   4.333  15.062 -0.5400  1.5373  0.0236
  201MPD1     C 3106   0.966   3.839  13.373 -0.2161 -0.1486 -0.0162
  201MPD1    C1 3107   0.847   3.780  13.345 -0.5698  0.5420 -0.2480
  201MPD1    C2 3108   0.843   3.641  13.336  0.2641 -0.1407  0.6619
  201MPD1    C3 3109   0.956   3.553  13.364 -0.3517  0.3396 -0.1142
  201MPD1    C4 3110   1.072   3.621  13.392 -0.2708 -0.3008 -0.2029
  201MPD1    C5 3111   1.078   3.759  13.401  0.4970  0.1281 -0.0225
  201MPD1     H 3112   0.744   3.598  13.325  0.7407 -1.2391  0.6639
  201MPD1    H1 3113   1.160   3.574  13.432 -0.9906  0.7782  2.6342
  201MPD1    H2 3114   0.982   3.944  13.395  0.5197 -0.5428  1.3042
  201MPD1    H3 3115   1.170   3.813  13.418  1.4449 -2.4621  3.1624
  201MPD1     N 3116   0.933   3.415  13.362  0.5562 -1.0541 -0.4259
  201MPD1    H5 3117   0.836   3.390  13.349  0.7844 -2.1580  0.0262
  201MPD1    N1 3118   0.728   3.849  13.332 -0.3862  0.5702  0.5555
  201MPD1    H6 3119   0.661   3.809  13.267  1.3425  2.1803 -2.2267
  201MPD1    H7 3120   0.743   3.948  13.311 -0.8392 -0.1293 -3.0620
  202MPD1     C 3121   0.588   3.008   9.163  0.4155 -0.8435 -0.2520
  202MPD1    C1 3122   0.523   3.103   9.242  0.3348 -0.4747 -0.3429
  202MPD1    C2 3123   0.607   3.159   9.339  0.1401 -0.4448 -0.3356
  202MPD1    C3 3124   0.720   3.086   9.378 -0.1254  0.5902 -0.1981
  202MPD1    C4 3125   0.772   2.984   9.300 -0.2865 -0.3944 -0.4192
  202MPD1    C5 3126   0.704   2.943   9.187 -0.5978  0.4699  0.1698
  202MPD1     H 3127   0.569   3.239   9.402 -1.0001  0.0940 -1.7050
  202MPD1    H1 3128   0.864   2.931   9.319  0.0576  0.2998 -0.1690
  202MPD1    H2 3129   0.546   2.978   9.068  0.1478  0.9303 -0.6920
  202MPD1    H3 3130   0.726   2.864   9.116  1.4494 -0.8129  2.2376
  202MPD1     N 3131   0.798   3.128   9.490 -0.1996 -0.0165  0.2083
  202MPD1    H5 3132   0.881   3.072   9.505 -0.4912 -0.7548 -0.9695
  202MPD1    N1 3133   0.414   3.157   9.170  0.0856  0.3711 -0.3498
  202MPD1    H6 3134   0.348   3.208   9.228 -0.7118 -0.3874 -0.5916
  202MPD1    H7 3135   0.363   3.079   9.129  1.5352 -0.8618  0.2074
  203MPD1     C 3136   4.112   3.459  12.975 -1.3171  0.2104  0.2152
  203MPD1    C1 3137   4.106   3.341  12.900  0.0498  0.1554  0.3831
  203MPD1    C2 3138   4.208   3.249  12.910  0.0533 -0.6765  0.3957
  203MPD1    C3 3139   4.318   3.282  12.985 -0.7565  0.2407 -0.5422
  203MPD1    C4 3140   4.327   3.401  13.052 -0.1992  0.1462  0.2730
  203MPD1    C5 3141   4.219   3.487  13.053 -0.3511  0.1779  0.7065
  203MPD1     H 3142   4.209   3.155  12.855  2.7402 -0.3096 -0.1647
  203MPD1    H1 3143   4.412   3.441  13.106  0.1860 -0.4518  0.1129
  203MPD1    H2 3144   4.025   3.524  12.971 -1.1145  0.4575 -0.1335
  203MPD1    H3 3145   4.219   3.573  13.119 -3.5216  1.8401 -1.4299
  203MPD1     N 3146   4.419   3.187  13.003  0.0196 -0.5387 -0.4538
  203MPD1    H5 3147   4.414   3.103  12.947 -0.1380 -0.5824 -0.3751
  203MPD1    N1 3148   3.985   3.297  12.853  0.3910  0.5624  0.4090
  203MPD1    H6 3149   3.991   3.221  12.786  0.4563  0.2306  0.7904
  203MPD1    H7 3150   3.924   3.371  12.821  0.4678  2.0144  3.5850
  204MPD1     C 3151   3.555   0.493  17.446  0.4707  0.1429  0.4218
  204MPD1    C1 3152   3.669   0.531  17.395 -0.1462 -0.5980 -0.4352
  204MPD1    C2 3153   3.781   0.443  17.376  0.7833  0.6657 -0.2003
  204MPD1    C3 3154   3.777   0.317  17.429 -0.0207  0.0446  0.0397
  204MPD1    C4 3155   3.658   0.286  17.501 -0.8288 -0.3307 -0.0489
  204MPD1    C5 3156   3.552   0.367  17.508  0.0669 -0.0875  0.5463
  204MPD1     H 3157   3.865   0.478  17.318  1.1631  2.4298  1.4085
  204MPD1    H1 3158   3.652   0.199  17.566 -1.1024  0.1603  0.5846
  204MPD1    H2 3159   3.474   0.563  17.463 -0.2755 -0.5755 -0.1700
  204MPD1    H3 3160   3.467   0.338  17.570 -0.6366 -0.9352 -0.8108
  204MPD1     N 3161   3.887   0.234  17.420 -0.3079  0.1785 -0.3227
  204MPD1    H5 3162   3.955   0.270  17.354  0.6968 -0.1124  0.5680
  204MPD1    N1 3163   3.664   0.654  17.322  0.2925  0.1806 -0.1043
  204MPD1    H6 3164   3.600   0.725  17.358 -0.0678 -1.3706  2.2931
  204MPD1    H7 3165   3.757   0.697  17.314  1.2767 -2.2407 -1.6311
  205MPD1     C 3166   3.382   4.078  16.580  0.4466  0.5217  0.4022
  205MPD1    C1 3167   3.360   4.156  16.691 -0.0263 -0.1734  0.0649
  205MPD1    C2 3168   3.429   4.123  16.807 -0.2470  0.1439 -0.1716
  205MPD1    C3 3169   3.489   3.998  16.817 -0.0855 -0.0504 -0.3624
  205MPD1    C4 3170   3.494   3.909  16.714  0.3093  0.1177 -0.3230
  205MPD1    C5 3171   3.450   3.955  16.593  0.0553  0.1737 -0.1267
  205MPD1     H 3172   3.418   4.175  16.901 -0.7916  1.4505 -0.9566
  205MPD1    H1 3173   3.548   3.815  16.711 -0.6789 -0.5035  1.3313
  205MPD1    H2 3174   3.343   4.104  16.483 -0.7898 -2.1343  0.1595
  205MPD1    H3 3175   3.440   3.885  16.511  1.0475  0.2626 -0.3171
  205MPD1     N 3176   3.564   3.957  16.932  0.4747  0.2230  0.3086
  205MPD1    H5 3177   3.611   3.867  16.926  0.0373 -0.1536  2.7326
  205MPD1    N1 3178   3.291   4.280  16.675 -0.0614  0.0010  0.0378
  205MPD1    H6 3179   3.213   4.273  16.610 -0.5786 -2.7960  0.9568
  205MPD1    H7 3180   3.251   4.314  16.763 -1.4552 -0.4164 -0.4398
  206MPD1     C 3181   0.366   1.553  16.509  0.4110  0.0447 -0.3219
  206MPD1    C1 3182   0.388   1.565  16.376  0.0861  0.0143  0.3407
  206MPD1    C2 3183   0.279   1.575  16.286 -0.1284  0.0998 -0.4281
  206MPD1    C3 3184   0.148   1.592  16.338  0.4260 -0.0148  0.0001
  206MPD1    C4 3185   0.133   1.598  16.475 -0.5130 -0.2562  0.0148
  206MPD1    C5 3186   0.243   1.581  16.555 -0.8964 -0.8615 -0.1589
  206MPD1     H 3187   0.298   1.574  16.179 -0.2157  2.2734 -0.4731
  206MPD1    H1 3188   0.037   1.598  16.524 -0.4658  1.8718  0.0980
  206MPD1    H2 3189   0.442   1.525  16.581  1.1391 -1.3110 -1.6234
  206MPD1    H3 3190   0.231   1.593  16.662  0.4601 -1.9427  0.1186
  206MPD1     N 3191   0.035   1.598  16.256  0.3077  0.2931  0.6761
  206MPD1    H5 3192   4.690   1.617  16.302 -0.9780  0.5903 -1.9114
  206MPD1    N1 3193   0.522   1.551  16.330  0.3704  0.2623  0.1134
  206MPD1    H6 3194   0.588   1.590  16.396  1.8800 -1.4639 -0.3841
  206MPD1    H7 3195   0.542   1.598  16.242  2.1976 -0.4834  0.1478
  207MPD1     C 3196   1.537   4.280   9.667 -0.5511 -0.6630 -0.1576
  207MPD1    C1 3197   1.563   4.182   9.764 -0.0891  0.4483 -0.2170
  207MPD1    C2 3198   1.651   4.222   9.867 -0.2253 -0.5865 -0.3058
  207MPD1    C3 3199   1.734   4.332   9.853  0.6773 -0.2560  0.8320
  207MPD1    C4 3200   1.709   4.418   9.752  0.3815  0.2273  0.9720
  207MPD1    C5 3201   1.604   4.398   9.668  0.4647  0.2823 -0.3707
  207MPD1     H 3202   1.660   4.154   9.950 -1.8946 -1.9525 -1.2502
  207MPD1    H1 3203   1.760   4.514   9.750 -0.5505  0.6767 -0.9070
  207MPD1    H2 3204   1.465   4.262   9.587  0.2121 -1.4128 -0.6679
  207MPD1    H3 3205   1.591   4.475   9.593 -2.0756 -1.0418 -1.3146
  207MPD1     N 3206   1.829   4.372   9.946  0.3283  0.2430  0.6359
  207MPD1    H5 3207   1.874   4.461   9.927  0.8456  0.1547  1.4193
  207MPD1    N1 3208   1.488   4.065   9.770  0.4008  0.9361 -0.7249
  207MPD1    H6 3209   1.551   3.990   9.798 -1.9140 -0.6493  0.2516
  207MPD1    H7 3210   1.445   4.034   9.682  0.1067  1.7169 -0.8488
  208MPD1     C 3211   0.046   3.464  17.130 -0.6288 -0.1846  0.7963
  208MPD1    C1 3212   4.683   3.531  17.183  0.4514  0.0586 -0.3772
  208MPD1    C2 3213   4.625   3.487  17.305 -0.6216  0.5145 -0.0266
  208MPD1    C3 3214   4.679   3.390  17.384 -0.1329 -0.3594  0.0451
  208MPD1    C4 3215   0.044   3.331  17.328  0.1096  0.9712  0.1955
  208MPD1    C5 3216   0.090   3.352  17.199 -0.8383 -0.2787 -0.1102
  208MPD1     H 3217   4.535   3.533  17.344 -0.0680  1.6403 -0.1037
  208MPD1    H1 3218   0.103   3.254  17.377 -0.3150 -0.6547 -1.8552
  208MPD1    H2 3219   0.091   3.492  17.036  0.3708 -0.6095  1.1497
  208MPD1    H3 3220   0.172   3.291  17.162 -2.1327 -1.9663 -0.1703
  208MPD1     N 3221   4.621   3.350  17.508  0.0389 -0.1347  0.3105
  208MPD1    H5 3222   4.539   3.400  17.540 -0.4593 -0.6344 -0.1764
  208MPD1    N1 3223   4.638   3.654  17.128 -0.6149 -0.0900 -0.6557
  208MPD1    H6 3224   4.644   3.663  17.026  1.0266 -0.8330 -0.6307
  208MPD1    H7 3225   4.549   3.686  17.163  0.1069  0.9259  0.2576
  209MPD1     C 3226   2.635   3.418  11.405 -1.0371  1.2360 -0.8427
  209MPD1    C1 3227   2.557   3.332  11.330 -0.6462  0.9001 -0.1677
  209MPD1    C2 3228   2.537   3.373  11.195  0.5641  0.4172 -0.3574
  209MPD1    C3 3229   2.563   3.494  11.144 -0.0586  0.6499 -0.0280
  209MPD1    C4 3230   2.636   3.581  11.228  0.0905 -0.4812  0.0379
  209MPD1    C5 3231   2.682   3.530  11.350  0.6327  0.0952  0.1765
  209MPD1     H 3232   2.471   3.320  11.127 -0.7781  2.1894 -0.4422
  209MPD1    H1 3233   2.670   3.681  11.205 -0.2430 -0.6496 -1.2013
  209MPD1    H2 3234   2.678   3.385  11.498 -0.7717  0.1617 -1.3433
  209MPD1    H3 3235   2.749   3.584  11.417  0.6147 -0.1438  0.3880
  209MPD1     N 3236   2.514   3.529  11.014 -0.5176 -0.3344 -0.0937
  209MPD1    H5 3237   2.482   3.453  10.955 -0.1741 -3.0799  3.2476
  209MPD1    N1 3238   2.518   3.211  11.383  0.2294 -0.2079 -0.1432
  209MPD1    H6 3239   2.444   3.160  11.335  1.1870 -1.2048 -0.5647
  209MPD1    H7 3240   2.512   3.207  11.484  2.3338 -0.6572 -0.0330
  210MPD1     C 3241   2.908   3.223  10.151 -0.4671 -0.1552 -0.2869
  210MPD1    C1 3242   2.882   3.191  10.282 -0.0910  0.2395  0.2453
  210MPD1    C2 3243   2.812   3.266  10.370  0.4011  0.2073  0.8167
  210MPD1    C3 3244   2.752   3.382  10.326 -0.3400 -0.1703 -0.4018
  210MPD1    C4 3245   2.764   3.414  10.191  0.3309  0.1507  0.0092
  210MPD1    C5 3246   2.841   3.334  10.107 -0.6606  0.0270 -0.2270
  210MPD1     H 3247   2.793   3.223  10.468 -0.0480 -2.6141 -0.5071
  210MPD1    H1 3248   2.707   3.498  10.154  3.2145  1.5235 -1.3022
  210MPD1    H2 3249   2.972   3.164  10.086  0.8484  0.3431  0.5653
  210MPD1    H3 3250   2.848   3.364  10.003  1.2333  1.5771  0.3432
  210MPD1     N 3251   2.662   3.462  10.399  0.4839  0.4751  0.0636
  210MPD1    H5 3252   2.636   3.546  10.349 -2.1241  0.3228  1.1483
  210MPD1    N1 3253   2.961   3.095  10.340  0.2724 -0.0705  0.6843
  210MPD1    H6 3254   2.980   3.009  10.289 -1.2213 -0.0382  0.0711
  210MPD1    H7 3255   2.922   3.046  10.421 -2.9655  2.9394  0.9404
  211MPD1     C 3256   4.689   3.817  15.397  0.1071 -0.2411  0.0123
  211MPD1    C1 3257   4.709   3.726  15.495 -0.3200  0.9994 -0.3997
  211MPD1    C2 3258   4.610   3.710  15.586  0.0308 -0.2746 -0.3737
  211MPD1    C3 3259   4.488   3.765  15.568 -0.3534  0.1145 -0.5311
  211MPD1    C4 3260   4.466   3.865  15.466 -0.3103  0.8030 -0.2488
  211MPD1    C5 3261   4.573   3.892  15.383 -0.0591 -0.2159 -0.4831
  211MPD1     H 3262   4.608   3.647  15.674  0.7936  1.4530  0.8763
  211MPD1    H1 3263   4.375   3.921  15.448  0.2690  2.6563  2.5642
  211MPD1    H2 3264   0.021   3.832  15.320  0.0575  1.1776  0.2437
  211MPD1    H3 3265   4.565   3.968  15.306  0.0091 -0.0312 -0.3082
  211MPD1     N 3266   4.390   3.722  15.660 -0.6229 -0.5258  0.4242
  211MPD1    H5 3267   4.410   3.661  15.739  0.2773 -1.5912 -0.6252
  211MPD1    N1 3268   0.094   3.673  15.517 -0.2802 -0.9207 -0.5635
  211MPD1    H6 3269   0.101   3.595  15.582 -1.0827  1.3006  2.1572
  211MPD1    H7 3270   0.136   3.640  15.430 -0.0754  0.8490 -1.1385
  212MPD1     C 3271   3.462   2.336  16.442 -0.0731  0.4076  0.1970
  212MPD1    C1 3272   3.345   2.274  16.484 -0.2131  0.3637  0.3033
  212MPD1    C2 3273   3.349   2.167  16.570 -0.3983 -0.5070  0.4852
  212MPD1    C3 3274   3.465   2.119  16.621 -0.3070  0.4610  0.5321
  212MPD1    C4 3275   3.584   2.187  16.581 -0.3388 -0.2180 -0.5621
  212MPD1    C5 3276   3.584   2.290  16.492 -0.1284 -0.6619 -0.1297
  212MPD1     H 3277   3.255   2.132  16.611 -1.6133  1.6402 -0.4519
  212MPD1    H1 3278   3.679   2.169  16.630 -1.3872  0.2730  1.6570
  212MPD1    H2 3279   3.470   2.431  16.390  2.6973 -0.7943 -1.5893
  212MPD1    H3 3280   3.676   2.346  16.476 -0.9133 -0.3120 -3.4516
  212MPD1     N 3281   3.475   2.011  16.712 -0.0071  0.1298  0.3687
  212MPD1    H5 3282   3.569   1.996  16.746 -0.1374  0.7879  1.0459
  212MPD1    N1 3283   3.225   2.341  16.466 -0.0741 -0.1724 -0.5865
  212MPD1    H6 3284   3.210   2.395  16.381 -1.1141  0.6985  0.1771
  212MPD1    H7 3285   3.162   2.262  16.473  1.0832 -1.0754 -0.2149
  213MPD1     C 3286   1.668   2.079  16.061  0.4344 -0.2957  0.3219
  213MPD1    C1 3287   1.572   1.999  16.002  0.2727  0.5754  0.1783
  213MPD1    C2 3288   1.560   2.026  15.870  0.3620 -0.3311  0.2481
  213MPD1    C3 3289   1.604   2.148  15.813  0.1354  0.1219 -0.0815
  213MPD1    C4 3290   1.681   2.234  15.887 -1.0391  0.1856  0.1063
  213MPD1    C5 3291   1.717   2.198  16.010  0.2605  0.2689  0.8944
  213MPD1     H 3292   1.509   1.947  15.817  0.7407 -1.0345  0.9313
  213MPD1    H1 3293   1.715   2.334  15.861  1.4085  0.1055  2.9329
  213MPD1    H2 3294   1.699   2.061  16.163  0.4251 -1.5988  0.0866
  213MPD1    H3 3295   1.795   2.251  16.063  0.3003  0.5400  0.5653
  213MPD1     N 3296   1.565   2.173  15.677  0.6698  0.0627 -0.0006
  213MPD1    H5 3297   1.510   2.097  15.636 -0.5160  0.3401  1.0741
  213MPD1    N1 3298   1.547   1.868  16.040 -0.4916 -0.6567 -0.0446
  213MPD1    H6 3299   1.479   1.814  15.987  1.2669 -4.4107  1.5004
  213MPD1    H7 3300   1.537   1.854  16.141  2.0628 -2.0234  0.0185
  214MPD1     C 3301   0.950   1.890  15.007  0.2528  0.6390  0.0809
  214MPD1    C1 3302   0.936   1.930  15.138 -0.0646  0.1930 -0.1581
  214MPD1    C2 3303   1.026   2.027  15.189  0.4344  0.1541  0.3912
  214MPD1    C3 3304   1.137   2.061  15.111 -0.9025 -0.1472 -0.0073
  214MPD1    C4 3305   1.153   2.014  14.987 -0.1809  0.2614 -0.1993
  214MPD1    C5 3306   1.058   1.930  14.932 -0.1675 -0.1858  0.1038
  214MPD1     H 3307   0.998   2.071  15.285 -2.2600  0.6437 -0.6020
  214MPD1    H1 3308   1.235   2.051  14.926  1.7366  0.5651  2.5524
  214MPD1    H2 3309   0.872   1.829  14.963  0.8170  0.3680 -0.5400
  214MPD1    H3 3310   1.069   1.895  14.830  0.4624 -0.7204  0.3582
  214MPD1     N 3311   1.242   2.139  15.167 -0.1877 -0.2101 -0.5040
  214MPD1    H5 3312   1.315   2.152  15.097  0.0148 -1.2341 -0.4786
  214MPD1    N1 3313   0.828   1.891  15.213  0.0697 -0.5813  0.3180
  214MPD1    H6 3314   0.828   1.893  15.315 -1.3631  1.0366  0.2772
  214MPD1    H7 3315   0.782   1.807  15.178  0.4241  0.6916 -3.2056
  215MPD1     C 3316   0.788   3.262  11.661 -0.5367 -0.3378  0.6678
  215MPD1    C1 3317   0.909   3.200  11.636  0.0272  0.5437  0.5018
  215MPD1    C2 3318   0.999   3.263  11.551  0.4784  0.3107  0.4349
  215MPD1    C3 3319   0.959   3.368  11.471  0.6278 -0.2254  0.1926
  215MPD1    C4 3320   0.830   3.422  11.487 -0.6413  0.8529 -0.0050
  215MPD1    C5 3321   0.752   3.372  11.586  0.3000 -0.2431 -0.4191
  215MPD1     H 3322   1.097   3.219  11.533  0.3691  0.8439 -1.5090
  215MPD1    H1 3323   0.790   3.497  11.420  0.2985  0.6294 -0.8137
  215MPD1    H2 3324   0.713   3.220  11.727 -1.1080  0.7036  0.6694
  215MPD1    H3 3325   0.653   3.416  11.592 -0.7117 -2.4160 -1.2410
  215MPD1     N 3326   1.058   3.433  11.390 -0.4973 -0.1039  0.1560
  215MPD1    H5 3327   1.153   3.396  11.391 -1.3663 -2.3492  0.0405
  215MPD1    N1 3328   0.948   3.090  11.713  0.0506  0.2208  0.0458
  215MPD1    H6 3329   1.018   3.037  11.662 -0.0031  0.6460 -0.4680
  215MPD1    H7 3330   0.868   3.037  11.748  0.8003 -0.5150  0.6362
  216MPD1     C 3331   3.119   1.409  17.523 -0.3696  0.3846  0.8944
  216MPD1    C1 3332   3.124   1.311  17.430 -0.2143 -0.3844 -0.4267
  216MPD1    C2 3333   3.192   1.197  17.461 -0.7274 -0.9098  0.1101
  216MPD1    C3 3334   3.239   1.183  17.592  0.4152  0.0052 -0.0939
  216MPD1    C4 3335   3.232   1.284  17.684 -0.0182 -0.0018 -0.7036
  216MPD1    C5 3336   3.168   1.399  17.646 -0.1498 -0.6066 -0.0662
  216MPD1     H 3337   3.191   1.117  17.387 -0.1995 -1.4930  0.7259
  216MPD1    H1 3338   3.267   1.277   0.015 -2.2242 -1.4357 -0.0550
  216MPD1    H2 3339   3.067   1.501  17.504 -1.6500 -0.4606  0.2965
  216MPD1    H3 3340   3.152   1.487  17.708 -1.5112 -1.5566  0.9368
  216MPD1     N 3341   3.288   1.054  17.629  0.5700  1.0040  0.1253
  216MPD1    H5 3342   3.275   0.973  17.569  1.6654 -0.9584  2.5115
  216MPD1    N1 3343   3.074   1.336  17.299  0.1030  0.3676 -0.2938
  216MPD1    H6 3344   3.008   1.413  17.294 -3.1062 -2.2458  1.9505
  216MPD1    H7 3345   3.020   1.262  17.255 -0.9251  0.4748  0.7933
  217MPD1     C 3346   0.137   4.227   9.551  0.0873  0.7445 -0.4447
  217MPD1    C1 3347   0.026   4.238   9.635 -1.2126 -0.4039 -0.5743
  217MPD1    C2 3348   4.703   4.123   9.671 -0.2694 -0.3041  0.4481
  217MPD1    C3 3349   4.742   3.997   9.621 -0.4475 -0.2989  0.4106
  217MPD1    C4 3350   0.113   3.988   9.543  0.9785 -0.0953  0.2702
  217MPD1    C5 3351   0.179   4.101   9.513 -0.5487  1.0622  0.2009
  217MPD1     H 3352   4.624   4.129   9.744 -0.5300  1.4834  0.0199
  217MPD1    H1 3353   0.152   3.892   9.512  0.6729 -0.7173  1.8216
  217MPD1    H2 3354   0.199   4.311   9.523 -2.4470  2.0141 -2.2190
  217MPD1    H3 3355   0.264   4.097   9.446  0.0140  0.2512  0.9592
  217MPD1     N 3356   4.670   3.878   9.653 -0.8231  0.2171 -0.7677
  217MPD1    H5 3357   4.716   3.789   9.641 -0.9992  0.0948 -0.5392
  217MPD1    N1 3358   4.719   4.363   9.672  0.3415 -0.2637  0.0750
  217MPD1    H6 3359   4.661   4.363   9.756 -0.3090  2.4933 -0.3551
  217MPD1    H7 3360   0.048   4.434   9.678  0.3311 -0.3122  0.7826
  218MPD1     C 3361   1.807   3.716  13.401 -0.1971 -0.5536  0.2734
  218MPD1    C1 3362   1.908   3.637  13.355 -0.2950  0.0559 -0.5781
  218MPD1    C2 3363   1.955   3.646  13.223 -0.5782 -0.3668 -0.5821
  218MPD1    C3 3364   1.899   3.745  13.142  0.4059 -0.2156  0.2659
  218MPD1    C4 3365   1.809   3.838  13.192 -1.1229 -0.5279  0.4186
  218MPD1    C5 3366   1.756   3.819  13.315 -0.1233 -0.6708  0.7182
  218MPD1     H 3367   2.019   3.570  13.180  0.1561 -0.1377  0.1258
  218MPD1    H1 3368   1.771   3.920  13.133 -0.9305 -0.1256  0.8465
  218MPD1    H2 3369   1.751   3.693  13.491  0.2026 -0.9656  0.4158
  218MPD1    H3 3370   1.677   3.888  13.341  2.1299  1.8846  0.7897
  218MPD1     N 3371   1.941   3.745  13.011  0.4633 -0.0332  0.2121
  218MPD1    H5 3372   1.995   3.665  12.981  1.7584  0.7746  0.4216
  218MPD1    N1 3373   1.938   3.515  13.425  0.0977  0.5016 -0.5940
  218MPD1    H6 3374   2.022   3.470  13.389 -2.2337 -3.0052 -1.6103
  218MPD1    H7 3375   1.926   3.522  13.525  0.6828  0.1434 -0.4971
  219MPD1     C 3376   2.218   4.226  12.097  0.1577  0.1684  0.2463
  219MPD1    C1 3377   2.083   4.224  12.134  0.2177  0.2280  0.5415
  219MPD1    C2 3378   2.044   4.122  12.221 -0.4534  0.2715 -0.5350
  219MPD1    C3 3379   2.142   4.046  12.292  0.0201 -0.1958 -0.2570
  219MPD1    C4 3380   2.270   4.060  12.256  0.1937 -0.3226  0.0333
  219MPD1    C5 3381   2.308   4.146  12.158  0.5031 -0.2671 -0.8158
  219MPD1     H 3382   1.940   4.112  12.248 -0.2585 -2.6978 -0.9165
  219MPD1    H1 3383   2.347   3.997  12.299  1.2740  2.5765  2.3845
  219MPD1    H2 3384   2.256   4.301  12.028 -0.8960  0.2622 -0.2304
  219MPD1    H3 3385   2.413   4.163  12.138  0.8370  0.1056  1.2622
  219MPD1     N 3386   2.117   3.949  12.390  0.4805 -0.5548 -0.1677
  219MPD1    H5 3387   2.200   3.905  12.428 -0.1511 -0.1827  1.6542
  219MPD1    N1 3388   1.997   4.297  12.047  0.1993  0.4149 -0.6066
  219MPD1    H6 3389   2.035   4.389  12.024 -0.8307  1.2721  1.1279
  219MPD1    H7 3390   1.903   4.318  12.081  0.0718 -1.2618  0.0632
  220MPD1     C 3391   0.922   0.102  10.011  0.7494  0.0363  0.2599
  220MPD1    C1 3392   1.008   4.742   9.977 -0.3261 -0.3639 -0.5199
  220MPD1    C2 3393   0.975   4.623  10.034 -0.1825  0.0140 -0.2136
  220MPD1    C3 3394   0.878   4.609  10.133 -0.0982 -0.4327 -0.1523
  220MPD1    C4 3395   0.802   4.717  10.170  0.0267  0.1511 -0.0529
  220MPD1    C5 3396   0.825   0.093  10.108  0.0170 -0.3784  0.9290
  220MPD1     H 3397   1.026   4.530  10.009 -1.3882 -0.2812 -1.5035
  220MPD1    H1 3398   0.732   4.704  10.251  1.9112 -1.1588  1.3714
  220MPD1    H2 3399   0.933   0.200   9.965  1.8814  0.2041  0.8834
  220MPD1    H3 3400   0.770   0.183  10.131  2.5557  1.4618 -0.1296
  220MPD1     N 3401   0.876   4.481  10.196 -0.2379 -0.0378 -0.5339
  220MPD1    H5 3402   0.938   4.405  10.171 -0.4615  0.2293 -1.8875
  220MPD1    N1 3403   1.088   0.004   9.861  0.4276  0.1412  0.5583
  220MPD1    H6 3404   1.114   0.099   9.834  0.4171 -0.1719 -0.5619
  220MPD1    H7 3405   1.171   4.689   9.855  1.0616  1.0634  0.2514
  221MPD1     C 3406   3.566   2.141  17.030  0.8600 -0.3079  0.1684
  221MPD1    C1 3407   3.694   2.096  16.998  0.3003  0.2037  0.2256
  221MPD1    C2 3408   3.782   2.169  16.927  0.9307 -0.5617  0.1595
  221MPD1    C3 3409   3.741   2.290  16.871 -0.0536  0.0531 -0.0016
  221MPD1    C4 3410   3.609   2.330  16.887 -0.1859 -1.1597 -0.1534
  221MPD1    C5 3411   3.530   2.265  16.976  0.0613  0.1362  0.1251
  221MPD1     H 3412   3.882   2.134  16.904  1.4986 -0.1519  1.9987
  221MPD1    H1 3413   3.571   2.419  16.838 -1.4477  0.1200  3.1215
  221MPD1    H2 3414   3.496   2.078  17.084  0.9933 -1.6936 -1.2810
  221MPD1    H3 3415   3.431   2.306  16.993  0.0310  0.2656 -0.3665
  221MPD1     N 3416   3.834   2.368  16.797  0.3097  0.2002 -0.2672
  221MPD1    H5 3417   3.923   2.323  16.779 -0.2545 -1.2592  0.6193
  221MPD1    N1 3418   3.727   1.961  17.018 -0.4832  0.7985 -0.1869
  221MPD1    H6 3419   3.673   1.921  17.095 -0.5779 -0.6626 -1.0264
  221MPD1    H7 3420   3.826   1.940  17.025 -0.8093 -0.7455 -0.1609
  222MPD1     C 3421   2.485   1.324   0.330  0.4973 -0.7278 -1.0486
  222MPD1    C1 3422   2.613   1.338   0.275 -0.6858  0.2996 -0.4295
  222MPD1    C2 3423   2.690   1.446   0.315  0.1438 -0.7266 -0.6977
  222MPD1    C3 3424   2.638   1.540   0.398  0.3731 -0.3953 -0.2697
  222MPD1    C4 3425   2.509   1.532   0.440  0.2092 -0.0498 -0.4306
  222MPD1    C5 3426   2.430   1.423   0.404  0.2922 -0.3268 -0.2572
  222MPD1     H 3427   2.791   1.466   0.283 -0.3958  0.7958 -1.4371
  222MPD1    H1 3428   2.467   1.607   0.506  0.9282 -0.4138  0.4405
  222MPD1    H2 3429   2.417   1.243   0.304 -0.0440 -0.5148 -0.2950
  222MPD1    H3 3430   2.326   1.419   0.432 -0.1323  1.2554 -1.5695
  222MPD1     N 3431   2.716   1.659   0.438  0.0680  0.3715 -0.0331
  222MPD1    H5 3432   2.676   1.721   0.508  0.4549  0.9558 -0.3254
  222MPD1    N1 3433   2.676   1.238   0.201 -0.0034  0.4181  0.0729
  222MPD1    H6 3434   2.605   1.182   0.154  0.2659 -0.9356  1.2808
  222MPD1    H7 3435   2.741   1.280   0.135  1.8933 -1.0691  1.0078
  223MPD1     C 3436   2.532   2.519   0.839 -0.7182 -0.0626  0.3441
  223MPD1    C1 3437   2.669   2.503   0.864  0.5132  0.0587  0.3040
  223MPD1    C2 3438   2.743   2.412   0.790  0.3440 -0.2005 -0.1746
  223MPD1    C3 3439   2.683   2.326   0.699 -0.3391 -0.9924  0.1380
  223MPD1    C4 3440   2.554   2.347   0.671 -0.7119  0.1487 -0.3943
  223MPD1    C5 3441   2.480   2.444   0.746  0.2045  1.0575 -0.3516
  223MPD1     H 3442   2.847   2.392   0.812 -0.1457 -1.4399  0.9912
  223MPD1    H1 3443   2.497   2.284   0.604 -0.6101 -1.1432  0.7468
  223MPD1    H2 3444   2.467   2.584   0.897  1.0652  1.0558  1.1142
  223MPD1    H3 3445   2.373   2.446   0.729  0.3191 -0.4973 -1.2416
  223MPD1     N 3446   2.759   2.233   0.621 -0.4754  0.3893 -0.1817
  223MPD1    H5 3447   2.857   2.224   0.645 -0.8000 -0.3792  0.8402
  223MPD1    N1 3448   2.731   2.600   0.948  0.3635  0.1162 -0.1567
  223MPD1    H6 3449   2.672   2.652   1.012  0.5358 -1.6211  1.4369
  223MPD1    H7 3450   2.821   2.557   0.971  0.7494  1.9194  1.7352
  224MPD1     C 3451   0.433   4.466   9.610 -0.7066 -0.1290 -0.8054
  224MPD1    C1 3452   0.508   4.350   9.589  0.0815 -1.4154  0.3032
  224MPD1    C2 3453   0.471   4.241   9.660  0.4861 -0.5043  0.4507
  224MPD1    C3 3454   0.382   4.248   9.766 -0.1428 -0.0208  0.2729
  224MPD1    C4 3455   0.323   4.368   9.800  0.5413 -0.7248  0.2087
  224MPD1    C5 3456   0.338   4.475   9.709  0.5594 -0.7477 -0.1323
  224MPD1     H 3457   0.514   4.144   9.638  0.8424  0.0833 -1.4119
  224MPD1    H1 3458   0.240   4.368   9.870 -0.5496  0.8818 -1.0915
  224MPD1    H2 3459   0.434   4.547   9.539 -0.8942  0.8770  0.3383
  224MPD1    H3 3460   0.290   4.571   9.722 -0.0501 -1.1709  0.7483
  224MPD1     N 3461   0.350   4.129   9.842 -0.0460  0.7241  0.8521
  224MPD1    H5 3462   0.284   4.148   9.916 -1.9073 -2.6958  0.0578
  224MPD1    N1 3463   0.597   4.338   9.477  0.3599  0.2598 -0.1298
  224MPD1    H6 3464   0.631   4.431   9.451  0.7306 -0.5244 -2.4294
  224MPD1    H7 3465   0.676   4.280   9.503 -0.6730 -0.3764  1.5854
  225MPD1     C 3466   1.518   4.226  12.984 -0.3898  0.3821  1.1640
  225MPD1    C1 3467   1.491   4.106  12.936 -0.1017  0.1665 -0.6126
  225MPD1    C2 3468   1.369   4.082  12.881 -0.5791 -0.0101  0.1163
  225MPD1    C3 3469   1.285   4.188  12.846  0.6217  0.2173  0.7453
  225MPD1    C4 3470   1.310   4.315  12.904 -0.3075  0.0096  0.6898
  225MPD1    C5 3471   1.431   4.332  12.967 -0.1204 -0.3816 -0.0650
  225MPD1     H 3472   1.350   3.978  12.858  1.6316 -0.2362 -0.7245
  225MPD1    H1 3473   1.239   4.397  12.894 -0.7024 -0.4423 -0.1945
  225MPD1    H2 3474   1.619   4.248  13.017  1.3828 -3.2207 -1.8306
  225MPD1    H3 3475   1.465   4.425  13.011 -0.2469  0.1519 -1.0982
  225MPD1     N 3476   1.162   4.170  12.777  0.3821  0.4268  0.5462
  225MPD1    H5 3477   1.110   4.257  12.771  1.4689  1.2166  2.7865
  225MPD1    N1 3478   1.574   3.996  12.965 -0.2582  0.2555  0.9649
  225MPD1    H6 3479   1.673   4.023  12.963 -0.4377  1.0538  3.6837
  225MPD1    H7 3480   1.557   3.920  12.900 -2.2615  2.8267 -1.5351
  226MPD1     C 3481   0.185   0.137  10.887  0.0696  0.1350  0.5208
  226MPD1    C1 3482   0.116   0.251  10.876 -0.5051  0.9903 -0.0770
  226MPD1    C2 3483   0.097   0.309  10.750 -0.6153  0.1630 -0.2762
  226MPD1    C3 3484   0.162   0.261  10.635  0.1021 -0.4912  0.6658
  226MPD1    C4 3485   0.234   0.147  10.651 -0.5413 -0.5199  0.1362
  226MPD1    C5 3486   0.245   0.093  10.775  1.0842 -0.2091 -0.4231
  226MPD1     H 3487   0.038   0.400  10.737  0.5628  0.5340 -2.8434
  226MPD1    H1 3488   0.274   0.092  10.567  0.9178 -1.3606  1.3779
  226MPD1    H2 3489   0.177   0.082  10.979 -2.1696 -0.7324 -0.1855
  226MPD1    H3 3490   0.299   4.743  10.766 -1.0134 -1.6605  2.1772
  226MPD1     N 3491   0.136   0.326  10.510  0.0819 -0.2353 -0.4048
  226MPD1    H5 3492   0.077   0.408  10.516  0.8200  0.3477 -1.2396
  226MPD1    N1 3493   0.036   0.286  10.978  0.0065 -0.8371 -1.0434
  226MPD1    H6 3494   0.036   0.387  10.993 -1.8776 -1.0595  0.4193
  226MPD1    H7 3495   0.068   0.255  11.069 -1.1549  0.6913 -0.1252
  227MPD1     C 3496   4.459   1.045   9.900  0.0501 -0.0847  0.2171
  227MPD1    C1 3497   4.581   1.009   9.845  0.6249 -0.3410  0.8123
  227MPD1    C2 3498   4.647   0.898   9.897  0.0837 -0.3540  0.5684
  227MPD1    C3 3499   4.607   0.825  10.005 -0.5563 -0.4368 -0.7027
  227MPD1    C4 3500   4.476   0.842  10.033  0.1170 -0.1389 -0.1450
  227MPD1    C5 3501   4.404   0.952   9.990 -0.4154 -0.3284 -0.2821
  227MPD1     H 3502   0.003   0.873   9.863  0.2806  0.4091  0.5744
  227MPD1    H1 3503   4.436   0.775  10.108 -0.2372  0.0963 -0.1236
  227MPD1    H2 3504   4.397   1.133   9.887 -0.6535 -0.3532  1.7690
  227MPD1    H3 3505   4.306   0.970  10.033  1.5418  0.4475  3.7650
  227MPD1     N 3506   4.694   0.723  10.057 -0.4290  0.1158  0.3405
  227MPD1    H5 3507   0.036   0.706  10.005 -0.4057 -0.3001  0.5076
  227MPD1    N1 3508   4.642   1.087   9.748  0.7608  0.1933 -0.3607
  227MPD1    H6 3509   4.568   1.122   9.688  0.3822 -0.0004  0.0014
  227MPD1    H7 3510   4.710   1.038   9.689 -1.3905 -0.3340 -2.3660
  228MPD1     C 3511   2.978   2.757  13.398  0.2636 -0.4363 -0.2953
  228MPD1    C1 3512   2.864   2.742  13.477  0.2594  0.2590 -0.0533
  228MPD1    C2 3513   2.771   2.643  13.429  0.0332  0.3263  0.0800
  228MPD1    C3 3514   2.788   2.583  13.313 -0.3867  0.4561 -0.5075
  228MPD1    C4 3515   2.890   2.619  13.226 -0.4470  0.3676  0.3652
  228MPD1    C5 3516   2.994   2.691  13.280  0.6615  0.7665 -0.2099
  228MPD1     H 3517   2.685   2.625  13.493  0.3669  1.5997  0.9002
  228MPD1    H1 3518   2.899   2.580  13.126  1.8830 -1.9093  1.4459
  228MPD1    H2 3519   3.054   2.820  13.443  1.4897 -3.0493  1.2656
  228MPD1    H3 3520   3.089   2.697  13.227  0.5415  1.9122 -0.2841
  228MPD1     N 3521   2.685   2.491  13.270 -1.0497 -0.3600 -0.3654
  228MPD1    H5 3522   2.612   2.463  13.335 -2.3197  2.6849 -0.4834
  228MPD1    N1 3523   2.858   2.802  13.604 -0.3623  0.7032  0.7459
  228MPD1    H6 3524   2.765   2.824  13.639 -0.5936 -0.5299  0.9099
  228MPD1    H7 3525   2.920   2.879  13.629 -0.8557  1.5223 -0.5677
  229MPD1     C 3526   2.159   0.020  15.141  0.0685 -0.1199 -0.0978
  229MPD1    C1 3527   2.152   0.070  15.274  0.0771 -0.4137 -0.6464
  229MPD1    C2 3528   2.271   0.110  15.337 -0.7520 -0.0940  0.7005
  229MPD1    C3 3529   2.389   0.106  15.265  0.3137 -0.6516  0.2145
  229MPD1    C4 3530   2.386   0.070  15.132  0.3903  0.5638 -0.1501
  229MPD1    C5 3531   2.271   0.019  15.072  0.0858 -0.7007  0.4951
  229MPD1     H 3532   2.262   0.151  15.437  0.6465  3.7311 -0.7515
  229MPD1    H1 3533   2.479   0.069  15.076  0.8442 -0.7787  0.6352
  229MPD1    H2 3534   2.067   4.738  15.090 -0.4337  2.2135 -0.3432
  229MPD1    H3 3535   2.273   4.739  14.967 -2.4645  1.1221  0.0479
  229MPD1     N 3536   2.519   0.144  15.313 -0.1687  0.7398  0.3552
  229MPD1    H5 3537   2.598   0.124  15.253  0.8105 -1.8038  2.4645
  229MPD1    N1 3538   2.033   0.103  15.335 -0.5669  0.6334  0.3898
  229MPD1    H6 3539   2.031   0.077  15.433  2.4494 -1.7357 -0.1677
  229MPD1    H7 3540   1.956   0.054  15.290  1.7213 -0.5061 -2.2838
  230MPD1     C 3541   3.215   0.397  16.093 -0.1978 -0.3850 -0.3331
  230MPD1    C1 3542   3.295   0.371  15.988 -0.0748 -0.0821  0.2715
  230MPD1    C2 3543   3.226   0.366  15.865  0.2677  0.2388 -0.3631
  230MPD1    C3 3544   3.091   0.376  15.846  0.5664  0.6870 -0.0644
  230MPD1    C4 3545   3.012   0.377  15.966 -0.2722  0.3637 -0.2195
  230MPD1    C5 3546   3.079   0.386  16.082  0.2279  0.2878  0.0375
  230MPD1     H 3547   3.292   0.363  15.779 -0.1439  2.5780 -0.7734
  230MPD1    H1 3548   2.904   0.373  15.973 -0.1209  0.9329  2.3079
  230MPD1    H2 3549   3.254   0.401  16.194 -2.2718 -4.1636  0.6272
  230MPD1    H3 3550   3.018   0.399  16.171  0.2931  1.7145 -0.1234
  230MPD1     N 3551   3.034   0.366  15.711 -0.2969  0.0523  0.2255
  230MPD1    H5 3552   3.097   0.330  15.641 -1.4544  0.3076 -0.9334
  230MPD1    N1 3553   3.432   0.383  15.997  0.0464 -0.0594  0.0827
  230MPD1    H6 3554   3.463   0.353  16.089  0.2463  0.2472  0.1148
  230MPD1    H7 3555   3.486   0.331  15.929  1.0049  0.3617  0.5263
  231MPD1     C 3556   1.299   2.495  15.585  0.2889  0.0473 -0.2890
  231MPD1    C1 3557   1.236   2.526  15.472  0.1891  0.7646  0.0043
  231MPD1    C2 3558   1.249   2.651  15.418  0.1067  0.4027  0.2949
  231MPD1    C3 3559   1.355   2.726  15.456  0.2466  0.6136  0.5047
  231MPD1    C4 3560   1.432   2.687  15.564  0.2860 -0.6886  0.3515
  231MPD1    C5 3561   1.390   2.579  15.639 -0.3316 -0.1752 -0.5269
  231MPD1     H 3562   1.187   2.684  15.336  1.3670 -0.8435 -1.1394
  231MPD1    H1 3563   1.518   2.743  15.596  0.2085 -0.7528  0.6675
  231MPD1    H2 3564   1.275   2.403  15.636 -1.5035  1.2463  1.0479
  231MPD1    H3 3565   1.447   2.555  15.729 -1.1155  0.2634  0.0883
  231MPD1     N 3566   1.394   2.832  15.370 -0.2150  0.2215 -0.2311
  231MPD1    H5 3567   1.357   2.829  15.276 -0.0819 -2.4786 -0.1841
  231MPD1    N1 3568   1.135   2.438  15.425  0.1565  0.0874 -0.0694
  231MPD1    H6 3569   1.125   2.444  15.324  0.3663  3.9064  0.1419
  231MPD1    H7 3570   1.168   2.345  15.452 -0.0336 -0.4276 -1.6013
  232MPD1     C 3571   2.960   0.873  17.728 -0.0390  0.0418  0.3694
  232MPD1    C1 3572   2.957   0.745   0.013  0.5964  0.1695 -0.3636
  232MPD1    C2 3573   2.865   0.652  17.734  0.4334 -0.4393  0.2649
  232MPD1    C3 3574   2.803   0.673  17.613 -0.7423 -0.4164 -0.6810
  232MPD1    C4 3575   2.835   0.790  17.546 -0.4347  0.1528 -0.2954
  232MPD1    C5 3576   2.894   0.892  17.613 -0.3407 -0.3957  0.6281
  232MPD1     H 3577   2.848   0.559   0.016 -0.2631 -1.1438 -1.1657
  232MPD1    H1 3578   2.780   0.815  17.456  0.2694 -0.8334 -0.9994
  232MPD1    H2 3579   3.023   0.959  17.750  0.1416  0.2058 -0.7794
  232MPD1    H3 3580   2.905   0.980  17.551  2.3791 -1.2606 -0.1367
  232MPD1     N 3581   2.719   0.572  17.563 -0.1048 -0.2165  0.1879
  232MPD1    H5 3582   2.685   0.493  17.618 -0.6110  0.1951  0.4594
  232MPD1    N1 3583   3.021   0.721   0.140 -0.4291 -0.3233 -0.2117
  232MPD1    H6 3584   3.097   0.781   0.171  1.5157 -2.5503 -0.6749
  232MPD1    H7 3585   3.056   0.626   0.127  0.7794  0.0356  0.3854
  233MPD1     C 3586   3.599   3.410   1.026 -0.1584 -0.0038  0.9561
  233MPD1    C1 3587   3.594   3.510   1.120  0.0480  0.0975 -0.9673
  233MPD1    C2 3588   3.702   3.537   1.192  0.1931 -0.1974 -0.0959
  233MPD1    C3 3589   3.819   3.463   1.173  0.4653 -0.5850 -0.2921
  233MPD1    C4 3590   3.825   3.361   1.088 -0.0218  0.1225  0.2910
  233MPD1    C5 3591   3.715   3.340   1.008 -0.4688  0.1944 -0.4373
  233MPD1     H 3592   3.704   3.620   1.262 -0.5754 -0.0989 -0.1985
  233MPD1    H1 3593   3.906   3.290   1.076 -0.7297 -0.6354  0.0336
  233MPD1    H2 3594   3.511   3.377   0.972 -0.7297  0.4990  1.5791
  233MPD1    H3 3595   3.714   3.258   0.937  2.0204  0.4540 -0.7806
  233MPD1     N 3596   3.924   3.484   1.264  0.0140  0.3852 -0.6303
  233MPD1    H5 3597   4.007   3.432   1.235  0.6194  0.0052  1.8426
  233MPD1    N1 3598   3.483   3.598   1.130 -0.5013 -0.0470  0.1828
  233MPD1    H6 3599   3.390   3.556   1.125 -0.3312 -0.0385 -3.0978
  233MPD1    H7 3600   3.482   3.658   1.212  1.2428 -0.4348  0.4855
  234MPD1     C 3601   0.535   2.120   9.423 -0.1353 -0.4622 -0.8050
  234MPD1    C1 3602   0.646   2.192   9.459 -0.3376  0.1796  0.0420
  234MPD1    C2 3603   0.627   2.330   9.467  0.6582 -0.2677 -0.1592
  234MPD1    C3 3604   0.502   2.387   9.454 -0.4744  0.9355 -0.3518
  234MPD1    C4 3605   0.390   2.304   9.434  0.1912 -0.7108 -0.9677
  234MPD1    C5 3606   0.410   2.172   9.415  0.6109  0.1716 -0.4519
  234MPD1     H 3607   0.705   2.404   9.484 -0.7872  0.4711  3.3531
  234MPD1    H1 3608   0.288   2.340   9.422  0.6614  0.6432 -0.8772
  234MPD1    H2 3609   0.541   2.014   9.402 -0.7842 -0.9329  1.4031
  234MPD1    H3 3610   0.327   2.104   9.396  0.5375  0.0674  0.2356
  234MPD1     N 3611   0.492   2.531   9.459 -0.0449  0.1014  0.3851
  234MPD1    H5 3612   0.580   2.575   9.485 -1.0835  2.4111 -0.0579
  234MPD1    N1 3613   0.773   2.132   9.462 -0.2668 -0.1091 -0.8367
  234MPD1    H6 3614   0.838   2.165   9.533  0.7193 -0.1133 -1.7361
  234MPD1    H7 3615   0.762   2.032   9.480  0.1564 -0.7176 -3.9841
  235MPD1     C 3616   1.331   0.102  10.932  0.4950 -0.2685  0.1793
  235MPD1    C1 3617   1.360   0.090  10.799  0.5996  0.2904  0.0257
  235MPD1    C2 3618   1.481   0.139  10.752 -0.3159  0.1324 -1.0556
  235MPD1    C3 3619   1.581   0.183  10.837  0.6291 -0.2316 -0.0944
  235MPD1    C4 3620   1.550   0.193  10.969 -0.8488 -0.0461  0.4260
  235MPD1    C5 3621   1.429   0.159  11.011 -0.5863  0.9573  0.7680
  235MPD1     H 3622   1.494   0.154  10.646 -0.1761  0.4055 -0.9998
  235MPD1    H1 3623   1.627   0.229  11.036 -0.7352 -0.0743  0.3096
  235MPD1    H2 3624   1.238   0.075  10.981  1.7780 -0.7828  2.3186
  235MPD1    H3 3625   1.414   0.171  11.118  2.0270 -0.6709  1.3066
  235MPD1     N 3626   1.701   0.232  10.788 -0.0001 -0.0773  0.3421
  235MPD1    H5 3627   1.715   0.227  10.687 -0.4644 -0.4412  0.2939
  235MPD1    N1 3628   1.255   0.064  10.708  0.1399  0.4077  0.2887
  235MPD1    H6 3629   1.288   0.057  10.612 -3.1856 -0.7817 -0.7532
  235MPD1    H7 3630   1.215   4.716  10.724  0.6307 -0.1040 -1.4898
  236MPD1     C 3631   0.708   0.787  10.554 -0.2306  0.6377  0.7150
  236MPD1    C1 3632   0.720   0.921  10.581 -0.2323 -0.0465  0.1921
  236MPD1    C2 3633   0.845   0.969  10.613 -0.6594  0.2602 -0.0414
  236MPD1    C3 3634   0.957   0.884  10.626  0.3811 -0.4411 -0.2575
  236MPD1    C4 3635   0.941   0.752  10.598 -0.5520  0.3702  0.2016
  236MPD1    C5 3636   0.817   0.708  10.568  0.3585  0.2364  0.1262
  236MPD1     H 3637   0.857   1.077  10.617 -2.6344  0.4638  0.4121
  236MPD1    H1 3638   1.018   0.679  10.621 -1.0425  0.2311  1.4355
  236MPD1    H2 3639   0.623   0.743  10.505  1.1613  0.4314 -1.4853
  236MPD1    H3 3640   0.802   0.601  10.555 -1.1673  0.3710  0.8297
  236MPD1     N 3641   1.088   0.937  10.653  0.2907 -0.6696 -0.4864
  236MPD1    H5 3642   1.157   0.864  10.668 -0.2538 -1.3295 -1.1901
  236MPD1    N1 3643   0.608   1.005  10.555  0.2476  0.4699  0.3297
  236MPD1    H6 3644   0.606   1.092  10.607  0.3240  1.6791 -1.6959
  236MPD1    H7 3645   0.517   0.962  10.571 -0.3471  1.8600  0.6627
  237MPD1     C 3646   1.541   3.667  14.776  0.1551  0.3191 -0.9633
  237MPD1    C1 3647   1.563   3.628  14.905  0.6585 -0.7149  0.3602
  237MPD1    C2 3648   1.470   3.656  15.003 -0.1593 -0.2523 -0.4623
  237MPD1    C3 3649   1.364   3.743  14.972 -0.0824  0.2448 -0.4728
  237MPD1    C4 3650   1.348   3.792  14.843 -0.2335  0.2912  0.0259
  237MPD1    C5 3651   1.436   3.756  14.751 -0.0375 -0.6155  0.6065
  237MPD1     H 3652   1.477   3.614  15.103  1.5880  0.9870 -0.0704
  237MPD1    H1 3653   1.266   3.861  14.827 -0.6682 -0.3717 -0.6459
  237MPD1    H2 3654   1.620   3.648  14.704  0.9555 -2.1327  0.5871
  237MPD1    H3 3655   1.424   3.792  14.649 -0.0447  2.0553  1.5659
  237MPD1     N 3656   1.260   3.782  15.064  0.1357  0.3917  0.3415
  237MPD1    H5 3657   1.193   3.853  15.035  0.3988 -0.5741 -2.5428
  237MPD1    N1 3658   1.669   3.539  14.927 -0.9044 -0.2391  0.5211
  237MPD1    H6 3659   1.704   3.554  15.021  1.2584  1.7365 -0.5780
  237MPD1    H7 3660   1.744   3.545  14.858  0.3352 -1.1426  1.7991
  238MPD1     C 3661   3.162   2.042  15.093  0.8208 -0.0726 -0.5085
  238MPD1    C1 3662   3.073   1.935  15.065 -0.1654  0.0552  0.7912
  238MPD1    C2 3663   2.949   1.962  15.005 -0.4057  0.1775  0.8642
  238MPD1    C3 3664   2.916   2.092  14.971  0.7386 -0.7132 -0.0882
  238MPD1    C4 3665   3.007   2.190  14.988 -0.5186  0.4164  0.6252
  238MPD1    C5 3666   3.127   2.167  15.046  0.1194 -0.3536 -0.1503
  238MPD1     H 3667   2.889   1.876  14.978  2.4665 -1.9266  1.2263
  238MPD1    H1 3668   2.981   2.289  14.953  4.8451  0.8046 -2.2873
  238MPD1    H2 3669   3.249   2.032  15.156 -0.9359 -2.0534  1.6093
  238MPD1    H3 3670   3.184   2.254  15.076  1.1927 -0.9412 -0.4735
  238MPD1     N 3671   2.784   2.128  14.920  0.1473  1.3577 -0.0537
  238MPD1    H5 3672   2.772   2.222  14.884 -1.3479  1.6849  1.3428
  238MPD1    N1 3673   3.100   1.805  15.110  0.5771 -0.6312  0.2399
  238MPD1    H6 3674   3.055   1.737  15.050  4.4476 -3.4245  0.4812
  238MPD1    H7 3675   3.199   1.790  15.128  0.8152  0.3244 -0.2745
  239MPD1     C 3676   3.583   3.124  14.865 -0.4941  0.3456  0.2230
  239MPD1    C1 3677   3.601   3.085  14.734  0.1419 -0.6628 -0.0733
  239MPD1    C2 3678   3.490   3.103  14.652 -0.3225  0.2401 -0.5244
  239MPD1    C3 3679   3.380   3.176  14.690 -0.4004  0.0318  0.4544
  239MPD1    C4 3680   3.369   3.215  14.823 -0.2658 -0.0053  0.4290
  239MPD1    C5 3681   3.471   3.188  14.902  0.4281  0.5270 -0.0279
  239MPD1     H 3682   3.499   3.060  14.553 -2.0532 -0.7965 -0.2182
  239MPD1    H1 3683   3.281   3.257  14.871  0.0685  1.8440 -0.5734
  239MPD1    H2 3684   3.666   3.112  14.934 -0.8018 -1.4878  0.2926
  239MPD1    H3 3685   3.458   3.219  15.005  0.7134  1.1792 -0.1886
  239MPD1     N 3686   3.285   3.215  14.593 -0.5064 -0.1593 -0.2005
  239MPD1    H5 3687   3.324   3.205  14.500  1.0423 -0.9504  0.5312
  239MPD1    N1 3688   3.711   3.001  14.701  1.0599 -0.3282  0.2809
  239MPD1    H6 3689   3.785   3.025  14.766  1.0122  0.4575  0.0413
  239MPD1    H7 3690   3.734   3.008  14.602  3.7574  1.6796  1.0474
  240MPD1     C 3691   2.395   3.338  13.826  0.1462 -0.3487  0.4229
  240MPD1    C1 3692   2.302   3.387  13.916 -0.0187  0.0338  0.2201
  240MPD1    C2 3693   2.274   3.306  14.024  0.0305  0.9501 -0.4159
  240MPD1    C3 3694   2.336   3.182  14.036  0.0636  0.3536 -0.3336
  240MPD1    C4 3695   2.428   3.139  13.943 -0.3152 -0.8026 -0.3711
  240MPD1    C5 3696   2.465   3.218  13.840  0.3065 -0.4904  0.6034
  240MPD1     H 3697   2.221   3.342  14.111 -2.7087 -0.8231 -1.3198
  240MPD1    H1 3698   2.471   3.041  13.958 -1.6999 -0.6455  4.6723
  240MPD1    H2 3699   2.408   3.392  13.733 -1.7819 -1.9537 -0.7748
  240MPD1    H3 3700   2.525   3.171  13.763  0.1492  1.5823 -0.7834
  240MPD1     N 3701   2.287   3.101  14.141  0.5109  0.7694 -0.5760
  240MPD1    H5 3702   2.199   3.129  14.184 -0.7616 -2.5315 -0.9888
  240MPD1    N1 3703   2.220   3.498  13.894 -0.3489  0.4232 -0.4759
  240MPD1    H6 3704   2.193   3.529  13.987 -0.6684 -0.3594 -0.3127
  240MPD1    H7 3705   2.272   3.575  13.851  0.7255  1.1261  2.0696
  241MPD1     C 3706   2.916   2.574  14.694 -0.4059 -0.2887  0.1559
  241MPD1    C1 3707   2.797   2.540  14.755 -0.1891 -0.1864 -0.2826
  241MPD1    C2 3708   2.682   2.579  14.685  0.1040  0.1468  0.2437
  241MPD1    C3 3709   2.687   2.664  14.574  0.1246 -0.3546  0.0629
  241MPD1    C4 3710   2.806   2.681  14.516 -0.0271  0.2428  0.2668
  241MPD1    C5 3711   2.915   2.645  14.578 -0.3612  0.6947  0.4278
  241MPD1     H 3712   2.590   2.549  14.734 -0.4137 -0.4433 -1.1026
  241MPD1    H1 3713   2.818   2.751  14.433  1.8424  0.6574  0.8738
  241MPD1    H2 3714   3.014   2.545  14.729  0.1539 -0.5621 -1.6364
  241MPD1    H3 3715   3.008   2.672  14.529  0.6877 -2.6948  0.5023
  241MPD1     N 3716   2.576   2.724  14.511  0.2843 -0.4725  0.0970
  241MPD1    H5 3717   2.601   2.783  14.433  0.5618  1.3888  1.5921
  241MPD1    N1 3718   2.800   2.452  14.864  0.0280  0.0497 -0.1175
  241MPD1    H6 3719   2.870   2.492  14.927 -0.4111 -1.5479  1.3625
  241MPD1    H7 3720   2.717   2.435  14.919 -1.1935  2.1725 -1.3022
  242MPD1     C 3721   1.719   1.085  16.363 -0.6379  0.2747 -0.4191
  242MPD1    C1 3722   1.650   1.110  16.249  0.1852 -0.1541 -0.0475
  242MPD1    C2 3723   1.718   1.121  16.128  0.6356  0.0605 -0.5858
  242MPD1    C3 3724   1.855   1.122  16.126 -0.0525 -0.9269 -0.3639
  242MPD1    C4 3725   1.924   1.094  16.242 -0.3720 -0.5694  0.5075
  242MPD1    C5 3726   1.855   1.078  16.356 -0.0634 -0.2756  0.5427
  242MPD1     H 3727   1.665   1.138  16.035 -1.4153 -1.3580  0.3331
  242MPD1    H1 3728   2.029   1.108  16.261 -0.4550  0.1799  0.4273
  242MPD1    H2 3729   1.665   1.059  16.453 -1.0013 -0.4045 -0.8312
  242MPD1    H3 3730   1.912   1.066  16.448 -0.8525  0.6805  1.1614
  242MPD1     N 3731   1.932   1.139  16.007 -0.1385 -0.5253 -0.3643
  242MPD1    H5 3732   2.030   1.112  16.019  0.0044  1.7510  3.7698
  242MPD1    N1 3733   1.508   1.113  16.247 -0.3920  0.2158  0.0731
  242MPD1    H6 3734   1.478   1.184  16.180  0.9428  0.2396 -0.4991
  242MPD1    H7 3735   1.468   1.147  16.334 -0.4387  0.9531 -0.2304
  243MPD1     C 3736   3.635   4.596  17.525 -0.2414 -0.5843 -0.9844
  243MPD1    C1 3737   3.713   4.485  17.544  0.5511  0.5180  0.1151
  243MPD1    C2 3738   3.816   4.455  17.450 -0.5321 -0.0815  0.5712
  243MPD1    C3 3739   3.827   4.525  17.333  0.2906  0.1274  0.2027
  243MPD1    C4 3740   3.742   4.633  17.317  0.1180  0.5155  0.4144
  243MPD1    C5 3741   3.653   4.670  17.415 -0.0184 -0.8888  0.3543
  243MPD1     H 3742   3.884   4.373  17.469 -2.1307 -1.9199 -1.7183
  243MPD1    H1 3743   3.736   4.705  17.235  0.9748 -0.9616 -0.9563
  243MPD1    H2 3744   3.571   4.626  17.607 -0.8590 -1.7544 -1.0435
  243MPD1    H3 3745   3.601   0.021  17.405  2.3796  0.2607 -1.4207
  243MPD1     N 3746   3.931   4.488  17.240  0.3419 -0.3052  0.1082
  243MPD1    H5 3747   3.980   4.401  17.259 -0.7293 -0.7585  0.8614
  243MPD1    N1 3748   3.728   4.444  17.678 -0.5177 -0.0197 -0.0941
  243MPD1    H6 3749   3.752   4.345  17.675  1.4953  0.4343  0.9404
  243MPD1    H7 3750   3.637   4.459  17.723  0.1960  1.5587  0.8399
  244MPD1     C 3751   4.109   3.667  17.120 -0.3713  0.2924 -0.2864
  244MPD1    C1 3752   4.147   3.752  17.222 -0.2090  0.4000 -0.1884
  244MPD1    C2 3753   4.151   3.889  17.197  0.5090 -0.5404  0.5057
  244MPD1    C3 3754   4.124   3.943  17.073 -0.0987 -0.7763 -0.8282
  244MPD1    C4 3755   4.099   3.852  16.970  0.3377  0.4501 -0.3930
  244MPD1    C5 3756   4.104   3.718  16.997  0.1570  0.3895  1.0748
  244MPD1     H 3757   4.177   3.951  17.282 -1.6853  0.2463  0.6062
  244MPD1    H1 3758   4.059   3.875  16.872  2.8652  0.6312 -1.3733
  244MPD1    H2 3759   4.090   3.563  17.145  2.0264  0.2111  1.1418
  244MPD1    H3 3760   4.080   3.657  16.911 -1.9513  1.8006  0.6777
  244MPD1     N 3761   4.130   4.083  17.051  0.1295 -0.2434 -0.1322
  244MPD1    H5 3762   4.134   4.143  17.133 -1.7896  0.2394 -0.4028
  244MPD1    N1 3763   4.146   3.700  17.355 -0.0306  0.4449  0.0677
  244MPD1    H6 3764   4.218   3.749  17.408  0.9400  0.2569 -1.0899
  244MPD1    H7 3765   4.184   3.605  17.357  1.5155  1.0667  0.0376
  245MPD1     C 3766   0.701   0.198  13.051 -0.2974  0.0833 -0.0594
  245MPD1    C1 3767   0.759   0.190  13.174  0.2122  0.0459  0.3465
  245MPD1    C2 3768   0.814   0.303  13.234 -0.1695 -0.2454 -0.1368
  245MPD1    C3 3769   0.803   0.426  13.176 -0.0673 -0.4040  0.0060
  245MPD1    C4 3770   0.727   0.438  13.070 -0.3491 -0.0564  0.1585
  245MPD1    C5 3771   0.685   0.327  13.008 -0.5861 -0.5548  0.4446
  245MPD1     H 3772   0.860   0.278  13.330 -1.7649 -0.9983  0.4277
  245MPD1    H1 3773   0.706   0.533  13.021  1.2020  0.5223  0.6019
  245MPD1    H2 3774   0.662   0.113  12.996  0.4134 -0.2655 -0.0314
  245MPD1    H3 3775   0.628   0.342  12.917 -0.4786  0.4410  0.5369
  245MPD1     N 3776   0.840   0.543  13.255  0.2453 -0.4210 -0.2342
  245MPD1    H5 3777   0.891   0.530  13.341  0.6423 -3.0455 -0.8426
  245MPD1    N1 3778   0.795   0.064  13.216  0.4403  0.5160  0.1969
  245MPD1    H6 3779   0.735   4.727  13.198 -0.4880  1.4376 -0.8243
  245MPD1    H7 3780   0.832   0.052  13.310 -1.0853 -0.1064  0.7181
  246MPD1     C 3781   1.370   4.546   9.902  0.0237  0.1830  0.0517
  246MPD1    C1 3782   1.329   4.572  10.031  0.3690  0.0998 -0.4692
  246MPD1    C2 3783   1.358   4.701  10.082  0.9114  0.2332 -0.5176
  246MPD1    C3 3784   1.406   0.054  10.000 -0.1893 -0.0644  0.5561
  246MPD1    C4 3785   1.422   0.034   9.866  0.2459  0.8666  0.7214
  246MPD1    C5 3786   1.415   4.650   9.825  0.4203 -0.3070 -0.0693
  246MPD1     H 3787   1.343   4.721  10.188 -0.2221 -0.6693 -0.4967
  246MPD1    H1 3788   1.456   0.114   9.801 -0.1967  0.5759  0.1437
  246MPD1    H2 3789   1.378   4.448   9.857 -0.7367 -1.2986  3.1407
  246MPD1    H3 3790   1.444   4.621   9.725  3.5863 -1.1955  1.1076
  246MPD1     N 3791   1.430   0.182  10.060  0.3239  0.0162  0.0039
  246MPD1    H5 3792   1.412   0.178  10.160 -0.3613  1.5092 -0.0585
  246MPD1    N1 3793   1.297   4.456  10.108 -0.2024  0.0675  0.0609
  246MPD1    H6 3794   1.249   4.386  10.052 -0.1931  1.2439 -1.4563
  246MPD1    H7 3795   1.239   4.483  10.187 -2.5840  0.7355 -1.9232
  247MPD1     C 3796   0.032   1.055  16.941  0.2881 -0.0585 -0.3626
  247MPD1    C1 3797   0.051   0.983  17.058 -0.7675  0.3265 -0.2535
  247MPD1    C2 3798   0.118   0.860  17.052  0.1415  0.1144 -0.0924
  247MPD1    C3 3799   0.154   0.807  16.929 -0.4968  0.2558 -0.0126
  247MPD1    C4 3800   0.117   0.866  16.816  0.1672 -0.1835  0.4814
  247MPD1    C5 3801   0.057   0.989  16.823  0.5172  0.2324 -1.1598
  247MPD1     H 3802   0.155   0.820  17.145  0.3775  0.9045  0.1470
  247MPD1    H1 3803   0.125   0.816  16.720  0.5459  2.1311 -0.6804
  247MPD1    H2 3804   4.734   1.154  16.933  1.3565  0.3730 -0.5518
  247MPD1    H3 3805   0.041   1.041  16.729  0.1294 -1.3467 -1.9771
  247MPD1     N 3806   0.218   0.684  16.907 -0.0798  0.3035 -0.4803
  247MPD1    H5 3807   0.231   0.659  16.810 -2.4453 -0.9590 -0.4738
  247MPD1    N1 3808   0.048   1.054  17.177  0.1502 -0.4601  0.7278
  247MPD1    H6 3809   0.033   0.996  17.260 -0.2709 -1.6558 -0.1877
  247MPD1    H7 3810   4.724   1.129  17.164  1.5338  0.5909 -0.4197
  248MPD1     C 3811   1.020   4.427   0.517  0.6108  0.0960  0.0810
  248MPD1    C1 3812   1.044   4.512   0.412  0.4470  0.6876 -0.0106
  248MPD1    C2 3813   0.933   4.559   0.345  0.0393 -0.0048 -0.1239
  248MPD1    C3 3814   0.808   4.502   0.348  0.6801 -0.4896 -0.0566
  248MPD1    C4 3815   0.791   4.409   0.445  0.3558  0.0561  0.1125
  248MPD1    C5 3816   0.894   4.382   0.533 -0.3384  0.5385 -0.3142
  248MPD1     H 3817   0.954   4.627   0.263 -0.4170 -0.8548 -0.9448
  248MPD1    H1 3818   0.696   4.360   0.462  1.2689 -1.9975 -0.7226
  248MPD1    H2 3819   1.097   4.399   0.588 -0.6664 -0.8498  1.0962
  248MPD1    H3 3820   0.863   4.307   0.604  1.4124 -2.2687 -2.4867
  248MPD1     N 3821   0.716   4.524   0.245 -0.1775  0.6061 -0.1027
  248MPD1    H5 3822   0.748   4.587   0.171  1.6442 -2.3949 -1.8436
  248MPD1    N1 3823   1.180   4.569   0.400  0.3177 -0.5839  0.1178
  248MPD1    H6 3824   1.244   4.497   0.432  0.3440 -1.0249 -0.9174
  248MPD1    H7 3825   1.199   4.604   0.306  2.2685 -1.6038  0.1346
  249MPD1     C 3826   2.872   3.283  10.938 -0.6293 -0.5793  0.4272
  249MPD1    C1 3827   2.934   3.251  10.824  0.1983  0.0605  0.3699
  249MPD1    C2 3828   2.945   3.357  10.731 -0.0012 -0.6042 -0.7501
  249MPD1    C3 3829   2.904   3.490  10.755 -0.4196 -0.6051 -0.0396
  249MPD1    C4 3830   2.856   3.515  10.877  0.3185  0.1380 -0.6913
  249MPD1    C5 3831   2.839   3.413  10.962  0.2015 -0.0172  0.2238
  249MPD1     H 3832   2.982   3.342  10.631 -0.2812 -0.9545 -0.8015
  249MPD1    H1 3833   2.810   3.610  10.902 -1.0160 -0.3632 -1.2198
  249MPD1    H2 3834   2.876   3.211  11.019 -0.0983  0.7872  1.6167
  249MPD1    H3 3835   2.789   3.435  11.056  1.2047  1.8736  0.3201
  249MPD1     N 3836   2.911   3.586  10.654  0.0720 -0.0316  0.3601
  249MPD1    H5 3837   2.948   3.559  10.564  1.2467  2.7900 -0.0060
  249MPD1    N1 3838   2.956   3.115  10.797  0.0619  0.4683  0.6374
  249MPD1    H6 3839   3.033   3.093  10.734 -1.3107 -2.2604 -0.1000
  249MPD1    H7 3840   2.956   3.047  10.872 -0.9832  2.1138  2.1361
  250MPD2     C 3841   4.376   3.653  13.471  0.1034  0.7937 -0.0117
  250MPD2    C1 3842   4.277   3.735  13.433  0.0374 -0.5984  0.0354
  250MPD2    C2 3843   4.158   3.674  13.388 -0.0071  0.1042 -0.2367
  250MPD2    C3 3844   4.142   3.539  13.407  0.4298  0.0229 -1.1096
  250MPD2    C4 3845   4.241   3.464  13.464 -0.5738  0.3032  0.1060
  250MPD2    C5 3846   4.363   3.519  13.493 -0.4673  0.4258 -0.5236
  250MPD2     H 3847   4.082   3.734  13.339  1.5339  0.9632 -1.5564
  250MPD2    H1 3848   4.226   3.357  13.469  0.4445  0.1379 -0.3738
  250MPD2    H2 3849   4.475   3.692  13.494 -0.5034  1.3750  1.6183
  250MPD2    H3 3850   4.447   3.465  13.536 -2.0341 -1.9039 -0.3999
  250MPD2     N 3851   4.043   3.463  13.345 -0.1142  0.6359  0.2781
  250MPD2    H5 3852   4.050   3.362  13.351 -0.9512  0.5513 -0.2519
  250MPD2    N1 3853   4.308   3.871  13.414 -0.1416 -0.0801 -0.4657
  250MPD2    H7 3854   4.401   3.907  13.434 -0.4279  0.2593  0.2854
  251TMC3    C1 3855   4.275   4.095  13.381  0.0291 -0.0051 -0.3252
  251TMC3    C2 3856   4.196   4.205  13.388  0.5801 -0.1922 -0.1463
  251TMC3    C3 3857   4.255   4.330  13.389  0.3176 -1.0651 -0.7857
  251TMC3    C4 3858   4.411   4.108  13.379 -0.1144  0.3449  0.5806
  251TMC3    C5 3859   4.467   4.235  13.369  0.1334  1.2227  0.6732
  251TMC3    C6 3860   4.390   4.344  13.374 -1.0287  0.4718  0.3971
  251TMC3     C 3861   4.213   3.970  13.391 -0.2852  0.0703  0.0347
  251TMC3     O 3862   4.094   3.954  13.395  0.1444  0.0085  0.3378
  251TMC3     H 3863   4.088   4.205  13.393  0.4825 -0.4246 -2.2494
  251TMC3    H1 3864   4.468   4.036  13.322 -0.5403  0.9489 -0.6032
  251TMC3    H2 3865   4.428   4.445  13.368  2.0703 -0.8078 -1.1241
  251TMC3    C7 3866   4.602   4.250  13.409 -0.1195 -0.3948 -0.1261
  251TMC3    C8 3867   4.168   4.436  13.427  0.8565 -0.9690 -0.0031
  251TMC3    O1 3868   4.654   4.362  13.398 -0.1403 -0.3180 -0.8406
  251TMC3    O2 3869   4.054   4.412  13.456  0.3089  0.2190  0.3307
  252TMC3    C1 3870   4.709   1.245  10.083  0.5351  0.2384 -0.0757
  252TMC3    C2 3871   0.080   1.171  10.091  0.0950 -0.2031  0.1187
  252TMC3    C3 3872   0.075   1.068  10.178 -0.5056 -1.0638  0.2401
  252TMC3    C4 3873   4.599   1.223  10.160 -0.3460 -0.6394 -0.0970
  252TMC3    C5 3874   4.600   1.108  10.232 -0.0275  0.3391 -0.1537
  252TMC3    C6 3875   4.714   1.039  10.261 -0.3304 -0.6404 -0.2504
  252TMC3     C 3876   4.705   1.359   9.987  0.2341  0.2894  0.2720
  252TMC3     O 3877   4.620   1.444   9.999 -0.1154  0.1133  0.1243
  252TMC3     H 3878   0.164   1.186  10.024 -0.7604  2.2753 -0.4171
  252TMC3    H1 3879   4.512   1.288  10.162  0.2210  0.2062 -2.0408
  252TMC3    H2 3880   4.718   0.953  10.327 -0.8550 -0.2251  0.3226
  252TMC3    C7 3881   4.491   1.082  10.317  0.8920  0.5525  0.0806
  252TMC3    C8 3882   0.175   0.964  10.152  0.0360 -0.1919  0.8008
  252TMC3    O1 3883   4.386   1.141  10.288  0.1350 -0.2173 -0.0685
  252TMC3    O2 3884   0.246   0.963  10.051  0.2216 -0.0748 -0.4864
  253MPD2     C 3885   0.709   4.425  14.907  0.0998  0.0692  0.5484
  253MPD2    C1 3886   0.575   4.401  14.935 -0.5672 -0.0648 -0.2939
  253MPD2    C2 3887   0.533   4.354  15.061  0.0589  0.2785 -0.0438
  253MPD2    C3 3888   0.631   4.344  15.161  0.3503 -0.6092 -0.8992
  253MPD2    C4 3889   0.766   4.384  15.141  0.2411  0.2071  0.3399
  253MPD2    C5 3890   0.799   4.426  15.008 -0.1360 -0.2047 -0.1073
  253MPD2     H 3891   0.433   4.321  15.086 -0.3050  0.6929 -0.9446
  253MPD2    H1 3892   0.847   4.362  15.209 -1.2858  1.3260  2.5250
  253MPD2    H2 3893   0.743   4.447  14.807  0.5345 -1.1735  0.4225
  253MPD2    H3 3894   0.902   4.446  14.982 -1.2903 -0.7936 -5.0139
  253MPD2     N 3895   0.604   4.304  15.290  0.0036  0.3185 -0.8403
  253MPD2    H5 3896   0.683   4.309  15.352 -1.7326  1.2018  1.2857
  253MPD2    N1 3897   0.471   4.383  14.848  0.5758 -0.1202  0.5273
  253MPD2    H7 3898   0.379   4.352  14.878  0.0224 -0.7688 -1.7988
  254TMC3    C1 3899   0.487   4.259  15.490  0.6641 -1.1116  0.5840
  254TMC3    C2 3900   0.400   4.330  15.570  0.1454 -0.5382  1.0047
  254TMC3    C3 3901   0.414   4.324  15.709  0.3093 -0.0809 -0.4873
  254TMC3    C4 3902   0.581   4.175  15.542 -0.0525  0.2181 -0.2812
  254TMC3    C5 3903   0.589   4.167  15.675  0.3286  0.7840 -0.4530
  254TMC3    C6 3904   0.504   4.234  15.760 -0.3858 -0.1140 -0.3405
  254TMC3     C 3905   0.480   4.278  15.345  0.2589 -0.0185  0.0566
  254TMC3     O 3906   0.369   4.311  15.312 -0.2080  0.4294  0.2758
  254TMC3     H 3907   0.317   4.383  15.525  2.0441  0.7232 -0.9879
  254TMC3    H1 3908   0.659   4.133  15.480  1.3274 -0.3481  1.8385
  254TMC3    H2 3909   0.536   4.236  15.863  0.3724  2.6654 -0.6407
  254TMC3    C7 3910   0.638   4.039  15.730 -0.1125 -1.0475  0.6260
  254TMC3    C8 3911   0.351   4.417  15.805  0.1695  0.0791  0.1889
  254TMC3    O1 3912   0.697   3.956  15.659 -0.2040  0.1398  0.1328
  254TMC3    O2 3913   0.366   4.375  15.919  0.1408  0.1582 -0.5570
  255MPD2     C 3914   3.576   1.911  10.349 -0.7952 -0.5994 -0.0996
  255MPD2    C1 3915   3.558   2.050  10.356 -0.2627  0.0442  0.4660
  255MPD2    C2 3916   3.633   2.133  10.272 -0.2390 -0.4624  0.3167
  255MPD2    C3 3917   3.721   2.079  10.181  0.3087  0.1271  0.9635
  255MPD2    C4 3918   3.734   1.942  10.180 -0.2175  0.7149 -0.7668
  255MPD2    C5 3919   3.670   1.853  10.267  0.0843 -0.5133 -0.0263
  255MPD2     H 3920   3.612   2.239  10.262  1.9292 -0.3749 -3.0545
  255MPD2    H1 3921   3.803   1.899  10.108  1.0641  1.1538  0.2167
  255MPD2    H2 3922   3.529   1.852  10.427  2.9368  0.0599  2.6926
  255MPD2    H3 3923   3.703   1.750  10.275 -0.5773 -0.7917 -0.9068
  255MPD2     N 3924   3.792   2.169  10.096  0.0282  0.0106  0.0815
  255MPD2    H5 3925   3.775   2.266  10.121  1.5130 -0.3487  2.4764
  255MPD2    N1 3926   3.465   2.097  10.451  0.2408 -0.3975 -0.2056
  255MPD2    H7 3927   3.405   2.034  10.504 -1.2455 -0.1664 -1.6299
  256TMC3    C1 3928   3.332   2.256  10.571  0.0986  0.4841 -0.3530
  256TMC3    C2 3929   3.330   2.390  10.612 -0.1199  1.3331 -0.1018
  256TMC3    C3 3930   3.211   2.439  10.656  0.2301 -0.7468 -0.1320
  256TMC3    C4 3931   3.217   2.182  10.554  0.0200  0.1173 -0.3807
  256TMC3    C5 3932   3.098   2.237  10.592 -0.2769  0.9151 -0.1356
  256TMC3    C6 3933   3.094   2.364  10.651 -0.3101 -0.3417  0.6034
  256TMC3     C 3934   3.445   2.225  10.487  0.2214 -0.2148  0.1391
  256TMC3     O 3935   3.522   2.321  10.461  0.4857  0.4013  0.4500
  256TMC3     H 3936   3.421   2.447  10.627  0.9947  0.0316 -1.9299
  256TMC3    H1 3937   3.223   2.085  10.505 -1.5075 -0.3012  0.2586
  256TMC3    H2 3938   3.006   2.419  10.681 -0.3433  0.2916 -0.6752
  256TMC3    C7 3939   2.989   2.221  10.491 -0.1080 -0.0550  0.2810
  256TMC3    C8 3940   3.187   2.568  10.587 -0.0454 -0.5289 -0.0021
  256TMC3    O1 3941   3.022   2.188  10.377  0.1634 -0.1924 -0.3864
  256TMC3    O2 3942   3.083   2.584  10.524  0.0782  0.0484  0.0571
  257MPD2     C 3943   2.596   3.713  13.395  0.2160  0.2572 -0.1905
  257MPD2    C1 3944   2.647   3.682  13.273 -0.4279  0.4398 -0.1665
  257MPD2    C2 3945   2.721   3.567  13.252  0.2630 -0.1325  0.6153
  257MPD2    C3 3946   2.746   3.487  13.361 -0.0616 -0.2978  0.6114
  257MPD2    C4 3947   2.693   3.518  13.482 -0.3505 -0.5098 -0.4509
  257MPD2    C5 3948   2.607   3.623  13.495 -0.3290  0.2918  0.8012
  257MPD2     H 3949   2.762   3.550  13.153 -1.3326 -0.5791  0.0214
  257MPD2    H1 3950   2.714   3.467  13.575 -0.1376 -0.2238 -0.3420
  257MPD2    H2 3951   2.523   3.794  13.403  1.0697  0.7242  2.8899
  257MPD2    H3 3952   2.554   3.630  13.589  1.6223  0.3798  1.8863
  257MPD2     N 3953   2.843   3.391  13.375 -0.8502  0.5847  0.0308
  257MPD2    H5 3954   2.859   3.364  13.472 -0.4719  1.6705  0.2737
  257MPD2    N1 3955   2.620   3.771  13.165 -0.7332  0.2933 -0.1223
  257MPD2    H7 3956   2.563   3.852  13.188 -1.2214  0.0093 -0.3304
  258TMC3    C1 3957   3.044   3.274  13.333  0.1931 -0.3749  0.1706
  258TMC3    C2 3958   3.166   3.303  13.286 -0.4484 -0.0343 -0.4096
  258TMC3    C3 3959   3.274   3.279  13.368 -0.2498  0.2993  0.1975
  258TMC3    C4 3960   3.026   3.195  13.440 -0.1992 -0.4803  0.3288
  258TMC3    C5 3961   3.135   3.171  13.521 -0.5642 -0.2427 -0.4102
  258TMC3    C6 3962   3.261   3.206  13.481 -0.8248 -0.4589  0.3597
  258TMC3     C 3963   2.925   3.339  13.277 -0.1972  1.0643 -0.8904
  258TMC3     O 3964   2.929   3.375  13.162  0.0247 -0.5609  0.2796
  258TMC3     H 3965   3.171   3.365  13.198 -0.9581  0.4942 -0.0638
  258TMC3    H1 3966   2.927   3.160  13.466 -0.4608 -0.2206 -0.3306
  258TMC3    H2 3967   3.355   3.172  13.525  0.0388  2.9597  1.1501
  258TMC3    C7 3968   3.118   3.092  13.639 -0.6594  0.2047 -0.7885
  258TMC3    C8 3969   3.382   3.380  13.355  0.1889 -0.2899  0.4133
  258TMC3    O1 3970   3.015   3.032  13.663 -0.0364 -0.3819  0.2940
  258TMC3    O2 3971   3.369   3.455  13.258  0.1623  0.0095  0.1728
  259MPD2     C 3972   1.529   0.964   0.598 -0.5177 -0.7632 -0.5118
  259MPD2    C1 3973   1.651   0.917   0.627  0.3678  0.3337 -0.1838
  259MPD2    C2 3974   1.723   0.842   0.535 -0.0688  0.4575 -0.1065
  259MPD2    C3 3975   1.668   0.821   0.408  0.5326 -0.3683 -0.3533
  259MPD2    C4 3976   1.547   0.878   0.379  0.1837  0.6228 -0.3516
  259MPD2    C5 3977   1.479   0.951   0.475  0.8942 -0.3920  0.0883
  259MPD2     H 3978   1.820   0.802   0.563 -0.2524  0.4198  0.4927
  259MPD2    H1 3979   1.491   0.850   0.291 -1.5662  4.3750 -0.4533
  259MPD2    H2 3980   1.471   1.024   0.667  2.1112  1.5984 -0.3859
  259MPD2    H3 3981   1.392   1.011   0.450  0.6722 -0.0085  1.8119
  259MPD2     N 3982   1.746   0.738   0.318 -0.1441 -0.1488  0.1148
  259MPD2    H5 3983   1.827   0.689   0.354 -0.7620 -0.1954  1.4159
  259MPD2    N1 3984   1.692   0.951   0.757 -0.1013 -0.3524 -0.1182
  259MPD2    H7 3985   1.622   0.997   0.816 -1.3437  1.3592 -2.9274
  260TMC3    C1 3986   1.822   0.670   0.112 -0.3646 -1.0917 -0.6386
  260TMC3    C2 3987   1.846   0.719  17.762  0.0670 -0.1155 -0.2473
  260TMC3    C3 3988   1.948   0.670  17.691 -0.1152  0.8292  0.2329
  260TMC3    C4 3989   1.890   0.562   0.168  0.5290  0.3879  1.4286
  260TMC3    C5 3990   1.997   0.518   0.100  0.2546 -0.3312 -0.0221
  260TMC3    C6 3991   2.032   0.570  17.743 -0.0234 -0.3786 -1.0210
  260TMC3     C 3992   1.716   0.732   0.185  0.0024  0.0098  0.2920
  260TMC3     O 3993   1.634   0.794   0.114 -0.6094 -0.6551  0.6051
  260TMC3     H 3994   1.790   0.803  17.724 -3.8566 -1.8045  1.7190
  260TMC3    H1 3995   1.867   0.526   0.268  0.1445 -0.7606  0.9264
  260TMC3    H2 3996   2.113   0.529  17.684 -0.4906  0.9843 -2.6161
  260TMC3    C7 3997   2.057   0.387   0.131 -0.2816  0.1988 -0.2157
  260TMC3    C8 3998   1.940   0.685  17.544 -0.3296 -0.1182 -0.7641
  260TMC3    O1 3999   2.131   0.347   0.041 -0.2127  0.1312 -0.0761
  260TMC3    O2 4000   1.865   0.763  17.488  0.2367  0.9394  0.1858
  261MPD2     C 4001   3.353   3.365  12.807  0.4983 -0.3633  0.0718
  261MPD2    C1 4002   3.465   3.444  12.831 -0.7406  0.1347 -0.1012
  261MPD2    C2 4003   3.485   3.550  12.751  0.1421 -0.9095 -0.3094
  261MPD2    C3 4004   3.406   3.572  12.641  0.7254 -0.8970 -0.0722
  261MPD2    C4 4005   3.294   3.495  12.618 -0.0513 -0.1006  0.1436
  261MPD2    C5 4006   3.263   3.391  12.707 -0.6810  0.0794 -0.0565
  261MPD2     H 4007   3.566   3.619  12.772 -0.7356  0.6073 -1.9118
  261MPD2    H1 4008   3.220   3.518  12.543  0.0027  0.4451  0.2579
  261MPD2    H2 4009   3.333   3.281  12.872  2.8336 -0.9323  0.0554
  261MPD2    H3 4010   3.174   3.329  12.704  0.8202 -1.9126 -2.7971
  261MPD2     N 4011   3.451   3.671  12.548 -0.0443 -0.1544  0.1708
  261MPD2    H5 4012   3.519   3.737  12.583 -0.6204  1.7504 -2.3420
  261MPD2    N1 4013   3.551   3.432  12.941  0.4589  0.1253  0.2016
  261MPD2    H7 4014   3.615   3.510  12.948  1.3524 -0.7477  1.5269
  262TMC3    C1 4015   3.479   3.805  12.360 -0.4507  0.2867  0.4550
  262TMC3    C2 4016   3.411   3.879  12.261  0.2251  0.0653 -0.1210
  262TMC3    C3 4017   3.478   3.961  12.175 -0.1348  0.0377 -0.3206
  262TMC3    C4 4018   3.617   3.802  12.367 -0.4322  0.5663 -0.2072
  262TMC3    C5 4019   3.679   3.885  12.281  0.3087  0.2429  0.5004
  262TMC3    C6 4020   3.610   3.959  12.184  0.6571 -0.2134  0.3793
  262TMC3     C 4021   3.403   3.702  12.420 -0.0534  0.6488 -0.0013
  262TMC3     O 4022   3.309   3.652  12.359 -0.0231  0.2634  0.0310
  262TMC3     H 4023   3.303   3.874  12.253  0.0325  1.7508  1.3478
  262TMC3    H1 4024   3.668   3.730  12.429 -2.1445 -0.0898  0.4421
  262TMC3    H2 4025   3.659   4.023  12.111  0.8915  1.4388  1.9918
  262TMC3    C7 4026   3.821   3.901  12.303  0.0911 -0.5693 -0.4355
  262TMC3    C8 4027   3.412   4.070  12.102 -0.3132  0.0889 -0.5626
  262TMC3    O1 4028   3.873   3.815  12.376 -0.5605 -0.0107 -0.1791
  262TMC3    O2 4029   3.486   4.160  12.064 -0.3767 -0.1968 -1.1226
  263MPD2     C 4030   4.312   3.373  12.177 -0.3108 -0.2317 -0.1466
  263MPD2    C1 4031   4.385   3.340  12.059 -0.1065  0.3432  0.1012
  263MPD2    C2 4032   4.376   3.422  11.942  0.1180 -1.5251  0.0914
  263MPD2    C3 4033   4.311   3.544  11.948 -0.4711  0.1004  0.7646
  263MPD2    C4 4034   4.228   3.574  12.063 -0.2745 -0.0417 -0.2768
  263MPD2    C5 4035   4.246   3.491  12.175  0.2734  0.0298  0.4381
  263MPD2     H 4036   4.426   3.390  11.852 -0.1036 -1.3202 -0.1026
  263MPD2    H1 4037   4.183   3.672  12.066 -0.3276 -0.0946  0.6285
  263MPD2    H2 4038   4.327   3.322  12.272  0.4825  1.6193  0.7297
  263MPD2    H3 4039   4.199   3.518  12.269 -0.1609  0.1326  0.1901
  263MPD2     N 4040   4.337   3.625  11.842  0.3362  0.1508  0.8430
  263MPD2    H5 4041   4.404   3.585  11.777 -1.0355 -0.9895  0.1335
  263MPD2    N1 4042   4.471   3.224  12.058 -0.3574 -0.2919  0.2006
  263MPD2    H7 4043   4.474   3.175  12.147 -1.4077  0.1937  0.5006
  264TMC3    C1 4044   4.337   3.812  11.702 -0.1879  0.1268  0.0101
  264TMC3    C2 4045   4.316   3.943  11.688  0.5147  0.8766 -0.1101
  264TMC3    C3 4046   4.357   4.006  11.573  0.1962  0.7187 -0.6093
  264TMC3    C4 4047   4.393   3.740  11.599 -0.1984  0.0825  0.1574
  264TMC3    C5 4048   4.429   3.806  11.481  0.6196  0.3642 -0.6627
  264TMC3    C6 4049   4.414   3.941  11.468  0.0539 -0.0454 -0.2495
  264TMC3     C 4050   4.294   3.752  11.828  0.4955 -0.3879 -0.1174
  264TMC3     O 4051   4.232   3.825  11.905  0.1048  0.3593 -0.2453
  264TMC3     H 4052   4.276   3.998  11.772  1.5113 -0.8290  1.4887
  264TMC3    H1 4053   4.406   3.633  11.609 -0.6555 -0.1436 -1.6238
  264TMC3    H2 4054   4.447   3.997  11.381 -1.8411 -1.5230 -1.9087
  264TMC3    C7 4055   4.506   3.741  11.377  0.2730 -0.0170  0.5965
  264TMC3    C8 4056   4.392   4.143  11.570 -0.3103  0.1810  0.0235
  264TMC3    O1 4057   4.559   3.804  11.288  1.3011 -0.1443 -0.7840
  264TMC3    O2 4058   4.491   4.172  11.504  0.3619 -0.4646  0.6304
  265MPD2     C 4059   1.794   3.471  15.774 -0.1308  0.0525  0.0887
  265MPD2    C1 4060   1.849   3.568  15.697  0.4245 -0.4732  0.9548
  265MPD2    C2 4061   1.917   3.534  15.583  0.4446 -0.1760  0.3045
  265MPD2    C3 4062   1.933   3.406  15.550  0.1919 -0.2616  0.6744
  265MPD2    C4 4063   1.871   3.307  15.627  0.3629 -0.5185  0.1394
  265MPD2    C5 4064   1.807   3.340  15.740  0.1314 -1.0236 -0.5082
  265MPD2     H 4065   1.963   3.610  15.521 -0.2466  2.5475  3.1649
  265MPD2    H1 4066   1.882   3.203  15.599  3.2826 -0.5007  1.2833
  265MPD2    H2 4067   1.755   3.494  15.873 -2.4994 -3.0519 -0.1016
  265MPD2    H3 4068   1.767   3.255  15.795 -2.2321  1.9542  2.3691
  265MPD2     N 4069   2.003   3.353  15.435  0.5445  0.1198 -0.1715
  265MPD2    H5 4070   1.986   3.254  15.416  1.5804  0.0733 -0.8597
  265MPD2    N1 4071   1.823   3.709  15.719 -0.0860  0.3610  1.0584
  265MPD2    H7 4072   1.846   3.776  15.646  2.0816 -0.2561  1.1967
  266TMC3    C1 4073   1.799   3.900  15.858 -0.1044  0.1416  0.0920
  266TMC3    C2 4074   1.816   3.953  15.984  0.0454 -0.8808  0.2449
  266TMC3    C3 4075   1.823   4.091  15.993  0.3803 -0.6450 -0.3073
  266TMC3    C4 4076   1.774   3.983  15.747 -0.5648  0.8988  0.8781
  266TMC3    C5 4077   1.772   4.121  15.769  0.4165  0.3945 -0.2936
  266TMC3    C6 4078   1.796   4.177  15.886  0.4633  0.2647  0.3928
  266TMC3     C 4079   1.778   3.759  15.845 -0.8350  0.7633 -0.5102
  266TMC3     O 4080   1.780   3.700  15.952 -0.3096  0.3573 -0.6685
  266TMC3     H 4081   1.837   3.894  16.072  2.1311  0.2341  0.5151
  266TMC3    H1 4082   1.738   3.943  15.653  1.3654 -1.8284  1.2986
  266TMC3    H2 4083   1.802   4.285  15.897  1.0010  0.4840 -2.1455
  266TMC3    C7 4084   1.721   4.198  15.653 -0.3243  0.7715 -0.1320
  266TMC3    C8 4085   1.937   4.139  16.071 -0.0136 -1.3801  0.7486
  266TMC3    O1 4086   1.696   4.136  15.549  0.1196 -0.3278 -0.0275
  266TMC3    O2 4087   2.035   4.070  16.087  0.0516  0.1710 -0.5081
  267MPD2     C 4088   4.142   0.441  17.689  0.9363  0.1866 -0.2018
  267MPD2    C1 4089   4.113   0.578  17.676  0.4066  1.0787  0.8996
  267MPD2    C2 4090   3.989   0.630  17.700  0.1260  0.3886 -0.8713
  267MPD2    C3 4091   3.886   0.548  17.729 -0.5687  0.6599  0.4760
  267MPD2    C4 4092   3.915   0.415  17.723 -0.6542 -0.5368  0.2736
  267MPD2    C5 4093   4.041   0.361  17.718 -0.1545 -0.2741  0.2082
  267MPD2     H 4094   3.962   0.729  17.667 -0.1467  1.1429  1.6278
  267MPD2    H1 4095   3.835   0.341  17.724 -0.6183 -0.5643  1.7404
  267MPD2    H2 4096   4.242   0.399  17.682  1.3932  0.7122  3.3692
  267MPD2    H3 4097   4.059   0.254  17.726 -2.7509 -0.8083 -1.2663
  267MPD2     N 4098   3.756   0.594  17.755 -0.1598 -0.0337  0.2890
  267MPD2    H5 4099   3.687   0.521  17.769 -0.9217  0.7731  0.7372
  267MPD2    N1 4100   4.224   0.659  17.644 -0.0856 -0.1739  0.0521
  267MPD2    H7 4101   4.313   0.610  17.653 -0.5857 -1.0917  0.0402
  268TMC3    C1 4102   4.342   0.871  17.632 -0.1676  0.1843  0.2252
  268TMC3    C2 4103   4.349   0.990  17.559  0.2217 -0.2908  0.0144
  268TMC3    C3 4104   4.463   1.071  17.589 -0.0198 -0.1240 -0.5632
  268TMC3    C4 4105   4.435   0.828  17.721  0.0899 -0.1467  0.7930
  268TMC3    C5 4106   4.537   0.916  17.743  0.6819 -0.2514  0.7094
  268TMC3    C6 4107   4.553   1.035  17.683 -0.4464 -0.7168  0.9642
  268TMC3     C 4108   4.215   0.795  17.618  0.3109 -0.8449  0.5790
  268TMC3     O 4109   4.119   0.875  17.628 -0.2814 -1.0147  0.8457
  268TMC3     H 4110   4.267   1.011  17.491 -1.1938 -2.4634  1.0181
  268TMC3    H1 4111   4.421   0.744   0.016  4.0957 -1.2061  0.2926
  268TMC3    H2 4112   4.643   1.094  17.700 -1.3921  0.6698  1.1880
  268TMC3    C7 4113   4.614   0.890   0.086 -0.3004 -0.7838  0.1506
  268TMC3    C8 4114   4.513   1.171  17.494 -0.1346 -0.2109  0.3252
  268TMC3    O1 4115   4.645   0.774   0.110  0.6951  1.1179 -0.2337
  268TMC3    O2 4116   4.615   1.236  17.528  0.4179 -0.3308 -0.5362
  269MPD2     C 4117   4.397   4.723  15.636 -0.1010 -0.4637 -0.2506
  269MPD2    C1 4118   4.267   4.719  15.662 -0.7213  0.4823  0.1767
  269MPD2    C2 4119   4.190   0.088  15.646  0.0471  0.2890 -0.3216
  269MPD2    C3 4120   4.245   0.197  15.573  0.7276 -0.0212  0.6648
  269MPD2    C4 4121   4.377   0.193  15.531 -0.4531 -0.3296 -0.1733
  269MPD2    C5 4122   4.448   0.087  15.573 -0.1003  0.0131  0.6694
  269MPD2     H 4123   4.084   0.083  15.671  0.5944  1.0618  2.1890
  269MPD2    H1 4124   4.425   0.283  15.494 -2.7562  0.8550 -0.2805
  269MPD2    H2 4125   4.465   4.641  15.657  1.6031  1.2735  1.0432
  269MPD2    H3 4126   4.554   0.080  15.547 -0.0402  0.3140  0.8422
  269MPD2     N 4127   4.160   0.309  15.539 -0.5335 -0.2690 -0.9171
  269MPD2    H5 4128   4.068   0.308  15.583  0.2882 -1.6070  0.7711
  269MPD2    N1 4129   4.223   4.604  15.720 -0.0943 -0.3109 -0.5230
  269MPD2    H7 4130   4.294   4.542  15.759  1.1283  2.4082  1.5391
  270TMC3    C1 4131   4.102   4.403  15.764 -0.2823  0.1937 -0.2143
  270TMC3    C2 4132   3.986   4.331  15.730 -0.1513 -0.3761  0.0943
  270TMC3    C3 4133   3.995   4.199  15.722  0.5511  0.3260 -0.4717
  270TMC3    C4 4134   4.216   4.339  15.799 -1.0178 -0.1562  0.3094
  270TMC3    C5 4135   4.209   4.202  15.806 -0.0172 -0.5444 -0.1238
  270TMC3    C6 4136   4.107   4.131  15.760 -0.6075 -0.7277  0.4043
  270TMC3     C 4137   4.096   4.551  15.733  0.5300 -0.0842 -0.2458
  270TMC3     O 4138   3.994   4.604  15.699 -0.1613  0.1732 -0.7491
  270TMC3     H 4139   3.898   4.385  15.695 -0.3318  1.4323  3.4160
  270TMC3    H1 4140   4.307   4.396  15.813 -0.3269 -1.0451 -0.4904
  270TMC3    H2 4141   4.116   4.023  15.755  0.6624 -0.5030 -2.5094
  270TMC3    C7 4142   4.336   4.136  15.818  0.1514  0.4833  0.3485
  270TMC3    C8 4143   3.908   4.135  15.633  0.3408  0.0683 -0.0186
  270TMC3    O1 4144   4.343   4.029  15.884  0.0347  0.3501  0.0243
  270TMC3    O2 4145   3.801   4.189  15.614 -0.2896  0.7314 -0.7673
  271MPD2     C 4146   3.534   3.858  13.923 -0.1546  0.1863  0.2134
  271MPD2    C1 4147   3.495   3.905  14.048  0.5599  0.3541  0.4169
  271MPD2    C2 4148   3.369   3.958  14.064 -0.5760 -0.2967  0.2304
  271MPD2    C3 4149   3.279   3.966  13.956  0.4681  0.4062  0.1098
  271MPD2    C4 4150   3.314   3.925  13.835  0.5020 -0.2830  0.3121
  271MPD2    C5 4151   3.440   3.873  13.814  0.6617 -0.3436 -0.1974
  271MPD2     H 4152   3.337   3.977  14.166  0.7196  0.7601  0.4331
  271MPD2    H1 4153   3.260   3.924  13.741 -0.1850 -0.3953  0.7105
  271MPD2    H2 4154   3.626   3.807  13.895 -1.0910  0.5364 -3.4168
  271MPD2    H3 4155   3.462   3.839  13.714 -2.0543  0.9415 -1.2352
  271MPD2     N 4156   3.145   4.010  13.965 -0.6334  0.1168  0.1775
  271MPD2    H5 4157   3.092   4.013  13.878 -1.7784 -0.9903  0.8293
  271MPD2    N1 4158   3.581   3.888  14.156  0.0855 -0.4425 -0.4135
  271MPD2    H7 4159   3.547   3.921  14.246 -1.1929 -0.5586 -0.8504
  272TMC3    C1 4160   3.755   3.810  14.293  0.6612 -0.1969 -0.3339
  272TMC3    C2 4161   3.887   3.765  14.306 -0.0169 -0.4358 -0.0351
  272TMC3    C3 4162   3.941   3.755  14.423 -0.4223  0.1162  0.1596
  272TMC3    C4 4163   3.677   3.835  14.399 -0.3116 -0.8608 -0.1503
  272TMC3    C5 4164   3.739   3.811  14.515 -0.1878  0.1705  0.5306
  272TMC3    C6 4165   3.874   3.781  14.536  0.0286  0.0841 -0.5986
  272TMC3     C 4166   3.706   3.825  14.160 -0.3227  0.0532 -0.2510
  272TMC3     O 4167   3.789   3.806  14.074  0.5186  0.2807  0.1780
  272TMC3     H 4168   3.939   3.731  14.217 -0.8226  0.1588 -0.7327
  272TMC3    H1 4169   3.572   3.861  14.407 -0.0095 -0.2280  1.7153
  272TMC3    H2 4170   3.914   3.764  14.635 -1.1626  1.7222  0.1574
  272TMC3    C7 4171   3.659   3.856  14.630 -0.1558  0.5370 -0.4919
  272TMC3    C8 4172   4.081   3.712  14.431  0.2721  0.5855  0.5010
  272TMC3    O1 4173   3.539   3.842  14.622 -1.1576 -0.0451  0.4985
  272TMC3    O2 4174   4.133   3.684  14.323  0.0792 -0.3963  0.3678
  273MPD2     C 4175   0.396   1.847  11.854  0.3121  0.4914  0.1000
  273MPD2    C1 4176   0.468   1.954  11.808 -0.0451 -0.2108  0.4854
  273MPD2    C2 4177   0.449   1.996  11.678  0.5892  0.3086 -0.2377
  273MPD2    C3 4178   0.358   1.934  11.594 -0.4647  0.0290  0.3602
  273MPD2    C4 4179   0.292   1.825  11.639 -0.1701  0.6142 -0.5351
  273MPD2    C5 4180   0.320   1.781  11.762 -0.0430  0.1030  0.0907
  273MPD2     H 4181   0.517   2.071  11.640 -0.5207  0.9926 -0.8674
  273MPD2    H1 4182   0.224   1.775  11.571  0.5357  0.4444 -1.1023
  273MPD2    H2 4183   0.395   1.819  11.959  0.5278  0.9916  0.2357
  273MPD2    H3 4184   0.264   1.692  11.791 -0.8414  0.7816  0.6309
  273MPD2     N 4185   0.331   1.987  11.462  0.4631 -0.0365 -0.8083
  273MPD2    H5 4186   0.253   1.945  11.411  0.6617  0.3831 -1.4575
  273MPD2    N1 4187   0.557   2.018  11.901 -0.1057 -0.3528 -0.2674
  273MPD2    H7 4188   0.560   1.970  11.990  0.8755  0.1586 -0.0344
  274TMC3    C1 4189   0.316   2.158  11.296  0.0180  0.1357 -0.4144
  274TMC3    C2 4190   0.201   2.092  11.268  0.4762  0.2038  0.9112
  274TMC3    C3 4191   0.088   2.169  11.267 -0.8594  0.0164 -0.1637
  274TMC3    C4 4192   0.311   2.293  11.326 -0.1168 -0.0615 -0.1525
  274TMC3    C5 4193   0.191   2.360  11.340  0.3871  0.1116  0.0889
  274TMC3    C6 4194   0.071   2.298  11.308 -0.2089 -0.0699  0.0570
  274TMC3     C 4195   0.394   2.096  11.401  0.0985 -0.0873  0.5555
  274TMC3     O 4196   0.503   2.152  11.432  0.4317  0.2114  0.0475
  274TMC3     H 4197   0.189   1.990  11.235 -0.0913  0.8526 -0.9146
  274TMC3    H1 4198   0.403   2.350  11.319  0.6096 -1.3897 -1.6617
  274TMC3    H2 4199   4.725   2.355  11.326 -0.6233 -1.0976  1.2258
  274TMC3    C7 4200   0.190   2.463  11.441 -0.4638  0.1918 -0.0070
  274TMC3    C8 4201   4.738   2.131  11.160 -0.2120 -0.1747  0.5799
  274TMC3    O1 4202   0.078   2.505  11.472 -0.1636 -0.1423 -0.6050
  274TMC3    O2 4203   0.018   2.026  11.099 -0.4707  0.2586  0.3549
  275MPD2     C 4204   0.314   0.244  14.479  0.8832 -0.2590 -0.1132
  275MPD2    C1 4205   0.218   0.327  14.525  0.0247 -0.4744 -0.3693
  275MPD2    C2 4206   0.086   0.301  14.502  0.6479 -0.2870 -0.3124
  275MPD2    C3 4207   0.047   0.178  14.452  0.6378  0.2303  0.2603
  275MPD2    C4 4208   0.144   0.092  14.421  0.0593 -0.6037 -0.5134
  275MPD2    C5 4209   0.279   0.122  14.424  0.2655 -0.5095  0.0978
  275MPD2     H 4210   0.012   0.374  14.533  0.9069 -0.0139 -0.3397
  275MPD2    H1 4211   0.119   4.733  14.398 -1.3945 -0.2084 -0.7167
  275MPD2    H2 4212   0.420   0.267  14.481  1.0299 -0.7830 -1.8135
  275MPD2    H3 4213   0.337   0.038  14.389 -0.2094 -0.6844 -0.2791
  275MPD2     N 4214   4.657   0.131  14.449 -0.0490 -0.2901  0.6127
  275MPD2    H5 4215   4.643   0.037  14.414  0.5083 -0.0437 -0.2709
  275MPD2    N1 4216   0.247   0.446  14.596  0.1408 -0.5189 -0.1941
  275MPD2    H7 4217   0.165   0.501  14.621 -0.1597 -1.1454  0.2149
  276TMC3    C1 4218   0.347   0.578  14.761  0.3699  0.6887 -0.1231
  276TMC3    C2 4219   0.222   0.623  14.779 -0.3666 -0.1243 -0.0485
  276TMC3    C3 4220   0.180   0.642  14.905  0.1117 -0.2375 -0.1348
  276TMC3    C4 4221   0.436   0.566  14.868  0.5392  0.2504  0.0502
  276TMC3    C5 4222   0.393   0.600  14.994 -0.2628  0.8883  0.4733
  276TMC3    C6 4223   0.267   0.628  15.014 -0.7469 -0.0979  0.1751
  276TMC3     C 4224   0.368   0.489  14.650  0.1170  0.0335  0.3516
  276TMC3     O 4225   0.476   0.433  14.642 -0.2121 -0.7895  0.7318
  276TMC3     H 4226   0.170   0.647  14.687 -0.5421  0.2736  0.1523
  276TMC3    H1 4227   0.527   0.507  14.856 -1.5983 -2.9931 -0.1061
  276TMC3    H2 4228   0.228   0.639  15.115 -1.7072 -2.7566  0.0944
  276TMC3    C7 4229   0.468   0.565  15.114 -0.5299  0.7725 -0.0716
  276TMC3    C8 4230   0.064   0.563  14.921  0.8602 -0.3930 -0.2785
  276TMC3    O1 4231   0.444   0.637  15.211  0.0016 -0.0446 -0.1879
  276TMC3    O2 4232   4.714   0.596  14.989 -0.0756  0.1245 -0.1514
  277MPD2     C 4233   2.350   3.356  13.389 -0.1996  0.2903  0.4432
  277MPD2    C1 4234   2.279   3.447  13.463  0.6537  0.5960  0.3046
  277MPD2    C2 4235   2.190   3.391  13.558  0.2084 -0.2173  0.4548
  277MPD2    C3 4236   2.183   3.253  13.582 -0.8902 -0.1069 -0.9403
  277MPD2    C4 4237   2.258   3.163  13.503 -0.7478  0.2877 -0.0397
  277MPD2    C5 4238   2.336   3.217  13.407  0.2165 -0.6467  0.6966
  277MPD2     H 4239   2.135   3.453  13.627  0.4428  1.3509 -0.7495
  277MPD2    H1 4240   2.266   3.056  13.521  0.0512 -0.0098 -2.1006
  277MPD2    H2 4241   2.416   3.383  13.307  1.0658  0.5535  1.5703
  277MPD2    H3 4242   2.395   3.147  13.349 -1.7510 -1.6119 -0.1245
  277MPD2     N 4243   2.104   3.219  13.693 -0.1749 -0.7365  0.6690
  277MPD2    H5 4244   2.060   3.294  13.746  1.8155  0.4604  0.6415
  277MPD2    N1 4245   2.291   3.581  13.435  0.2005  0.2083  0.0176
  277MPD2    H7 4246   2.335   3.620  13.352  0.0818  0.8116  0.2370
  278TMC3    C1 4247   1.966   3.099  13.825  0.6542  0.3351 -0.3218
  278TMC3    C2 4248   1.878   2.990  13.826  0.9271  0.2275 -0.7725
  278TMC3    C3 4249   1.775   3.001  13.921  0.5281  0.3007  0.1720
  278TMC3    C4 4250   1.964   3.201  13.910  0.3205  0.3849 -0.2066
  278TMC3    C5 4251   1.865   3.198  14.003  0.2150  0.0670 -0.3391
  278TMC3    C6 4252   1.766   3.105  14.009  0.8594  0.1770  0.7435
  278TMC3     C 4253   2.057   3.094  13.718 -0.0945 -0.2324  0.1331
  278TMC3     O 4254   2.091   2.986  13.678 -0.4250  0.3674  0.1717
  278TMC3     H 4255   1.873   2.925  13.740  0.1747 -0.4494 -0.2169
  278TMC3    H1 4256   2.041   3.276  13.922 -1.2439  2.0392 -0.5121
  278TMC3    H2 4257   1.689   3.116  14.084 -0.8538 -1.3016 -0.7744
  278TMC3    C7 4258   1.832   3.340  14.039 -0.0243 -0.5353 -0.0765
  278TMC3    C8 4259   1.643   2.977  13.866 -0.0162 -0.7065  0.5562
  278TMC3    O1 4260   1.919   3.420  14.065  0.5393  0.0785  0.7176
  278TMC3    O2 4261   1.578   3.081  13.856  0.4596 -0.2602 -0.2973
  279MPD2     C 4262   1.438   3.893   0.122 -0.2970 -1.3342  0.1716
  279MPD2    C1 4263   1.307   3.910   0.080 -0.6453  0.9217  0.4233
  279MPD2    C2 4264   1.285   3.899  17.717  1.0536  0.4140  0.5437
  279MPD2    C3 4265   1.387   3.872  17.620 -0.0052 -0.1656 -0.5043
  279MPD2    C4 4266   1.512   3.848  17.675  0.3650  0.2300  0.1639
  279MPD2    C5 4267   1.543   3.865   0.034  0.7819 -0.5276 -0.4508
  279MPD2     H 4268   1.185   3.929  17.688  0.3778 -1.2746  1.1345
  279MPD2    H1 4269   1.596   3.819  17.612 -2.3575 -1.7644 -2.5370
  279MPD2    H2 4270   1.457   3.896   0.228  0.1786  0.9282  0.0159
  279MPD2    H3 4271   1.643   3.837   0.064  1.4491  3.6674  1.1975
  279MPD2     N 4272   1.364   3.862  17.482 -0.6678 -0.2201  0.1034
  279MPD2    H5 4273   1.442   3.847  17.419 -1.1619  0.3095 -0.6347
  279MPD2    N1 4274   1.198   3.939   0.157 -0.2129  0.2154  0.0892
  279MPD2    H7 4275   1.116   3.939   0.098 -0.7086  2.1650  0.7845
  280TMC3    C1 4276   1.081   4.064   0.321  0.1746  0.2692  0.5070
  280TMC3    C2 4277   0.985   3.977   0.361 -0.6253  0.4128  0.2800
  280TMC3    C3 4278   0.860   3.988   0.310 -0.5796 -0.0487 -0.1907
  280TMC3    C4 4279   1.051   4.172   0.245 -0.0363  0.0390  0.3150
  280TMC3    C5 4280   0.925   4.183   0.194  0.2131 -0.0152 -0.1560
  280TMC3    C6 4281   0.826   4.089   0.227  0.1771 -0.4047  0.1541
  280TMC3     C 4282   1.197   3.982   0.287 -0.6774 -0.1336 -0.4751
  280TMC3     O 4283   1.287   3.974   0.367 -0.0003  0.2044  0.0535
  280TMC3     H 4284   1.027   3.880   0.384  0.4204  0.4648 -1.4370
  280TMC3    H1 4285   1.136   4.223   0.201  1.4439 -1.5377  1.3226
  280TMC3    H2 4286   0.725   4.096   0.188  0.4516  2.7669  0.0218
  280TMC3    C7 4287   0.910   4.289   0.094 -0.1059  0.5642 -0.1376
  280TMC3    C8 4288   0.777   3.873   0.293  0.0735  1.0868  0.6118
  280TMC3    O1 4289   1.002   4.374   0.087  0.0635  0.1975  0.1062
  280TMC3    O2 4290   0.682   3.877   0.212 -0.1965  0.5302  0.5764
  281TMC3    C1 4291   0.164   4.725  13.603  0.2629 -0.3202  0.0327
  281TMC3    C2 4292   0.255   4.628  13.559 -0.2203  0.2022 -0.9443
  281TMC3    C3 4293   0.240   4.501  13.609  0.2460 -0.3242  0.3078
  281TMC3    C4 4294   0.056   4.697  13.677  0.4888 -0.3299  0.2134
  281TMC3    C5 4295   0.031   4.567  13.719 -0.0005  0.0571  0.6535
  281TMC3    C6 4296   0.127   4.470  13.690 -0.5650  0.1517  0.6276
  281TMC3     C 4297   0.223   0.117  13.615 -0.1477 -0.1159 -0.1266
  281TMC3     O 4298   0.340   0.136  13.576 -0.1728 -0.0896 -0.2647
  281TMC3     H 4299   0.341   4.653  13.498 -0.0239  2.2058  0.1571
  281TMC3    H1 4300   4.715   0.020  13.685  1.0896  0.3806  0.6931
  281TMC3    H2 4301   0.129   4.375  13.741 -1.1532  0.0618  0.4793
  281TMC3    C7 4302   4.630   4.522  13.735  0.1555  0.0866 -0.2131
  281TMC3    C8 4303   0.355   4.418  13.597  0.1930  0.3058 -0.1730
  281TMC3    O1 4304   4.535   4.592  13.703  0.1704 -0.3431 -0.3478
  281TMC3    O2 4305   0.459   4.473  13.557  0.4729  0.0729 -0.1367
  282MPD2     C 4306   1.790   0.815  15.459  0.0169  0.4773 -0.1839
  282MPD2    C1 4307   1.659   0.772  15.465  0.2567  0.0028 -1.1723
  282MPD2    C2 4308   1.608   0.697  15.360  0.2405 -0.2769  0.0000
  282MPD2    C3 4309   1.697   0.661  15.256 -0.3175 -0.1971 -0.3384
  282MPD2    C4 4310   1.831   0.689  15.264 -0.3786  0.4684 -0.2453
  282MPD2    C5 4311   1.873   0.776  15.356 -0.2197  0.7108 -0.8670
  282MPD2     H 4312   1.502   0.677  15.351  0.5968 -1.3996 -1.5988
  282MPD2    H1 4313   1.905   0.665  15.190  1.0262  1.0118  0.9771
  282MPD2    H2 4314   1.832   0.883  15.532 -0.2845 -0.8001  1.1800
  282MPD2    H3 4315   1.973   0.817  15.359 -1.2894  3.2750 -0.1510
  282MPD2     N 4316   1.635   0.597  15.149 -0.0041  0.0152  0.2333
  282MPD2    H5 4317   1.535   0.582  15.155 -0.1202  0.6859 -0.0322
  282MPD2    N1 4318   1.566   0.818  15.566 -0.0679  0.5816  0.4736
  282MPD2    H7 4319   1.473   0.780  15.551  0.2925  0.7983 -2.3275
  283TMC3    C1 4320   1.480   0.933  15.751  0.2765  0.3026  0.4284
  283TMC3    C2 4321   1.474   1.063  15.778 -0.2329  0.2988 -0.3502
  283TMC3    C3 4322   1.381   1.102  15.876  0.6555  0.0914  0.9425
  283TMC3    C4 4323   1.404   0.838  15.818  0.1885 -0.7856 -0.4224
  283TMC3    C5 4324   1.310   0.883  15.910 -0.2929  0.2244 -0.2131
  283TMC3    C6 4325   1.294   1.017  15.937  0.0347 -0.4181  0.0192
  283TMC3     C 4326   1.596   0.898  15.673  0.3167 -0.3557 -0.9648
  283TMC3     O 4327   1.702   0.948  15.705  0.0059  0.1708  0.2808
  283TMC3     H 4328   1.546   1.126  15.728  1.3722 -2.2142 -1.1858
  283TMC3    H1 4329   1.435   0.735  15.809  0.6523 -0.6019 -0.9619
  283TMC3    H2 4330   1.233   1.050  16.019 -1.2747  1.0204 -1.5303
  283TMC3    C7 4331   1.239   0.783  15.997 -0.1664 -0.9097  0.3166
  283TMC3    C8 4332   1.367   1.250  15.910 -0.0284 -0.6961  0.2705
  283TMC3    O1 4333   1.202   0.831  16.103 -0.6836 -0.0959 -0.2086
  283TMC3    O2 4334   1.317   1.280  16.019  0.0690  0.3102  0.6977
  284MPD2     C 4335   4.711   0.274  12.565  0.8303  0.5882 -0.1202
  284MPD2    C1 4336   0.100   0.219  12.573 -0.4992  0.3808  0.4509
  284MPD2    C2 4337   0.121   0.083  12.567  0.4757 -0.1504  0.8885
  284MPD2    C3 4338   0.020   4.736  12.549 -0.1395  0.2127  0.2758
  284MPD2    C4 4339   4.638   0.053  12.537 -0.1782  0.4789 -0.0224
  284MPD2    C5 4340   4.610   0.188  12.544  0.4005  1.0402 -0.3130
  284MPD2     H 4341   0.225   0.054  12.562  1.0022  1.5935  1.4843
  284MPD2    H1 4342   4.549   4.737  12.519 -1.6075  2.4389  0.4981
  284MPD2    H2 4343   4.692   0.381  12.567  1.2194  0.6519  0.1980
  284MPD2    H3 4344   4.510   0.228  12.535 -0.3073 -0.3001  1.6130
  284MPD2     N 4345   0.052   4.606  12.514  0.2451 -0.0573 -0.2201
  284MPD2    H5 4346   0.148   4.574  12.524  0.5345  0.5951 -0.9797
  284MPD2    N1 4347   0.216   0.296  12.588 -0.2806  0.2596  0.9650
  284MPD2    H7 4348   0.304   0.248  12.571 -0.7436  0.3858 -1.8618
  285TMC3    C1 4349   0.349   0.497  12.570  0.0300 -0.2235 -0.2261
  285TMC3    C2 4350   0.400   0.443  12.458 -0.0076 -0.1776 -0.7723
  285TMC3    C3 4351   0.427   0.520  12.353 -0.1732  0.2731 -0.1958
  285TMC3    C4 4352   0.350   0.637  12.583 -0.1069  0.7660 -0.1246
  285TMC3    C5 4353   0.394   0.713  12.478  0.0277  0.2590 -0.0597
  285TMC3    C6 4354   0.435   0.659  12.355  0.2421  0.3203  0.1005
  285TMC3     C 4355   0.215   0.434  12.603 -0.5216  0.2365 -0.2502
  285TMC3     O 4356   0.118   0.513  12.604 -0.0255 -0.2269 -0.4654
  285TMC3     H 4357   0.409   0.336  12.444 -3.2048 -0.2165 -2.4337
  285TMC3    H1 4358   0.279   0.678  12.655 -0.0501 -1.0643  0.9818
  285TMC3    H2 4359   0.434   0.710  12.259 -1.9013 -1.6077 -0.8921
  285TMC3    C7 4360   0.304   0.822  12.455  0.0030 -0.4861  0.5625
  285TMC3    C8 4361   0.422   0.456  12.217  0.1431 -0.1650 -0.5710
  285TMC3    O1 4362   0.348   0.931  12.420 -0.5530  0.4242  0.2342
  285TMC3    O2 4363   0.394   0.335  12.207  0.9124 -0.3361  0.0831
  286MPD2     C 4364   0.330   3.834   1.515 -0.6946 -0.2900  0.3509
  286MPD2    C1 4365   0.265   3.789   1.398  0.3779 -0.0558  0.0063
  286MPD2    C2 4366   0.322   3.692   1.321  0.3513 -0.2117  0.0890
  286MPD2    C3 4367   0.434   3.616   1.376  0.5130  0.8475  0.0462
  286MPD2    C4 4368   0.491   3.648   1.500 -0.4488 -0.1404 -0.1210
  286MPD2    C5 4369   0.443   3.763   1.556 -0.8623  0.0697 -0.8224
  286MPD2     H 4370   0.286   3.679   1.220  0.3289  1.3695 -0.1103
  286MPD2    H1 4371   0.568   3.589   1.548  0.0678  0.3251 -0.3704
  286MPD2    H2 4372   0.298   3.918   1.576 -1.9310 -1.2588  1.0451
  286MPD2    H3 4373   0.501   3.790   1.644  0.2996 -0.7016 -1.3602
  286MPD2     N 4374   0.507   3.520   1.306 -0.4744 -0.1569 -0.2182
  286MPD2    H5 4375   0.600   3.488   1.331 -0.8984 -1.5598 -0.3991
  286MPD2    N1 4376   0.151   3.853   1.343  0.2655  0.3107  0.1491
  286MPD2    H7 4377   0.119   3.825   1.251  2.3681 -2.6430  0.3328
  287TMC3    C1 4378   0.551   3.376   1.122 -1.1107  0.5240  0.3929
  287TMC3    C2 4379   0.501   3.328   1.006 -0.9139  0.4961 -0.2095
  287TMC3    C3 4380   0.585   3.248   0.930  0.2650  0.5509  0.2399
  287TMC3    C4 4381   0.682   3.342   1.162  0.3136  0.4297 -0.4402
  287TMC3    C5 4382   0.753   3.250   1.090  0.7186  0.2388 -0.3737
  287TMC3    C6 4383   0.713   3.212   0.964  0.0833 -0.0558 -0.1656
  287TMC3     C 4384   0.460   3.452   1.199 -0.2741 -0.3035 -0.3444
  287TMC3     O 4385   0.338   3.441   1.169 -0.1537  0.2459  0.1547
  287TMC3     H 4386   0.402   3.361   0.978 -1.2206  0.0451  0.3517
  287TMC3    H1 4387   0.718   3.360   1.263 -0.0756 -1.3679  0.0173
  287TMC3    H2 4388   0.754   3.121   0.924  0.1585 -0.0976  0.0089
  287TMC3    C7 4389   0.897   3.255   1.119 -0.4286 -0.2586  0.2907
  287TMC3    C8 4390   0.533   3.219   0.798 -0.1506 -0.1554 -0.1931
  287TMC3    O1 4391   0.932   3.353   1.179 -0.6040  0.0337  0.1394
  287TMC3    O2 4392   0.412   3.229   0.777 -0.6308 -0.8316  0.3700
  288TMC3    C1 4393   2.452   3.274  14.425 -0.0313  0.1297  0.0389
  288TMC3    C2 4394   2.345   3.305  14.504 -0.2750  0.1041  0.5336
  288TMC3    C3 4395   2.276   3.422  14.474 -0.2172  0.3522  0.2719
  288TMC3    C4 4396   2.494   3.356  14.317 -0.1718 -0.4158 -0.6401
  288TMC3    C5 4397   2.420   3.472  14.299  0.0445  0.1654  0.8432
  288TMC3    C6 4398   2.310   3.510  14.374 -0.2797 -1.3355 -0.1184
  288TMC3     C 4399   2.555   3.199  14.494 -0.5448  0.4679  0.1833
  288TMC3     O 4400   2.524   3.174  14.606  0.0334  0.5923  0.1262
  288TMC3     H 4401   2.334   3.251  14.597 -1.3859  0.4614  0.6106
  288TMC3    H1 4402   2.574   3.331  14.248  0.0933 -0.5290 -0.2939
  288TMC3    H2 4403   2.269   3.609  14.365  0.0423 -1.2784 -0.9892
  288TMC3    C7 4404   2.459   3.552  14.188  0.2186 -0.0147  0.0488
  288TMC3    C8 4405   2.169   3.468  14.564  0.3144  0.5003  0.2293
  288TMC3    O1 4406   2.544   3.515  14.113  1.0290 -0.4424  0.2789
  288TMC3    O2 4407   2.136   3.587  14.562  0.5098  0.2247 -0.3095
  289MPD2     C 4408   1.823   2.538  14.604  0.7597  0.3632 -0.7115
  289MPD2    C1 4409   1.837   2.608  14.488 -0.1591  0.5374  0.1495
  289MPD2    C2 4410   1.743   2.587  14.388 -0.5111 -0.1555  0.0589
  289MPD2    C3 4411   1.635   2.500  14.406  0.1552  0.7110 -0.3849
  289MPD2    C4 4412   1.620   2.433  14.529  0.0808  0.3328 -0.2694
  289MPD2    C5 4413   1.721   2.446  14.619 -0.1271  0.7002  0.7741
  289MPD2     H 4414   1.755   2.637  14.293 -0.6708  1.4376  0.8553
  289MPD2    H1 4415   1.539   2.371  14.563  0.3618  0.7685  1.1981
  289MPD2    H2 4416   1.914   2.539  14.663 -0.9961  1.5843  1.9722
  289MPD2    H3 4417   1.716   2.389  14.711 -1.7771  0.8951  0.8007
  289MPD2     N 4418   1.545   2.490  14.297 -0.2742  0.0733  0.0508
  289MPD2    H5 4419   1.562   2.552  14.218 -0.1669 -0.3813 -0.2802
  289MPD2    N1 4420   1.959   2.683  14.473  0.9261 -0.2936 -0.5673
  289MPD2    H7 4421   2.015   2.698  14.557  0.9014  0.0675 -0.6189
  290TMC3    C1 4422   1.357   2.402  14.185 -0.6871  0.1861  0.5876
  290TMC3    C2 4423   1.336   2.528  14.126  0.5935 -0.1461 -0.0824
  290TMC3    C3 4424   1.218   2.536  14.044 -0.3393 -0.2838  0.0467
  290TMC3    C4 4425   1.269   2.300  14.180 -0.1413 -0.3778  0.1681
  290TMC3    C5 4426   1.159   2.317  14.104 -0.4035 -0.1838 -0.1253
  290TMC3    C6 4427   1.134   2.428  14.030  0.2112  0.3224  0.4336
  290TMC3     C 4428   1.449   2.392  14.295 -0.5288  0.5059  0.1182
  290TMC3     O 4429   1.441   2.301  14.375 -0.2219  0.5421  0.4865
  290TMC3     H 4430   1.399   2.615  14.137  0.0134  0.3095 -0.3636
  290TMC3    H1 4431   1.284   2.206  14.232 -0.5010 -1.0941 -1.0433
  290TMC3    H2 4432   1.059   2.434  13.952  1.3772  0.3523 -0.6865
  290TMC3    C7 4433   1.036   2.255  14.152 -0.4028  0.2532  0.5310
  290TMC3    C8 4434   1.146   2.666  14.014 -0.3715  0.0006 -0.3796
  290TMC3    O1 4435   0.936   2.320  14.128  0.4142  0.2677 -0.0980
  290TMC3    O2 4436   1.032   2.668  13.976 -0.0935  0.0826  0.3997
  291MPD2     C 4437   1.343   2.527   0.104  0.3691 -0.1941  0.0200
  291MPD2    C1 4438   1.318   2.397   0.074 -0.2520 -0.8013 -0.1985
  291MPD2    C2 4439   1.422   2.316   0.029 -0.4273 -0.2167  0.6542
  291MPD2    C3 4440   1.543   2.376  17.770  0.0895 -0.0137  0.4962
  291MPD2    C4 4441   1.562   2.513   0.012 -0.0046 -0.7938  0.4397
  291MPD2    C5 4442   1.457   2.587   0.066 -0.1137  0.3062 -0.1783
  291MPD2     H 4443   1.404   2.213   0.001  1.1323 -0.3816  0.3023
  291MPD2    H1 4444   1.662   2.552  17.770 -0.1439 -0.4488  0.4096
  291MPD2    H2 4445   1.270   2.591   0.153  0.9791  0.6623 -0.2044
  291MPD2    H3 4446   1.482   2.684   0.108 -1.7585  1.0926 -1.0594
  291MPD2     N 4447   1.655   2.312  17.707 -1.2715 -0.2372  0.7785
  291MPD2    H5 4448   1.740   2.367  17.701  0.1140 -2.4695 -0.0924
  291MPD2    N1 4449   1.195   2.327   0.097 -0.4271 -0.3246 -0.1937
  291MPD2    H7 4450   1.203   2.228   0.079 -0.5964 -0.4076  0.1952
  292TMC3    C1 4451   0.964   2.291   0.154  0.4918 -0.2711  0.2021
  292TMC3    C2 4452   0.840   2.353   0.163  0.5124 -0.4589  0.7202
  292TMC3    C3 4453   0.733   2.279   0.217 -0.1720  0.2464  0.2565
  292TMC3    C4 4454   0.989   2.170   0.217 -0.1739  0.1388 -0.5356
  292TMC3    C5 4455   0.886   2.106   0.274  0.0991 -0.3709 -0.2670
  292TMC3    C6 4456   0.757   2.161   0.277 -0.7174  0.2167 -0.5653
  292TMC3     C 4457   1.078   2.384   0.136 -0.4819 -0.2270 -1.1497
  292TMC3     O 4458   1.048   2.501   0.147  0.3255 -0.5378  0.1282
  292TMC3     H 4459   0.829   2.454   0.125 -1.7849 -0.0397  2.4682
  292TMC3    H1 4460   1.088   2.126   0.226 -0.5094 -0.4833  0.1872
  292TMC3    H2 4461   0.677   2.099   0.318 -1.6366  0.4317 -2.0555
  292TMC3    C7 4462   0.880   1.963   0.261  0.4876  0.4514  0.0595
  292TMC3    C8 4463   0.595   2.333   0.210  0.1498 -0.3805 -0.7290
  292TMC3    O1 4464   0.787   1.916   0.202  0.2428  0.6288  0.0323
  292TMC3    O2 4465   0.584   2.427   0.133 -0.4572 -0.2374 -0.1602
  293MPD2     C 4466   3.212   3.983  12.663 -0.1234  0.2204 -0.6605
  293MPD2    C1 4467   3.111   3.886  12.673 -0.4357  0.0696 -0.3781
  293MPD2    C2 4468   3.055   3.860  12.799 -0.1512  0.0092  0.1167
  293MPD2    C3 4469   3.094   3.935  12.913  0.4518 -0.4711  0.1225
  293MPD2    C4 4470   3.184   4.043  12.899 -0.1648 -0.4354  0.0353
  293MPD2    C5 4471   3.246   4.059  12.775 -0.5844 -0.1078 -0.3191
  293MPD2     H 4472   2.970   3.795  12.819 -1.3975  1.0351 -1.8275
  293MPD2    H1 4473   3.206   4.122  12.970 -1.7177 -0.7458  0.8520
  293MPD2    H2 4474   3.243   4.019  12.566  1.6858  0.3948 -0.0148
  293MPD2    H3 4475   3.317   4.137  12.750  0.0152 -1.1323 -1.7988
  293MPD2     N 4476   3.017   3.902  13.027 -0.3589  0.2641  0.8677
  293MPD2    H5 4477   2.953   3.824  13.024 -0.2883  0.1916  1.2164
  293MPD2    N1 4478   3.061   3.823  12.550  0.0047  0.4390 -0.2242
  293MPD2    H7 4479   3.097   3.856  12.461 -0.5609  1.5202 -0.0490
  294TMC3    C1 4480   2.919   3.719  12.397 -0.4197 -0.0271 -0.2844
  294TMC3    C2 4481   2.794   3.666  12.375  0.0710 -0.4585  0.0679
  294TMC3    C3 4482   2.775   3.617  12.248  0.5412  0.3517 -0.6835
  294TMC3    C4 4483   3.010   3.743  12.297 -0.6993 -0.7046  0.5074
  294TMC3    C5 4484   2.976   3.705  12.168 -0.7384  0.0899 -0.4542
  294TMC3    C6 4485   2.861   3.629  12.148 -0.0443 -0.4718  0.0892
  294TMC3     C 4486   2.950   3.743  12.541  0.6046  0.2205  0.5775
  294TMC3     O 4487   2.896   3.682  12.632  0.4646 -0.2433 -0.1468
  294TMC3     H 4488   2.735   3.637  12.461  0.4725 -1.2917  0.0566
  294TMC3    H1 4489   3.111   3.768  12.326 -0.4106  0.4956 -1.5665
  294TMC3    H2 4490   2.831   3.591  12.051  0.4880 -0.1294 -0.2091
  294TMC3    C7 4491   3.089   3.690  12.079  0.1857  0.3417 -0.2445
  294TMC3    C8 4492   2.655   3.538  12.231  0.5164  0.2317 -0.1543
  294TMC3    O1 4493   3.171   3.783  12.085 -0.3793  0.2534 -0.7593
  294TMC3    O2 4494   2.559   3.566  12.303  0.2463  0.1949  0.1131
  295MPD2     C 4495   4.268   2.239   0.666 -0.3474 -1.0818 -0.3081
  295MPD2    C1 4496   4.182   2.205   0.565 -0.3214  0.1709  0.2930
  295MPD2    C2 4497   4.192   2.081   0.508 -0.0257 -0.2463  0.2022
  295MPD2    C3 4498   4.279   1.984   0.562  0.6589  0.2457 -0.0268
  295MPD2    C4 4499   4.363   2.015   0.661  0.0209 -0.0981 -0.2052
  295MPD2    C5 4500   4.358   2.144   0.705  0.2365 -0.1180  0.4639
  295MPD2     H 4501   4.125   2.055   0.427  0.7758  1.6382 -1.0461
  295MPD2    H1 4502   4.448   1.954   0.691 -0.5005 -0.7803 -0.1289
  295MPD2    H2 4503   4.241   2.332   0.713 -1.6751 -1.2771 -0.6935
  295MPD2    H3 4504   4.422   2.178   0.785  1.9934 -1.0542 -0.5366
  295MPD2     N 4505   4.288   1.843   0.525 -0.0193 -0.4196 -0.5351
  295MPD2    H5 4506   4.333   1.774   0.585 -0.4820 -1.4501 -1.3768
  295MPD2    N1 4507   4.080   2.289   0.520 -0.2151 -0.4676  0.5373
  295MPD2    H7 4508   4.021   2.255   0.445  1.0558 -2.7953  0.5895
  296TMC3    C1 4509   4.188   1.664   0.413  0.5062 -0.7846  0.3795
  296TMC3    C2 4510   4.053   1.669   0.404  0.1788 -0.7413  0.1507
  296TMC3    C3 4511   3.991   1.580   0.484  0.6118  0.6949  0.7997
  296TMC3    C4 4512   4.257   1.588   0.509  0.0546 -0.4930 -0.0588
  296TMC3    C5 4513   4.188   1.512   0.594 -0.0421 -0.3782 -0.6705
  296TMC3    C6 4514   4.053   1.503   0.578 -0.1000 -0.2699  0.5447
  296TMC3     C 4515   4.236   1.802   0.402 -0.5259 -0.2640  0.1605
  296TMC3     O 4516   4.190   1.873   0.312 -0.1550  0.4110 -0.1039
  296TMC3     H 4517   4.002   1.723   0.325  2.3463 -0.6113 -1.1776
  296TMC3    H1 4518   4.365   1.582   0.497  0.1648  0.1221  0.6211
  296TMC3    H2 4519   3.994   1.426   0.627  0.1964 -0.5645  0.4422
  296TMC3    C7 4520   4.249   1.409   0.674 -0.0500 -0.3624  0.1860
  296TMC3    C8 4521   3.843   1.576   0.496  0.3991 -0.0113  0.4811
  296TMC3    O1 4522   4.348   1.358   0.623 -0.4644  0.0586  0.4857
  296TMC3    O2 4523   3.789   1.470   0.512  0.0302 -0.3196  0.4670
  297MPD2     C 4524   1.174   4.413  16.500  0.1259 -0.2072 -0.4509
  297MPD2    C1 4525   1.080   4.487  16.434  0.0563 -0.4225  0.5028
  297MPD2    C2 4526   1.093   4.625  16.425  0.0300  0.4444 -0.0969
  297MPD2    C3 4527   1.193   4.694  16.499 -0.6738  0.0621  0.4337
  297MPD2    C4 4528   1.266   4.619  16.587 -0.6054 -0.8735 -0.0903
  297MPD2    C5 4529   1.266   4.480  16.581 -0.3060  0.8826 -0.2254
  297MPD2     H 4530   1.038   4.685  16.353 -1.5242  1.4485  1.9440
  297MPD2    H1 4531   1.345   4.667  16.643 -0.0706 -0.2261 -1.4043
  297MPD2    H2 4532   1.184   4.306  16.492  1.6269 -0.0720 -0.4732
  297MPD2    H3 4533   1.344   4.426  16.632  0.8029  0.9728 -1.8171
  297MPD2     N 4534   1.211   0.085  16.498  0.1897 -0.0824  0.8039
  297MPD2    H5 4535   1.309   0.110  16.510  0.2246  0.9249 -1.6280
  297MPD2    N1 4536   0.997   4.425  16.335  0.8784 -0.7136 -0.5960
  297MPD2    H7 4537   0.953   4.482  16.264 -0.5074 -2.3178 -1.0418
  298TMC3    C1 4538   0.882   4.265  16.217  0.5880 -1.1470 -0.0996
  298TMC3    C2 4539   0.924   4.196  16.112  0.3740  0.0728  0.8483
  298TMC3    C3 4540   0.874   4.229  15.986 -0.1994  0.4159  0.5863
  298TMC3    C4 4541   0.782   4.357  16.209  0.3552 -0.2309 -0.5723
  298TMC3    C5 4542   0.730   4.382  16.083 -0.4608  0.7961  0.1823
  298TMC3    C6 4543   0.773   4.317  15.969 -0.6066  0.4398  0.2111
  298TMC3     C 4544   0.979   4.290  16.322  0.1187 -0.5443 -0.0143
  298TMC3     O 4545   1.039   4.199  16.374 -0.1168 -0.4211 -0.0357
  298TMC3     H 4546   1.009   4.134  16.137  0.6769  1.3510  2.9788
  298TMC3    H1 4547   0.748   4.410  16.297 -1.3580  0.0870 -1.4470
  298TMC3    H2 4548   0.730   4.342  15.873 -0.4327  1.4469  0.3958
  298TMC3    C7 4549   0.622   4.481  16.076 -0.4709  0.1621 -0.4666
  298TMC3    C8 4550   0.952   4.211  15.868  0.2216  0.3852  0.5165
  298TMC3    O1 4551   0.570   4.508  16.185  0.2128  0.3074  0.8109
  298TMC3    O2 4552   0.915   4.271  15.769  0.0327 -0.7786  0.4271
  299MPD2     C 4553   1.305   4.614  11.330 -0.3590 -0.4017 -0.1335
  299MPD2    C1 4554   1.353   4.602  11.203 -0.9883 -0.6491  0.0377
  299MPD2    C2 4555   1.270   4.549  11.107  0.2283 -0.4661  0.4201
  299MPD2    C3 4556   1.133   4.525  11.127 -0.0597  0.1746  0.4804
  299MPD2    C4 4557   1.090   4.533  11.259  0.0737 -0.0186  0.0912
  299MPD2    C5 4558   1.180   4.575  11.355  0.2765  0.3779 -0.0798
  299MPD2     H 4559   1.313   4.556  11.008  2.5779  2.9092  1.6780
  299MPD2    H1 4560   0.987   4.511  11.284 -0.6035 -0.1736 -2.8370
  299MPD2    H2 4561   1.365   4.638  11.417 -0.8717 -1.1276  0.4311
  299MPD2    H3 4562   1.158   4.598  11.459  1.4275 -0.7160  0.3987
  299MPD2     N 4563   1.037   4.513  11.028  0.0586 -0.4753 -0.1593
  299MPD2    H5 4564   0.942   4.507  11.063  1.1025  1.1187  2.8890
  299MPD2    N1 4565   1.484   4.631  11.172 -0.1166 -0.1976  0.2131
  299MPD2    H7 4566   1.521   4.608  11.081  0.2455  1.0351  0.0577
  300TMC3    C1 4567   0.946   4.501  10.800  0.1858 -0.8758  0.1827
  300TMC3    C2 4568   0.971   4.557  10.676  0.1955  0.5090  0.1510
  300TMC3    C3 4569   0.856   4.575  10.601 -0.0359 -0.4713 -0.1523
  300TMC3    C4 4570   0.828   4.454  10.841 -0.4883 -0.2498 -0.0452
  300TMC3    C5 4571   0.720   4.471  10.753 -0.6058 -0.1636  0.2900
  300TMC3    C6 4572   0.732   4.531  10.633 -0.1418  0.4436  0.0856
  300TMC3     C 4573   1.065   4.503  10.895  0.2148 -0.4851 -0.0784
  300TMC3     O 4574   1.175   4.511  10.838  0.4679 -0.0318 -0.0566
  300TMC3     H 4575   1.059   4.617  10.659  0.1654  1.1919  2.3777
  300TMC3    H1 4576   0.810   4.406  10.936  0.8551 -0.9909 -0.1648
  300TMC3    H2 4577   0.643   4.542  10.573 -0.5012 -2.4473  0.0589
  300TMC3    C7 4578   0.588   4.450  10.798 -0.5523 -0.2062  0.5525
  300TMC3    C8 4579   0.856   4.696  10.520  0.1596  0.3533  0.1068
  300TMC3    O1 4580   0.509   4.435  10.702 -0.7514  0.3665 -0.0338
  300TMC3    O2 4581   0.964   4.738  10.481  0.3336  0.5826 -0.5378
  301MPD2     C 4582   3.692   1.261   0.787 -0.2940 -0.7228  0.0400
  301MPD2    C1 4583   3.586   1.190   0.848 -0.0665  0.4297  0.6532
  301MPD2    C2 4584   3.595   1.059   0.890 -0.0260 -0.4185 -0.2242
  301MPD2    C3 4585   3.703   0.982   0.862 -0.3587  0.4348 -0.0911
  301MPD2    C4 4586   3.805   1.044   0.802  0.1579  0.2357  0.3838
  301MPD2    C5 4587   3.805   1.181   0.770 -0.6767  0.3573  0.5496
  301MPD2     H 4588   3.502   1.012   0.917 -0.1566  0.4032  0.7659
  301MPD2    H1 4589   3.894   0.983   0.792 -0.1468 -0.2359  0.5255
  301MPD2    H2 4590   3.689   1.360   0.745  2.7029 -0.8191 -0.4394
  301MPD2    H3 4591   3.889   1.226   0.718 -0.9346  1.1495  0.8185
  301MPD2     N 4592   3.712   0.852   0.910  0.1165  0.6987  0.1583
  301MPD2    H5 4593   3.795   0.798   0.886  0.0492  1.4914 -1.8601
  301MPD2    N1 4594   3.452   1.242   0.847 -0.4940  0.4588  0.0665
  301MPD2    H7 4595   3.378   1.179   0.875  1.7425 -1.6783  1.2042
  302TMC3    C1 4596   3.625   0.638   0.921  0.6733  0.1230  0.1732
  302TMC3    C2 4597   3.731   0.573   0.980 -0.7822  0.0399 -0.1951
  302TMC3    C3 4598   3.748   0.436   0.958  0.5700 -0.7206  1.0153
  302TMC3    C4 4599   3.530   0.572   0.848  0.1638  0.4342  0.1957
  302TMC3    C5 4600   3.554   0.438   0.826 -0.0663  0.0821  0.2966
  302TMC3    C6 4601   3.665   0.369   0.871  0.0978 -0.4693  0.6063
  302TMC3     C 4602   3.606   0.778   0.957 -0.3022 -0.1610  0.1574
  302TMC3     O 4603   3.491   0.800   0.991  0.2702  0.2149  0.8527
  302TMC3     H 4604   3.809   0.628   1.031 -0.3107  0.1866 -1.0688
  302TMC3    H1 4605   3.445   0.630   0.815 -0.3612 -0.9713 -0.9183
  302TMC3    H2 4606   3.693   0.267   0.851 -1.9949 -0.6604 -1.3424
  302TMC3    C7 4607   3.502   0.373   0.707 -0.4075 -0.4699 -0.0901
  302TMC3    C8 4608   3.881   0.386   0.999 -0.0029  0.0986 -0.1389
  302TMC3    O1 4609   3.527   0.254   0.693  0.6455 -0.1938 -0.2717
  302TMC3    O2 4610   3.925   0.300   0.927  0.5216 -0.4827  0.2628
  303MPD2     C 4611   3.863   4.253  11.466 -0.5900 -0.8187 -0.5243
  303MPD2    C1 4612   3.753   4.188  11.411 -0.2370 -0.8119 -0.1407
  303MPD2    C2 4613   3.737   4.186  11.270  0.2810 -0.5721 -0.2077
  303MPD2    C3 4614   3.828   4.243  11.180  0.6203 -0.4393  0.6615
  303MPD2    C4 4615   3.940   4.298  11.239 -0.4806  0.9984 -0.1661
  303MPD2    C5 4616   3.959   4.295  11.378 -0.1680  0.2424  0.2795
  303MPD2     H 4617   3.650   4.134  11.231  0.0079  1.0622 -1.7898
  303MPD2    H1 4618   4.016   4.350  11.181  0.2210 -1.5386 -1.5309
  303MPD2    H2 4619   3.868   4.264  11.573 -2.4222 -0.1304 -0.5093
  303MPD2    H3 4620   4.039   4.354  11.420 -1.1192  0.0416  2.3813
  303MPD2     N 4621   3.821   4.249  11.042 -0.1782 -0.1021  1.0708
  303MPD2    H5 4622   3.906   4.280  10.996 -0.5116 -0.5692  0.1593
  303MPD2    N1 4623   3.655   4.116  11.479  0.0790 -0.1021 -0.2404
  303MPD2    H7 4624   3.592   4.058  11.425  0.8374 -0.8497 -0.3222
  304TMC3    C1 4625   3.551   3.999  11.657  0.2571  0.5048 -0.1298
  304TMC3    C2 4626   3.428   3.993  11.597  0.0363  0.6529 -0.4135
  304TMC3    C3 4627   3.336   3.911  11.647 -0.0592  0.1198  0.4807
  304TMC3    C4 4628   3.592   3.927  11.768 -0.6528 -0.0752  0.1060
  304TMC3    C5 4629   3.505   3.828  11.798  0.2048 -0.3438 -0.8351
  304TMC3    C6 4630   3.376   3.829  11.752  0.2257 -0.8762 -0.3355
  304TMC3     C 4631   3.640   4.108  11.616 -0.2869  0.4581 -0.6000
  304TMC3     O 4632   3.704   4.164  11.701  0.2072  0.1216  0.6974
  304TMC3     H 4633   3.413   4.050  11.505 -0.0014  1.4624  0.0952
  304TMC3    H1 4634   3.693   3.933  11.806 -0.4968  2.1823 -0.6814
  304TMC3    H2 4635   3.316   3.746  11.789 -0.3763 -0.2151  0.1582
  304TMC3    C7 4636   3.570   3.703  11.775 -0.0381  0.0696 -0.5286
  304TMC3    C8 4637   3.251   3.832  11.558  0.1109 -0.0423 -0.1988
  304TMC3    O1 4638   3.679   3.682  11.831 -0.1738 -0.7129  0.6760
  304TMC3    O2 4639   3.243   3.713  11.571 -0.4585 -0.0790  0.2731
  305MPD2     C 4640   1.503   1.203  14.327  0.3265  0.2714 -0.1925
  305MPD2    C1 4641   1.592   1.114  14.289  0.0078 -0.2362 -0.7427
  305MPD2    C2 4642   1.618   1.075  14.158 -0.3840 -0.1010  0.9110
  305MPD2    C3 4643   1.541   1.129  14.059 -0.2648 -0.1398  0.2906
  305MPD2    C4 4644   1.450   1.226  14.095  0.2222 -0.2973  0.0884
  305MPD2    C5 4645   1.429   1.266  14.225  0.0261 -0.1249  0.5235
  305MPD2     H 4646   1.692   1.002  14.129 -0.3693  0.2042  0.1712
  305MPD2    H1 4647   1.393   1.274  14.016  1.9115 -1.3243 -1.7244
  305MPD2    H2 4648   1.475   1.229  14.428 -1.8823 -0.2892 -0.6555
  305MPD2    H3 4649   1.361   1.348  14.241  2.4701  2.4894 -2.3848
  305MPD2     N 4650   1.566   1.079  13.930  0.5695  0.0724 -0.0872
  305MPD2    H5 4651   1.635   1.006  13.920  0.3634 -0.0155 -0.8867
  305MPD2    N1 4652   1.672   1.060  14.397 -0.1943  0.2281  0.0564
  305MPD2    H7 4653   1.641   1.089  14.489 -2.4188  2.8842 -1.4998
  306TMC3    C1 4654   1.809   0.924  14.530  0.7045 -0.7628 -0.2549
  306TMC3    C2 4655   1.928   0.851  14.533  0.7696 -0.5491  0.5421
  306TMC3    C3 4656   1.962   0.809  14.658  0.4546  0.6870  0.0512
  306TMC3    C4 4657   1.729   0.948  14.635 -0.1708  0.0190  0.3909
  306TMC3    C5 4658   1.768   0.896  14.752  0.6358  0.8167 -0.1530
  306TMC3    C6 4659   1.881   0.824  14.770  0.7623  0.0402  0.4753
  306TMC3     C 4660   1.775   0.967  14.394 -0.1541  0.4314 -0.0921
  306TMC3     O 4661   1.847   0.938  14.299 -0.1200 -0.7540  0.6479
  306TMC3     H 4662   1.995   0.848  14.447  1.4653  2.6925  0.9622
  306TMC3    H1 4663   1.637   1.007  14.633 -0.0357  0.2176 -0.0743
  306TMC3    H2 4664   1.897   0.761  14.857  0.5757 -0.3872  0.1944
  306TMC3    C7 4665   1.685   0.924  14.865 -0.5878  0.0797 -0.0105
  306TMC3    C8 4666   2.048   0.693  14.658 -0.3770 -0.2502 -0.0064
  306TMC3    O1 4667   1.561   0.918  14.852 -0.1477  0.3872 -0.3125
  306TMC3    O2 4668   2.066   0.646  14.545 -0.0563  0.0962 -0.2260
  307MPD2     C 4669   4.442   3.947   0.157  0.5460 -0.2799 -0.3976
  307MPD2    C1 4670   4.384   4.062   0.203  0.1559  0.0119 -0.0415
  307MPD2    C2 4671   4.299   4.066   0.307  0.9376 -0.4823  0.0345
  307MPD2    C3 4672   4.264   3.950   0.381  0.1844  0.2905  0.6804
  307MPD2    C4 4673   4.307   3.832   0.327  0.4878  0.0930  0.3784
  307MPD2    C5 4674   4.393   3.833   0.216 -0.4645 -0.0255 -0.7357
  307MPD2     H 4675   4.252   4.160   0.332  0.6051 -0.4436 -0.7311
  307MPD2    H1 4676   4.269   3.737   0.362  0.2630 -0.1336 -0.4790
  307MPD2    H2 4677   4.517   3.943   0.079  0.8221 -1.6349 -0.0443
  307MPD2    H3 4678   4.427   3.735   0.183 -0.1657  0.0609 -0.6789
  307MPD2     N 4679   4.174   3.958   0.492  0.0049 -0.0290  0.3088
  307MPD2    H5 4680   4.153   4.054   0.517  1.2329  0.9927 -2.5680
  307MPD2    N1 4681   4.397   4.173   0.131  0.3748  0.0311  0.4591
  307MPD2    H7 4682   4.352   4.259   0.163 -0.8748  0.2157 -1.7802
  308TMC3    C1 4683   3.806   3.975   0.682 -0.1442  0.7004  0.0828
  308TMC3    C2 4684   3.842   4.095   0.750  0.5536 -0.1372  0.6408
  308TMC3    C3 4685   3.973   4.107   0.783 -0.0628 -0.2894 -0.0552
  308TMC3    C4 4686   3.899   3.883   0.643 -0.3667 -0.7539 -0.4609
  308TMC3    C5 4687   4.031   3.908   0.664  0.1026  0.7272  0.1443
  308TMC3    C6 4688   4.071   4.019   0.736  0.6691 -0.4203 -0.4433
  308TMC3     C 4689   3.680   3.961   0.624 -0.2297 -0.9315  0.3309
  308TMC3     O 4690   3.643   3.842   0.623 -0.1727 -0.1780 -0.0726
  308TMC3     H 4691   3.764   4.155   0.797 -0.1793 -0.4608 -0.1628
  308TMC3    H1 4692   3.871   3.794   0.589 -1.1019 -0.6622 -0.2301
  308TMC3    H2 4693   4.177   4.042   0.742  0.9410 -1.3059 -1.7356
  308TMC3    C7 4694   4.111   3.855   0.558  0.7518 -0.2630  0.1037
  308TMC3    C8 4695   4.024   4.231   0.832 -0.4799 -0.1974  0.3444
  308TMC3    O1 4696   4.104   3.737   0.530  0.0756 -0.0129  0.2915
  308TMC3    O2 4697   4.131   4.230   0.888 -0.5090  0.2050  0.6987
  309MPD2     C 4698   3.594   4.503  16.966 -0.7097 -0.5006 -0.6929
  309MPD2    C1 4699   3.537   4.568  16.855  0.1052 -0.1284  0.2533
  309MPD2    C2 4700   3.406   4.607  16.861  0.3454 -0.4999 -0.0644
  309MPD2    C3 4701   3.322   4.580  16.973 -0.6183  0.1819 -0.2067
  309MPD2    C4 4702   3.377   4.516  17.078 -0.3486 -0.9931  0.0269
  309MPD2    C5 4703   3.508   4.482  17.077 -0.2297  0.5363  0.0055
  309MPD2     H 4704   3.367   4.661  16.775  0.3396 -0.5476 -0.0919
  309MPD2    H1 4705   3.320   4.494  17.168 -0.6537  0.8114  0.2840
  309MPD2    H2 4706   3.699   4.478  16.977 -1.1356 -0.3417  3.5381
  309MPD2    H3 4707   3.540   4.436  17.170 -0.5750  2.3983  1.0585
  309MPD2     N 4708   3.184   4.620  16.983  0.3189  0.0476  0.9976
  309MPD2    H5 4709   3.135   4.599  17.070 -1.5618 -0.5433 -0.1959
  309MPD2    N1 4710   3.607   4.595  16.733  0.6529 -0.2606  0.4800
  309MPD2    H7 4711   3.556   4.641  16.658  1.6802  0.0486 -0.0201
  310TMC3    C1 4712   3.776   4.559  16.573  0.0883 -0.3796  0.1958
  310TMC3    C2 4713   3.713   4.656  16.492  0.3704 -0.2066 -0.0669
  310TMC3    C3 4714   3.746   4.665  16.362  0.3444 -0.0287 -0.3005
  310TMC3    C4 4715   3.860   4.473  16.513  0.2038 -0.1203  0.0404
  310TMC3    C5 4716   3.889   4.484  16.377 -0.1033  0.0144 -0.2491
  310TMC3    C6 4717   3.829   4.577  16.296  0.4299 -0.5350 -0.6001
  310TMC3     C 4718   3.728   4.533  16.701  0.1213  0.3392  0.0230
  310TMC3     O 4719   3.782   4.441  16.762 -0.1733  0.7662 -0.4152
  310TMC3     H 4720   3.656   4.736  16.537  0.5212  0.7065 -1.4909
  310TMC3    H1 4721   3.883   4.386  16.573  0.0263 -0.1407  0.0771
  310TMC3    H2 4722   3.856   4.579  16.191 -3.4628 -1.0011 -1.5958
  310TMC3    C7 4723   3.962   4.378  16.311  0.8768  0.6480  0.2570
  310TMC3    C8 4724   3.650   4.736  16.282  0.4933 -0.5274  0.4740
  310TMC3    O1 4725   3.929   4.357  16.194 -0.7295  0.3252  0.1835
  310TMC3    O2 4726   3.546   0.030  16.332  0.4915 -0.1313 -0.0142
  311MPD2     C 4727   0.740   0.655  12.583 -0.0113 -0.4079  0.6082
  311MPD2    C1 4728   0.725   0.777  12.642  0.6482  0.1723  0.1743
  311MPD2    C2 4729   0.638   0.788  12.744 -0.0549 -0.1539 -0.6887
  311MPD2    C3 4730   0.581   0.672  12.799 -0.2181  0.9032 -0.3943
  311MPD2    C4 4731   0.605   0.554  12.741  0.3489 -0.3345  0.5011
  311MPD2    C5 4732   0.679   0.549  12.628  0.0279 -0.3981  0.3822
  311MPD2     H 4733   0.625   0.882  12.797 -1.2986 -0.9352  0.4050
  311MPD2    H1 4734   0.561   0.461  12.775  0.4872 -1.1826 -1.6406
  311MPD2    H2 4735   0.786   0.653  12.485 -0.4412 -0.1912  0.4026
  311MPD2    H3 4736   0.693   0.459  12.569 -1.6366 -0.2189 -0.2845
  311MPD2     N 4737   0.482   0.684  12.902 -0.1003  0.5759  0.5389
  311MPD2    H5 4738   0.465   0.775  12.945  0.5591 -0.3040  2.6405
  311MPD2    N1 4739   0.789   0.898  12.608  0.1890  0.8053  0.1254
  311MPD2    H7 4740   0.768   0.979  12.665 -0.1809 -0.9448  2.4265
  312TMC3    C1 4741   0.341   0.610  13.078 -0.2362 -0.1839 -0.0636
  312TMC3    C2 4742   0.260   0.511  13.128  0.2551  0.8263 -0.9334
  312TMC3    C3 4743   0.241   0.498  13.263  0.5965 -0.3154  0.9911
  312TMC3    C4 4744   0.411   0.682  13.172 -0.3112 -0.0980  0.0985
  312TMC3    C5 4745   0.385   0.665  13.306  0.0402  0.1402  0.4055
  312TMC3    C6 4746   0.301   0.572  13.356  0.4960  0.8002 -0.2543
  312TMC3     C 4747   0.411   0.575  12.960 -0.7224  0.3245  0.5341
  312TMC3     O 4748   0.395   0.461  12.916  0.0278  0.0779 -0.6343
  312TMC3     H 4749   0.207   0.451  13.055 -1.4092 -0.6249  1.5172
  312TMC3    H1 4750   0.495   0.744  13.143 -0.3570  0.8408  2.0221
  312TMC3    H2 4751   0.279   0.566  13.462 -0.0896 -1.7624 -0.5267
  312TMC3    C7 4752   0.461   0.730  13.408 -0.2011  0.5188  0.0338
  312TMC3    C8 4753   0.123   0.411  13.298  0.0185  0.1359 -0.3916
  312TMC3    O1 4754   0.488   0.850  13.402  0.6380  0.1772  0.3047
  312TMC3    O2 4755   0.084   0.336  13.209 -0.1196  0.0293 -0.6028
  313MPD2     C 4756   0.080   0.444  12.105  0.2599  0.2594 -0.3579
  313MPD2    C1 4757   0.064   0.488  11.980  0.4588 -0.0051  0.4344
  313MPD2    C2 4758   4.730   0.405  11.894 -0.5486 -0.4731 -0.4519
  313MPD2    C3 4759   4.664   0.287  11.939  0.1256 -0.3913 -0.3684
  313MPD2    C4 4760   4.682   0.256  12.073 -0.4366  0.3996 -0.2902
  313MPD2    C5 4761   0.012   0.335  12.155  0.1049  0.0075  0.0029
  313MPD2     H 4762   4.725   0.430  11.789 -0.1339 -0.6284 -0.5118
  313MPD2    H1 4763   4.618   0.176  12.107 -0.5447  1.8837  2.9563
  313MPD2    H2 4764   0.136   0.511  12.169  2.9696 -2.6229  0.3280
  313MPD2    H3 4765   0.010   0.311  12.261  2.5813 -1.0366 -0.1763
  313MPD2     N 4766   4.590   0.222  11.848  0.0428  0.0514  0.3880
  313MPD2    H5 4767   4.605   0.252  11.752  0.5414  1.0229  0.7584
  313MPD2    N1 4768   0.105   0.608  11.925 -0.5472  0.1834 -0.2236
  313MPD2    H7 4769   0.055   0.636  11.841 -0.4628  2.9680  0.6636
  314TMC3    C1 4770   0.192   0.828  11.927  0.3469  0.7786 -0.1882
  314TMC3    C2 4771   0.324   0.859  11.905 -0.3600  0.5662  0.1857
  314TMC3    C3 4772   0.366   0.936  11.800 -0.3940  0.9607 -0.1486
  314TMC3    C4 4773   0.102   0.858  11.827 -0.5778  0.2497 -0.2135
  314TMC3    C5 4774   0.143   0.937  11.722 -0.4774 -0.2266 -0.5577
  314TMC3    C6 4775   0.274   0.980  11.705  0.8230 -0.0578 -0.0020
  314TMC3     C 4776   0.178   0.699  11.997  0.3533 -0.0067  0.4536
  314TMC3     O 4777   0.247   0.693  12.097 -0.0200 -0.2981  0.7017
  314TMC3     H 4778   0.400   0.820  11.972  0.6994  1.9929 -0.1915
  314TMC3    H1 4779   4.739   0.854  11.846 -0.7488 -0.4891 -1.3658
  314TMC3    H2 4780   0.298   1.043  11.620  0.5115 -1.2747 -0.9795
  314TMC3    C7 4781   0.064   0.915  11.602  0.1861 -0.1358 -0.0502
  314TMC3    C8 4782   0.503   0.960  11.764  0.0199  0.3226 -0.0325
  314TMC3    O1 4783   4.694   0.874  11.627 -0.4564 -0.3710  0.3463
  314TMC3    O2 4784   0.523   0.999  11.650  0.3391  0.3161 -0.3768
  315MPD2     C 4785   4.708   3.772  17.737  0.2158  0.3718 -0.2194
  315MPD2    C1 4786   0.036   3.870   0.026 -0.5804 -0.2500  0.2461
  315MPD2    C2 4787   0.086   3.971  17.708  0.8079  0.1814  0.2299
  315MPD2    C3 4788   0.053   3.972  17.569  0.1880  0.6472 -0.0394
  315MPD2    C4 4789   4.711   3.875  17.516  0.2097 -0.0084  0.8594
  315MPD2    C5 4790   4.684   3.769  17.600 -1.1364  0.6581  0.1636
  315MPD2     H 4791   0.130   4.062  17.748 -0.2150 -0.1806  2.2060
  315MPD2    H1 4792   4.680   3.877  17.412  2.0958  2.3880  0.3178
  315MPD2    H2 4793   4.675   3.686   0.023  0.4287  0.0023 -0.6460
  315MPD2    H3 4794   4.609   3.700  17.561 -0.8375  1.8398 -2.5042
  315MPD2     N 4795   0.090   4.082  17.491  0.5022 -0.3206 -0.7621
  315MPD2    H5 4796   0.174   4.131  17.522 -0.3220  2.0050 -2.1566
  315MPD2    N1 4797   0.062   3.870   0.162 -0.3970  0.2870 -0.0218
  315MPD2    H7 4798   0.134   3.938   0.186 -0.0897 -0.6219  1.5738
  316TMC3    C1 4799   0.112   4.244  17.312  0.3199 -0.7009 -0.3848
  316TMC3    C2 4800   0.233   4.281  17.363 -0.0447 -0.4437 -0.4622
  316TMC3    C3 4801   0.302   4.377  17.294 -0.2298 -0.1658  0.3198
  316TMC3    C4 4802   0.050   4.307  17.207  0.1721 -0.9584 -0.2347
  316TMC3    C5 4803   0.118   4.412  17.152  0.2388 -0.2385  0.1074
  316TMC3    C6 4804   0.242   4.453  17.192  0.5679 -0.7042 -0.1766
  316TMC3     C 4805   0.038   4.136  17.376 -0.2137 -0.1078 -0.3385
  316TMC3     O 4806   4.675   4.109  17.326 -0.1663  0.2851  0.0450
  316TMC3     H 4807   0.278   4.234  17.449 -0.6804 -0.5738 -0.2044
  316TMC3    H1 4808   4.703   4.269  17.162 -1.0450 -0.1066  1.4903
  316TMC3    H2 4809   0.301   4.527  17.139  0.4294  0.2970  1.0638
  316TMC3    C7 4810   0.036   4.507  17.084 -0.1767 -0.6227 -0.3161
  316TMC3    C8 4811   0.421   4.430  17.350 -0.6312  0.1720  0.0952
  316TMC3    O1 4812   4.667   4.511  17.123  0.0692  0.3571 -0.1001
  316TMC3    O2 4813   0.472   4.520  17.284  0.1202  0.3993 -0.1761
  317MPD2     C 4814   1.965   2.767  12.629  0.5878 -0.2797 -0.2214
  317MPD2    C1 4815   2.003   2.635  12.632  0.0709 -0.0726  0.0728
  317MPD2    C2 4816   2.028   2.579  12.753  0.3673 -0.2861 -0.7655
  317MPD2    C3 4817   2.015   2.648  12.875  0.1349  0.1643  0.0043
  317MPD2    C4 4818   1.972   2.781  12.871  0.0886 -0.9587 -0.3552
  317MPD2    C5 4819   1.950   2.836  12.749 -0.2899 -0.8319  0.1004
  317MPD2     H 4820   2.051   2.473  12.763 -1.0853 -0.4789  0.5972
  317MPD2    H1 4821   1.957   2.842  12.959 -1.9997 -1.8750 -0.0760
  317MPD2    H2 4822   1.929   2.802  12.533 -1.6248 -1.9400  0.0255
  317MPD2    H3 4823   1.912   2.937  12.755  2.0959 -0.1559  4.0598
  317MPD2     N 4824   2.034   2.577  13.000 -0.5621 -0.1092  0.2527
  317MPD2    H5 4825   2.054   2.477  13.000  1.8907  0.3774 -0.0766
  317MPD2    N1 4826   2.008   2.550  12.521 -0.3022  0.3763  0.2040
  317MPD2    H7 4827   2.020   2.451  12.543  0.3570  0.5844  0.7905
  318TMC3    C1 4828   2.065   2.537  13.225  0.8024 -0.1052 -0.4527
  318TMC3    C2 4829   2.007   2.411  13.219 -0.0350  0.0547  0.0524
  318TMC3    C3 4830   2.004   2.331  13.335  0.5337 -0.1492  0.2879
  318TMC3    C4 4831   2.142   2.573  13.326  0.3278 -0.8303 -0.2765
  318TMC3    C5 4832   2.163   2.488  13.430 -0.2585  0.1704  0.5110
  318TMC3    C6 4833   2.095   2.367  13.437  0.3638 -0.1899 -0.1451
  318TMC3     C 4834   2.044   2.634  13.120  0.7744  0.2552  0.4081
  318TMC3     O 4835   2.046   2.750  13.152  0.3016 -0.1534  0.0390
  318TMC3     H 4836   1.945   2.382  13.135 -0.3505 -1.1135  0.6727
  318TMC3    H1 4837   2.186   2.672  13.318  0.7927 -1.0836 -0.9149
  318TMC3    H2 4838   2.117   2.296  13.515 -0.2233 -2.3020 -1.9024
  318TMC3    C7 4839   2.288   2.500  13.505  0.0836  0.2718 -0.0683
  318TMC3    C8 4840   1.927   2.209  13.350  0.4268 -0.7084 -0.4570
  318TMC3    O1 4841   2.318   2.614  13.530 -0.1188  0.6415  0.2902
  318TMC3    O2 4842   1.984   2.125  13.420 -0.0162 -0.1374 -0.0398
  319MPD2     C 4843   3.032   4.019  16.710  0.4522  0.0444 -0.1237
  319MPD2    C1 4844   2.914   3.979  16.770  0.2864 -0.5586 -0.8032
  319MPD2    C2 4845   2.795   3.980  16.699  0.0309 -0.3739  0.3194
  319MPD2    C3 4846   2.793   4.006  16.563 -0.3561 -0.3047 -0.4716
  319MPD2    C4 4847   2.914   4.049  16.510 -0.5107 -0.1089 -0.1688
  319MPD2    C5 4848   3.027   4.049  16.578  0.4608  0.3932  0.1702
  319MPD2     H 4849   2.699   3.957  16.743 -0.4564  3.0226  1.0586
  319MPD2    H1 4850   2.927   4.069  16.404 -0.6748  2.1047  0.2274
  319MPD2    H2 4851   3.130   4.010  16.754 -0.3210  2.3436  2.0973
  319MPD2    H3 4852   3.114   4.063  16.515 -0.6546 -0.8695 -1.6355
  319MPD2     N 4853   2.688   3.979  16.468 -0.4642  0.2948  0.4224
  319MPD2    H5 4854   2.707   3.989  16.368 -1.0634 -0.0482  0.2769
  319MPD2    N1 4855   2.910   3.942  16.909  0.3850  0.3060 -0.4169
  319MPD2    H7 4856   2.822   3.902  16.940 -0.7994  2.9709 -0.3564
  320TMC3    C1 4857   2.474   3.912  16.377  0.3295  0.0812  0.0365
  320TMC3    C2 4858   2.495   3.970  16.248  0.0923  0.4528  0.1158
  320TMC3    C3 4859   2.407   3.946  16.149  0.6465  0.9058 -1.1310
  320TMC3    C4 4860   2.357   3.841  16.396  0.6208  0.1614  0.1361
  320TMC3    C5 4861   2.268   3.819  16.291 -0.4358  0.2775 -1.1768
  320TMC3    C6 4862   2.301   3.859  16.165  0.0496  0.0369  0.2255
  320TMC3     C 4863   2.560   3.927  16.496  0.3432 -0.0590 -0.1770
  320TMC3     O 4864   2.511   3.900  16.606  0.0039  0.5709  0.4085
  320TMC3     H 4865   2.556   4.060  16.245  0.7781 -0.0397 -1.0103
  320TMC3    H1 4866   2.338   3.790  16.490  2.1754  1.2252  1.0314
  320TMC3    H2 4867   2.232   3.830  16.086  1.8464  0.6673 -1.5638
  320TMC3    C7 4868   2.169   3.714  16.306 -0.7615  0.0629 -0.1129
  320TMC3    C8 4869   2.396   4.051  16.046 -0.6472 -0.3842  0.3323
  320TMC3    O1 4870   2.120   3.664  16.210 -0.4933 -0.4016  0.0741
  320TMC3    O2 4871   2.445   4.159  16.080  0.0313 -0.1450 -0.1174
  321TMC3    C1 4872   2.976   3.913  17.131  0.4325  0.1228 -0.2029
  321TMC3    C2 4873   2.921   3.789  17.143 -0.6515 -0.3318  0.3358
  321TMC3    C3 4874   2.879   3.748  17.265 -0.7755 -0.2748  0.0355
  321TMC3    C4 4875   3.014   3.985  17.237 -0.1371  0.3746  0.2341
  321TMC3    C5 4876   2.985   3.946  17.360 -0.5700  0.2297 -0.1527
  321TMC3    C6 4877   2.922   3.823  17.368 -0.0157  0.1401  0.2276
  321TMC3     C 4878   3.021   3.953  16.998  0.0666 -0.6936  0.0979
  321TMC3     O 4879   3.128   4.007  16.992 -0.0296 -0.3154  0.3900
  321TMC3     H 4880   2.921   3.727  17.053 -1.0353  1.1013 -0.6533
  321TMC3    H1 4881   3.059   4.081  17.212  1.1946  0.3263  2.5328
  321TMC3    H2 4882   2.896   3.792  17.468 -0.4822 -0.2771 -0.0276
  321TMC3    C7 4883   3.110   3.940  17.435  0.1150  0.2456  0.5207
  321TMC3    C8 4884   2.903   3.607  17.279  0.2852  0.5339  0.9206
  321TMC3    O1 4885   3.131   3.824  17.465  0.6431 -0.5360 -0.0027
  321TMC3    O2 4886   2.853   3.524  17.203  0.2771 -0.0254  0.1096
  322MPD2     C 4887   2.022   0.582  13.467  0.0572 -0.2303 -0.1095
  322MPD2    C1 4888   1.980   0.503  13.566 -0.2697  0.0957  0.6139
  322MPD2    C2 4889   1.984   0.366  13.545 -0.5763 -0.2114 -0.2947
  322MPD2    C3 4890   2.028   0.313  13.426 -0.6898 -0.0758  0.4657
  322MPD2    C4 4891   2.068   0.401  13.322 -1.3229  0.0039  0.1862
  322MPD2    C5 4892   2.067   0.537  13.345 -0.4834 -0.0802 -1.0267
  322MPD2     H 4893   1.943   0.289  13.609 -2.6534  0.0175 -1.3331
  322MPD2    H1 4894   2.091   0.360  13.225 -0.0240 -0.1604  0.5603
  322MPD2    H2 4895   2.018   0.690  13.474  0.1005 -0.0932 -2.3886
  322MPD2    H3 4896   2.102   0.606  13.269  2.0243 -0.4456 -0.2080
  322MPD2     N 4897   2.014   0.171  13.406 -0.2034 -0.0882 -0.4292
  322MPD2    H5 4898   1.976   0.116  13.482 -0.2499  1.3366  0.5622
  322MPD2    N1 4899   1.947   0.560  13.691  0.4732 -0.2032  0.7208
  322MPD2    H7 4900   1.983   0.654  13.707  2.5414 -0.8374 -0.1354
  323TMC3    C1 4901   1.890   0.546  13.915  0.1432  0.8159  0.2722
  323TMC3    C2 4902   2.004   0.614  13.954  0.2039 -0.1739 -0.6414
  323TMC3    C3 4903   2.005   0.658  14.089  0.1159 -0.3394 -0.3876
  323TMC3    C4 4904   1.788   0.510  14.003  0.1295 -1.0280 -0.2815
  323TMC3    C5 4905   1.801   0.550  14.132 -0.1856 -0.2757  0.1393
  323TMC3    C6 4906   1.899   0.630  14.178  0.3914 -0.5138 -0.3534
  323TMC3     C 4907   1.884   0.484  13.788 -0.0599 -0.2472  0.1244
  323TMC3     O 4908   1.822   0.382  13.774 -0.1282 -0.4503  0.0193
  323TMC3     H 4909   2.079   0.651  13.885  0.7923  0.4834  0.3461
  323TMC3    H1 4910   1.710   0.448  13.960 -0.2129  0.6761 -2.1047
  323TMC3    H2 4911   1.912   0.661  14.281  1.0871 -0.6938 -0.3893
  323TMC3    C7 4912   1.784   0.434  14.216  0.2258  0.0825  0.9779
  323TMC3    C8 4913   2.122   0.722  14.124  0.4527  0.0213 -0.1773
  323TMC3    O1 4914   1.761   0.333  14.156 -0.1887 -0.2098 -0.0833
  323TMC3    O2 4915   2.222   0.652  14.103  0.3089  0.2021  0.1070
  324MPD2     C 4916   2.998   1.369  14.661 -0.0607  0.3042 -0.2049
  324MPD2    C1 4917   3.017   1.482  14.583  0.4566 -0.2041 -0.1100
  324MPD2    C2 4918   2.922   1.521  14.499  0.4815  0.6181 -0.0607
  324MPD2    C3 4919   2.797   1.457  14.489  0.7631  0.5588 -0.7482
  324MPD2    C4 4920   2.775   1.339  14.559 -0.2620 -0.1092 -0.5913
  324MPD2    C5 4921   2.886   1.296  14.636 -0.1677 -0.0676 -0.0696
  324MPD2     H 4922   2.957   1.594  14.426  1.1995 -0.2960 -0.6229
  324MPD2    H1 4923   2.684   1.280  14.554 -0.2151 -0.3180  0.9593
  324MPD2    H2 4924   3.069   1.335  14.735  0.9204  0.8857 -0.8816
  324MPD2    H3 4925   2.880   1.206  14.698  2.1509 -0.5446 -0.5330
  324MPD2     N 4926   2.689   1.489  14.409  0.1200  0.2571 -0.2383
  324MPD2    H5 4927   2.604   1.436  14.425  0.1788  0.0120 -0.7375
  324MPD2    N1 4928   3.142   1.547  14.575 -0.1412 -0.4705  0.2615
  324MPD2    H7 4929   3.141   1.635  14.524 -0.1224 -0.8608 -0.4119
  325TMC3    C1 4930   2.559   1.635  14.284  0.1330  0.1193  0.1950
  325TMC3    C2 4931   2.492   1.530  14.234  0.5737  0.2829  0.0580
  325TMC3    C3 4932   2.359   1.544  14.214 -0.0461  0.5614 -0.3747
  325TMC3    C4 4933   2.511   1.759  14.314 -0.5299  0.5063 -0.3930
  325TMC3    C5 4934   2.373   1.765  14.297 -0.2990  0.7534  0.5576
  325TMC3    C6 4935   2.291   1.661  14.258 -0.1495  0.2685 -0.9512
  325TMC3     C 4936   2.694   1.608  14.335 -0.6739  0.5270 -0.3639
  325TMC3     O 4937   2.783   1.690  14.322  0.7073  0.5249 -0.2217
  325TMC3     H 4938   2.550   1.445  14.202  1.6509  0.0091  2.7241
  325TMC3    H1 4939   2.577   1.835  14.355  0.0990  0.3498 -1.1287
  325TMC3    H2 4940   2.183   1.670  14.245 -0.3233  0.6387  0.7345
  325TMC3    C7 4941   2.311   1.883  14.355  0.1727 -0.0351  0.3886
  325TMC3    C8 4942   2.296   1.449  14.127 -0.4183  0.1851  0.0105
  325TMC3    O1 4943   2.369   1.991  14.370 -0.2951  0.2388  0.0811
  325TMC3    O2 4944   2.369   1.385  14.052  0.7438 -0.5403 -0.3185
  326MPD2     C 4945   4.322   2.633  11.596  0.0029 -1.0938  0.2050
  326MPD2    C1 4946   4.295   2.732  11.504  0.3283 -0.0230 -0.2636
  326MPD2    C2 4947   4.391   2.830  11.481 -0.5930 -0.2737 -0.6603
  326MPD2    C3 4948   4.509   2.835  11.554  0.4141  0.5013  0.2912
  326MPD2    C4 4949   4.534   2.737  11.649 -0.5096 -1.0293  0.0429
  326MPD2    C5 4950   4.432   2.643  11.677  0.2015  0.2543  0.3726
  326MPD2     H 4951   4.357   2.908  11.414  1.3711  0.1198 -1.1852
  326MPD2    H1 4952   4.622   2.740  11.712  0.5505  1.0239 -1.5438
  326MPD2    H2 4953   4.253   2.551  11.613 -0.0903 -1.2375 -0.8823
  326MPD2    H3 4954   4.447   2.559  11.745  0.0368 -0.1489 -0.0879
  326MPD2     N 4955   4.607   2.937  11.540  0.1512  0.6871 -0.3783
  326MPD2    H5 4956   4.703   2.921  11.569  0.1507  1.2738 -0.0587
  326MPD2    N1 4957   4.187   2.725  11.413 -1.0986 -0.1149  0.2592
  326MPD2    H7 4958   4.177   2.801  11.347  1.3834  1.0550  1.2285
  327TMC3    C1 4959   4.047   2.616  11.254  0.4754  0.4664  0.7037
  327TMC3    C2 4960   4.008   2.738  11.203  0.6825  0.6951 -0.6291
  327TMC3    C3 4961   3.983   2.751  11.067  0.3657  0.4974  0.1950
  327TMC3    C4 4962   4.046   2.510  11.176  0.2550  0.3995 -0.2170
  327TMC3    C5 4963   4.020   2.517  11.038  0.8406  0.0877 -0.0196
  327TMC3    C6 4964   3.994   2.641  10.976  0.5569 -0.8466 -0.1106
  327TMC3     C 4965   4.117   2.611  11.384 -0.2844 -0.6684 -0.3298
  327TMC3     O 4966   4.108   2.498  11.437 -0.5411  0.0455 -0.4944
  327TMC3     H 4967   3.993   2.825  11.266  0.3986  0.9691 -1.0739
  327TMC3    H1 4968   4.078   2.411  11.207 -2.0519 -0.5192 -0.7149
  327TMC3    H2 4969   3.946   2.637  10.879  1.3569  2.1176 -0.6410
  327TMC3    C7 4970   4.108   2.428  10.961  0.3608  0.5336 -0.0127
  327TMC3    C8 4971   4.004   2.880  11.014 -0.2887  0.0233  0.3239
  327TMC3    O1 4972   4.067   2.377  10.860  0.1852 -0.2878 -0.2416
  327TMC3    O2 4973   4.033   2.968  11.098  0.1240  0.1504  0.0488
  328MPD2     C 4974   2.434   2.755  17.060 -0.1124 -0.7708  0.2338
  328MPD2    C1 4975   2.362   2.682  16.972  0.2550  0.1731  0.4349
  328MPD2    C2 4976   2.233   2.721  16.952 -0.0174  0.2835  0.1983
  328MPD2    C3 4977   2.180   2.848  16.998 -0.0283 -0.0555  0.7178
  328MPD2    C4 4978   2.264   2.927  17.072  0.5227 -0.4769 -0.7073
  328MPD2    C5 4979   2.380   2.873  17.099 -0.7159  0.3784 -0.1022
  328MPD2     H 4980   2.170   2.671  16.880 -0.1226  2.1086 -0.9726
  328MPD2    H1 4981   2.219   2.999  17.138  0.1457 -1.0566 -0.3260
  328MPD2    H2 4982   2.533   2.741  17.102  0.1194 -1.7066 -0.6301
  328MPD2    H3 4983   2.442   2.933  17.165 -1.9751  0.2492  1.1948
  328MPD2     N 4984   2.050   2.894  16.963 -0.1400  0.2617 -0.0967
  328MPD2    H5 4985   2.014   2.980  17.004  0.0829  0.0774  0.4943
  328MPD2    N1 4986   2.413   2.569  16.907  0.4318  0.0817 -0.2644
  328MPD2    H7 4987   2.509   2.548  16.932  0.1272 -0.3544  0.5318
  329TMC3    C1 4988   2.435   2.384  16.778  0.5567 -0.5271  0.8105
  329TMC3    C2 4989   2.377   2.265  16.743 -0.2325  0.1823 -0.0393
  329TMC3    C3 4990   2.453   2.150  16.746 -0.6628  0.2620 -0.4014
  329TMC3    C4 4991   2.569   2.400  16.799 -0.2436 -0.0229 -0.5162
  329TMC3    C5 4992   2.639   2.283  16.793  0.2440 -0.2529  0.0347
  329TMC3    C6 4993   2.590   2.160  16.767  0.1259 -0.1159  0.8096
  329TMC3     C 4994   2.349   2.481  16.831  0.3219  0.6423 -0.8415
  329TMC3     O 4995   2.226   2.474  16.808 -0.2628 -0.3642 -0.0213
  329TMC3     H 4996   2.270   2.260  16.728 -0.1168  0.3304 -0.9524
  329TMC3    H1 4997   2.616   2.495  16.821  2.7997 -1.6997  0.2131
  329TMC3    H2 4998   2.650   2.070  16.780  0.0056 -0.4452 -0.9039
  329TMC3    C7 4999   2.782   2.281  16.792 -0.2542  0.8383  0.7298
  329TMC3    C8 5000   2.385   2.029  16.792  0.2863 -0.2513  0.5633
  329TMC3    O1 5001   2.841   2.183  16.751 -0.1202  0.0812  0.0456
  329TMC3    O2 5002   2.439   1.925  16.750 -0.1774 -0.2954  0.2104
  330TMC3    C1 5003   0.244   2.468   9.758 -1.0546  0.2413 -0.4319
  330TMC3    C2 5004   0.127   2.405   9.715 -0.7183  0.6161  0.3025
  330TMC3    C3 5005   0.121   2.272   9.731  0.7580  0.3735 -0.5282
  330TMC3    C4 5006   0.364   2.409   9.773 -0.3356  0.3939 -1.1378
  330TMC3    C5 5007   0.358   2.274   9.784 -0.1632 -0.4611 -0.0930
  330TMC3    C6 5008   0.239   2.212   9.766 -0.5872 -0.0522  0.1188
  330TMC3     C 5009   0.238   2.611   9.761 -0.0633 -0.1896  0.3258
  330TMC3     O 5010   0.350   2.662   9.773  0.3512  0.0609 -0.5884
  330TMC3     H 5011   0.043   2.465   9.682  0.6409  0.6604 -3.0907
  330TMC3    H1 5012   0.449   2.463   9.814  0.7383 -1.0208 -1.4790
  330TMC3    H2 5013   0.237   2.104   9.764  0.4422 -0.0232 -3.0842
  330TMC3    C7 5014   0.467   2.219   9.861  0.4545  0.0417 -0.1939
  330TMC3    C8 5015   0.010   2.196   9.676 -0.6930 -0.4770  0.1021
  330TMC3    O1 5016   0.552   2.290   9.910  1.0986  0.0720  0.7849
  330TMC3    O2 5017   4.680   2.227   9.580 -0.0622  0.3903  0.4098
  331MPD2     C 5018   3.171   0.716  12.870  0.1840  0.1853  0.3296
  331MPD2    C1 5019   3.039   0.677  12.896  0.4807 -0.4363 -0.0171
  331MPD2    C2 5020   3.023   0.566  12.978  0.4039  0.4642 -0.8486
  331MPD2    C3 5021   3.122   0.495  13.041 -0.3951 -0.1130 -0.7290
  331MPD2    C4 5022   3.253   0.535  13.012 -0.1253 -0.5647  0.1129
  331MPD2    C5 5023   3.270   0.643  12.926  0.0026 -0.0250 -0.8804
  331MPD2     H 5024   2.922   0.540  13.008  1.3649  0.3182  2.3409
  331MPD2    H1 5025   3.345   0.490  13.050  1.0142  1.2650 -0.4762
  331MPD2    H2 5026   3.186   0.809  12.816  1.5946 -0.4728 -0.4221
  331MPD2    H3 5027   3.370   0.676  12.901  0.1469  1.0033  1.0069
  331MPD2     N 5028   3.080   0.386  13.125  0.3740 -0.4319 -0.0887
  331MPD2    H5 5029   2.983   0.363  13.146 -0.2911  2.0965 -0.4015
  331MPD2    N1 5030   2.935   0.744  12.830  0.0760 -0.0519  0.0585
  331MPD2    H7 5031   2.956   0.831  12.782  2.0986  1.8329  4.3403
  332TMC3    C1 5032   3.101   0.171  13.243  0.1044 -0.2103 -0.4472
  332TMC3    C2 5033   2.967   0.140  13.230 -0.3698 -0.8553  0.5219
  332TMC3    C3 5034   2.922   0.016  13.265 -0.3554  0.2543  0.3951
  332TMC3    C4 5035   3.190   0.079  13.302 -0.0653  0.0486  0.5026
  332TMC3    C5 5036   3.137   4.700  13.332 -0.2688 -0.1339 -0.1456
  332TMC3    C6 5037   3.012   4.668  13.311  0.4226 -0.4678  0.4382
  332TMC3     C 5038   3.161   0.294  13.188 -0.3020 -0.2068  0.3302
  332TMC3     O 5039   3.282   0.302  13.203 -0.3498 -0.3636  0.8389
  332TMC3     H 5040   2.919   0.209  13.162  2.2714  1.0860  0.5980
  332TMC3    H1 5041   3.294   0.108  13.310 -0.0515  0.6477 -1.7739
  332TMC3    H2 5042   2.967   4.573  13.337 -0.6091 -0.6243 -1.9554
  332TMC3    C7 5043   3.225   4.591  13.373 -1.0845 -0.3601  0.0498
  332TMC3    C8 5044   2.778   4.738  13.246 -0.1911 -0.4474  0.3522
  332TMC3    O1 5045   3.181   4.471  13.374 -0.2847 -0.1132 -0.3180
  332TMC3    O2 5046   2.706   0.090  13.231  0.5472  1.0861 -0.3070
  333MPD2     C 5047   3.028   1.189  11.159  0.4996 -0.5290 -0.3531
  333MPD2    C1 5048   3.127   1.102  11.192 -0.7998 -0.3635 -0.1599
  333MPD2    C2 5049   3.104   0.978  11.251 -0.0346 -0.1481  0.0104
  333MPD2    C3 5050   2.974   0.937  11.249  0.6397  0.1632 -0.2988
  333MPD2    C4 5051   2.882   1.032  11.210 -0.4782 -0.4650  0.1087
  333MPD2    C5 5052   2.895   1.152  11.172 -0.1487  0.0976  0.1674
  333MPD2     H 5053   3.188   0.917  11.282 -0.7630  0.1949  2.7356
  333MPD2    H1 5054   2.776   1.007  11.207 -0.5423 -0.0737 -0.8627
  333MPD2    H2 5055   3.052   1.287  11.118 -0.8048  0.3301  0.9420
  333MPD2    H3 5056   2.804   1.207  11.153 -0.7002 -0.4042  1.3381
  333MPD2     N 5057   2.937   0.809  11.288  0.1268 -0.6011  0.9881
  333MPD2    H5 5058   3.009   0.745  11.319  1.2402 -0.0992 -0.5523
  333MPD2    N1 5059   3.264   1.144  11.159  0.4117 -0.2210 -0.1453
  333MPD2    H7 5060   3.275   1.232  11.111 -1.2880  0.6477  1.0285
  334TMC3    C1 5061   3.499   1.146  11.137  0.3311 -0.7951  0.8722
  334TMC3    C2 5062   3.619   1.082  11.161  0.0922  0.7045  0.3384
  334TMC3    C3 5063   3.737   1.151  11.156  0.3028  0.3248 -0.3387
  334TMC3    C4 5064   3.496   1.281  11.124 -0.3024 -0.1770  0.5547
  334TMC3    C5 5065   3.612   1.350  11.106 -0.0422  0.7495  0.2908
  334TMC3    C6 5066   3.733   1.289  11.129  0.1342  0.3062  0.2576
  334TMC3     C 5067   3.382   1.068  11.170  0.8857  0.4196 -0.0405
  334TMC3     O 5068   3.391   0.956  11.208  0.6448  0.4077 -0.1568
  334TMC3     H 5069   3.616   0.975  11.178 -0.8822  0.8291  0.8861
  334TMC3    H1 5070   3.401   1.333  11.125 -1.4122 -2.1941 -0.3406
  334TMC3    H2 5071   3.820   1.344  11.095  1.0566 -0.7882  0.8912
  334TMC3    C7 5072   3.613   1.499  11.086  0.0722  0.4226 -0.0184
  334TMC3    C8 5073   3.860   1.069  11.170 -0.0737  0.3524 -0.1312
  334TMC3    O1 5074   3.715   1.547  11.047  0.1297 -0.2825  0.0692
  334TMC3    O2 5075   3.845   0.955  11.213  0.0093  0.4694 -0.0174
  335TMC3    C1 5076   3.151   2.254   0.010 -0.7853  0.3385 -0.7392
  335TMC3    C2 5077   3.146   2.192  17.655 -0.8757  0.7524 -0.8756
  335TMC3    C3 5078   3.262   2.150  17.600  0.2918  0.4413 -0.2506
  335TMC3    C4 5079   3.272   2.275   0.074 -0.2011 -0.4688  0.1408
  335TMC3    C5 5080   3.384   2.233   0.012  0.0869  0.0219  0.4341
  335TMC3    C6 5081   3.377   2.159  17.667 -0.1293  0.8400  0.8415
  335TMC3     C 5082   3.026   2.299   0.065  0.0214 -0.2992  0.7254
  335TMC3     O 5083   2.923   2.274   0.003 -0.0542  0.0620  0.2572
  335TMC3     H 5084   3.049   2.189  17.608 -0.8841  0.3795 -0.8342
  335TMC3    H1 5085   3.272   2.311   0.176 -0.9277 -2.3555  0.8097
  335TMC3    H2 5086   3.468   2.120  17.623 -0.6809  2.3028 -1.6125
  335TMC3    C7 5087   3.500   2.326   0.002  0.2105  0.3742  0.3624
  335TMC3    C8 5088   3.280   2.119  17.456  0.4623  0.1462  0.8569
  335TMC3    O1 5089   3.605   2.301  17.712 -0.1395 -0.1085 -0.7237
  335TMC3    O2 5090   3.383   2.160  17.401  0.3001  0.2212  0.2087
  336MPD2     C 5091   2.521   0.345  16.018  0.3413  0.7902  0.1709
  336MPD2    C1 5092   2.516   0.285  15.892  0.3531  0.0854  0.0115
  336MPD2    C2 5093   2.581   0.170  15.875 -0.2062  0.2769  0.6170
  336MPD2    C3 5094   2.637   0.104  15.986  1.1676 -0.1216 -0.0124
  336MPD2    C4 5095   2.655   0.172  16.103  0.4674  0.0628  0.3687
  336MPD2    C5 5096   2.590   0.293  16.125 -0.6040 -0.9416  0.3463
  336MPD2     H 5097   2.571   0.121  15.778 -1.3979  0.2206  0.7739
  336MPD2    H1 5098   2.703   0.131  16.191 -1.4676  0.3739  1.5760
  336MPD2    H2 5099   2.484   0.445  16.037  3.5242  1.3566  3.2604
  336MPD2    H3 5100   2.591   0.346  16.219  1.1782 -0.7759  0.2429
  336MPD2     N 5101   2.692   4.717  15.991  0.1936 -0.0818 -0.6441
  336MPD2    H5 5102   2.742   4.694  16.076 -0.3030 -2.0231 -0.8859
  336MPD2    N1 5103   2.428   0.338  15.792 -0.0727 -0.3962 -0.3182
  336MPD2    H7 5104   2.436   0.304  15.697 -0.7571 -1.7480  0.1143
  337TMC3    C1 5105   2.249   0.443  15.713 -0.0748  0.3734  0.0725
  337TMC3    C2 5106   2.110   0.450  15.708  1.0416 -0.0539 -0.8939
  337TMC3    C3 5107   2.046   0.476  15.580 -0.2095 -0.4247  0.1012
  337TMC3    C4 5108   2.318   0.468  15.596  0.9852  0.1330 -0.2740
  337TMC3    C5 5109   2.252   0.487  15.484 -0.0729 -0.3726 -0.5157
  337TMC3    C6 5110   2.117   0.483  15.463  0.2236  0.3083  0.1956
  337TMC3     C 5111   2.324   0.427  15.825  0.0649  0.2847  0.2070
  337TMC3     O 5112   2.269   0.438  15.936  0.1387  0.0246  0.8506
  337TMC3     H 5113   2.053   0.437  15.798  0.7123 -0.2327 -1.1304
  337TMC3    H1 5114   2.426   0.466  15.593  0.9305 -0.5420 -1.5632
  337TMC3    H2 5115   2.066   0.524  15.377  2.4836  1.5162 -0.5731
  337TMC3    C7 5116   2.324   0.487  15.363  0.9833 -0.4911 -0.3753
  337TMC3    C8 5117   1.907   0.439  15.575 -0.4063  0.1017 -0.0529
  337TMC3    O1 5118   2.260   0.444  15.265  0.2190 -0.1034 -0.8772
  337TMC3    O2 5119   1.849   0.426  15.681 -0.5458  0.1698  0.3623
  338MPD2     C 5120   2.983   0.299   0.665 -0.0600 -0.9524 -0.2246
  338MPD2    C1 5121   2.902   0.230   0.576  0.0007 -0.3504 -0.1434
  338MPD2    C2 5122   2.770   0.265   0.566  0.0522  0.1487  0.6945
  338MPD2    C3 5123   2.711   0.363   0.653 -0.4785  0.7029  0.9443
  338MPD2    C4 5124   2.795   0.442   0.723 -0.2290 -0.4923  0.3884
  338MPD2    C5 5125   2.929   0.411   0.728  0.6403  0.5201  0.0412
  338MPD2     H 5126   2.702   0.205   0.508  0.0674  0.2685  0.5528
  338MPD2    H1 5127   2.761   0.530   0.776  1.7809  2.0688 -2.6226
  338MPD2    H2 5128   3.090   0.282   0.673  0.1596  1.0154  0.9467
  338MPD2    H3 5129   2.997   0.471   0.787 -1.5541  1.5237  1.5657
  338MPD2     N 5130   2.574   0.363   0.668  0.0350 -0.1457 -0.0798
  338MPD2    H5 5131   2.529   0.291   0.611 -1.5818  1.9447 -1.4500
  338MPD2    N1 5132   2.951   0.137   0.474 -0.0538 -0.0083 -0.3878
  338MPD2    H7 5133   2.884   0.108   0.403  1.4017 -1.4224 -1.1661
  339TMC3    C1 5134   2.358   0.420   0.722 -0.5098 -0.2293 -0.4217
  339TMC3    C2 5135   2.294   0.328   0.806  0.7847 -0.0099 -1.2122
  339TMC3    C3 5136   2.216   0.227   0.757 -0.1892  0.0491  0.0958
  339TMC3    C4 5137   2.332   0.413   0.588  0.0527  0.2252  0.2361
  339TMC3    C5 5138   2.278   0.295   0.543 -0.5148 -0.0422  0.0281
  339TMC3    C6 5139   2.225   0.197   0.622 -0.2045 -0.4366 -0.0435
  339TMC3     C 5140   2.495   0.439   0.755 -0.5453 -0.3387  0.0464
  339TMC3     O 5141   2.525   0.507   0.851  0.0027 -0.4190  0.2502
  339TMC3     H 5142   2.322   0.342   0.910  1.3270  1.9736 -1.6223
  339TMC3    H1 5143   2.390   0.474   0.520  0.3750 -3.0957 -2.4967
  339TMC3    H2 5144   2.160   0.122   0.577 -0.9661  0.2866 -0.1568
  339TMC3    C7 5145   2.319   0.271   0.406 -0.5561  0.4393 -0.3538
  339TMC3    C8 5146   2.176   0.134   0.856 -0.4058 -0.5648  0.0166
  339TMC3    O1 5147   2.343   0.368   0.341 -0.2416 -0.3570  0.2906
  339TMC3    O2 5148   2.155   0.179   0.968 -0.0350  0.3294  0.0904
  340MPD2     C 5149   2.510   2.331  10.363  0.6729 -0.4664 -0.1712
  340MPD2    C1 5150   2.619   2.308  10.284 -0.3531 -0.4072 -0.0362
  340MPD2    C2 5151   2.740   2.277  10.348  0.3297  0.0203  0.3468
  340MPD2    C3 5152   2.749   2.272  10.488  1.0518 -0.2683  0.9704
  340MPD2    C4 5153   2.640   2.292  10.565 -0.0077 -0.0777  0.1461
  340MPD2    C5 5154   2.520   2.333  10.498 -0.4792 -0.0974  0.0651
  340MPD2     H 5155   2.831   2.268  10.289 -2.0831 -0.1011 -3.3344
  340MPD2    H1 5156   2.654   2.288  10.673 -1.1168 -2.1898  0.2118
  340MPD2    H2 5157   2.419   2.377  10.325 -0.0285  1.6065  3.9655
  340MPD2    H3 5158   2.428   2.354  10.551 -0.8183 -1.2706 -0.0487
  340MPD2     N 5159   2.868   2.255  10.546 -0.6716  0.3459 -0.5183
  340MPD2    H5 5160   2.863   2.259  10.647 -1.6115 -0.3818 -0.5415
  340MPD2    N1 5161   2.596   2.298  10.145  0.3053 -0.7137  0.3566
  340MPD2    H7 5162   2.503   2.330  10.119 -0.6280 -2.5746  1.3818
  341TMC3    C1 5163   2.619   2.203   9.937  0.2956 -0.0493  0.0121
  341TMC3    C2 5164   2.500   2.134   9.936  0.0327 -0.1071 -0.4010
  341TMC3    C3 5165   2.465   2.062   9.831  0.0910  0.2165 -0.3715
  341TMC3    C4 5166   2.692   2.200   9.818 -0.2259 -0.4748  0.5346
  341TMC3    C5 5167   2.649   2.134   9.705 -0.0934  0.1689 -0.1104
  341TMC3    C6 5168   2.536   2.059   9.714  0.2446 -0.2092  0.2316
  341TMC3     C 5169   2.686   2.254  10.052 -0.3913  0.8771 -0.3169
  341TMC3     O 5170   2.808   2.236  10.062  0.2137  1.0342 -0.1636
  341TMC3     H 5171   2.437   2.132  10.024 -1.6402  1.7881 -1.5273
  341TMC3    H1 5172   2.790   2.246   9.817  0.1046 -1.2310 -1.5667
  341TMC3    H2 5173   2.508   1.990   9.635 -0.9678  0.0620  0.4288
  341TMC3    C7 5174   2.748   2.112   9.597 -0.8940 -1.0772 -0.1194
  341TMC3    C8 5175   2.344   1.978   9.846  0.0536 -0.0631  0.7006
  341TMC3    O1 5176   2.863   2.139   9.619 -1.1204 -0.1453 -0.8302
  341TMC3    O2 5177   2.306   1.972   9.961  0.4135  0.1970  0.0185
  342MPD2     C 5178   1.086   0.464  17.771 -0.4547 -0.7452  0.2100
  342MPD2    C1 5179   1.051   0.520  17.647 -0.5030  0.6569  0.3939
  342MPD2    C2 5180   1.005   0.648  17.645  0.5687 -0.6853  0.5788
  342MPD2    C3 5181   0.970   0.714  17.759 -0.7110  0.2700  0.2895
  342MPD2    C4 5182   0.993   0.658   0.107  0.3088  0.5211  0.1475
  342MPD2    C5 5183   1.052   0.532   0.115  0.1253  0.0537  0.1418
  342MPD2     H 5184   0.989   0.698  17.550 -2.6838 -0.2918  1.3198
  342MPD2    H1 5185   0.988   0.712   0.201  1.2733  0.2560  0.3522
  342MPD2    H2 5186   1.132   0.366   0.003  1.1986 -0.0282 -1.0635
  342MPD2    H3 5187   1.066   0.487   0.213 -0.4109  0.3386  0.3510
  342MPD2     N 5188   0.927   0.851  17.761  0.0624  0.3161  0.1734
  342MPD2    H5 5189   0.915   0.888   0.082 -1.4141 -0.8062  0.4321
  342MPD2    N1 5190   1.072   0.446  17.529  0.2780 -0.2366 -0.7024
  342MPD2    H7 5191   1.070   0.501  17.443 -1.9475  2.2728  0.9287
  343TMC3    C1 5192   1.094   0.246  17.399  0.0339 -0.0415 -0.3484
  343TMC3    C2 5193   1.189   0.292  17.312  0.1801  0.3630  0.1130
  343TMC3    C3 5194   1.235   0.215  17.207 -0.8094  0.7624 -0.4006
  343TMC3    C4 5195   1.049   0.119  17.380  0.6293 -0.1969  0.1732
  343TMC3    C5 5196   1.100   0.039  17.284  0.3968  0.6870  0.1155
  343TMC3    C6 5197   1.189   0.084  17.192  0.3663 -0.2916 -0.0158
  343TMC3     C 5198   1.068   0.311  17.526 -0.3383 -0.2390 -0.4197
  343TMC3     O 5199   1.049   0.228  17.617 -0.0769 -0.5854  0.2349
  343TMC3     H 5200   1.235   0.389  17.330 -2.9249  1.6967  0.9794
  343TMC3    H1 5201   0.983   0.074  17.454 -1.4961  0.2438 -1.4595
  343TMC3    H2 5202   1.219   0.018  17.111 -0.7987  0.3657 -0.9833
  343TMC3    C7 5203   1.047   4.648  17.276  0.3577  0.4085 -1.0541
  343TMC3    C8 5204   1.368   0.247  17.150 -0.2306  0.1648 -0.6651
  343TMC3    O1 5205   1.010   4.599  17.168 -0.0592 -0.1098  0.2133
  343TMC3    O2 5206   1.419   0.354  17.183 -0.3077  0.2490  0.2703
  344MPD2     C 5207   2.117   0.460  11.361 -0.4345  0.3138  0.4563
  344MPD2    C1 5208   2.032   0.445  11.254 -0.0131  0.2219 -0.3065
  344MPD2    C2 5209   2.018   0.555  11.167 -0.2672 -0.2494 -0.0108
  344MPD2    C3 5210   2.087   0.676  11.191 -0.1349 -0.9430 -0.4719
  344MPD2    C4 5211   2.173   0.685  11.305  0.7483 -0.1119 -0.2685
  344MPD2    C5 5212   2.180   0.574  11.387 -0.0282  0.5944  0.1602
  344MPD2     H 5213   1.965   0.554  11.072 -1.4077 -0.8098  0.6325
  344MPD2    H1 5214   2.241   0.764  11.334 -0.6330  0.3487  1.7900
  344MPD2    H2 5215   2.152   0.386  11.432 -1.3553 -0.0814  0.4882
  344MPD2    H3 5216   2.249   0.570  11.470  1.5072  0.0182 -1.1424
  344MPD2     N 5217   2.090   0.779  11.092  0.1510 -0.1669  0.0001
  344MPD2    H5 5218   2.162   0.848  11.109  0.9350 -0.8536 -0.5418
  344MPD2    N1 5219   1.962   0.321  11.226 -0.1498  1.1049  0.2901
  344MPD2    H7 5220   1.886   0.312  11.160 -2.1416 -0.5810  2.8151
  345TMC3    C1 5221   2.045   0.909  10.900 -0.3943  0.3477 -0.0521
  345TMC3    C2 5222   2.161   0.977  10.927 -0.3434 -0.1942  0.4584
  345TMC3    C3 5223   2.182   1.088  10.849  0.7263  0.1934  0.0072
  345TMC3    C4 5224   1.950   0.938  10.803  0.1518  0.4047  0.6627
  345TMC3    C5 5225   1.984   1.044  10.723  0.1713  0.9839 -0.0738
  345TMC3    C6 5226   2.102   1.117  10.738 -0.2641 -0.4770 -0.4870
  345TMC3     C 5227   2.012   0.788  10.980 -0.6736 -0.4050  0.1678
  345TMC3     O 5228   1.918   0.722  10.941  0.4241  1.2888  0.1697
  345TMC3     H 5229   2.237   0.955  11.001 -0.1260  0.7452  0.5214
  345TMC3    H1 5230   1.859   0.880  10.806  0.3819 -0.0230 -0.6717
  345TMC3    H2 5231   2.136   1.185  10.661  1.0731 -2.4238 -1.6282
  345TMC3    C7 5232   1.877   1.125  10.662 -0.2200  0.2614  0.8874
  345TMC3    C8 5233   2.253   1.204  10.904  0.0761  0.2805 -0.0128
  345TMC3    O1 5234   1.895   1.247  10.667  0.2956 -0.4003 -0.0484
  345TMC3    O2 5235   2.353   1.184  10.975 -0.0985  0.2066  0.5481
  346MPD2     C 5236   1.301   1.696  13.958  0.2835  0.2971  0.1884
  346MPD2    C1 5237   1.412   1.769  13.995  0.0532  0.3269  0.3398
  346MPD2    C2 5238   1.459   1.753  14.121 -0.7040  0.3918 -0.7112
  346MPD2    C3 5239   1.396   1.669  14.213  0.0454  0.1002  0.7304
  346MPD2    C4 5240   1.291   1.596  14.164  0.2967 -0.6163  0.3293
  346MPD2    C5 5241   1.245   1.609  14.040 -0.5330  0.0954 -0.6189
  346MPD2     H 5242   1.540   1.816  14.154 -0.5337 -1.6969  2.8732
  346MPD2    H1 5243   1.237   1.523  14.225  0.3861  1.6477  3.1206
  346MPD2    H2 5244   1.269   1.696  13.855 -1.9607  2.0475  0.8701
  346MPD2    H3 5245   1.168   1.541  14.004 -0.4441 -0.9287  1.1235
  346MPD2     N 5246   1.455   1.653  14.341 -0.1149 -1.0758  0.1166
  346MPD2    H5 5247   1.544   1.702  14.349 -1.1378  1.0711 -1.3608
  346MPD2    N1 5248   1.488   1.845  13.907  0.1452  0.3779 -0.0706
  346MPD2    H7 5249   1.581   1.873  13.936  0.8003 -1.1871 -0.6581
  347TMC3    C1 5250   1.474   1.592  14.570  0.1482 -0.5826 -0.4011
  347TMC3    C2 5251   1.566   1.695  14.599  0.0953 -0.3696 -0.0476
  347TMC3    C3 5252   1.656   1.676  14.698  0.2458 -0.3227  0.8347
  347TMC3    C4 5253   1.498   1.468  14.634 -0.2818  0.8728 -0.3233
  347TMC3    C5 5254   1.590   1.452  14.733  0.6690 -0.1098  0.8364
  347TMC3    C6 5255   1.671   1.559  14.773 -0.4073 -0.2917  0.4537
  347TMC3     C 5256   1.401   1.582  14.445  0.8318 -0.3526 -0.0828
  347TMC3     O 5257   1.301   1.513  14.445 -0.1228 -0.2961 -0.1590
  347TMC3     H 5258   1.543   1.791  14.554 -0.9241  0.0879  1.4797
  347TMC3    H1 5259   1.430   1.388  14.606  0.8508 -0.0434 -0.4194
  347TMC3    H2 5260   1.741   1.562  14.856 -0.3519 -0.6234  0.4211
  347TMC3    C7 5261   1.660   1.324  14.712 -0.3287  0.2691  0.1341
  347TMC3    C8 5262   1.783   1.734  14.678  0.2924  0.8261  0.0198
  347TMC3    O1 5263   1.633   1.262  14.611  0.5837 -0.4948 -0.8537
  347TMC3    O2 5264   1.884   1.674  14.712  0.4623  0.1220 -0.3560
  348MPD2     C 5265   1.493   1.688  11.869 -0.3499  0.8208 -0.2086
  348MPD2    C1 5266   1.394   1.630  11.793 -0.1763  0.3046  0.3763
  348MPD2    C2 5267   1.353   1.702  11.686  0.2270 -0.4305 -0.9190
  348MPD2    C3 5268   1.402   1.826  11.638 -0.1787 -0.4547 -0.5878
  348MPD2    C4 5269   1.500   1.880  11.708  0.3303 -0.0111 -0.7837
  348MPD2    C5 5270   1.539   1.807  11.822 -0.1753  0.0482 -0.5713
  348MPD2     H 5271   1.279   1.643  11.633 -0.6202 -0.5027  0.3528
  348MPD2    H1 5272   1.542   1.980  11.697 -0.9284  0.3460 -2.1728
  348MPD2    H2 5273   1.537   1.648  11.960  1.3450  1.3396 -0.8063
  348MPD2    H3 5274   1.620   1.849  11.881 -2.3218 -2.6406  4.3299
  348MPD2     N 5275   1.341   1.900  11.538 -0.0527 -0.5780  0.3337
  348MPD2    H5 5276   1.374   1.997  11.538  2.3065 -1.3777 -0.3849
  348MPD2    N1 5277   1.324   1.510  11.824 -0.1486  0.9641 -0.3635
  348MPD2    H7 5278   1.242   1.484  11.769 -1.0134  0.6626  1.0665
  349TMC3    C1 5279   1.231   1.334  11.942 -0.6305  0.2534  0.0417
  349TMC3    C2 5280   1.258   1.219  11.990  0.4596 -0.0377  0.1864
  349TMC3    C3 5281   1.155   1.126  12.002  1.0701 -0.2616  0.1540
  349TMC3    C4 5282   1.105   1.369  11.895  0.3907  1.2457 -0.1212
  349TMC3    C5 5283   1.009   1.278  11.914  0.0620  0.1692  0.3726
  349TMC3    C6 5284   1.035   1.155  11.962  0.3201 -0.0254 -0.3974
  349TMC3     C 5285   1.347   1.421  11.927  0.5789  0.4598  0.7657
  349TMC3     O 5286   1.433   1.413  12.008  0.5627  0.2385  0.6273
  349TMC3     H 5287   1.354   1.194  12.034 -0.0160  0.8006  1.7096
  349TMC3    H1 5288   1.078   1.473  11.877 -1.4129  0.7786 -0.0835
  349TMC3    H2 5289   0.951   1.088  11.976  0.6292 -0.2275  0.4955
  349TMC3    C7 5290   0.868   1.302  11.879  0.0887  0.1693  0.2451
  349TMC3    C8 5291   1.148   1.010  12.091 -0.1968 -0.8310 -0.8107
  349TMC3    O1 5292   0.784   1.236  11.945  0.4854 -0.2205 -0.3190
  349TMC3    O2 5293   1.048   0.991  12.158  0.0304 -0.1282 -0.1851
  350MPD2     C 5294   4.627   4.570  10.922 -0.5664  0.0972 -0.1706
  350MPD2    C1 5295   4.570   4.472  10.994  0.0967  1.1325 -0.1623
  350MPD2    C2 5296   4.536   4.509  11.127  0.3938  0.0979 -0.2509
  350MPD2    C3 5297   4.566   4.633  11.183  0.0755  0.2951 -0.5509
  350MPD2    C4 5298   4.623   4.731  11.103 -0.2361 -0.4876 -0.5212
  350MPD2    C5 5299   4.651   4.699  10.974  0.5714  0.4162  0.6440
  350MPD2     H 5300   4.499   4.430  11.191 -0.7090  0.0115 -0.9995
  350MPD2    H1 5301   4.641   0.092  11.128  0.6688 -0.8345  0.2941
  350MPD2    H2 5302   4.662   4.553  10.821  0.0789  1.5839 -0.2006
  350MPD2    H3 5303   4.710   0.025  10.916  1.0155 -1.4843 -1.1854
  350MPD2     N 5304   4.509   4.649  11.314  0.1337 -0.0237  0.0461
  350MPD2    H5 5305   4.463   4.568  11.354 -1.5179  2.3814  2.9429
  350MPD2    N1 5306   4.539   4.349  10.942 -0.3492  0.1624  0.3023
  350MPD2    H7 5307   4.482   4.286  10.998  1.1328 -0.4653  1.0915
  351TMC3    C1 5308   4.480   4.187  10.779 -0.2714  0.9209 -0.2518
  351TMC3    C2 5309   4.519   4.117  10.665 -0.4220  0.1464 -0.0844
  351TMC3    C3 5310   4.419   4.045  10.598  0.3577  0.4686  0.3358
  351TMC3    C4 5311   4.355   4.165  10.828 -0.2552 -0.6461  0.3818
  351TMC3    C5 5312   4.260   4.099  10.759  0.9565  0.2664  0.3678
  351TMC3    C6 5313   4.289   4.034  10.643  0.2667 -0.2574 -0.1974
  351TMC3     C 5314   4.574   4.294  10.820  0.9179  0.2502  0.3898
  351TMC3     O 5315   4.654   4.330  10.736 -0.1280  0.1199 -0.0206
  351TMC3     H 5316   4.616   4.130  10.619 -0.2796  0.2364  0.2412
  351TMC3    H1 5317   4.326   4.234  10.906 -1.9982  1.4530 -2.1391
  351TMC3    H2 5318   4.208   3.998  10.581  0.0463  0.7244 -0.4780
  351TMC3    C7 5319   4.147   4.066  10.842  0.7290  0.8457 -0.2376
  351TMC3    C8 5320   4.460   3.990  10.475  0.8749  0.3362 -0.7010
  351TMC3    O1 5321   4.126   4.132  10.944 -0.3254 -0.4016  0.4578
  351TMC3    O2 5322   4.556   4.048  10.426  0.4287 -0.1676  0.7537
  352MPD2     C 5323   2.984   2.109   1.120  0.2489 -0.0444  0.6251
  352MPD2    C1 5324   2.903   2.044   1.031  0.2248 -0.0698  0.0059
  352MPD2    C2 5325   2.951   1.925   0.970 -0.0420  0.2470  0.5149
  352MPD2    C3 5326   3.074   1.871   1.003 -0.0088  0.0525 -0.0271
  352MPD2    C4 5327   3.152   1.942   1.097 -0.5553  0.1131  0.5154
  352MPD2    C5 5328   3.111   2.059   1.153 -0.1585 -0.6447 -0.3181
  352MPD2     H 5329   2.905   1.894   0.877  0.8959  2.7412 -0.7851
  352MPD2    H1 5330   3.246   1.901   1.133 -1.6223 -1.8876  0.9666
  352MPD2    H2 5331   2.958   2.201   1.172 -2.0221 -1.4011  1.8554
  352MPD2    H3 5332   3.177   2.121   1.212  0.6867  0.3697 -2.3235
  352MPD2     N 5333   3.122   1.744   0.954  0.0282  0.6912 -0.0255
  352MPD2    H5 5334   3.213   1.715   0.990  0.1182 -0.1367 -0.9125
  352MPD2    N1 5335   2.778   2.097   1.006 -0.2828  0.2861 -0.0704
  352MPD2    H7 5336   2.754   2.191   1.036 -0.1052  0.4267 -0.3702
  353TMC3    C1 5337   3.108   1.520   0.874  0.1787  0.2886 -0.6377
  353TMC3    C2 5338   3.237   1.517   0.862  0.2539 -0.2121  0.2790
  353TMC3    C3 5339   3.294   1.403   0.820 -0.0939  0.5218  0.0990
  353TMC3    C4 5340   3.026   1.419   0.834  0.3923  0.2008  0.3314
  353TMC3    C5 5341   3.083   1.306   0.779  0.8956  0.1614  0.9157
  353TMC3    C6 5342   3.220   1.301   0.776  0.5065 -0.6500  0.5873
  353TMC3     C 5343   3.045   1.650   0.884 -0.0798 -0.0633 -0.2264
  353TMC3     O 5344   2.925   1.651   0.844 -0.4071  0.2712 -0.5527
  353TMC3     H 5345   3.306   1.592   0.899 -0.2046 -0.5070  1.7495
  353TMC3    H1 5346   2.918   1.419   0.844  0.4359 -1.6819  0.9449
  353TMC3    H2 5347   3.268   1.228   0.712 -2.1583 -1.9889  0.1179
  353TMC3    C7 5348   3.010   1.179   0.761  0.3744 -0.3604  0.8015
  353TMC3    C8 5349   3.432   1.380   0.835 -0.1005 -0.3216 -0.6776
  353TMC3    O1 5350   3.081   1.094   0.715  0.1017 -0.4127  0.6532
  353TMC3    O2 5351   3.504   1.478   0.838 -0.5488  0.2203  0.5275
  354TMC3    C1 5352   4.515   2.313  13.991 -0.1897 -0.6527  0.1294
  354TMC3    C2 5353   4.463   2.416  13.914  0.2283  0.2938  0.5233
  354TMC3    C3 5354   4.464   2.408  13.777 -0.2416 -0.2605  0.6455
  354TMC3    C4 5355   4.581   2.211  13.929 -0.0325  0.1993  0.2208
  354TMC3    C5 5356   4.592   2.211  13.794  0.0647 -0.0109 -0.0695
  354TMC3    C6 5357   4.529   2.301  13.717  0.2531  0.2310  0.0092
  354TMC3     C 5358   4.511   2.308  14.139 -0.8695  0.4069 -0.6402
  354TMC3     O 5359   4.551   2.207  14.191 -0.5286 -0.4800 -0.1520
  354TMC3     H 5360   4.412   2.505  13.951  0.8212  0.3279  1.2372
  354TMC3    H1 5361   4.624   2.126  13.980 -0.6429 -0.4050 -0.2744
  354TMC3    H2 5362   4.514   2.274  13.613 -0.4108 -0.1904  0.2177
  354TMC3    C7 5363   4.681   2.118  13.729 -0.1369 -0.0253 -0.2920
  354TMC3    C8 5364   4.493   2.531  13.696  0.0690  0.4245 -0.0152
  354TMC3    O1 5365   4.724   2.023  13.791 -0.4032 -0.1159 -0.4329
  354TMC3    O2 5366   4.447   2.536  13.586 -0.4623 -0.0810  0.3167
  355MPD2     C 5367   4.583   3.836  12.065  0.8850  0.3008 -0.4353
  355MPD2    C1 5368   4.646   3.821  11.943  0.4774  0.3160 -0.0790
  355MPD2    C2 5369   4.708   3.703  11.929 -0.2677  0.2006 -0.2533
  355MPD2    C3 5370   4.701   3.599  12.023  0.5941 -0.0913  0.9352
  355MPD2    C4 5371   4.622   3.608  12.137 -0.5127  0.0786  0.3773
  355MPD2    C5 5372   4.561   3.728  12.155 -0.2924 -0.1099  0.3473
  355MPD2     H 5373   0.039   3.700  11.850  1.4475  1.2271  1.3453
  355MPD2    H1 5374   4.620   3.522  12.203  0.8514  0.3104  0.7200
  355MPD2    H2 5375   4.551   3.934  12.098  1.2556 -0.0773  1.0848
  355MPD2    H3 5376   4.498   3.748  12.241 -1.1046 -0.1888 -0.2279
  355MPD2     N 5377   0.048   3.498  11.994 -0.5129  0.2459  0.5538
  355MPD2    H5 5378   0.105   3.517  11.913  2.0582  0.7439  2.4850
  355MPD2    N1 5379   4.664   3.934  11.863  0.8098  0.2500  0.1416
  355MPD2    H7 5380   4.634   4.019  11.909 -1.5960 -0.8828  0.7082
  356TMC3    C1 5381   0.200   3.323  12.036  0.3096 -0.7048  0.7141
  356TMC3    C2 5382   0.260   3.371  11.923  0.3513 -0.3535  0.0195
  356TMC3    C3 5383   0.384   3.413  11.934 -0.1971  0.0514 -0.2728
  356TMC3    C4 5384   0.274   3.288  12.149 -0.1265 -0.0892  0.7381
  356TMC3    C5 5385   0.404   3.326  12.150  0.7971  0.3405 -0.2932
  356TMC3    C6 5386   0.458   3.406  12.049 -0.2936 -0.1677 -0.3159
  356TMC3     C 5387   0.074   3.388  12.074 -0.0300  0.1423 -0.7258
  356TMC3     O 5388   0.022   3.347  12.177 -0.0809  0.8134 -0.6686
  356TMC3     H 5389   0.204   3.390  11.832 -2.1041 -0.5057  1.5143
  356TMC3    H1 5390   0.223   3.258  12.239  0.0617 -0.3260  0.7664
  356TMC3    H2 5391   0.563   3.431  12.056  0.1331 -2.3963  1.3441
  356TMC3    C7 5392   0.485   3.307  12.270 -0.8187  0.4056  0.6935
  356TMC3    C8 5393   0.421   3.507  11.831 -0.4452 -0.4542  0.0999
  356TMC3    O1 5394   0.463   3.210  12.336  0.1745 -0.1128 -0.0550
  356TMC3    O2 5395   0.373   3.492  11.718 -0.3992  0.5158 -0.0809
  357MPD2     C 5396   0.143   3.446   1.447  0.1507  0.3508 -0.9877
  357MPD2    C1 5397   0.053   3.395   1.365 -0.1370 -0.9243  0.0562
  357MPD2    C2 5398   4.667   3.434   1.381  0.5053  0.3361 -0.1174
  357MPD2    C3 5399   4.622   3.525   1.479  0.0054  0.3521  0.2489
  357MPD2    C4 5400   4.715   3.565   1.567  0.0442  1.1285  0.0178
  357MPD2    C5 5401   0.103   3.531   1.548 -0.6646  0.2096  0.8502
  357MPD2     H 5402   4.596   3.385   1.315 -0.3465  0.6246  0.5903
  357MPD2    H1 5403   4.684   3.631   1.648 -3.3470 -0.0735 -0.3030
  357MPD2    H2 5404   0.245   3.412   1.436 -0.6263 -2.0134 -0.7302
  357MPD2    H3 5405   0.176   3.572   1.617  1.2273  0.6295 -1.4250
  357MPD2     N 5406   4.488   3.552   1.502 -0.3762  0.0185  0.9830
  357MPD2    H5 5407   4.459   3.606   1.583  1.1809  0.4150  1.2818
  357MPD2    N1 5408   0.090   3.299   1.265  0.1615  0.2812 -0.8283
  357MPD2    H7 5409   0.187   3.271   1.269  0.1904  0.5293  0.2444
  358TMC3    C1 5410   0.072   3.166   1.062  0.1720 -0.4660  0.4422
  358TMC3    C2 5411   4.744   3.143   0.946  0.5938 -1.2032 -0.1193
  358TMC3    C3 5412   0.058   3.059   0.853 -0.4265 -0.5238 -0.2962
  358TMC3    C4 5413   0.192   3.106   1.096  0.3339 -0.1963  0.1118
  358TMC3    C5 5414   0.245   3.031   0.990 -0.4176  0.3005 -0.1120
  358TMC3    C6 5415   0.184   3.010   0.868 -0.5716 -0.6156 -0.1576
  358TMC3     C 5416   0.011   3.271   1.154 -0.1785 -0.0371 -0.2409
  358TMC3     O 5417   4.643   3.306   1.125  0.1401 -0.2971 -0.5870
  358TMC3     H 5418   4.643   3.184   0.944  0.1334 -2.3646 -0.9754
  358TMC3    H1 5419   0.245   3.135   1.185  1.8774  0.8241 -1.1397
  358TMC3    H2 5420   0.217   2.927   0.806  1.3171  0.2884 -0.3815
  358TMC3    C7 5421   0.376   2.971   1.005  0.2139 -0.6790  0.3609
  358TMC3    C8 5422   4.735   3.027   0.730 -0.2282 -0.1779  0.5769
  358TMC3    O1 5423   0.426   2.974   1.115 -0.6182  0.4622  0.3792
  358TMC3    O2 5424   0.056   3.026   0.624  0.1844 -0.2065 -0.0412
  359MPD2     C 5425   0.510   2.045  12.598 -0.1412  0.0089  0.4212
  359MPD2    C1 5426   0.449   2.063  12.474 -0.6792  0.0268 -0.0224
  359MPD2    C2 5427   0.325   1.999  12.452  0.0834  0.4191 -0.2996
  359MPD2    C3 5428   0.253   1.940  12.551  0.6278  0.9786  0.1653
  359MPD2    C4 5429   0.313   1.939  12.675  0.5731  0.1182  0.0295
  359MPD2    C5 5430   0.431   1.991  12.698  0.7194 -0.2724 -0.4212
  359MPD2     H 5431   0.287   2.004  12.350 -2.7002  2.2123  0.8290
  359MPD2    H1 5432   0.253   1.908  12.760  1.5390 -1.8727 -0.0162
  359MPD2    H2 5433   0.604   2.087  12.633 -1.0253  0.4391  2.2643
  359MPD2    H3 5434   0.462   1.992  12.802  1.4140  0.3641 -0.6374
  359MPD2     N 5435   0.126   1.880  12.539 -0.2418  0.2703  1.1494
  359MPD2    H5 5436   0.088   1.828  12.617  0.1796 -1.7511  0.0350
  359MPD2    N1 5437   0.505   2.116  12.359 -0.0988  0.4054  0.2394
  359MPD2    H7 5438   0.458   2.113  12.269 -1.6774  1.9154  1.0123
  360TMC3    C1 5439   0.654   2.238  12.224  0.3281 -0.3318  0.0845
  360TMC3    C2 5440   0.734   2.351  12.215 -0.3428 -1.1552 -0.1054
  360TMC3    C3 5441   0.801   2.362  12.094  0.1017  0.5663 -0.2064
  360TMC3    C4 5442   0.634   2.145  12.124  0.4466 -0.0998 -0.0582
  360TMC3    C5 5443   0.691   2.173  12.006  0.2651  0.1582 -0.3417
  360TMC3    C6 5444   0.771   2.278  11.990 -0.1674 -0.5408  0.5540
  360TMC3     C 5445   0.622   2.188  12.355  0.5423  0.1550 -0.0223
  360TMC3     O 5446   0.690   2.224  12.447  0.2349  0.2229 -0.1284
  360TMC3     H 5447   0.759   2.409  12.304  3.2787 -2.5547 -0.2009
  360TMC3    H1 5448   0.574   2.056  12.137 -0.2028  0.5928  1.7753
  360TMC3    H2 5449   0.800   2.309  11.891 -2.4735  0.4422  0.1803
  360TMC3    C7 5450   0.614   2.138  11.890  0.1154 -0.5980 -0.0918
  360TMC3    C8 5451   0.881   2.483  12.074  0.4569 -0.9023 -0.6338
  360TMC3    O1 5452   0.618   2.217  11.796 -0.7059  0.2494  0.0648
  360TMC3    O2 5453   0.869   2.576  12.149 -0.1019 -0.1114 -0.0867
  361MPD2     C 5454   1.450   0.886  16.762 -0.9072  0.1066 -0.0371
  361MPD2    C1 5455   1.497   0.981  16.847  0.4103  0.2592 -0.0144
  361MPD2    C2 5456   1.630   1.019  16.868 -0.5738 -0.4361  0.8902
  361MPD2    C3 5457   1.728   0.932  16.804  0.1882 -0.1087 -0.7326
  361MPD2    C4 5458   1.680   0.843  16.712 -0.2363  0.4476  0.5231
  361MPD2    C5 5459   1.545   0.811  16.700 -0.3063 -0.7661 -0.0209
  361MPD2     H 5460   1.663   1.102  16.929 -3.2515 -0.0836  1.8189
  361MPD2    H1 5461   1.748   0.781  16.655 -0.6599  2.2762 -1.9493
  361MPD2    H2 5462   1.344   0.861  16.766 -0.4692 -1.6392  0.6940
  361MPD2    H3 5463   1.524   0.724  16.639  1.3559 -0.6751 -0.7281
  361MPD2     N 5464   1.869   0.943  16.829  0.2867  0.6339 -0.3423
  361MPD2    H5 5465   1.931   0.883  16.775 -1.0573 -1.9982  1.0526
  361MPD2    N1 5466   1.403   1.063  16.919 -0.1441 -0.1937 -0.1185
  361MPD2    H7 5467   1.446   1.145  16.960  1.5024 -0.8937 -0.4640
  362TMC3    C1 5468   1.201   1.167  16.950 -0.4777 -0.0693 -0.1878
  362TMC3    C2 5469   1.080   1.158  17.013 -0.0125 -0.2468  0.0756
  362TMC3    C3 5470   1.001   1.269  17.021  0.3772  0.5826  0.1783
  362TMC3    C4 5471   1.229   1.276  16.873  0.0144 -0.3497 -0.8494
  362TMC3    C5 5472   1.128   1.375  16.865  0.0380 -0.4703  0.0526
  362TMC3    C6 5473   1.015   1.375  16.937  0.3490  0.6297 -0.2633
  362TMC3     C 5474   1.266   1.041  16.930 -0.3198 -0.4613  0.4770
  362TMC3     O 5475   1.204   0.936  16.962  0.1915 -0.6183  0.0176
  362TMC3     H 5476   1.061   1.078  17.084 -0.6770 -1.3011 -1.3057
  362TMC3    H1 5477   1.330   1.294  16.837  0.0713 -0.2529 -0.6390
  362TMC3    H2 5478   0.958   1.467  16.929 -0.0866  0.3529 -0.3389
  362TMC3    C7 5479   1.131   1.463  16.756 -0.0987  0.5070  0.0946
  362TMC3    C8 5480   0.883   1.267  17.097 -0.0321  0.1870  0.5882
  362TMC3    O1 5481   1.235   1.527  16.751  0.0331  0.2304 -0.8585
  362TMC3    O2 5482   0.861   1.161  17.157  0.3954 -0.3263 -0.3851
  363TMC3    C1 5483   0.918   4.398   9.741  0.2847 -0.3358  0.4687
  363TMC3    C2 5484   0.882   4.278   9.795  0.1415  0.1556 -0.1157
  363TMC3    C3 5485   0.766   4.280   9.874  0.6875  0.5382  0.3190
  363TMC3    C4 5486   0.845   4.516   9.750 -0.3959  0.0379  0.2895
  363TMC3    C5 5487   0.731   4.508   9.833  0.1068 -0.1694  0.0292
  363TMC3    C6 5488   0.690   4.390   9.895  0.0575 -0.3773  1.0065
  363TMC3     C 5489   1.042   4.399   9.670  0.3971 -0.2123 -0.4704
  363TMC3     O 5490   1.076   4.287   9.639 -0.2870  0.4584 -0.5968
  363TMC3     H 5491   0.947   4.191   9.795 -1.1004 -0.7767  0.3441
  363TMC3    H1 5492   0.889   4.610   9.719 -0.1895  1.2011  4.1436
  363TMC3    H2 5493   0.588   4.386   9.933  0.0470  0.4080  1.0560
  363TMC3    C7 5494   0.652   4.626   9.848 -0.0709  0.2327 -0.9653
  363TMC3    C8 5495   0.739   4.173   9.976  0.6527  0.4977 -0.1473
  363TMC3    O1 5496   0.595   4.635   9.956 -0.5525  0.2592  0.1775
  363TMC3    O2 5497   0.688   4.206  10.084 -0.0282  0.7517 -0.1913
  364MPD2     C 5498   4.138   3.181  10.624  0.2134 -0.2661 -0.5902
  364MPD2    C1 5499   4.142   3.206  10.760  0.2932  1.1186 -1.1951
  364MPD2    C2 5500   4.085   3.117  10.845  0.2496 -0.2088  0.4757
  364MPD2    C3 5501   4.046   2.994  10.798  0.0888 -0.3554  0.0412
  364MPD2    C4 5502   4.044   2.971  10.664  0.0438  1.0167  0.3892
  364MPD2    C5 5503   4.082   3.072  10.578 -0.0053 -0.3020 -0.1889
  364MPD2     H 5504   4.090   3.140  10.951 -0.0901 -0.7251  0.6028
  364MPD2    H1 5505   4.009   2.875  10.629 -0.1084  0.7995  1.1481
  364MPD2    H2 5506   4.180   3.254  10.556  1.0710 -2.0434 -1.9646
  364MPD2    H3 5507   4.095   3.048  10.473  0.4832  1.1655 -0.4603
  364MPD2     N 5508   4.005   2.885  10.878  0.0090 -0.4040 -0.5408
  364MPD2    H5 5509   3.976   2.801  10.829  0.0853 -0.1092 -1.0926
  364MPD2    N1 5510   4.196   3.331  10.795  0.6382 -0.1970 -0.1536
  364MPD2    H7 5511   4.239   3.384  10.719  0.1180 -0.5548 -0.6924
  365TMC3    C1 5512   4.243   3.528  10.921 -0.4031  0.1606  0.2939
  365TMC3    C2 5513   4.355   3.575  10.854  0.6534 -0.2395 -0.2407
  365TMC3    C3 5514   4.408   3.692  10.887 -0.3641  0.5155  0.0525
  365TMC3    C4 5515   4.183   3.600  11.016 -0.2907  0.6734  0.6167
  365TMC3    C5 5516   4.240   3.721  11.044  0.4222  0.0447 -0.0491
  365TMC3    C6 5517   4.353   3.770  10.981 -0.2208  0.0451  0.0624
  365TMC3     C 5518   4.194   3.389  10.921  0.5599 -0.1051 -0.1592
  365TMC3     O 5519   4.151   3.335  11.021  0.6521  0.9377  0.3688
  365TMC3     H 5520   4.419   3.503  10.804  0.4982 -0.8426  0.4265
  365TMC3    H1 5521   4.091   3.571  11.065  0.1487 -0.1212  0.9625
  365TMC3    H2 5522   4.397   3.862  11.018 -0.0976  0.2282 -0.5536
  365TMC3    C7 5523   4.188   3.795  11.156  0.0087  0.4732 -0.0681
  365TMC3    C8 5524   4.515   3.749  10.805  0.0682  0.3368  0.1612
  365TMC3    O1 5525   4.201   3.916  11.147  0.5625 -0.4141  0.1463
  365TMC3    O2 5526   4.574   3.842  10.857  0.0129  0.5603  0.4206
  366MPD2     C 5527   2.340   3.788  15.316  0.1142  0.1150  0.2839
  366MPD2    C1 5528   2.324   3.878  15.209 -0.0669  0.1301  0.2802
  366MPD2    C2 5529   2.403   3.863  15.104  0.2343 -0.3600 -0.3254
  366MPD2    C3 5530   2.495   3.767  15.089 -1.1963 -0.4493 -0.0338
  366MPD2    C4 5531   2.514   3.675  15.191 -0.6244 -0.6809  0.1346
  366MPD2    C5 5532   2.439   3.695  15.303  0.0705  0.3801 -0.3986
  366MPD2     H 5533   2.385   3.938  15.028 -0.0734  0.8578  0.9699
  366MPD2    H1 5534   2.595   3.603  15.198  0.0420 -0.0536 -1.1165
  366MPD2    H2 5535   2.290   3.795  15.412 -1.1433 -0.2730 -0.3444
  366MPD2    H3 5536   2.457   3.627  15.385 -3.0765 -2.3610 -1.9728
  366MPD2     N 5537   2.595   3.789  14.986  0.9724 -0.8276 -0.2844
  366MPD2    H5 5538   2.579   3.861  14.916  0.3564 -2.1800 -1.5493
  366MPD2    N1 5539   2.247   3.992  15.222  0.2014  0.2470  0.1618
  366MPD2    H7 5540   2.226   4.039  15.135  0.1025  0.1545  0.1359
  367TMC3    C1 5541   2.148   4.175  15.314 -0.3744  0.0315 -0.3022
  367TMC3    C2 5542   2.220   4.267  15.386 -0.2545  0.4114  0.6205
  367TMC3    C3 5543   2.253   4.386  15.323 -0.5378  0.5801 -0.5332
  367TMC3    C4 5544   2.111   4.206  15.183  0.3364  0.3306  0.5034
  367TMC3    C5 5545   2.134   4.328  15.127  0.2367 -0.2469 -0.2160
  367TMC3    C6 5546   2.215   4.415  15.189  0.6886 -0.5304 -0.3843
  367TMC3     C 5547   2.195   4.045  15.333  0.3785 -0.4997  0.2276
  367TMC3     O 5548   2.213   4.009  15.446  0.0871 -0.6913  0.1752
  367TMC3     H 5549   2.257   4.241  15.485 -1.8577  2.2595  1.7079
  367TMC3    H1 5550   2.044   4.132  15.140  3.1126 -1.2708 -1.0628
  367TMC3    H2 5551   2.242   4.512  15.151  0.0948  0.4058  1.5974
  367TMC3    C7 5552   2.046   4.376  15.025 -0.3497 -0.8085 -0.5424
  367TMC3    C8 5553   2.372   4.456  15.372  0.0016  0.2431  0.0110
  367TMC3    O1 5554   2.032   4.494  15.021  0.2850  0.2411 -0.1770
  367TMC3    O2 5555   2.406   4.434  15.488 -0.1304 -0.1288  0.3031
  368MPD2     C 5556   3.562   0.741  13.219  1.0908  0.3755 -0.0862
  368MPD2    C1 5557   3.516   0.825  13.125 -0.0483 -0.8187  0.8723
  368MPD2    C2 5558   3.601   0.871  13.030  0.7576 -0.6392  0.2424
  368MPD2    C3 5559   3.734   0.823  13.032 -0.4128 -0.5811 -0.0478
  368MPD2    C4 5560   3.776   0.732  13.125  0.1988  0.2274 -0.3229
  368MPD2    C5 5561   3.689   0.687  13.217  0.8080  0.2124 -0.1027
  368MPD2     H 5562   3.572   0.941  12.953 -1.1041 -0.9230  0.6802
  368MPD2    H1 5563   3.876   0.695  13.106  0.4321  0.1273  1.0943
  368MPD2    H2 5564   3.501   0.707  13.302  1.5364 -0.7669 -0.2257
  368MPD2    H3 5565   3.706   0.601  13.282 -1.3194 -1.2202 -1.4286
  368MPD2     N 5566   3.825   0.859  12.927  0.0066 -0.1832 -0.2321
  368MPD2    H5 5567   3.918   0.821  12.940  0.1703  0.0774 -0.6591
  368MPD2    N1 5568   3.382   0.875  13.136 -0.6208  0.3214  0.8433
  368MPD2    H7 5569   3.321   0.837  13.208 -1.9241 -1.1507 -1.0362
  369TMC3    C1 5570   3.211   1.030  13.085 -0.2538  0.3331 -0.4432
  369TMC3    C2 5571   3.218   1.151  13.032 -0.5112  0.2495  0.1659
  369TMC3    C3 5572   3.113   1.199  12.960 -0.3925 -0.4248 -0.2064
  369TMC3    C4 5573   3.098   0.954  13.081 -0.0075  0.7673  1.1874
  369TMC3    C5 5574   2.986   1.010  13.025 -0.0809 -0.2954 -0.1323
  369TMC3    C6 5575   2.995   1.130  12.961 -0.0877  0.3414  0.1690
  369TMC3     C 5576   3.329   0.962  13.044 -0.3807 -0.3160  0.4727
  369TMC3     O 5577   3.352   0.987  12.926 -0.3105 -0.2466  0.1236
  369TMC3     H 5578   3.312   1.206  13.030  0.9305 -2.3845 -3.7555
  369TMC3    H1 5579   3.099   0.860  13.134  1.4480 -1.0018 -1.9736
  369TMC3    H2 5580   2.910   1.172  12.910 -1.4115 -1.6579  0.7002
  369TMC3    C7 5581   2.856   0.982  13.079  0.1253 -0.1162 -0.1762
  369TMC3    C8 5582   3.147   1.283  12.852 -0.2252  0.1397 -0.7412
  369TMC3    O1 5583   2.842   0.904  13.171 -0.2244  0.2354 -0.5259
  369TMC3    O2 5584   3.085   1.378  12.818  0.0577  0.8217 -0.4655
  370TMC3    C1 5585   3.099   2.186  15.905 -0.2644 -0.4358 -0.9684
  370TMC3    C2 5586   2.967   2.179  15.941  0.2801  0.5157 -0.4716
  370TMC3    C3 5587   2.902   2.058  15.936  0.4976  0.4050 -0.0778
  370TMC3    C4 5588   3.175   2.076  15.879 -0.1822 -0.3927  0.5265
  370TMC3    C5 5589   3.107   1.956  15.868 -0.0543 -0.2987  0.9908
  370TMC3    C6 5590   2.973   1.949  15.896 -0.3232 -0.0124 -0.3329
  370TMC3     C 5591   3.164   2.308  15.950  0.1902  0.0168 -0.1322
  370TMC3     O 5592   3.272   2.334  15.897 -0.4339  0.1314  1.0385
  370TMC3     H 5593   2.898   2.263  15.946  1.2510  1.2735  0.0435
  370TMC3    H1 5594   3.277   2.088  15.842 -0.7522 -0.2882 -1.0048
  370TMC3    H2 5595   2.925   1.853  15.885  0.7606 -0.5426 -0.4412
  370TMC3    C7 5596   3.177   1.841  15.801 -0.7414 -0.1540 -0.8413
  370TMC3    C8 5597   2.795   2.036  16.032 -0.1576 -1.2888 -0.1975
  370TMC3    O1 5598   3.116   1.760  15.733 -0.7455 -0.1965  0.7786
  370TMC3    O2 5599   2.737   2.138  16.073 -0.1941 -0.4427 -0.4054
  371TMC3    C1 5600   4.106   0.530  15.489 -0.0764 -0.3011 -0.1675
  371TMC3    C2 5601   4.057   0.539  15.619 -0.1582  1.0480 -0.4496
  371TMC3    C3 5602   4.026   0.663  15.669  0.2856  0.1729 -0.6843
  371TMC3    C4 5603   4.113   0.633  15.400 -0.1398  1.0132 -0.6280
  371TMC3    C5 5604   4.054   0.750  15.442  0.8325  0.5539  0.0739
  371TMC3    C6 5605   4.012   0.766  15.570  0.1110 -0.4664  0.0828
  371TMC3     C 5606   4.191   0.417  15.464 -0.0430 -0.1541 -0.7862
  371TMC3     O 5607   4.281   0.448  15.386  0.2630 -0.4178 -0.6633
  371TMC3     H 5608   4.062   0.452  15.683 -0.3100  0.7650 -0.8266
  371TMC3    H1 5609   4.148   0.626  15.298  2.1028 -0.7891  0.2815
  371TMC3    H2 5610   3.978   0.861  15.608  0.0170 -0.5923  0.3131
  371TMC3    C7 5611   4.073   0.884  15.375 -0.5731 -0.5223 -0.2154
  371TMC3    C8 5612   4.110   0.704  15.788  0.6372  0.2112  0.0606
  371TMC3    O1 5613   4.039   0.983  15.438  0.1884  0.2488 -0.1186
  371TMC3    O2 5614   4.185   0.615  15.818 -0.1091 -0.6423 -0.3039
  372MPD2     C 5615   3.808   1.306  12.881  0.3702  0.8827 -0.1681
  372MPD2    C1 5616   3.892   1.271  12.982  0.0611  0.2815  0.5732
  372MPD2    C2 5617   3.841   1.215  13.096  0.2329 -0.2982 -0.4091
  372MPD2    C3 5618   3.708   1.181  13.107  0.3402  0.2716 -0.7686
  372MPD2    C4 5619   3.626   1.216  13.004 -0.0757 -0.1193  0.4679
  372MPD2    C5 5620   3.675   1.282  12.894  0.5819 -0.0546  0.4356
  372MPD2     H 5621   3.898   1.194  13.185  1.0251  0.8507 -0.6491
  372MPD2    H1 5622   3.519   1.199  13.010 -0.1821  0.4068  0.0398
  372MPD2    H2 5623   3.856   1.345  12.791  0.2785  0.6919 -0.2992
  372MPD2    H3 5624   3.602   1.305  12.817 -1.2258  0.4868  2.2878
  372MPD2     N 5625   3.671   1.129  13.234  0.3288 -0.0705  0.5439
  372MPD2    H5 5626   3.750   1.089  13.284  0.2799  0.2547  0.8809
  372MPD2    N1 5627   4.029   1.310  12.987  0.5113  0.0762 -0.4239
  372MPD2    H7 5628   4.064   1.291  13.080  0.5247 -0.3396 -0.5139
  373TMC3    C1 5629   3.524   1.045  13.396 -0.0222  0.1817  0.1904
  373TMC3    C2 5630   3.393   1.034  13.439  0.5183  0.2194 -0.6336
  373TMC3    C3 5631   3.369   0.956  13.549 -0.0249 -0.3054 -0.0052
  373TMC3    C4 5632   3.621   0.977  13.453  0.2857  0.7068  0.4955
  373TMC3    C5 5633   3.594   0.906  13.568  0.0216 -0.2801  0.2150
  373TMC3    C6 5634   3.465   0.886  13.616 -0.0634 -0.3012 -0.2799
  373TMC3     C 5635   3.544   1.142  13.287 -1.2088  0.5920 -0.1834
  373TMC3     O 5636   3.448   1.203  13.241  0.6106 -0.6788 -0.7660
  373TMC3     H 5637   3.317   1.096  13.394 -0.0852 -0.2568 -0.2610
  373TMC3    H1 5638   3.725   0.989  13.426  0.3216  0.9684  0.7413
  373TMC3    H2 5639   3.434   0.811  13.687 -1.0275 -1.4680 -1.9100
  373TMC3    C7 5640   3.709   0.869  13.660  0.3743 -0.5399  0.2404
  373TMC3    C8 5641   3.229   0.955  13.591 -0.0230 -0.0137 -0.3975
  373TMC3    O1 5642   3.818   0.861  13.609 -0.3343  0.1305 -0.3318
  373TMC3    O2 5643   3.155   0.981  13.503  0.0195  0.2506  0.8651
  374TMC3    C1 5644   4.286   2.017  10.108 -0.6038  0.1072 -0.1525
  374TMC3    C2 5645   4.362   2.125  10.123 -0.2832 -0.4800 -0.8025
  374TMC3    C3 5646   4.396   2.204  10.014 -0.1470  0.1808  0.7532
  374TMC3    C4 5647   4.241   1.981   9.978 -1.0905  0.0051  0.5544
  374TMC3    C5 5648   4.280   2.062   9.870 -0.4894  0.0266 -0.0301
  374TMC3    C6 5649   4.346   2.181   9.886 -0.4202  0.2119  0.3106
  374TMC3     C 5650   4.248   1.942  10.227 -0.5748  0.0609  0.0592
  374TMC3     O 5651   4.307   1.964  10.332  0.5531 -0.3546 -0.5604
  374TMC3     H 5652   4.409   2.158  10.215  1.5251 -0.8268 -1.5996
  374TMC3    H1 5653   4.175   1.897   9.961  1.9360 -2.5285  1.2860
  374TMC3    H2 5654   4.336   2.260   9.812  0.3912 -1.3703 -1.4754
  374TMC3    C7 5655   4.212   2.043   9.746  0.3750  0.0868  1.0865
  374TMC3    C8 5656   4.480   2.326  10.026  0.4643  0.6490 -0.3610
  374TMC3    O1 5657   4.119   1.966   9.755 -0.1836 -0.2178 -0.6166
  374TMC3    O2 5658   4.436   2.424   9.968 -0.1335 -0.0881 -0.0489
  375MPD2     C 5659   4.424   2.375  17.317 -0.0179  0.1492 -0.1150
  375MPD2    C1 5660   4.348   2.387  17.206 -0.6734 -0.2637 -0.1702
  375MPD2    C2 5661   4.394   2.329  17.089 -0.3510 -0.4481  0.1113
  375MPD2    C3 5662   4.517   2.262  17.080 -0.1951 -0.6516 -0.2107
  375MPD2    C4 5663   4.591   2.258  17.191  0.1498 -0.8971  0.3712
  375MPD2    C5 5664   4.547   2.311  17.303 -0.4130  0.5403 -0.2452
  375MPD2     H 5665   4.330   2.340  17.002 -0.5295  1.3198  0.4694
  375MPD2    H1 5666   4.689   2.212  17.190  1.0025  0.9559 -0.9810
  375MPD2    H2 5667   4.394   2.416  17.412  0.8226  1.9406 -0.6246
  375MPD2    H3 5668   4.607   2.306  17.393 -2.3824  0.7763  1.0922
  375MPD2     N 5669   4.582   2.217  16.961 -0.1964 -0.1830 -0.2544
  375MPD2    H5 5670   4.672   2.171  16.973 -1.0250 -0.9093  3.0635
  375MPD2    N1 5671   4.232   2.477  17.200  0.1985  0.4542 -0.5090
  375MPD2    H7 5672   4.195   2.487  17.106 -2.2002  0.0301  0.3833
  376TMC3    C1 5673   4.599   2.178  16.723  0.0104  0.3864  0.4894
  376TMC3    C2 5674   4.730   2.213  16.717  0.2952 -0.5914 -0.3106
  376TMC3    C3 5675   0.046   2.198  16.593  0.0302 -0.4402 -0.4106
  376TMC3    C4 5676   4.526   2.138  16.612  0.6654  0.5713  0.5332
  376TMC3    C5 5677   4.588   2.130  16.487  0.3690  0.9078 -0.1525
  376TMC3    C6 5678   4.722   2.157  16.472  0.3720 -0.1651  0.1947
  376TMC3     C 5679   4.524   2.216  16.838  0.5640 -0.4756  0.1061
  376TMC3     O 5680   4.404   2.234  16.813 -0.2811 -0.0685 -0.2266
  376TMC3     H 5681   0.036   2.256  16.803 -0.5918 -1.7743  0.7835
  376TMC3    H1 5682   4.424   2.104  16.628  0.5638 -0.4619 -2.4379
  376TMC3    H2 5683   0.034   2.150  16.379  0.8286 -1.4047  0.5705
  376TMC3    C7 5684   4.506   2.163  16.377 -0.4771 -0.0883 -0.3095
  376TMC3    C8 5685   0.181   2.224  16.583  0.6000 -0.2359 -0.1088
  376TMC3    O1 5686   4.397   2.211  16.400  0.7646  0.2726  0.1191
  376TMC3    O2 5687   0.227   2.246  16.474  0.5564 -0.0547  0.0400
  377MPD2     C 5688   2.845   1.461  13.068 -0.5410  0.3075  0.5512
  377MPD2    C1 5689   2.792   1.553  12.974 -0.5712  0.0670 -0.0605
  377MPD2    C2 5690   2.667   1.608  13.004 -0.2035  0.4215  0.7746
  377MPD2    C3 5691   2.601   1.572  13.121 -0.5907  0.3807  0.2917
  377MPD2    C4 5692   2.657   1.494  13.212  0.1610 -0.5521  0.2544
  377MPD2    C5 5693   2.779   1.434  13.190 -0.8382  0.1629  0.0876
  377MPD2     H 5694   2.625   1.673  12.928 -3.4004 -2.7010 -0.1291
  377MPD2    H1 5695   2.609   1.474  13.307 -0.4102  0.5692  0.2041
  377MPD2    H2 5696   2.939   1.413  13.045  0.8327  3.9002 -1.3770
  377MPD2    H3 5697   2.832   1.378  13.266  1.6208  1.5562 -0.6110
  377MPD2     N 5698   2.462   1.594  13.148 -0.2193  0.9437  0.1243
  377MPD2    H5 5699   2.423   1.545  13.228 -1.0625  0.9524 -0.2738
  377MPD2    N1 5700   2.862   1.551  12.848 -0.3912  0.2095  0.0646
  377MPD2    H7 5701   2.931   1.478  12.838 -1.0117 -0.6140  1.8219
  378TMC3    C1 5702   2.956   1.683  12.414  0.1177 -0.6156 -0.4106
  378TMC3    C2 5703   2.941   1.706  12.546  0.1957  0.7328  0.1262
  378TMC3    C3 5704   2.910   1.602  12.628  0.5674  0.2719 -0.6346
  378TMC3    C4 5705   2.963   1.555  12.365  0.6019 -0.0760  0.9112
  378TMC3    C5 5706   2.955   1.453  12.449 -0.5974  0.1867  0.3595
  378TMC3    C6 5707   2.925   1.470  12.582  1.0154 -0.4113  0.4508
  378TMC3     C 5708   2.931   1.790  12.316  1.0716  0.1823  0.3526
  378TMC3     O 5709   2.941   1.753  12.199  0.5193 -0.0529  1.0859
  378TMC3     H 5710   2.916   1.807  12.576 -3.1725  0.5132 -1.9244
  378TMC3    H1 5711   2.954   1.523  12.262 -2.0271 -0.9865  1.4223
  378TMC3    H2 5712   2.920   1.383  12.646 -0.4866  0.3666  1.4119
  378TMC3    C7 5713   3.000   1.318  12.410 -0.3718  0.5174  0.6995
  378TMC3    C8 5714   2.838   1.636  12.746  0.3543  0.1166 -0.0903
  378TMC3    O1 5715   2.974   1.223  12.491  0.2160  0.4181  0.3516
  378TMC3    O2 5716   2.762   1.732  12.740 -0.0937  0.6437 -0.3118
  379MPD2     C 5717   3.476   0.096  15.805  0.5210  0.1071 -0.2055
  379MPD2    C1 5718   3.406   0.054  15.919 -0.0277 -0.1098 -0.1904
  379MPD2    C2 5719   3.477   0.032  16.038  0.2922 -0.0836 -0.6677
  379MPD2    C3 5720   3.617   0.051  16.043 -0.4190  0.0812  0.1658
  379MPD2    C4 5721   3.683   0.084  15.925  0.5938 -0.3459  0.2760
  379MPD2    C5 5722   3.609   0.104  15.808 -0.4876  0.1727  0.4941
  379MPD2     H 5723   3.428   0.004  16.131 -0.3226 -0.2535 -1.0426
  379MPD2    H1 5724   3.789   0.102  15.911  0.8571 -0.9158  1.5118
  379MPD2    H2 5725   3.421   0.105  15.712  0.3069 -1.9389 -0.2862
  379MPD2    H3 5726   3.656   0.122  15.712 -1.7254  1.3467  0.1118
  379MPD2     N 5727   3.696   0.014  16.152 -0.9555 -0.3180  0.1234
  379MPD2    H5 5728   3.791   4.731  16.129 -0.4608  1.4627  0.0254
  379MPD2    N1 5729   3.267   0.021  15.903  0.0073  0.4678  0.1253
  379MPD2    H7 5730   3.236   0.035  15.808 -1.1139  0.1226  0.4419
  380TMC3    C1 5731   3.076   4.646  15.916  0.7601 -0.2124 -0.8303
  380TMC3    C2 5732   3.082   4.511  15.918  0.2495 -0.5807 -0.6449
  380TMC3    C3 5733   3.067   4.444  15.801 -0.4819 -0.0569  0.7595
  380TMC3    C4 5734   3.031   4.719  15.803  0.0007 -0.4898  0.0056
  380TMC3    C5 5735   2.988   4.641  15.701  0.0389 -0.0767  0.3439
  380TMC3    C6 5736   3.004   4.510  15.695  0.6902  0.2047  0.2264
  380TMC3     C 5737   3.187   4.701  15.989  0.2712 -0.3522  0.2147
  380TMC3     O 5738   3.205   4.659  16.102 -0.2150 -0.6657  0.1874
  380TMC3     H 5739   3.125   4.461  16.004 -0.8687  0.8048  0.7266
  380TMC3    H1 5740   3.026   0.083  15.806  1.2473 -0.3899 -1.3684
  380TMC3    H2 5741   3.004   4.459  15.599 -0.7923 -0.3278  0.5005
  380TMC3    C7 5742   2.952   4.699  15.578 -0.6894  0.1054  0.2814
  380TMC3    C8 5743   3.205   4.415  15.752 -0.0956  0.4768 -0.3243
  380TMC3    O1 5744   3.041   0.021  15.517  0.3088  0.1357 -0.3946
  380TMC3    O2 5745   3.228   4.430  15.634  0.6471 -0.2787 -0.0074
  381TMC3    C1 5746   3.418   1.297  16.164 -0.6576 -0.2183  0.8758
  381TMC3    C2 5747   3.472   1.409  16.217 -0.0858 -0.1733 -0.3423
  381TMC3    C3 5748   3.392   1.510  16.251 -0.5802 -0.2231 -0.8863
  381TMC3    C4 5749   3.285   1.273  16.161 -0.2528 -0.8361  0.0641
  381TMC3    C5 5750   3.202   1.375  16.191 -0.0736  0.4854  0.6078
  381TMC3    C6 5751   3.255   1.488  16.246 -0.1636 -0.3145 -0.2565
  381TMC3     C 5752   3.508   1.189  16.146  0.2791 -0.4950 -0.0100
  381TMC3     O 5753   3.622   1.218  16.104  0.0760  0.2948  0.2640
  381TMC3     H 5754   3.579   1.412  16.234 -0.5920  1.5268  2.6087
  381TMC3    H1 5755   3.235   1.182  16.129 -1.5544  0.4308 -1.5425
  381TMC3    H2 5756   3.183   1.567  16.260 -0.1926 -0.0572 -1.8609
  381TMC3    C7 5757   3.064   1.350  16.204 -0.1399 -0.0747 -0.2679
  381TMC3    C8 5758   3.454   1.638  16.266  0.8275  0.3055  0.5319
  381TMC3    O1 5759   3.022   1.250  16.146 -0.0536 -0.0034 -0.0170
  381TMC3    O2 5760   3.573   1.638  16.263 -0.2663  0.0985 -0.1282
  382MPD2     C 5761   2.464   3.207  17.531 -0.7151  0.4973 -0.6073
  382MPD2    C1 5762   2.388   3.214  17.421 -0.7317  0.4586 -0.2522
  382MPD2    C2 5763   2.302   3.109  17.384 -0.7119 -0.5806  0.5308
  382MPD2    C3 5764   2.313   2.985  17.456 -0.1737  0.8276 -0.0632
  382MPD2    C4 5765   2.399   2.982  17.564  0.2706 -1.0691  0.5529
  382MPD2    C5 5766   2.472   3.093  17.603  0.2908 -0.7831  0.0021
  382MPD2     H 5767   2.239   3.118  17.296 -0.8912  4.2778  1.1160
  382MPD2    H1 5768   2.422   2.889  17.615 -2.2768 -1.8591  0.2604
  382MPD2    H2 5769   2.522   3.291  17.567  0.3057 -0.9091  0.9979
  382MPD2    H3 5770   2.523   3.098  17.699  2.0714  0.9061 -1.0320
  382MPD2     N 5771   2.243   2.875  17.424  0.5497  0.5664 -0.7440
  382MPD2    H5 5772   2.288   2.787  17.447 -2.8978 -0.4864  1.9553
  382MPD2    N1 5773   2.386   3.330  17.340 -0.3817 -0.3001  0.1943
  382MPD2    H7 5774   2.316   3.328  17.267 -0.4946  0.4044  0.2764
  383TMC3    C1 5775   2.074   2.749  17.322 -0.0031  0.4719 -0.4482
  383TMC3    C2 5776   1.962   2.746  17.250  0.2196  0.7173 -0.1690
  383TMC3    C3 5777   1.911   2.628  17.196  0.1870 -0.6498  0.0537
  383TMC3    C4 5778   2.150   2.635  17.335  0.3748 -0.4665 -0.0215
  383TMC3    C5 5779   2.096   2.514  17.282  0.1542 -0.2188 -1.5360
  383TMC3    C6 5780   1.981   2.510  17.207  0.4871  0.3804 -0.6337
  383TMC3     C 5781   2.126   2.881  17.351  0.9585 -0.3336 -0.4565
  383TMC3     O 5782   2.056   2.978  17.333 -0.4793 -0.3555  0.1971
  383TMC3     H 5783   1.910   2.840  17.235  1.0226  1.3671  1.1396
  383TMC3    H1 5784   2.232   2.634  17.405 -0.0986 -0.2774  0.5408
  383TMC3    H2 5785   1.940   2.415  17.174  2.3664 -0.4777 -0.4996
  383TMC3    C7 5786   2.175   2.396  17.274 -0.0587 -0.2186 -0.2543
  383TMC3    C8 5787   1.791   2.625  17.120 -0.0129  0.4637 -0.2706
  383TMC3    O1 5788   2.125   2.296  17.229 -0.1681 -0.0949 -0.6350
  383TMC3    O2 5789   1.709   2.711  17.139 -1.0065  0.4700  0.2319
  384MPD2     C 5790   3.859   4.641  12.629  0.1787 -0.4247 -0.1049
  384MPD2    C1 5791   3.772   4.556  12.689 -0.5219 -0.0022  0.0755
  384MPD2    C2 5792   3.778   4.419  12.678  0.1794  0.5880 -0.0333
  384MPD2    C3 5793   3.893   4.368  12.623 -0.2188 -0.2547 -0.0859
  384MPD2    C4 5794   3.984   4.454  12.560  0.6387  0.1568 -0.7405
  384MPD2    C5 5795   3.963   4.593  12.560 -0.2599  0.2656  0.0948
  384MPD2     H 5796   3.719   4.357  12.745  1.4223 -1.3211 -0.6938
  384MPD2    H1 5797   4.066   4.407  12.506  1.6066  0.7320  0.2235
  384MPD2    H2 5798   3.849   0.005  12.642  1.1507  0.0082 -2.7736
  384MPD2    H3 5799   4.032   4.659  12.509  2.2621 -3.1328 -0.9421
  384MPD2     N 5800   3.926   4.231  12.641  0.5474 -0.3445  0.5614
  384MPD2    H5 5801   4.026   4.212  12.635  0.4218 -1.0741  0.7800
  384MPD2    N1 5802   3.682   4.624  12.778 -0.9006  0.0230  0.7395
  384MPD2    H7 5803   3.719   4.698  12.837 -1.3592  0.2388  0.7553
  385TMC3    C1 5804   3.940   4.013  12.709  0.2888 -0.2680 -0.3803
  385TMC3    C2 5805   3.878   3.889  12.697 -0.4401 -0.5329 -0.6349
  385TMC3    C3 5806   3.906   3.793  12.786  0.2870 -0.1747  0.3506
  385TMC3    C4 5807   4.027   4.031  12.814 -0.9318 -0.1335  0.0152
  385TMC3    C5 5808   4.052   3.934  12.913 -0.5123  0.2227 -0.0136
  385TMC3    C6 5809   3.989   3.813  12.891  0.0609  0.0993  0.2124
  385TMC3     C 5810   3.853   4.126  12.669  0.3049  0.6563  0.7626
  385TMC3     O 5811   3.733   4.112  12.691  0.4833 -0.0335  0.4971
  385TMC3     H 5812   3.803   3.884  12.619 -1.5721 -0.0739  0.4065
  385TMC3    H1 5813   4.052   4.135  12.835 -0.1897 -0.3648  0.2994
  385TMC3    H2 5814   4.003   3.729  12.958 -2.6035 -0.6522 -0.1752
  385TMC3    C7 5815   4.001   3.993  13.037  0.0217 -0.3788 -0.3653
  385TMC3    C8 5816   3.854   3.659  12.759  0.2395 -0.1425 -0.2859
  385TMC3    O1 5817   4.013   4.119  13.042 -0.0287  0.0515  0.2401
  385TMC3    O2 5818   3.825   3.586  12.858  0.6999  0.9254 -0.3893
  386TMC3    C1 5819   3.974   1.420  11.412 -0.1856 -0.3190 -0.2565
  386TMC3    C2 5820   4.012   1.507  11.312 -0.6888  0.2074 -0.2178
  386TMC3    C3 5821   3.921   1.605  11.279 -0.0280  0.3813  0.3612
  386TMC3    C4 5822   3.857   1.442  11.479  0.5211 -0.3589  0.0832
  386TMC3    C5 5823   3.773   1.542  11.447  0.0189  0.3308  0.1162
  386TMC3    C6 5824   3.799   1.623  11.333 -0.5344 -0.3928  0.4560
  386TMC3     C 5825   4.064   1.324  11.465  0.1852 -0.4287 -0.2373
  386TMC3     O 5826   4.181   1.360  11.470  0.2161 -0.0426 -0.4286
  386TMC3     H 5827   4.104   1.479  11.262 -1.5329 -3.6765  0.3665
  386TMC3    H1 5828   3.825   1.389  11.568  1.8050  0.2570  0.9218
  386TMC3    H2 5829   3.734   1.698  11.289  0.0140  0.2555  0.7489
  386TMC3    C7 5830   3.684   1.593  11.553  0.1175 -0.7780  0.0231
  386TMC3    C8 5831   3.956   1.708  11.178  0.1212  0.2158  0.2162
  386TMC3    O1 5832   3.685   1.545  11.664 -0.2578  0.0133 -0.2707
  386TMC3    O2 5833   3.878   1.799  11.141 -0.4557 -0.4107 -0.4535
  387MPD2     C 5834   1.404   2.409   9.927  0.2678 -0.0547  0.5436
  387MPD2    C1 5835   1.478   2.415  10.045  0.0724 -0.3714  0.0399
  387MPD2    C2 5836   1.474   2.302  10.131  0.4667 -1.1500  0.6038
  387MPD2    C3 5837   1.408   2.188  10.097 -0.2851 -0.5770  1.0015
  387MPD2    C4 5838   1.349   2.173   9.972  0.1348  0.3657 -0.1297
  387MPD2    C5 5839   1.345   2.287   9.897 -0.3053  0.7262  0.7277
  387MPD2     H 5840   1.528   2.307  10.225  0.8877  0.7073  0.2565
  387MPD2    H1 5841   1.300   2.078   9.951  0.7404  0.0908 -0.2960
  387MPD2    H2 5842   1.390   2.494   9.861  0.9877 -0.1698  0.2478
  387MPD2    H3 5843   1.288   2.288   9.804 -0.3027  0.9848  0.7284
  387MPD2     N 5844   1.425   2.085  10.187  0.3755  0.3801  0.3081
  387MPD2    H5 5845   1.479   2.116  10.268  0.7919  0.7754 -0.1197
  387MPD2    N1 5846   1.562   2.520  10.075  0.5042 -0.4744  0.0706
  387MPD2    H7 5847   1.608   2.505  10.165 -2.6947 -0.1812  1.7810
  388TMC3    C1 5848   1.739   2.665  10.043 -0.0966 -0.0538 -0.2774
  388TMC3    C2 5849   1.782   2.789  10.015 -0.6776 -0.5441 -0.6923
  388TMC3    C3 5850   1.903   2.834  10.063  0.1385  0.1904  0.1099
  388TMC3    C4 5851   1.818   2.577  10.110 -0.2267 -0.5860 -0.7320
  388TMC3    C5 5852   1.939   2.620  10.157 -0.1813  0.0427  0.3651
  388TMC3    C6 5853   1.984   2.744  10.134 -0.2983  0.4234  0.4189
  388TMC3     C 5854   1.599   2.629  10.001  0.1735 -0.6976 -0.1796
  388TMC3     O 5855   1.554   2.676   9.896 -1.0893  0.7400  0.3940
  388TMC3     H 5856   1.712   2.844   9.954 -0.7459  0.1011 -0.0322
  388TMC3    H1 5857   1.799   2.471  10.113 -1.1954 -0.3455  1.2387
  388TMC3    H2 5858   2.086   2.771  10.161 -0.1347  0.3149 -0.0886
  388TMC3    C7 5859   2.027   2.524  10.236 -0.0517  0.2508 -1.1297
  388TMC3    C8 5860   1.946   2.965  10.037 -0.4140 -0.5117 -0.6282
  388TMC3    O1 5861   2.146   2.545  10.228  0.1989  0.0733 -0.9576
  388TMC3    O2 5862   2.017   3.007  10.128  0.1537 -0.0430 -0.0169
  389MPD2     C 5863   1.436   0.104  11.723  0.6299  0.1705 -0.3271
  389MPD2    C1 5864   1.303   0.110  11.707 -0.4892 -0.0158 -0.1314
  389MPD2    C2 5865   1.226   0.061  11.811  0.1284 -0.2943 -0.8138
  389MPD2    C3 5866   1.285   0.016  11.926 -0.0577  0.4447 -0.2263
  389MPD2    C4 5867   1.421   4.743  11.928  0.6345 -0.4240  0.0376
  389MPD2    C5 5868   1.492   0.045  11.822  0.1881 -0.1430 -0.6113
  389MPD2     H 5869   1.119   0.071  11.797  0.2433  2.2320  0.1002
  389MPD2    H1 5870   1.475   4.696  12.010  1.5731 -1.5255 -1.1958
  389MPD2    H2 5871   1.505   0.124  11.641  0.9708 -0.6787 -0.2467
  389MPD2    H3 5872   1.600   0.030  11.823  0.4551  1.6929 -1.3041
  389MPD2     N 5873   1.204   4.697  12.027  0.3803  0.2733  0.2880
  389MPD2    H5 5874   1.246   4.625  12.085 -0.2221 -0.1248  0.2352
  389MPD2    N1 5875   1.250   0.153  11.584  0.6389 -0.0112  0.0657
  389MPD2    H7 5876   1.313   0.172  11.507  0.5290 -0.2143 -0.0751
  390TMC3    C1 5877   1.008   4.695  12.148  0.2773 -0.5481 -0.6238
  390TMC3    C2 5878   0.998   4.562  12.125  1.0008  1.1017  0.0341
  390TMC3    C3 5879   0.924   4.490  12.209 -0.7199 -0.0662 -0.8243
  390TMC3    C4 5880   0.921   0.017  12.227 -0.0457  0.4776  0.8710
  390TMC3    C5 5881   0.844   4.684  12.310 -0.0662  0.4530  0.7598
  390TMC3    C6 5882   0.855   4.551  12.309  0.0633 -0.7934 -0.6340
  390TMC3     C 5883   1.089   0.019  12.059 -0.4060 -0.2365 -0.5547
  390TMC3     O 5884   1.054   0.130  12.034 -0.1937  0.0067  0.0336
  390TMC3     H 5885   1.064   4.511  12.056  0.3602 -1.0825  1.0345
  390TMC3    H1 5886   0.903   0.124  12.224  3.2133  0.9805 -1.3933
  390TMC3    H2 5887   0.786   4.500  12.374  3.3495 -1.9929  1.9176
  390TMC3    C7 5888   0.701   4.714  12.291  0.4534  0.3223  0.2769
  390TMC3    C8 5889   0.853   4.388  12.139  0.0733 -0.0878 -0.3272
  390TMC3    O1 5890   0.619   4.674  12.373  0.1685 -0.2288  0.4212
  390TMC3    O2 5891   0.870   4.384  12.018 -0.3886  0.7327 -0.1186
  391MPD2     C 5892   0.896   1.758  10.884 -0.2319  0.6343 -0.4870
  391MPD2    C1 5893   0.874   1.880  10.935 -0.5413  0.1917  0.3056
  391MPD2    C2 5894   0.829   1.979  10.844  0.3257  0.4269  0.6641
  391MPD2    C3 5895   0.767   1.939  10.728  0.1384  0.1640  0.0780
  391MPD2    C4 5896   0.770   1.803  10.693 -0.2260  0.1526  0.0775
  391MPD2    C5 5897   0.848   1.720  10.761  0.2786 -0.3804  0.1633
  391MPD2     H 5898   0.826   2.085  10.868 -1.3673  0.9961 -2.0905
  391MPD2    H1 5899   0.736   1.780  10.592  0.0896 -1.6220  0.3734
  391MPD2    H2 5900   0.949   1.686  10.945 -1.4612  1.7730  1.9016
  391MPD2    H3 5901   0.900   1.631  10.730  0.3054  0.5895 -2.5396
  391MPD2     N 5902   0.710   2.036  10.638 -0.5998  0.4337  0.3012
  391MPD2    H5 5903   0.719   2.135  10.659 -1.1884  0.3993  0.7154
  391MPD2    N1 5904   0.922   1.897  11.071 -0.0467  0.1584  0.1954
  391MPD2    H7 5905   0.931   1.815  11.130  1.3537  0.0455 -0.1730
  392TMC3    C1 5906   0.623   2.123  10.446 -0.1594 -0.6337 -0.1040
  392TMC3    C2 5907   0.517   2.130  10.358  0.1777 -0.4116 -0.4167
  392TMC3    C3 5908   0.497   2.248  10.282 -0.5269 -0.2679  0.5565
  392TMC3    C4 5909   0.718   2.222  10.443 -0.2259 -0.1731  0.2996
  392TMC3    C5 5910   0.701   2.331  10.364  0.9224 -0.0657  0.4325
  392TMC3    C6 5911   0.585   2.353  10.292 -0.4039 -0.4492 -0.1236
  392TMC3     C 5912   0.634   2.003  10.525  0.0668  0.0354 -0.4743
  392TMC3     O 5913   0.558   1.907  10.502 -0.1911  0.6339 -0.0760
  392TMC3     H 5914   0.447   2.051  10.335  0.8533 -1.5423  1.5100
  392TMC3    H1 5915   0.813   2.213  10.493  0.0363  1.2181  0.0657
  392TMC3    H2 5916   0.560   2.446  10.243 -0.1939 -0.2887  0.0693
  392TMC3    C7 5917   0.774   2.450  10.405 -1.0596  0.4801  0.0773
  392TMC3    C8 5918   0.362   2.259  10.221 -0.3514 -0.2598  0.3130
  392TMC3    O1 5919   0.826   2.440  10.518 -0.5846  0.2520 -0.3809
  392TMC3    O2 5920   0.294   2.150  10.211  0.4093  0.3726 -0.5510
  393TMC3    C1 5921   3.538   4.685  10.850 -0.9044 -0.4586  0.2778
  393TMC3    C2 5922   3.432   4.616  10.793  0.4619 -0.2518 -0.4610
  393TMC3    C3 5923   3.388   4.502  10.862  0.3654 -0.3676 -0.4263
  393TMC3    C4 5924   3.588   4.657  10.971  0.1363 -0.2412  0.7861
  393TMC3    C5 5925   3.527   4.555  11.038 -0.2973 -0.5841  0.4903
  393TMC3    C6 5926   3.431   4.475  10.986 -0.3576 -0.6444 -0.0598
  393TMC3     C 5927   3.579   0.068  10.778 -0.3319  0.4392 -0.8161
  393TMC3     O 5928   3.671   0.125  10.835 -0.0059 -0.1371 -0.0372
  393TMC3     H 5929   3.387   4.637  10.697  0.4242 -0.7574 -0.5556
  393TMC3    H1 5930   3.654   4.724  11.025 -0.1740 -0.6677  1.6936
  393TMC3    H2 5931   3.413   4.377  11.029 -2.1836  0.4652  1.7320
  393TMC3    C7 5932   3.582   4.514  11.173  0.1050 -0.4071  0.3811
  393TMC3    C8 5933   3.357   4.396  10.766  0.2760 -0.3485 -0.6098
  393TMC3    O1 5934   3.516   4.429  11.235  0.0278  0.0079  0.0483
  393TMC3    O2 5935   3.398   4.416  10.654  0.0729 -0.1046 -0.5954
  394TMC3    C1 5936   1.096   0.213  11.413 -0.2152  0.3361  0.1749
  394TMC3    C2 5937   1.013   0.141  11.334  0.0274 -0.4929 -0.7848
  394TMC3    C3 5938   1.016   0.162  11.200  0.0280  0.0981 -0.5879
  394TMC3    C4 5939   1.196   0.299  11.365 -0.1562  0.7085  0.1176
  394TMC3    C5 5940   1.211   0.310  11.228 -0.2968  0.5339  0.4433
  394TMC3    C6 5941   1.113   0.255  11.150 -0.1941 -0.3924 -0.3987
  394TMC3     C 5942   1.122   0.150  11.545 -0.2232  0.1846 -0.1401
  394TMC3     O 5943   1.017   0.129  11.606 -0.1117 -0.0621 -0.0058
  394TMC3     H 5944   0.943   0.070  11.376  0.2721 -0.9402 -1.1368
  394TMC3    H1 5945   1.266   0.355  11.426 -0.8073  1.0456  0.5512
  394TMC3    H2 5946   1.110   0.287  11.047 -0.9013  1.4607  0.2050
  394TMC3    C7 5947   1.271   0.427  11.167  0.1632  0.5491  0.1074
  394TMC3    C8 5948   0.894   0.132  11.127 -0.1140  0.2769 -0.0773
  394TMC3    O1 5949   1.210   0.475  11.072 -0.1232  0.2994 -0.0578
  394TMC3    O2 5950   0.805   0.076  11.189  0.2428 -0.3034 -0.2725
  395TMC3    C1 5951   0.752   2.240  15.123 -0.8118  0.6076 -0.0328
  395TMC3    C2 5952   0.694   2.178  15.019  0.0132  0.6363 -0.4199
  395TMC3    C3 5953   0.754   2.199  14.896 -0.2920 -0.4811  0.3519
  395TMC3    C4 5954   0.870   2.309  15.111  0.3811  0.0274  0.5350
  395TMC3    C5 5955   0.940   2.319  14.993 -0.4250 -0.1201  0.6340
  395TMC3    C6 5956   0.881   2.260  14.883  0.4030  0.2736 -0.7282
  395TMC3     C 5957   0.673   2.230  15.244  0.0928 -0.1976  0.1535
  395TMC3     O 5958   0.661   2.332  15.311  0.4734  0.4288  0.9536
  395TMC3     H 5959   0.588   2.158  15.028  0.0688  1.5913  2.2239
  395TMC3    H1 5960   0.918   2.351  15.198 -0.7785  0.6935  0.8516
  395TMC3    H2 5961   0.926   2.261  14.784 -1.8196  0.4413 -1.7286
  395TMC3    C7 5962   1.057   2.399  14.986 -0.0232 -0.2615 -0.2255
  395TMC3    C8 5963   0.685   2.158  14.773 -0.3913  0.4040  0.1512
  395TMC3    O1 5964   1.091   2.459  15.089 -0.3346  0.3201 -0.0657
  395TMC3    O2 5965   0.745   2.184  14.671 -0.1959 -0.0141 -0.1095
  396MPD2     C 5966   4.411   3.611  16.883 -0.0848 -0.3620  0.1528
  396MPD2    C1 5967   4.516   3.528  16.870 -0.4698 -0.1697  0.3574
  396MPD2    C2 5968   4.640   3.574  16.821 -0.1908 -0.6389 -1.0752
  396MPD2    C3 5969   4.658   3.709  16.775 -0.4544 -0.1427 -0.6308
  396MPD2    C4 5970   4.549   3.796  16.803  0.2110  0.1066  0.6584
  396MPD2    C5 5971   4.433   3.744  16.853 -0.4107 -0.2713  0.3285
  396MPD2     H 5972   4.722   3.504  16.814  0.0756 -0.5354  1.0939
  396MPD2    H1 5973   4.555   3.902  16.781 -0.3151  0.0793  0.3726
  396MPD2    H2 5974   4.311   3.583  16.913 -0.0223  1.4234  2.0166
  396MPD2    H3 5975   4.354   3.813  16.879  0.9516  2.1779 -2.0576
  396MPD2     N 5976   0.039   3.758  16.736 -0.5898  0.3934 -0.0207
  396MPD2    H5 5977   0.118   3.695  16.737 -2.5042 -2.0290  0.2139
  396MPD2    N1 5978   4.492   3.395  16.906  0.1904  0.0029 -0.1834
  396MPD2    H7 5979   4.408   3.378  16.960 -0.1603 -0.7121 -0.9518
  397TMC3    C1 5980   4.547   3.171  16.945 -0.3084  0.0317 -0.0781
  397TMC3    C2 5981   4.618   3.068  16.904 -0.1678  0.4872 -0.2630
  397TMC3    C3 5982   4.678   2.983  16.988 -0.2062  0.3734  0.8009
  397TMC3    C4 5983   4.516   3.184  17.074  0.4321 -0.3866  0.3181
  397TMC3    C5 5984   4.580   3.100  17.166 -0.1188  0.3216 -0.2681
  397TMC3    C6 5985   4.667   2.999  17.126  0.5678  0.0776 -0.3171
  397TMC3     C 5986   4.576   3.293  16.876  0.8711  1.1637  0.9733
  397TMC3     O 5987   4.671   3.294  16.800  0.6289 -0.2125 -0.5209
  397TMC3     H 5988   4.643   3.078  16.799 -0.4100 -3.9188 -0.7237
  397TMC3    H1 5989   4.453   3.260  17.117 -0.5580  0.4062 -2.5370
  397TMC3    H2 5990   4.709   2.933  17.201 -0.7288  1.0554  1.2646
  397TMC3    C7 5991   4.497   3.068  17.285 -0.3507 -0.4877 -0.0064
  397TMC3    C8 5992   0.062   2.935  16.942 -0.3646 -0.4580  0.2307
  397TMC3    O1 5993   4.388   3.120  17.304 -0.2574  0.0385  0.5753
  397TMC3    O2 5994   0.079   2.906  16.822  0.2982 -0.3733  0.1692
  398MPD2     C 5995   3.388   4.729  17.749 -0.7606  0.5717  0.1087
  398MPD2    C1 5996   3.458   4.651   0.064  0.0210 -0.4585  0.8380
  398MPD2    C2 5997   3.553   4.717   0.135 -0.6881 -1.0300  0.6363
  398MPD2    C3 5998   3.576   0.109   0.135  0.0848 -0.9505  0.9171
  398MPD2    C4 5999   3.498   0.186   0.059 -0.4032 -0.3473  0.0138
  398MPD2    C5 6000   3.410   0.122  17.748  0.2084 -0.2156  0.2272
  398MPD2     H 6001   3.610   4.654   0.203 -0.6129 -0.0734  1.4563
  398MPD2    H1 6002   3.492   0.294   0.059  1.5782 -0.2381  2.4842
  398MPD2    H2 6003   3.313   4.690  17.682 -0.3678 -0.3261  0.2010
  398MPD2    H3 6004   3.331   0.179  17.700 -0.7136 -0.9009  0.9233
  398MPD2     N 6005   3.665   0.167   0.224  0.8005 -0.0212  0.6792
  398MPD2    H5 6006   3.713   0.095   0.277 -0.8482 -0.8632  1.0006
  398MPD2    N1 6007   3.442   4.508   0.080 -0.5746  0.3493  0.7285
  398MPD2    H7 6008   3.496   4.469   0.157  2.0545  0.7090 -0.9344
  399TMC3    C1 6009   3.330   4.304   0.072  0.0896 -0.2885  0.8604
  399TMC3    C2 6010   3.453   4.251   0.101 -0.2105 -0.1645  0.0240
  399TMC3    C3 6011   3.440   4.115   0.137  0.9109  0.2714 -1.0398
  399TMC3    C4 6012   3.211   4.236   0.045 -0.5671 -0.2054  0.9573
  399TMC3    C5 6013   3.223   4.094   0.059 -0.1539 -0.1238  0.1774
  399TMC3    C6 6014   3.334   4.033   0.105 -0.8088 -0.3797 -0.0855
  399TMC3     C 6015   3.335   4.441   0.019 -0.3743  0.5163  0.2140
  399TMC3     O 6016   3.244   4.470  17.714  0.5184  0.6377  0.2228
  399TMC3     H 6017   3.549   4.300   0.100 -1.0244  1.4331 -0.3553
  399TMC3    H1 6018   3.115   4.285   0.035  0.3436  1.5560  0.8905
  399TMC3    H2 6019   3.327   3.925   0.106 -1.4027 -0.3358  0.2852
  399TMC3    C7 6020   3.105   4.012   0.016  0.0154 -0.1418  0.1416
  399TMC3    C8 6021   3.557   4.054   0.202 -0.3400  0.2982  0.0238
  399TMC3    O1 6022   3.107   3.895   0.042  0.3055  0.4604 -0.3963
  399TMC3    O2 6023   3.653   4.127   0.216  0.2867 -0.2397 -0.6236
  400TMC3    C1 6024   1.843   2.926  16.852  0.2558  0.3085 -0.4457
  400TMC3    C2 6025   1.737   2.864  16.792 -0.8133 -0.5284  0.0418
  400TMC3    C3 6026   1.648   2.935  16.713 -0.1958  0.3313  0.3359
  400TMC3    C4 6027   1.874   3.055  16.826 -0.4308 -0.0597 -0.4339
  400TMC3    C5 6028   1.784   3.126  16.752  0.2042 -0.8614  0.1000
  400TMC3    C6 6029   1.665   3.071  16.697 -0.5470 -0.3879  0.0711
  400TMC3     C 6030   1.958   2.838  16.876 -0.1025  0.3905  0.8954
  400TMC3     O 6031   1.958   2.732  16.822  0.7219 -0.0123  0.3091
  400TMC3     H 6032   1.723   2.760  16.817 -0.8466 -0.8270 -1.2159
  400TMC3    H1 6033   1.971   3.097  16.849 -0.4729 -0.7738  1.1155
  400TMC3    H2 6034   1.608   3.135  16.631 -1.1899 -1.3680 -0.3259
  400TMC3    C7 6035   1.776   3.269  16.773 -0.1341  0.2063  0.0323
  400TMC3    C8 6036   1.527   2.875  16.667  0.4631  0.8479 -0.6349
  400TMC3    O1 6037   1.717   3.334  16.687 -0.1726 -0.2589 -0.3942
  400TMC3    O2 6038   1.432   2.951  16.664  0.5296  0.4629  0.8254
  401MPD2     C 6039   4.592   1.570   0.331  0.4956 -0.1199  0.1809
  401MPD2    C1 6040   4.692   1.549   0.423 -0.5824 -0.4153  0.4091
  401MPD2    C2 6041   0.039   1.442   0.404 -0.1604  0.0086 -0.0784
  401MPD2    C3 6042   0.029   1.363   0.293 -0.9286 -0.2985  0.4362
  401MPD2    C4 6043   4.678   1.392   0.196 -0.0022 -0.2406 -0.0738
  401MPD2    C5 6044   4.587   1.499   0.221  0.1219 -0.1119 -0.0176
  401MPD2     H 6045   0.116   1.430   0.478  0.5294  3.4843 -0.2054
  401MPD2    H1 6046   4.666   1.333   0.105  0.3991 -0.6358  0.1337
  401MPD2    H2 6047   4.514   1.644   0.345 -0.1739 -0.8761  0.4244
  401MPD2    H3 6048   4.503   1.513   0.153 -0.2450 -1.4030  0.1794
  401MPD2     N 6049   0.124   1.261   0.277 -0.6805 -0.1643  0.0972
  401MPD2    H5 6050   0.182   1.234   0.356 -0.3098 -4.0407 -1.5144
  401MPD2    N1 6051   4.712   1.634   0.531 -0.3995  0.4056 -0.0275
  401MPD2    H7 6052   0.042   1.612   0.597 -1.6147  0.3027  1.2902
  402TMC3    C1 6053   0.227   1.064   0.177  0.3197 -0.1450  1.1439
  402TMC3    C2 6054   0.314   1.042   0.277  0.4207  0.0769 -0.6111
  402TMC3    C3 6055   0.372   0.916   0.289 -0.2293 -0.2071 -0.1639
  402TMC3    C4 6056   0.193   0.966   0.084  0.6337  0.1649  0.3453
  402TMC3    C5 6057   0.241   0.837   0.106  0.1222  0.2183  0.5332
  402TMC3    C6 6058   0.335   0.814   0.200 -0.3897 -0.2777  0.0482
  402TMC3     C 6059   0.144   1.182   0.162 -0.1988  0.4850 -0.6009
  402TMC3     O 6060   0.112   1.206   0.046 -0.0248 -0.2246  0.1825
  402TMC3     H 6061   0.336   1.118   0.351  1.1805  0.5132 -1.2752
  402TMC3    H1 6062   0.124   0.986   0.003  2.1858  3.8567 -0.0586
  402TMC3    H2 6063   0.392   0.722   0.208  0.6711  0.3081 -0.8351
  402TMC3    C7 6064   0.227   0.743  17.772  0.1849  0.9626 -0.6357
  402TMC3    C8 6065   0.400   0.858   0.420  0.5254 -0.8805 -0.7829
  402TMC3    O1 6066   0.171   0.790  17.671  0.0071  0.2990  0.2901
  402TMC3    O2 6067   0.404   0.736   0.435  0.0891  0.9393 -0.8919
  403MPD2     C 6068   2.805   4.419  13.636 -0.2087  0.4300 -0.4381
  403MPD2    C1 6069   2.901   4.323  13.643  0.0292  0.0447 -0.0601
  403MPD2    C2 6070   3.000   4.339  13.741 -0.2749  0.5991  0.2862
  403MPD2    C3 6071   2.996   4.451  13.821  0.8354 -0.0187 -0.5080
  403MPD2    C4 6072   2.896   4.543  13.812 -0.3130 -0.0177 -0.0151
  403MPD2    C5 6073   2.798   4.526  13.723 -0.2834  0.4543 -0.3412
  403MPD2     H 6074   3.080   4.266  13.748 -1.1831 -0.7647 -3.6639
  403MPD2    H1 6075   2.894   4.636  13.868 -0.8020  0.4833 -0.8527
  403MPD2    H2 6076   2.725   4.411  13.563 -2.0813  1.2190  1.5199
  403MPD2    H3 6077   2.730   4.610  13.715  0.2462  1.1621  2.5640
  403MPD2     N 6078   3.104   4.469  13.912 -0.3707 -0.9303 -0.1710
  403MPD2    H5 6079   3.181   4.403  13.906  1.1949  0.8047  0.8201
  403MPD2    N1 6080   2.896   4.210  13.560 -0.9440 -0.0371  0.0567
  403MPD2    H7 6081   2.831   4.214  13.482 -1.7889 -3.3114  0.5885
  404TMC3    C1 6082   2.916   3.985  13.484 -0.0625  0.3321  0.1191
  404TMC3    C2 6083   2.940   3.860  13.528 -0.5998 -0.9037 -0.2593
  404TMC3    C3 6084   2.961   3.764  13.433  0.0806 -0.9309 -0.4926
  404TMC3    C4 6085   2.914   4.016  13.353  0.1407 -0.3238 -0.2595
  404TMC3    C5 6086   2.958   3.929  13.260 -0.3027  0.5134 -0.2859
  404TMC3    C6 6087   2.977   3.798  13.303  0.5003  0.0270 -0.3586
  404TMC3     C 6088   2.963   4.087  13.577  0.3295 -0.2386  0.2058
  404TMC3     O 6089   3.039   4.060  13.668  0.0504 -0.5030  0.0250
  404TMC3     H 6090   2.962   3.844  13.633 -0.4379 -1.5831 -0.3982
  404TMC3    H1 6091   2.897   4.117  13.315  0.1928  0.5364  1.9891
  404TMC3    H2 6092   3.013   3.719  13.239  0.7960 -0.1774  0.0608
  404TMC3    C7 6093   3.032   3.981  13.146  0.6631  0.0638  0.2802
  404TMC3    C8 6094   3.045   3.655  13.474  0.8803  0.0134 -0.7754
  404TMC3    O1 6095   3.084   4.090  13.172  0.0975  0.4867  0.3628
  404TMC3    O2 6096   3.137   3.626  13.404  0.0820  0.4522  0.7854
  405MPD2     C 6097   3.747   0.272  14.967 -0.1458 -0.1368 -0.4300
  405MPD2    C1 6098   3.691   0.202  14.854  0.3837  0.2677 -0.4756
  405MPD2    C2 6099   3.564   0.225  14.822  0.3159  0.3399 -0.4444
  405MPD2    C3 6100   3.491   0.326  14.880  0.4627  0.4218  0.6448
  405MPD2    C4 6101   3.542   0.405  14.980  0.0192 -0.3760 -0.3439
  405MPD2    C5 6102   3.674   0.371  15.020 -0.1624 -0.5478 -0.5891
  405MPD2     H 6103   3.509   0.162  14.754  0.3413  0.2713 -0.4015
  405MPD2    H1 6104   3.492   0.493  15.018 -0.0067 -0.6048  0.1460
  405MPD2    H2 6105   3.842   0.250  15.013 -1.6033 -0.3464  2.5064
  405MPD2    H3 6106   3.727   0.430  15.094  0.7970 -2.0507 -0.0714
  405MPD2     N 6107   3.365   0.346  14.823  0.0737  0.0463  0.2335
  405MPD2    H5 6108   3.341   0.288  14.743 -1.4316 -1.8293  2.0310
  405MPD2    N1 6109   3.771   0.099  14.804  0.2188  0.6604  0.0172
  405MPD2    H7 6110   3.868   0.076  14.822  0.5051  1.1793 -0.8615
  406TMC3    C1 6111   2.934   0.467  14.739  0.3637  0.3335  0.1454
  406TMC3    C2 6112   2.916   0.340  14.699 -0.0920  0.2486 -0.3698
  406TMC3    C3 6113   3.005   0.241  14.726 -0.2543  0.3174 -0.3901
  406TMC3    C4 6114   3.044   0.497  14.811 -0.4922  0.4845 -0.5522
  406TMC3    C5 6115   3.139   0.403  14.825 -0.0685 -0.2068 -0.1376
  406TMC3    C6 6116   3.116   0.273  14.796  0.3406  0.0842 -0.7334
  406TMC3     C 6117   2.831   0.567  14.714  0.9547  0.2394  0.9939
  406TMC3     O 6118   2.814   0.656  14.792  0.1498  0.4151 -0.6132
  406TMC3     H 6119   2.816   0.311  14.670  0.0146 -1.3159  0.8145
  406TMC3    H1 6120   3.075   0.597  14.840 -0.1467  0.6125 -1.3751
  406TMC3    H2 6121   3.183   0.193  14.826 -0.0474  0.0646  0.1135
  406TMC3    C7 6122   3.271   0.427  14.882 -0.0899 -0.5503 -0.0784
  406TMC3    C8 6123   3.001   0.106  14.659  0.6286  0.3316  0.0395
  406TMC3    O1 6124   3.281   0.518  14.964  0.1622  0.0191 -0.0477
  406TMC3    O2 6125   2.893   0.052  14.635 -0.3105 -0.1262  0.1529
  407MPD2     C 6126   1.017   1.732  10.321 -0.3091  0.8601 -0.2853
  407MPD2    C1 6127   1.060   1.801  10.205 -0.0846  0.4103 -0.1089
  407MPD2    C2 6128   1.079   1.938  10.221 -0.3285 -0.7590  0.1923
  407MPD2    C3 6129   1.063   2.002  10.345 -0.5126 -0.0261  0.3185
  407MPD2    C4 6130   1.003   1.933  10.446 -0.3640 -0.0077  0.3876
  407MPD2    C5 6131   0.979   1.798  10.432 -0.2477  0.0309 -0.3055
  407MPD2     H 6132   1.127   1.985  10.136 -1.0693  1.2295  0.8770
  407MPD2    H1 6133   0.970   1.982  10.536 -1.5900  0.1593 -0.1597
  407MPD2    H2 6134   1.000   1.625  10.325 -1.1660  0.9694 -0.7823
  407MPD2    H3 6135   0.938   1.744  10.516  0.3861  0.5430  0.3442
  407MPD2     N 6136   1.089   2.140  10.351 -0.7129 -0.2284 -0.0656
  407MPD2    H5 6137   1.108   2.189  10.264  2.5721 -0.6128  0.4313
  407MPD2    N1 6138   1.090   1.743  10.075 -0.3628  0.0325  0.2647
  407MPD2    H7 6139   1.117   1.807  10.001  3.0946  0.8582  2.2685
  408TMC3    C1 6140   1.149   1.568   9.929 -1.0375 -0.0512 -0.1914
  408TMC3    C2 6141   1.284   1.610   9.927 -0.1468  1.0617  0.3378
  408TMC3    C3 6142   1.377   1.523   9.884 -0.1632 -0.0443  0.0876
  408TMC3    C4 6143   1.125   1.430   9.901  0.0468 -0.4839  0.1835
  408TMC3    C5 6144   1.221   1.343   9.876  0.7177 -0.5034  0.8195
  408TMC3    C6 6145   1.350   1.390   9.861 -0.8571  0.2365  0.3897
  408TMC3     C 6146   1.083   1.608  10.053  0.0164  0.6797 -0.4465
  408TMC3     O 6147   1.050   1.513  10.122 -0.0374 -0.0667 -0.1589
  408TMC3     H 6148   1.312   1.708   9.965  2.5289  0.5761 -0.4096
  408TMC3    H1 6149   1.024   1.393   9.917  0.0809 -1.6528 -2.3410
  408TMC3    H2 6150   1.428   1.322   9.829 -1.2488 -0.1706  0.3032
  408TMC3    C7 6151   1.213   1.210   9.920 -0.4506 -0.6687  0.4048
  408TMC3    C8 6152   1.512   1.572   9.892 -0.2084 -0.2111  0.3957
  408TMC3    O1 6153   1.286   1.129   9.864  0.3462 -0.5036 -0.5100
  408TMC3    O2 6154   1.605   1.489   9.907 -0.1541 -0.1664 -0.0877
  409MPD2     C 6155   0.357   2.342  17.265  0.5667  0.2128 -0.7665
  409MPD2    C1 6156   0.477   2.294  17.287 -0.6151  0.1728  0.3525
  409MPD2    C2 6157   0.588   2.337  17.224  0.2168  0.1782  0.6707
  409MPD2    C3 6158   0.571   2.434  17.127  0.4613 -0.1813  0.4089
  409MPD2    C4 6159   0.451   2.488  17.096  0.3661 -0.1928  0.4535
  409MPD2    C5 6160   0.340   2.448  17.173  0.0541  0.2813  0.1589
  409MPD2     H 6161   0.680   2.285  17.251 -0.2718 -1.0814 -0.0968
  409MPD2    H1 6162   0.447   2.565  17.020  0.9185 -0.4771  0.1359
  409MPD2    H2 6163   0.272   2.304  17.321  0.4954  1.4898 -0.0102
  409MPD2    H3 6164   0.239   2.477  17.149 -1.0266 -1.9385  2.0716
  409MPD2     N 6165   0.683   2.484  17.049 -0.0596  0.5880  0.1275
  409MPD2    H5 6166   0.666   2.543  16.968 -1.4196  1.1283  0.8121
  409MPD2    N1 6167   0.508   2.199  17.380  0.0374 -0.3188 -0.4334
  409MPD2    H7 6168   0.608   2.182  17.391 -0.1943 -1.5358 -0.1124
  410TMC3    C1 6169   0.909   2.518  16.997  0.5011  0.0949  0.6371
  410TMC3    C2 6170   1.039   2.528  17.044 -0.1883 -0.0575 -0.2677
  410TMC3    C3 6171   1.112   2.635  17.004  0.2341 -0.7345 -0.1356
  410TMC3    C4 6172   0.861   2.605  16.901  0.2725  0.1921 -0.6922
  410TMC3    C5 6173   0.946   2.710  16.855  0.1996 -1.2891  0.5072
  410TMC3    C6 6174   1.075   2.727  16.904  0.1066 -1.3551 -0.2173
  410TMC3     C 6175   0.812   2.439  17.077 -0.5721  0.2145  0.4066
  410TMC3     O 6176   0.861   2.369  17.163  0.2387 -0.1815 -0.5310
  410TMC3     H 6177   1.074   2.441  17.099 -0.6485  0.2398  0.4960
  410TMC3    H1 6178   0.764   2.585  16.857  0.5901 -1.9331 -0.4250
  410TMC3    H2 6179   1.152   2.789  16.860  0.4833  0.6538  3.2578
  410TMC3    C7 6180   0.895   2.774  16.738  0.1341 -0.6187  0.3791
  410TMC3    C8 6181   1.261   2.632  17.011 -0.6340 -0.0361  0.1143
  410TMC3    O1 6182   0.786   2.734  16.691  0.3377  0.1694  0.2919
  410TMC3    O2 6183   1.324   2.732  17.036 -0.2153  0.1285  0.5849
  411MPD2     C 6184   1.099   2.711  14.431  0.5511 -0.3166 -0.0305
  411MPD2    C1 6185   1.108   2.792  14.544  0.4130 -0.0040  0.6666
  411MPD2    C2 6186   1.022   2.767  14.648 -0.1066  0.0523  0.2701
  411MPD2    C3 6187   0.930   2.667  14.646 -0.0988  0.0944  0.9552
  411MPD2    C4 6188   0.922   2.588  14.527  0.2157  0.1006 -0.2713
  411MPD2    C5 6189   1.005   2.613  14.419  0.2970 -0.5062  0.3631
  411MPD2     H 6190   1.015   2.835  14.733 -0.4656  1.7513 -1.1126
  411MPD2    H1 6191   0.853   2.504  14.522  1.1926 -0.6902 -0.7196
  411MPD2    H2 6192   1.162   2.735  14.346 -1.1834 -1.8599 -1.7451
  411MPD2    H3 6193   1.006   2.566  14.321  1.7555 -0.0771  0.1720
  411MPD2     N 6194   0.834   2.644  14.747  1.0367  0.0326 -0.4480
  411MPD2    H5 6195   0.752   2.586  14.730 -0.5180  1.5319  1.8741
  411MPD2    N1 6196   1.209   2.892  14.556  0.3484 -0.2606 -0.5604
  411MPD2    H7 6197   1.273   2.906  14.478  1.2752  0.7365  0.3925
  412TMC3    C1 6198   0.712   2.677  14.948 -0.2338 -0.8470  1.0600
  412TMC3    C2 6199   0.648   2.794  14.981 -0.4842 -0.1411  0.5412
  412TMC3    C3 6200   0.519   2.790  15.007  0.5652 -0.8080 -0.3227
  412TMC3    C4 6201   0.639   2.556  14.939 -0.2956 -0.3316  0.2674
  412TMC3    C5 6202   0.511   2.567  14.976  0.2709 -0.2596 -0.5261
  412TMC3    C6 6203   0.454   2.676  15.027  0.4041 -0.5149  0.1902
  412TMC3     C 6204   0.834   2.707  14.865 -0.9589  0.3568  0.5449
  412TMC3     O 6205   0.914   2.783  14.921  0.4669  0.0959  0.2967
  412TMC3     H 6206   0.709   2.884  14.973 -0.7243 -0.0313 -0.0935
  412TMC3    H1 6207   0.677   2.458  14.913 -0.7655 -0.2461 -0.7360
  412TMC3    H2 6208   0.348   2.673  15.050  0.4086 -1.6572  0.0678
  412TMC3    C7 6209   0.431   2.464  14.916 -0.4381 -0.5001  0.0768
  412TMC3    C8 6210   0.438   2.874  14.917  0.9961 -0.9525  0.5143
  412TMC3    O1 6211   0.474   2.348  14.911 -0.2315  0.2389  0.5189
  412TMC3    O2 6212   0.332   2.823  14.874 -0.0360  0.2694  0.6051
  413MPD2     C 6213   2.536   1.041  16.018 -0.1485 -1.0700 -0.4100
  413MPD2    C1 6214   2.510   1.060  15.889 -0.2850 -0.6496 -0.4265
  413MPD2    C2 6215   2.607   1.026  15.796 -0.1017  0.4521  0.2281
  413MPD2    C3 6216   2.729   0.970  15.839  0.3872  0.0626 -0.7261
  413MPD2    C4 6217   2.754   0.958  15.974  0.3255 -0.0659 -0.2994
  413MPD2    C5 6218   2.661   1.006  16.067 -0.2469 -0.8387  0.2696
  413MPD2     H 6219   2.591   1.040  15.689  0.1410 -1.5768 -0.0727
  413MPD2    H1 6220   2.844   0.916  16.016  0.7822 -0.4239 -1.6230
  413MPD2    H2 6221   2.472   1.076  16.098  0.2883  1.4689 -1.1645
  413MPD2    H3 6222   2.671   1.011  16.175  0.5134  1.7693  0.0796
  413MPD2     N 6223   2.826   0.923  15.746  0.1546  0.1923  0.2429
  413MPD2    H5 6224   2.809   0.949  15.649  1.8239  0.8784  0.1450
  413MPD2    N1 6225   2.389   1.108  15.848 -0.6051  0.3938  0.2376
  413MPD2    H7 6226   2.315   1.094  15.916 -1.3935  2.3551 -0.2336
  414TMC3    C1 6227   2.988   0.781  15.649 -0.3038 -0.4141  0.5259
  414TMC3    C2 6228   3.088   0.686  15.662 -0.1531 -0.2554 -0.0734
  414TMC3    C3 6229   3.144   0.644  15.543 -0.3476  0.2297 -0.0408
  414TMC3    C4 6230   2.957   0.843  15.532  0.3073 -0.7635 -0.0797
  414TMC3    C5 6231   3.017   0.795  15.420 -0.1699  0.0979 -0.2186
  414TMC3    C6 6232   3.102   0.684  15.427  0.3702 -0.0257  0.3579
  414TMC3     C 6233   2.935   0.838  15.769  0.2030  0.5887 -0.1631
  414TMC3     O 6234   2.978   0.797  15.877  0.1031 -0.3438 -0.0281
  414TMC3     H 6235   3.127   0.666  15.762  0.0320 -2.4639 -0.5762
  414TMC3    H1 6236   2.905   0.937  15.537 -1.1875 -1.6752  1.8476
  414TMC3    H2 6237   3.169   0.669  15.343 -0.1080  0.1819 -0.0685
  414TMC3    C7 6238   3.045   0.891  15.318  0.3773  0.4568 -0.1065
  414TMC3    C8 6239   3.271   0.574  15.542 -0.2015 -0.1275 -0.2728
  414TMC3    O1 6240   3.040   1.013  15.345  0.0028 -0.0238  0.2166
  414TMC3    O2 6241   3.287   0.504  15.446  0.5367  0.1668  0.6475
  415TMC3    C1 6242   3.739   4.182  10.816  0.5746 -0.1400  0.5952
  415TMC3    C2 6243   3.838   4.254  10.757 -1.0398 -0.4893  0.6725
  415TMC3    C3 6244   3.870   4.230  10.624 -0.0516 -1.0012 -1.1006
  415TMC3    C4 6245   3.656   4.099  10.747 -0.2359  0.8952  0.8788
  415TMC3    C5 6246   3.700   4.060  10.622 -0.2609 -0.5287 -0.1124
  415TMC3    C6 6247   3.801   4.122  10.561 -0.3349  0.6802 -0.7135
  415TMC3     C 6248   3.722   4.197  10.962 -0.2141  0.5239 -0.0756
  415TMC3     O 6249   3.624   4.139  11.004 -0.0017  0.4595 -0.0965
  415TMC3     H 6250   3.878   4.337  10.814  0.3541  0.5529 -1.8322
  415TMC3    H1 6251   3.565   4.061  10.792 -0.6429  1.3478  0.4359
  415TMC3    H2 6252   3.843   4.082  10.470 -1.0460  1.1066 -1.2319
  415TMC3    C7 6253   3.677   3.932  10.562 -0.2342 -0.0003  0.6016
  415TMC3    C8 6254   4.009   4.253  10.583  0.0798  1.5135  0.4884
  415TMC3    O1 6255   3.718   3.902  10.450  0.2218 -0.1172  0.4276
  415TMC3    O2 6256   4.053   4.165  10.513  0.2137 -0.1570  0.1975
  416MPD2     C 6257   0.466   2.671  11.833 -0.1702  0.2032  0.0850
  416MPD2    C1 6258   0.338   2.707  11.786  0.6436  0.3824  0.0673
  416MPD2    C2 6259   0.286   2.641  11.675  0.2359  0.5791 -0.0463
  416MPD2    C3 6260   0.359   2.542  11.614 -0.2224 -0.5312  0.4493
  416MPD2    C4 6261   0.490   2.522  11.657  0.9100  0.1525 -0.3843
  416MPD2    C5 6262   0.545   2.582  11.763  0.9458 -0.8385  0.6648
  416MPD2     H 6263   0.184   2.663  11.646  0.1651 -0.7167 -0.7889
  416MPD2    H1 6264   0.555   2.446  11.616 -0.5198 -2.4938  2.2375
  416MPD2    H2 6265   0.514   2.723  11.915  1.3589  0.0212 -0.7002
  416MPD2    H3 6266   0.646   2.554  11.791  0.0473 -3.4997  1.2124
  416MPD2     N 6267   0.312   2.462  11.510 -0.5872 -0.0235 -0.3252
  416MPD2    H5 6268   0.382   2.410  11.457 -0.9903 -2.0858  1.1598
  416MPD2    N1 6269   0.271   2.813  11.861 -0.1316  0.2635  0.4256
  416MPD2    H7 6270   0.320   2.849  11.943 -3.1291  2.7785  1.0791
  417TMC3    C1 6271   0.082   2.952  11.929 -0.4798  0.4378  0.4729
  417TMC3    C2 6272   0.090   2.908  12.057 -0.7202 -0.4147  0.7064
  417TMC3    C3 6273   0.001   2.948  12.155  0.0835  0.2280 -0.8189
  417TMC3    C4 6274   4.717   3.022  11.883  0.0351 -0.1676 -0.4192
  417TMC3    C5 6275   4.629   3.065  11.985  0.6461  0.1837  0.7521
  417TMC3    C6 6276   4.639   3.020  12.116 -0.6173 -0.1906  0.1460
  417TMC3     C 6277   0.152   2.874  11.823 -0.2487  0.5960  0.6457
  417TMC3     O 6278   0.097   2.870  11.715 -0.0270  0.6870 -0.5997
  417TMC3     H 6279   0.167   2.836  12.081 -0.9920 -0.3605  1.7423
  417TMC3    H1 6280   4.718   3.061  11.782 -0.3874  1.2715  0.1344
  417TMC3    H2 6281   4.577   3.054  12.198  0.0229  2.5155 -0.5173
  417TMC3    C7 6282   4.551   3.176  11.953 -0.7023  0.5218 -0.2956
  417TMC3    C8 6283   0.016   2.910  12.291  0.1826 -0.0870  0.3120
  417TMC3    O1 6284   4.533   3.201  11.832  0.5449 -0.3565 -0.0532
  417TMC3    O2 6285   4.674   2.945  12.374 -0.1979  0.1226  0.3857
  418TMC3    C1 6286   3.988   0.371   0.456  0.7071  0.4109 -0.1567
  418TMC3    C2 6287   3.884   0.398   0.366  0.8472 -0.2439 -0.2960
  418TMC3    C3 6288   3.770   0.322   0.373 -0.5971  0.1745  0.3559
  418TMC3    C4 6289   3.987   0.275   0.554  0.2782 -0.5374 -0.0412
  418TMC3    C5 6290   3.867   0.213   0.567 -0.2186 -0.6633 -0.1022
  418TMC3    C6 6291   3.766   0.229   0.478 -0.4438  0.2045 -0.4287
  418TMC3     C 6292   4.118   0.403   0.400  0.0353  0.8363  0.8937
  418TMC3     O 6293   4.172   0.504   0.440 -0.7582  0.4947 -0.2089
  418TMC3     H 6294   3.896   0.476   0.291  1.4340 -0.2854 -0.2487
  418TMC3    H1 6295   4.068   0.260   0.625  2.0156  0.3432 -1.8485
  418TMC3    H2 6296   3.682   0.166   0.505 -1.2482  1.1618 -0.7159
  418TMC3    C7 6297   3.870   0.084   0.621  0.0214  0.0800  0.3389
  418TMC3    C8 6298   3.678   0.309   0.259  0.0397 -0.0674 -0.6542
  418TMC3    O1 6299   3.845   4.741   0.537  0.2507 -0.2620  0.6086
  418TMC3    O2 6300   3.632   0.400   0.193  0.7864 -0.2186 -0.3745
  419MPD2     C 6301   2.478   2.349  12.191 -0.2979 -0.5506  0.5779
  419MPD2    C1 6302   2.442   2.482  12.177 -0.0434 -0.4547 -0.5556
  419MPD2    C2 6303   2.382   2.554  12.280 -0.1259 -0.4037  0.2216
  419MPD2    C3 6304   2.392   2.500  12.409  0.0353  0.8701 -0.5964
  419MPD2    C4 6305   2.439   2.372  12.430 -0.4052  0.1022 -1.2783
  419MPD2    C5 6306   2.474   2.300  12.321  0.4807 -0.1563 -0.2845
  419MPD2     H 6307   2.342   2.654  12.270  1.2437  0.0756 -0.3804
  419MPD2    H1 6308   2.438   2.325  12.528 -1.9534  1.9245 -0.4084
  419MPD2    H2 6309   2.514   2.277  12.118  1.5171 -1.4897  2.4093
  419MPD2    H3 6310   2.502   2.198  12.345  1.6522 -0.0669 -1.2681
  419MPD2     N 6311   2.359   2.582  12.516 -0.2234 -0.5787 -0.2388
  419MPD2    H5 6312   2.346   2.676  12.481 -0.8913 -0.8946 -0.8414
  419MPD2    N1 6313   2.464   2.554  12.060  0.2221 -0.0330 -0.0973
  419MPD2    H7 6314   2.436   2.650  12.075 -0.6177 -0.6361  2.2202
  420TMC3    C1 6315   2.333   2.672  12.732 -0.6087 -0.6462 -0.0075
  420TMC3    C2 6316   2.329   2.786  12.667  0.8252 -0.2316  0.5065
  420TMC3    C3 6317   2.373   2.890  12.738 -0.7558  0.5035  0.5571
  420TMC3    C4 6318   2.375   2.652  12.862 -0.2463 -0.5786 -0.4386
  420TMC3    C5 6319   2.426   2.759  12.927 -0.1580  0.3756 -0.1463
  420TMC3    C6 6320   2.420   2.881  12.867 -0.4221  0.4780  0.5719
  420TMC3     C 6321   2.352   2.552  12.651 -0.3166 -0.3633 -1.2020
  420TMC3     O 6322   2.339   2.445  12.713 -0.2016  0.1470 -0.4607
  420TMC3     H 6323   2.290   2.801  12.567 -0.9940 -2.4848  0.8813
  420TMC3    H1 6324   2.382   2.551  12.901 -1.8260 -0.1709  0.9379
  420TMC3    H2 6325   2.430   2.973  12.924  0.7966  1.9258 -2.0002
  420TMC3    C7 6326   2.454   2.757  13.070  0.4935 -0.4773  0.2952
  420TMC3    C8 6327   2.361   3.024  12.680 -0.1429  0.3514 -0.1781
  420TMC3    O1 6328   2.397   2.667  13.132 -0.0427  0.8330 -0.1116
  420TMC3    O2 6329   2.273   3.030  12.594  0.2237  0.0506 -0.5314
  421TMC3    C1 6330   3.241   4.563  14.081 -0.4715  0.1304  0.3473
  421TMC3    C2 6331   3.269   4.672  14.165  0.0695  0.3430 -0.5642
  421TMC3    C3 6332   3.382   4.674  14.239 -0.7771 -0.3370  0.4847
  421TMC3    C4 6333   3.333   4.463  14.074 -0.7666 -0.1504 -0.1241
  421TMC3    C5 6334   3.451   4.473  14.145  0.2620  0.7241  0.1647
  421TMC3    C6 6335   3.475   4.573  14.236  0.0215  0.4890 -0.1601
  421TMC3     C 6336   3.114   4.560  14.010 -0.2363  0.2521 -0.1166
  421TMC3     O 6337   3.027   4.638  14.053 -0.1296  0.7704  0.1963
  421TMC3     H 6338   3.206   0.016  14.167 -1.1112 -0.6287  5.0049
  421TMC3    H1 6339   3.317   4.372  14.018 -1.2760 -1.1335  1.6274
  421TMC3    H2 6340   3.569   4.575  14.289 -0.1549  0.3047  0.1597
  421TMC3    C7 6341   3.564   4.377  14.134 -0.3551  0.4775 -0.5770
  421TMC3    C8 6342   3.415   0.049  14.318  0.5013  0.5184 -0.7383
  421TMC3    O1 6343   3.643   4.383  14.231  0.8580 -0.5241  0.1610
  421TMC3    O2 6344   3.532   0.056  14.351  0.6293  0.2382 -0.2597
  422TMC3    C1 6345   1.208   1.103  12.529  0.2152 -0.2833  0.1709
  422TMC3    C2 6346   1.159   1.226  12.544  0.2274  1.1628 -0.2665
  422TMC3    C3 6347   1.028   1.243  12.574 -0.7905 -0.2556  0.4914
  422TMC3    C4 6348   1.123   0.999  12.527  0.2037  0.3788  0.0192
  422TMC3    C5 6349   0.987   1.018  12.546  0.5473  0.0634 -0.0020
  422TMC3    C6 6350   0.939   1.138  12.567  0.4465 -0.8955  0.9935
  422TMC3     C 6351   1.331   1.097  12.455  0.3112  0.0480 -0.9539
  422TMC3     O 6352   1.371   1.199  12.395  0.1439  0.0426  0.3778
  422TMC3     H 6353   1.235   1.303  12.557  0.6755  0.7087 -0.2046
  422TMC3    H1 6354   1.162   0.903  12.497  0.1346  0.6451 -0.9194
  422TMC3    H2 6355   0.832   1.156  12.573  0.4356 -0.4270 -0.5727
  422TMC3    C7 6356   0.903   0.904  12.534 -0.0352 -0.1360 -0.8064
  422TMC3    C8 6357   0.996   1.376  12.615 -0.2948  1.3923  0.5645
  422TMC3    O1 6358   0.956   0.812  12.471 -0.2457 -0.4054  0.7460
  422TMC3    O2 6359   1.085   1.459  12.626  0.2341 -0.2448  1.0904
  423MPD2     C 6360   2.122   1.901   0.479 -0.9834 -0.1692  0.1670
  423MPD2    C1 6361   2.250   1.951   0.482  0.5927  0.2517 -0.3655
  423MPD2    C2 6362   2.336   1.915   0.381 -0.4254 -0.1080 -0.2903
  423MPD2    C3 6363   2.295   1.834   0.279  0.2243 -0.7214 -0.6615
  423MPD2    C4 6364   2.170   1.789   0.280  0.2077  0.1118  0.2851
  423MPD2    C5 6365   2.079   1.824   0.378 -0.0621 -0.3786  0.1758
  423MPD2     H 6366   2.438   1.950   0.393  0.6198 -2.2224 -3.2124
  423MPD2    H1 6367   2.130   1.716   0.211 -1.4569  1.3821 -0.1152
  423MPD2    H2 6368   2.046   1.929   0.551 -0.5186 -0.8303  0.9115
  423MPD2    H3 6369   1.990   1.763   0.389  0.3358 -1.4383 -2.2879
  423MPD2     N 6370   2.378   1.788   0.174  0.4132 -0.2028  0.5260
  423MPD2    H5 6371   2.342   1.707   0.125 -1.2586  2.2292 -2.3017
  423MPD2    N1 6372   2.307   2.018   0.588  0.6599  0.3529  0.9364
  423MPD2    H7 6373   2.405   2.041   0.578  0.3308  0.1825 -2.4178
  424TMC3    C1 6374   2.336   2.113   0.807  0.3984  0.7936 -0.3258
  424TMC3    C2 6375   2.466   2.061   0.805  0.2832  0.5959 -0.0139
  424TMC3    C3 6376   2.555   2.109   0.906 -0.2887  0.0702 -0.2107
  424TMC3    C4 6377   2.305   2.207   0.899  0.4621  0.9754 -0.1177
  424TMC3    C5 6378   2.395   2.252   0.993  0.2442  0.2871 -0.2045
  424TMC3    C6 6379   2.519   2.206   0.998  0.9411  0.3604 -0.2584
  424TMC3     C 6380   2.246   2.063   0.705 -0.3411 -0.1579  0.0893
  424TMC3     O 6381   2.122   2.073   0.719 -0.1189  0.4643 -0.6602
  424TMC3     H 6382   2.494   1.977   0.743  1.9991  2.2917 -1.5231
  424TMC3    H1 6383   2.211   2.257   0.881  0.2219  1.7638  3.3769
  424TMC3    H2 6384   2.587   2.254   1.068  0.7823  0.2539 -0.0317
  424TMC3    C7 6385   2.349   2.340   1.099 -0.9145 -0.2102  1.3664
  424TMC3    C8 6386   2.679   2.037   0.929  0.2116  0.9045 -0.5500
  424TMC3    O1 6387   2.434   2.377   1.177 -0.0022 -0.1164 -0.0650
  424TMC3    O2 6388   2.671   1.930   0.871 -0.6892 -0.4654  0.1238
  425MPD2     C 6389   1.381   1.227  17.264 -0.3045 -0.3741  0.2570
  425MPD2    C1 6390   1.318   1.111  17.303  0.8564 -0.0591  0.1966
  425MPD2    C2 6391   1.190   1.124  17.357  0.1154  0.2499 -0.6334
  425MPD2    C3 6392   1.126   1.236  17.386 -0.1128 -0.7561  0.8374
  425MPD2    C4 6393   1.196   1.356  17.350 -0.4608  0.5558  0.4913
  425MPD2    C5 6394   1.319   1.347  17.290 -0.1468 -0.1233 -0.3159
  425MPD2     H 6395   1.135   1.031  17.367 -1.1389  1.0119 -0.4636
  425MPD2    H1 6396   1.150   1.453  17.366 -2.1081 -0.7777  3.7612
  425MPD2    H2 6397   1.482   1.219  17.225  0.8430  0.5842  3.0399
  425MPD2    H3 6398   1.384   1.427  17.257 -2.5635  1.7773 -0.5223
  425MPD2     N 6399   0.999   1.225  17.448 -0.3452 -0.3537  0.2832
  425MPD2    H5 6400   0.974   1.138  17.494  0.4505 -1.8822 -2.2145
  425MPD2    N1 6401   1.371   0.985  17.276 -1.3764  0.2754  0.4550
  425MPD2    H7 6402   1.463   0.996  17.234 -1.8237 -0.0767 -0.6316
  426TMC3    C1 6403   1.421   0.760  17.282 -0.4509 -0.1586  0.7327
  426TMC3    C2 6404   1.485   0.777  17.166  0.2865 -0.0708 -0.1856
  426TMC3    C3 6405   1.594   0.697  17.138 -0.4300  0.0280  0.0052
  426TMC3    C4 6406   1.470   0.676  17.383 -0.8963 -0.1356  0.5004
  426TMC3    C5 6407   1.583   0.603  17.348 -0.0906 -0.9785  0.1610
  426TMC3    C6 6408   1.645   0.605  17.228  0.0703 -1.0300 -0.0434
  426TMC3     C 6409   1.324   0.860  17.316 -0.1057 -0.8757 -0.2976
  426TMC3     O 6410   1.245   0.837  17.407  0.0047 -0.7222 -0.0697
  426TMC3     H 6411   1.448   0.842  17.088  0.9193 -1.2199 -1.4434
  426TMC3    H1 6412   1.406   0.663  17.469 -2.6836  0.0134 -0.8234
  426TMC3    H2 6413   1.733   0.547  17.203  1.0013 -0.3471  1.6573
  426TMC3    C7 6414   1.634   0.512  17.449 -0.9037  0.0136  0.4630
  426TMC3    C8 6415   1.603   0.646  17.004  0.1538  0.9836  0.5321
  426TMC3    O1 6416   1.720   0.431  17.415 -0.3173 -0.4808  0.3261
  426TMC3    O2 6417   1.714   0.641  16.950 -0.6175  0.5227 -0.3192
  427MPD2     C 6418   0.514   3.309  14.908 -0.4453  0.1381  0.2558
  427MPD2    C1 6419   0.477   3.305  15.042  0.4927 -0.1536 -0.3796
  427MPD2    C2 6420   0.374   3.387  15.085  0.2424  0.0024 -0.1138
  427MPD2    C3 6421   0.288   3.454  14.997  0.2316  0.7251  0.2814
  427MPD2    C4 6422   0.326   3.455  14.862 -0.2207 -0.4134  1.1058
  427MPD2    C5 6423   0.439   3.392  14.821 -0.1677 -0.3493  0.6146
  427MPD2     H 6424   0.358   3.386  15.192  0.2621 -1.3334 -0.1306
  427MPD2    H1 6425   0.262   3.502  14.788  0.6817 -1.8450 -0.5754
  427MPD2    H2 6426   0.603   3.260  14.871 -1.1884  1.0368 -2.7161
  427MPD2    H3 6427   0.457   3.397  14.715 -0.2556 -0.0979  0.6124
  427MPD2     N 6428   0.166   3.511  15.049 -0.3750  0.4267  0.1447
  427MPD2    H5 6429   0.104   3.544  14.977  0.1585 -0.5545 -0.7780
  427MPD2    N1 6430   0.560   3.240  15.142  0.3777  0.4386  1.1419
  427MPD2    H7 6431   0.528   3.257  15.236 -0.0631  0.7418  0.9349
  428TMC3    C1 6432   0.736   3.132  15.249 -0.0949  0.1374 -0.3532
  428TMC3    C2 6433   0.659   3.118  15.363 -0.3767  0.5096  0.1541
  428TMC3    C3 6434   0.700   3.039  15.467  0.1248 -0.0740  0.4297
  428TMC3    C4 6435   0.858   3.077  15.240 -0.6519  0.5711 -0.8060
  428TMC3    C5 6436   0.906   3.005  15.350 -0.4387  0.1186  0.2385
  428TMC3    C6 6437   0.826   2.986  15.459  0.0451  0.6736 -1.1838
  428TMC3     C 6438   0.671   3.161  15.124  1.0238  0.0198  0.8331
  428TMC3     O 6439   0.722   3.128  15.017 -0.4565  0.2227  0.0030
  428TMC3     H 6440   0.555   3.148  15.363 -1.2994 -2.7132  1.1179
  428TMC3    H1 6441   0.927   3.094  15.158  0.1696  0.1764 -0.2052
  428TMC3    H2 6442   0.863   2.925  15.541 -1.8020 -1.3461 -1.8578
  428TMC3    C7 6443   1.051   3.012  15.384 -0.1370  0.0296  0.2617
  428TMC3    C8 6444   0.593   2.965  15.539 -0.5460  0.4575 -0.0063
  428TMC3    O1 6445   1.082   2.991  15.501 -0.0902  0.3246  0.6462
  428TMC3    O2 6446   0.608   2.847  15.568  0.6808 -0.1515 -0.1408
  429MPD2     C 6447   1.900   2.755  17.622  0.3722 -0.4161  0.2158
  429MPD2    C1 6448   1.782   2.775  17.546 -0.4688 -0.6915 -0.2826
  429MPD2    C2 6449   1.720   2.898  17.553 -0.6069 -0.5179  0.3718
  429MPD2    C3 6450   1.782   3.007  17.612 -0.1399  0.1417  0.4499
  429MPD2    C4 6451   1.909   2.994  17.662  0.5090  0.7157 -0.7791
  429MPD2    C5 6452   1.961   2.867  17.677  0.2005 -0.4719 -0.0144
  429MPD2     H 6453   1.626   2.921  17.505 -0.7785 -0.5445  0.6904
  429MPD2    H1 6454   1.967   3.070  17.712  1.3256  0.0830 -0.7663
  429MPD2    H2 6455   1.934   2.656  17.650  2.7487  0.6442  0.9995
  429MPD2    H3 6456   2.049   2.846  17.737  1.8036  0.3334 -2.0893
  429MPD2     N 6457   1.735   3.139  17.624 -0.3812 -0.0937 -0.0085
  429MPD2    H5 6458   1.797   3.209  17.662 -0.3067 -0.8336  1.2277
  429MPD2    N1 6459   1.702   2.676  17.487 -0.4068 -0.2036  0.0428
  429MPD2    H7 6460   1.610   2.690  17.447  0.4778 -0.1137 -1.9446
  430TMC3    C1 6461   1.593   3.319  17.583 -0.5034  0.3979 -0.0477
  430TMC3    C2 6462   1.465   3.357  17.542  0.0201 -0.1718  0.4537
  430TMC3    C3 6463   1.454   3.481  17.483  0.3105 -0.3673  0.3739
  430TMC3    C4 6464   1.698   3.394  17.551  0.6758  0.0330 -0.4208
  430TMC3    C5 6465   1.686   3.516  17.490 -0.6510 -0.4559  1.0503
  430TMC3    C6 6466   1.559   3.568  17.466 -1.1321  0.6275  0.3440
  430TMC3     C 6467   1.608   3.173  17.594  0.1203 -0.1832 -0.3036
  430TMC3     O 6468   1.510   3.111  17.561 -0.0154 -0.3487 -0.7346
  430TMC3     H 6469   1.380   3.292  17.560  0.4264 -0.7124  0.4115
  430TMC3    H1 6470   1.796   3.361  17.585  1.1396  1.6861 -0.1152
  430TMC3    H2 6471   1.549   3.663  17.415 -1.2032 -0.0382 -0.8902
  430TMC3    C7 6472   1.770   3.525  17.370  0.4628  0.2075  0.0275
  430TMC3    C8 6473   1.359   3.486  17.372 -0.0006 -0.3739  0.3234
  430TMC3    O1 6474   1.852   3.433  17.359 -0.4028 -0.1595 -0.6888
  430TMC3    O2 6475   1.378   3.567  17.279  0.4076 -0.3898 -0.2815
  431MPD2     C 6476   2.449   3.339  12.193 -1.1338 -0.3396 -0.0775
  431MPD2    C1 6477   2.568   3.338  12.117  0.6563  1.2384 -0.5650
  431MPD2    C2 6478   2.583   3.231  12.030  0.0987  0.1818 -0.2592
  431MPD2    C3 6479   2.490   3.132  12.027 -0.5040 -0.3747  0.2012
  431MPD2    C4 6480   2.377   3.140  12.098 -0.6841  0.5636  0.0451
  431MPD2    C5 6481   2.363   3.242  12.182  0.5046 -0.0378  0.7918
  431MPD2     H 6482   2.679   3.219  11.980  0.1614 -1.8181  0.3384
  431MPD2    H1 6483   2.303   3.061  12.098  2.0155 -1.9693  1.2702
  431MPD2    H2 6484   2.417   3.412  12.266  2.0466  1.8797 -0.9427
  431MPD2    H3 6485   2.277   3.253  12.247 -0.2761 -0.3277 -0.1881
  431MPD2     N 6486   2.501   3.019  11.950  0.0469  0.3329  0.6776
  431MPD2    H5 6487   2.433   2.946  11.968  1.3200 -1.3333 -1.2555
  431MPD2    N1 6488   2.670   3.431  12.144  0.2141 -0.9741  0.0837
  431MPD2    H7 6489   2.751   3.409  12.086 -0.1426 -2.6985  0.2206
  432TMC3    C1 6490   2.582   2.852  11.814  0.5635  0.6105  0.0843
  432TMC3    C2 6491   2.619   2.822  11.685 -0.1410  0.1494  0.0613
  432TMC3    C3 6492   2.622   2.690  11.644  0.1247 -0.3389 -0.1025
  432TMC3    C4 6493   2.566   2.751  11.906 -0.8763 -0.6488  0.0634
  432TMC3    C5 6494   2.569   2.620  11.865 -0.4662  0.1622  0.1868
  432TMC3    C6 6495   2.602   2.588  11.738  0.3286  0.2553 -0.3766
  432TMC3     C 6496   2.599   2.989  11.858 -0.3210  0.6770 -0.2341
  432TMC3     O 6497   2.674   3.070  11.805 -0.0174  0.0407  0.0029
  432TMC3     H 6498   2.622   2.902  11.612  1.4461  1.0739  1.1657
  432TMC3    H1 6499   2.557   2.774  12.011  0.0479  0.2561 -0.0549
  432TMC3    H2 6500   2.627   2.487  11.709 -1.6469 -0.1358 -0.7247
  432TMC3    C7 6501   2.535   2.512  11.952  0.3730 -0.0714 -0.1386
  432TMC3    C8 6502   2.724   2.669  11.546 -0.6157 -0.1184  0.2786
  432TMC3    O1 6503   2.559   2.394  11.920  0.2388  0.2703  0.4648
  432TMC3    O2 6504   2.728   2.741  11.445 -0.2582  0.2434 -0.8572
  433MPD2     C 6505   1.238   2.285  11.004 -0.5296  0.3131  0.2071
  433MPD2    C1 6506   1.302   2.196  11.086  0.1285 -0.4344 -0.6220
  433MPD2    C2 6507   1.386   2.248  11.188 -0.0128 -1.0497  0.2921
  433MPD2    C3 6508   1.388   2.385  11.217 -0.0901  0.4096 -0.0853
  433MPD2    C4 6509   1.313   2.467  11.135  0.0045  0.0239 -0.1105
  433MPD2    C5 6510   1.250   2.418  11.025 -0.1187 -0.3467 -0.3766
  433MPD2     H 6511   1.456   2.185  11.240 -0.8377 -3.4273 -1.4442
  433MPD2    H1 6512   1.324   2.574  11.142  1.5058 -0.1034 -0.5654
  433MPD2    H2 6513   1.175   2.253  10.922 -1.1888  0.8542  0.5045
  433MPD2    H3 6514   1.195   2.471  10.949 -0.9919  1.0122  1.1961
  433MPD2     N 6515   1.487   2.425  11.301 -0.3200 -0.3024 -0.0061
  433MPD2    H5 6516   1.518   2.358  11.370 -0.6173  1.3720  1.7543
  433MPD2    N1 6517   1.300   2.054  11.048  0.2811  0.0767 -0.2311
  433MPD2    H7 6518   1.250   2.042  10.961 -0.2610  0.0697  0.0793
  434TMC3    C1 6519   1.381   1.840  11.023 -0.0334 -0.2987  0.0027
  434TMC3    C2 6520   1.513   1.823  11.008  0.7340 -0.4269 -0.6242
  434TMC3    C3 6521   1.562   1.701  10.989  0.7027 -0.4087  0.3086
  434TMC3    C4 6522   1.289   1.740  11.050  0.3592  0.0917 -0.3230
  434TMC3    C5 6523   1.347   1.612  11.033  0.7243 -0.3214 -0.1686
  434TMC3    C6 6524   1.479   1.594  11.002  0.0589 -0.3786  0.0218
  434TMC3     C 6525   1.382   1.959  11.104  0.4514  0.0772  0.6132
  434TMC3     O 6526   1.435   1.969  11.218 -0.1267  0.2282  0.5104
  434TMC3     H 6527   1.576   1.909  11.026 -0.7912  0.3164  1.1050
  434TMC3    H1 6528   1.182   1.748  11.067  0.3670  0.4271 -0.4312
  434TMC3    H2 6529   1.511   1.492  10.983 -0.8966 -0.7560  0.4321
  434TMC3    C7 6530   1.256   1.508  10.998  0.5521  0.5419  0.2903
  434TMC3    C8 6531   1.704   1.683  10.993  0.0320 -0.4122 -0.1079
  434TMC3    O1 6532   1.152   1.546  10.946 -0.1801  0.2065  0.3620
  434TMC3    O2 6533   1.771   1.782  11.018  0.2703 -0.9148 -0.6216
  435MPD2     C 6534   3.141   1.922  15.434 -0.2340 -0.2112 -0.1593
  435MPD2    C1 6535   3.148   2.041  15.504  0.5113 -0.4434  0.0874
  435MPD2    C2 6536   3.266   2.071  15.562  0.1412  0.8196 -0.6378
  435MPD2    C3 6537   3.381   2.002  15.529 -0.6324  0.5234  0.1265
  435MPD2    C4 6538   3.374   1.883  15.459 -0.4785  0.2500 -1.0449
  435MPD2    C5 6539   3.257   1.853  15.405  0.5148 -0.8928  0.0529
  435MPD2     H 6540   3.268   2.165  15.617 -1.2047  1.0300 -0.9371
  435MPD2    H1 6541   3.454   1.811  15.445  0.4799  1.1725 -0.2810
  435MPD2    H2 6542   3.054   1.897  15.374  0.7371 -1.3564 -1.0837
  435MPD2    H3 6543   3.246   1.765  15.343  0.0981  0.6806 -2.0840
  435MPD2     N 6544   3.498   2.050  15.587 -0.1223 -0.1376 -0.2382
  435MPD2    H5 6545   3.495   2.132  15.647  0.4571 -0.8160  0.7181
  435MPD2    N1 6546   3.038   2.123  15.533 -0.9146 -0.0496 -0.6848
  435MPD2    H7 6547   3.059   2.213  15.574  0.4984  0.3102 -2.1937
  436TMC3    C1 6548   2.757   2.393  15.659 -0.5259  0.2817  0.4365
  436TMC3    C2 6549   2.853   2.304  15.620 -0.6211 -0.1882  0.2379
  436TMC3    C3 6550   2.822   2.202  15.536 -0.0998 -0.2302 -0.1430
  436TMC3    C4 6551   2.628   2.392  15.617 -0.2634  0.0366 -0.3316
  436TMC3    C5 6552   2.605   2.297  15.520  0.1993 -0.1682 -0.4072
  436TMC3    C6 6553   2.693   2.195  15.486 -0.2703 -0.0002 -0.3057
  436TMC3     C 6554   2.803   2.490  15.750 -0.2336 -0.4587 -0.2492
  436TMC3     O 6555   2.923   2.501  15.767 -0.1863 -0.1791 -0.1698
  436TMC3     H 6556   2.946   2.316  15.675  0.0590 -0.2686 -0.8855
  436TMC3    H1 6557   2.571   2.483  15.632 -0.2524 -0.0538  0.2834
  436TMC3    H2 6558   2.661   2.119  15.415 -0.1172 -0.6622  0.3399
  436TMC3    C7 6559   2.483   2.304  15.445  1.2367  0.0183  0.1591
  436TMC3    C8 6560   2.908   2.093  15.511 -0.7409  0.0164 -0.1001
  436TMC3    O1 6561   2.487   2.259  15.328  0.3757  0.2909 -0.0588
  436TMC3    O2 6562   2.861   1.991  15.453 -0.1141  0.3107 -0.3051
  437TMC3    C1 6563   2.208   3.911  11.850  0.0778  0.7325  0.0543
  437TMC3    C2 6564   2.207   3.925  11.716 -0.4148 -0.7768  0.0789
  437TMC3    C3 6565   2.327   3.948  11.654  0.0932 -0.1570  0.0586
  437TMC3    C4 6566   2.320   3.918  11.919 -0.0817  0.6107  0.4903
  437TMC3    C5 6567   2.436   3.948  11.853 -0.0522 -0.5165  0.2791
  437TMC3    C6 6568   2.440   3.963  11.717  0.1398 -0.4263  0.2272
  437TMC3     C 6569   2.086   3.861  11.923  0.3711  0.2858  0.1482
  437TMC3     O 6570   1.985   3.920  11.885  0.2263  0.4357  0.3264
  437TMC3     H 6571   2.116   3.908  11.659 -0.3499 -1.1402  0.0829
  437TMC3    H1 6572   2.314   3.919  12.027  1.7765 -2.7179  0.6150
  437TMC3    H2 6573   2.529   3.996  11.666 -0.3889  0.4502 -0.1362
  437TMC3    C7 6574   2.559   3.982  11.918 -0.4572  0.8457 -0.0734
  437TMC3    C8 6575   2.324   3.970  11.509 -0.6897  0.4375  0.0301
  437TMC3    O1 6576   2.648   4.041  11.857  0.4659  0.6132 -0.7445
  437TMC3    O2 6577   2.432   3.977  11.450  0.2313 -0.0274  0.4287
  438MPD2     C 6578   4.337   0.207  16.686 -0.5471  0.2826  0.4195
  438MPD2    C1 6579   4.387   0.091  16.743 -0.2456  0.5385  0.2076
  438MPD2    C2 6580   4.353   0.060  16.872  0.0960 -0.0670  0.7985
  438MPD2    C3 6581   4.271   0.143  16.948  0.1689 -0.0258 -0.1803
  438MPD2    C4 6582   4.224   0.254  16.893  0.0976 -0.5371  0.6286
  438MPD2    C5 6583   4.264   0.291  16.769  0.0331 -0.3187 -0.7716
  438MPD2     H 6584   4.394   4.716  16.921  2.6198 -0.5534 -2.1818
  438MPD2    H1 6585   4.166   0.330  16.944  3.1601  1.3617  1.2141
  438MPD2    H2 6586   4.360   0.229  16.582  3.7721  1.0973  1.5526
  438MPD2    H3 6587   4.228   0.386  16.731 -3.0780 -1.4919 -0.7515
  438MPD2     N 6588   4.225   0.110  17.077  0.2590 -0.3403  0.3351
  438MPD2    H5 6589   4.168   0.179  17.125 -2.6832 -1.9563 -0.8482
  438MPD2    N1 6590   4.459   4.737  16.673 -0.3400  1.1182  0.0730
  438MPD2    H7 6591   4.492   4.654  16.721 -3.3656 -0.2352 -0.1210
  439TMC3    C1 6592   4.609   4.660  16.526 -0.1170 -0.4006 -0.0680
  439TMC3    C2 6593   4.663   4.657  16.401  0.2486 -0.0293  0.2697
  439TMC3    C3 6594   0.030   4.585  16.380  0.2853  0.7687 -0.8542
  439TMC3    C4 6595   4.647   4.573  16.629  0.8993  0.3803  0.7312
  439TMC3    C5 6596   0.008   4.493  16.588 -0.8360 -0.4028 -0.0084
  439TMC3    C6 6597   0.079   4.498  16.469 -0.4922  0.3221 -0.6478
  439TMC3     C 6598   4.511   0.016  16.547 -0.1901  0.4169 -0.6949
  439TMC3     O 6599   4.487   0.090  16.451  0.0803  0.5759 -0.2737
  439TMC3     H 6600   4.663   0.002  16.339  0.0155 -2.3241 -3.0037
  439TMC3    H1 6601   4.641   4.596  16.735  1.1894 -0.1787  0.8706
  439TMC3    H2 6602   0.165   4.436  16.446  0.3619  0.8907  1.0401
  439TMC3    C7 6603   0.057   4.388  16.677  0.0523 -0.0609 -0.4232
  439TMC3    C8 6604   0.094   4.584  16.251 -0.2617 -0.7418  0.0924
  439TMC3    O1 6605   0.179   4.375  16.679 -0.0740  0.1963  0.5080
  439TMC3    O2 6606   0.215   4.570  16.245  0.0349  0.1200 -0.3072
  440MPD2     C 6607   3.115   0.082  15.056 -0.0119  0.2713 -0.3469
  440MPD2    C1 6608   3.160   0.160  15.159  0.6993  0.2734  0.2806
  440MPD2    C2 6609   3.293   0.164  15.190 -0.1873 -0.2043  0.1774
  440MPD2    C3 6610   3.378   0.078  15.116  0.3553  0.1801 -0.0408
  440MPD2    C4 6611   3.336   4.737  15.013  0.0883  1.1155 -0.0525
  440MPD2    C5 6612   3.201   4.738  14.984 -0.0625  0.0025  0.0038
  440MPD2     H 6613   3.325   0.225  15.273  0.9272  3.0825 -2.6645
  440MPD2    H1 6614   3.415   4.692  14.954 -1.2388 -1.7369  0.3917
  440MPD2    H2 6615   3.011   0.086  15.026 -0.0681  0.1560 -0.1695
  440MPD2    H3 6616   3.164   4.672  14.906 -0.7124 -1.0173  1.1752
  440MPD2     N 6617   3.516   0.065  15.149  0.3502 -0.5360  0.7774
  440MPD2    H5 6618   3.556   4.728  15.102 -0.9083  0.0577 -1.3475
  440MPD2    N1 6619   3.077   0.241  15.248 -0.3473  0.1546  0.0887
  440MPD2    H7 6620   3.115   0.266  15.339  1.5699 -2.0144 -0.1115
  441TMC3    C1 6621   3.707   0.081  15.279 -0.4726 -0.7256 -0.1617
  441TMC3    C2 6622   3.793   0.161  15.347  0.3677  0.4647  0.4588
  441TMC3    C3 6623   3.849   0.121  15.462  0.5307 -0.6375  0.0831
  441TMC3    C4 6624   3.678   4.701  15.325  0.3031 -0.3624  0.9009
  441TMC3    C5 6625   3.731   4.659  15.447 -0.1373  0.0627  0.7908
  441TMC3    C6 6626   3.802   0.010  15.525 -0.7389  0.2366  0.2138
  441TMC3     C 6627   3.588   0.146  15.236  0.1631 -0.6363  0.0123
  441TMC3     O 6628   3.555   0.246  15.297 -0.5964 -0.0955 -0.2701
  441TMC3     H 6629   3.829   0.257  15.315  2.5245  0.0947  1.7709
  441TMC3    H1 6630   3.616   4.628  15.273 -0.3861 -0.3223  1.6527
  441TMC3    H2 6631   3.835   4.730  15.626 -4.0396  1.5638  1.6139
  441TMC3    C7 6632   3.651   4.568  15.523  0.4137 -0.4602 -0.6468
  441TMC3    C8 6633   3.832   0.233  15.560 -0.9256 -1.0475 -0.6184
  441TMC3    O1 6634   3.540   4.545  15.479 -0.1865 -0.0707  0.3190
  441TMC3    O2 6635   3.919   0.249  15.646 -0.1273  0.1838 -0.5051
  442MPD2     C 6636   1.032   1.138  16.608  0.2688 -0.4754  0.4852
  442MPD2    C1 6637   0.967   1.030  16.665  0.4399 -0.5173  0.0797
  442MPD2    C2 6638   1.023   0.907  16.634 -1.1100 -0.3877 -0.0016
  442MPD2    C3 6639   1.134   0.892  16.552 -0.5798  0.0031  0.1318
  442MPD2    C4 6640   1.185   1.000  16.494 -0.2316  0.2756 -0.2090
  442MPD2    C5 6641   1.135   1.124  16.519 -0.0901  0.8325  0.7237
  442MPD2     H 6642   0.975   0.816  16.669 -0.1958  0.0562  2.3907
  442MPD2    H1 6643   1.265   0.990  16.421 -1.7088 -2.6413 -1.4553
  442MPD2    H2 6644   1.000   1.242  16.614 -0.3488 -0.6524  0.2345
  442MPD2    H3 6645   1.176   1.208  16.463  3.0470 -2.3075 -1.6896
  442MPD2     N 6646   1.195   0.768  16.522 -0.7580 -0.3803 -0.4849
  442MPD2    H5 6647   1.260   0.764  16.444  0.5780  1.2583  0.5581
  442MPD2    N1 6648   0.859   1.046  16.754 -0.9454  0.0883 -0.4711
  442MPD2    H7 6649   0.843   0.960  16.806 -0.9154  0.8677  0.8163
  443TMC3    C1 6650   0.656   1.138  16.840 -0.7885 -0.1494  0.1242
  443TMC3    C2 6651   0.552   1.225  16.818 -0.3775 -0.2145 -0.4380
  443TMC3    C3 6652   0.427   1.200  16.873 -0.8412  0.5580  0.1273
  443TMC3    C4 6653   0.642   1.039  16.936 -0.0218 -0.0209  0.3638
  443TMC3    C5 6654   0.525   1.020  17.002  0.5463 -0.4607 -0.1607
  443TMC3    C6 6655   0.422   1.105  16.973 -0.4708  0.4128 -0.1482
  443TMC3     C 6656   0.781   1.156  16.764  0.1669  0.0606 -0.1450
  443TMC3     O 6657   0.807   1.268  16.722  0.4108  0.5321 -0.8605
  443TMC3     H 6658   0.554   1.298  16.738  0.7668 -0.8858 -1.0258
  443TMC3    H1 6659   0.722   0.970  16.957 -0.9952 -0.8297  1.4202
  443TMC3    H2 6660   0.332   1.080  17.029  0.8671 -1.3176  1.2070
  443TMC3    C7 6661   0.536   0.939  17.122  0.5158 -0.0716 -0.7820
  443TMC3    C8 6662   0.306   1.266  16.829 -0.7648 -0.2366 -0.5143
  443TMC3    O1 6663   0.625   0.852  17.128  0.2080  0.1076  0.1050
  443TMC3    O2 6664   0.250   1.335  16.910 -0.2548 -0.7940  0.0261
  444MPD2     C 6665   1.660   0.241  17.074 -0.4988 -0.6535 -0.1432
  444MPD2    C1 6666   1.570   0.138  17.060 -0.7526 -0.1389  0.0063
  444MPD2    C2 6667   1.617   0.031  16.994  0.6300 -0.2056 -0.2345
  444MPD2    C3 6668   1.743   0.022  16.938 -0.0918 -0.0808 -0.7740
  444MPD2    C4 6669   1.832   0.131  16.949 -0.0840  0.2700  0.7186
  444MPD2    C5 6670   1.782   0.244  17.019  0.3820 -0.0484 -0.4332
  444MPD2     H 6671   1.546   4.696  16.972  1.1477 -0.0962 -2.2780
  444MPD2    H1 6672   1.936   0.141  16.919 -0.0396  0.0337  0.7976
  444MPD2    H2 6673   1.626   0.331  17.124  0.5330 -0.9372  1.0750
  444MPD2    H3 6674   1.839   0.336  17.014  0.1461  0.1314  0.2306
  444MPD2     N 6675   1.780   4.647  16.865  0.3916 -0.6537  0.0019
  444MPD2    H5 6676   1.712   4.571  16.860 -0.3342 -0.2552  4.1652
  444MPD2    N1 6677   1.435   0.136  17.112  0.3378  0.2404  0.1710
  444MPD2    H7 6678   1.389   0.046  17.107  2.1951 -0.5979 -1.5984
  445TMC3    C1 6679   1.914   4.478  16.757  0.2603 -0.2500 -0.4533
  445TMC3    C2 6680   1.804   4.445  16.682  0.2713  0.1470 -0.4562
  445TMC3    C3 6681   1.821   4.327  16.609  0.3529  0.2819  0.7604
  445TMC3    C4 6682   2.033   4.411  16.752  0.1324 -0.8679 -0.4141
  445TMC3    C5 6683   2.046   4.297  16.683 -0.2678 -0.4342  0.0271
  445TMC3    C6 6684   1.940   4.252  16.605 -0.2919  0.0919  0.0267
  445TMC3     C 6685   1.909   4.607  16.827 -0.0717  0.1059 -0.2108
  445TMC3     O 6686   2.016   4.667  16.838  0.2910 -0.5717  0.1380
  445TMC3     H 6687   1.711   4.501  16.686 -0.0101 -0.3522 -0.0897
  445TMC3    H1 6688   2.109   4.458  16.814 -0.7846  0.1954 -0.1079
  445TMC3    H2 6689   1.941   4.149  16.571 -2.1081  0.0619  0.0749
  445TMC3    C7 6690   2.173   4.262  16.624 -0.0691 -0.5728 -0.2304
  445TMC3    C8 6691   1.712   4.280  16.525 -0.3228  0.0257 -0.3096
  445TMC3    O1 6692   2.169   4.194  16.523 -0.2654  0.4077 -0.1899
  445TMC3    O2 6693   1.608   4.343  16.537  0.7274  0.3246  0.1034
  446MPD2     C 6694   1.594   1.486  11.511  0.5542  0.9411 -0.1676
  446MPD2    C1 6695   1.511   1.557  11.433  0.6189  0.4385 -0.1799
  446MPD2    C2 6696   1.558   1.677  11.375 -0.4432 -0.2056 -0.0854
  446MPD2    C3 6697   1.687   1.721  11.406  0.0178 -0.2512 -0.2948
  446MPD2    C4 6698   1.766   1.651  11.497  0.3377 -0.3216 -0.5546
  446MPD2    C5 6699   1.720   1.532  11.543 -0.0940 -0.5305  0.9411
  446MPD2     H 6700   1.508   1.735  11.299  0.0341 -0.2857 -0.4643
  446MPD2    H1 6701   1.866   1.681  11.528 -0.2269  0.9642  0.0312
  446MPD2    H2 6702   1.569   1.388  11.549 -2.6755  1.3637 -1.2603
  446MPD2    H3 6703   1.785   1.479  11.611 -0.2406 -0.0088  1.4845
  446MPD2     N 6704   1.743   1.838  11.343 -0.0361 -0.2093 -0.2677
  446MPD2    H5 6705   1.679   1.898  11.291 -2.5777 -0.4532  2.5482
  446MPD2    N1 6706   1.383   1.512  11.399 -0.1694 -0.1329 -0.3894
  446MPD2    H7 6707   1.320   1.574  11.348 -0.4989  1.9918  2.5963
  447TMC3    C1 6708   1.887   2.013  11.272  0.9374  0.1786  0.3575
  447TMC3    C2 6709   1.777   2.058  11.203  0.8157 -0.2807 -0.2782
  447TMC3    C3 6710   1.814   2.156  11.113  0.2500 -0.0129  0.7915
  447TMC3    C4 6711   2.020   2.039  11.237  0.3115  0.4782 -0.6290
  447TMC3    C5 6712   2.039   2.115  11.127 -0.6038 -0.4716 -0.0423
  447TMC3    C6 6713   1.945   2.184  11.071 -0.1387 -0.6107 -0.3916
  447TMC3     C 6714   1.871   1.895  11.355 -0.7933 -0.5069  0.2476
  447TMC3     O 6715   1.971   1.852  11.410 -0.0131 -0.4401  0.1144
  447TMC3     H 6716   1.671   2.041  11.219  1.3888 -2.7321  0.8633
  447TMC3    H1 6717   2.103   1.982  11.275 -0.0534  0.4131  0.0746
  447TMC3    H2 6718   1.963   2.246  10.984  2.1651  0.2408  0.6909
  447TMC3    C7 6719   2.163   2.124  11.058  0.4465  0.3114 -0.4445
  447TMC3    C8 6720   1.711   2.228  11.051 -0.2370 -0.5016  0.4222
  447TMC3    O1 6721   2.159   2.142  10.938 -0.2946  0.0690  0.2854
  447TMC3    O2 6722   1.631   2.165  10.981 -0.6973  0.0411 -0.3013
  448TMC3    C1 6723   4.082   1.090  16.672 -0.5944 -0.5529  0.1984
  448TMC3    C2 6724   4.113   1.019  16.558  0.4459  0.1083 -0.0985
  448TMC3    C3 6725   4.249   1.028  16.520 -0.2076 -0.2531  0.2738
  448TMC3    C4 6726   4.168   1.186  16.740  0.2922 -0.1142 -0.2220
  448TMC3    C5 6727   4.293   1.203  16.684  0.2106 -0.4623 -0.3596
  448TMC3    C6 6728   4.332   1.119  16.579 -0.3335 -0.3722  0.1821
  448TMC3     C 6729   3.956   1.064  16.744  0.6629  0.2666  0.2425
  448TMC3     O 6730   3.897   1.157  16.795 -0.5243 -0.1632 -0.1021
  448TMC3     H 6731   4.048   0.937  16.531  0.3971  0.3800 -0.8033
  448TMC3    H1 6732   4.126   1.236  16.827  0.9770 -3.2705  1.9363
  448TMC3    H2 6733   4.437   1.123  16.553 -0.4813  4.4543  0.4039
  448TMC3    C7 6734   4.399   1.258  16.774  0.3749 -0.4308 -0.1982
  448TMC3    C8 6735   4.318   0.919  16.440 -0.3528 -0.4806 -0.1312
  448TMC3    O1 6736   4.490   1.321  16.724  0.0550 -0.5307  0.0260
  448TMC3    O2 6737   4.435   0.897  16.467  0.1652 -0.1874 -0.3371
  449MPD2     C 6738   0.983   3.802  14.183 -0.2768 -0.0172  0.1343
  449MPD2    C1 6739   0.940   3.902  14.109 -0.5431  0.2690  1.3745
  449MPD2    C2 6740   0.802   3.934  14.106 -0.9199  0.4721  0.5607
  449MPD2    C3 6741   0.719   3.865  14.185 -0.9388  0.7369  0.0784
  449MPD2    C4 6742   0.766   3.755  14.262 -0.3075 -0.0745 -0.7489
  449MPD2    C5 6743   0.897   3.727  14.263 -0.6088 -1.1108  0.3088
  449MPD2     H 6744   0.772   4.024  14.053 -1.0042 -0.8832 -1.6872
  449MPD2    H1 6745   0.704   3.692  14.324  2.2242 -2.4572 -0.6627
  449MPD2    H2 6746   1.088   3.777  14.187 -0.2400  0.4427  2.4956
  449MPD2    H3 6747   0.933   3.641  14.319  0.2687 -1.1908 -0.3719
  449MPD2     N 6748   0.586   3.912  14.179  0.0342 -0.4289 -0.7139
  449MPD2    H5 6749   0.574   3.982  14.106 -1.3699 -0.2599 -0.3196
  449MPD2    N1 6750   1.024   3.989  14.045 -0.2227 -0.0479 -0.1081
  449MPD2    H7 6751   0.983   4.074  14.007  0.7130  1.1412  1.5658
  450TMC3    C1 6752   1.220   4.094  13.979  0.6518  0.1564 -0.0426
  450TMC3    C2 6753   1.277   4.104  13.853  0.3930 -0.7670  0.5508
  450TMC3    C3 6754   1.248   4.214  13.782 -0.2509  0.6032 -0.4523
  450TMC3    C4 6755   1.147   4.203  14.027 -0.0503  0.2175  0.2622
  450TMC3    C5 6756   1.104   4.300  13.945  0.3777 -0.0879 -0.2036
  450TMC3    C6 6757   1.145   4.300  13.811 -0.3448  0.0388  0.2949
  450TMC3     C 6758   1.163   3.971  14.029 -0.2970 -0.3253  0.1905
  450TMC3     O 6759   1.217   3.864  14.017  0.0961  0.2564 -0.4369
  450TMC3     H 6760   1.357   4.036  13.828  0.3190  0.1293 -2.1501
  450TMC3    H1 6761   1.116   4.212  14.130 -0.1104  3.1944 -0.0186
  450TMC3    H2 6762   1.090   4.355  13.736  0.4529 -0.8785 -0.9593
  450TMC3    C7 6763   0.957   4.310  13.954 -0.0712 -0.4106  0.3470
  450TMC3    C8 6764   1.333   4.261  13.677  0.1046  0.1087 -0.5030
  450TMC3    O1 6765   0.900   4.234  14.034 -0.3551  0.0221 -0.2043
  450TMC3    O2 6766   1.274   4.346  13.607 -0.5950 -0.0679 -0.2535
  451MPD2     C 6767   1.910   3.015   1.103  0.2157  0.4747 -0.9104
  451MPD2    C1 6768   1.985   3.077   1.009 -0.3464  0.9512  0.2538
  451MPD2    C2 6769   2.060   3.004   0.915  0.0811  0.1861 -0.1885
  451MPD2    C3 6770   2.068   2.871   0.927  0.0011 -0.5431  0.4234
  451MPD2    C4 6771   1.995   2.811   1.026  0.1566 -0.5698  0.7211
  451MPD2    C5 6772   1.910   2.875   1.112  0.3620 -0.1472  0.5740
  451MPD2     H 6773   2.107   3.053   0.831  2.3739  0.5998  1.3240
  451MPD2    H1 6774   2.003   2.705   1.050  0.2464 -0.4790  1.0917
  451MPD2    H2 6775   1.859   3.077   1.177 -0.7482  0.4808 -1.5722
  451MPD2    H3 6776   1.840   2.822   1.176 -0.7460 -2.8651 -2.8684
  451MPD2     N 6777   2.143   2.791   0.834 -0.1617 -0.0261 -0.2125
  451MPD2    H5 6778   2.117   2.692   0.833 -0.2288  0.0334 -2.8491
  451MPD2    N1 6779   1.986   3.220   1.001 -0.2477 -0.1225  0.4048
  451MPD2    H7 6780   1.917   3.273   1.053  0.5107  0.5013  0.7616
  452TMC3    C1 6781   2.288   2.751   0.648 -0.3726 -0.8059  0.4222
  452TMC3    C2 6782   2.211   2.653   0.605  0.0233  0.0732  0.0236
  452TMC3    C3 6783   2.252   2.590   0.491  0.5559 -0.8996 -0.4134
  452TMC3    C4 6784   2.406   2.783   0.590 -0.9792  0.5983  0.2770
  452TMC3    C5 6785   2.455   2.711   0.484  0.5520 -0.2824 -0.2969
  452TMC3    C6 6786   2.371   2.612   0.432 -0.1074 -0.6962 -0.0368
  452TMC3     C 6787   2.250   2.836   0.762 -0.0377  0.3055 -0.5837
  452TMC3     O 6788   2.326   2.928   0.792  0.1622  0.1629 -0.1911
  452TMC3     H 6789   2.113   2.630   0.645 -0.3677 -3.4516 -2.9709
  452TMC3    H1 6790   2.467   2.861   0.633 -1.5256  1.3733 -0.3543
  452TMC3    H2 6791   2.416   2.561   0.348 -0.2036 -1.2032  0.2185
  452TMC3    C7 6792   2.534   2.782   0.383 -0.3616 -0.0259  0.2082
  452TMC3    C8 6793   2.158   2.498   0.433  0.0198  0.1328  0.4171
  452TMC3    O1 6794   2.485   2.787   0.272 -0.0226 -0.0270  0.4915
  452TMC3    O2 6795   2.040   2.501   0.463  0.6701 -0.2383  0.5224
  453TMC3    C1 6796   3.318   0.114  12.040 -0.2004 -0.0029  0.2999
  453TMC3    C2 6797   3.236   0.004  12.045  0.4003  0.1259  0.1813
  453TMC3    C3 6798   3.145   4.736  11.948  0.8096 -0.0375 -0.1073
  453TMC3    C4 6799   3.299   0.218  11.955  0.9117  0.2552  1.0927
  453TMC3    C5 6800   3.195   0.205  11.872  0.4170 -0.0757  0.4488
  453TMC3    C6 6801   3.116   0.096  11.868 -0.5615 -0.6022  0.0089
  453TMC3     C 6802   3.418   0.128  12.149 -0.5938 -0.1762 -0.3943
  453TMC3     O 6803   3.528   0.173  12.113 -0.0808 -0.2104 -0.1191
  453TMC3     H 6804   3.258   4.673  12.120 -0.6588 -2.4643 -2.1012
  453TMC3    H1 6805   3.359   0.308  11.949  0.6467  0.3679  0.0326
  453TMC3    H2 6806   3.033   0.090  11.798 -0.5327 -2.3206  0.1199
  453TMC3    C7 6807   3.138   0.333  11.830  0.2489 -0.2622  0.6830
  453TMC3    C8 6808   3.071   4.612  11.929 -1.0560 -0.4346  0.7573
  453TMC3    O1 6809   3.018   0.353  11.854 -0.1778 -0.2671 -0.1998
  453TMC3    O2 6810   2.956   4.611  11.885 -0.9781 -0.4799  0.6928
  454MPD2     C 6811   2.483   4.729  16.443 -0.5234 -0.3636 -0.0030
  454MPD2    C1 6812   2.393   0.084  16.415  0.4764 -0.8162 -0.5091
  454MPD2    C2 6813   2.331   0.146  16.526 -0.1501 -0.3911  0.3572
  454MPD2    C3 6814   2.339   0.098  16.657  0.2197 -0.0587 -0.0201
  454MPD2    C4 6815   2.430   4.743  16.685 -0.5340  0.4404  0.2016
  454MPD2    C5 6816   2.506   4.689  16.576  0.0300  0.6235  0.4514
  454MPD2     H 6817   2.282   0.237  16.494  0.1961  0.3420  1.9214
  454MPD2    H1 6818   2.439   4.700  16.785 -1.7234  1.1355  0.6156
  454MPD2    H2 6819   2.545   4.688  16.364  0.4362  0.9188  0.0954
  454MPD2    H3 6820   2.583   4.617  16.598  0.2844  0.1843 -1.8524
  454MPD2     N 6821   2.261   0.145  16.767 -0.3867 -0.1233 -0.4166
  454MPD2    H5 6822   2.287   0.125  16.863  0.1842 -0.8720 -0.7297
  454MPD2    N1 6823   2.355   0.130  16.288 -0.0109  0.0499 -0.4300
  454MPD2    H7 6824   2.294   0.210  16.270 -2.1090 -1.6854 -1.1154
  455TMC3    C1 6825   2.067   0.233  16.634 -0.1250 -0.1161  0.2316
  455TMC3    C2 6826   1.989   0.345  16.597  0.2294 -0.2502  0.1689
  455TMC3    C3 6827   1.870   0.323  16.531  0.1085 -0.1609 -0.6346
  455TMC3    C4 6828   2.024   0.110  16.594 -0.0369 -0.0493 -0.7823
  455TMC3    C5 6829   1.911   0.101  16.522  0.0882 -0.6820 -0.0154
  455TMC3    C6 6830   1.828   0.204  16.483 -0.1656 -0.3326 -0.3290
  455TMC3     C 6831   2.155   0.239  16.755  0.3182 -0.1348  0.1705
  455TMC3     O 6832   2.118   0.304  16.852  0.5741  0.5892 -0.3895
  455TMC3     H 6833   2.019   0.440  16.641  0.0855 -0.3590  0.5054
  455TMC3    H1 6834   2.067   0.021  16.638 -0.3119  0.9519  1.5296
  455TMC3    H2 6835   1.750   0.187  16.409 -1.0214  1.1504  0.2345
  455TMC3    C7 6836   1.892   4.719  16.451 -0.9863 -0.1918  0.2611
  455TMC3    C8 6837   1.756   0.412  16.567  0.4028 -0.4845 -0.8876
  455TMC3    O1 6838   1.782   4.674  16.423 -0.4798 -0.4832  0.0063
  455TMC3    O2 6839   1.776   0.531  16.585 -0.0390  0.3767 -0.0825
  456MPD2     C 6840   0.548   4.729  15.811 -0.6769  0.3145 -0.6874
  456MPD2    C1 6841   0.538   4.667  15.932  0.0637  0.3918 -0.0598
  456MPD2    C2 6842   0.446   4.723  16.023  0.2220 -0.1960  0.0135
  456MPD2    C3 6843   0.368   0.095  15.986 -0.4151  0.6469 -0.6998
  456MPD2    C4 6844   0.385   0.154  15.862  0.3562 -0.1556 -0.0236
  456MPD2    C5 6845   0.469   0.093  15.770 -0.2766 -0.0555  0.1346
  456MPD2     H 6846   0.418   4.667  16.111 -0.9250  0.2729 -0.0604
  456MPD2    H1 6847   0.330   0.243  15.833  3.6706  1.6372 -0.8867
  456MPD2    H2 6848   0.614   4.692  15.733  1.1199  1.4628  0.2899
  456MPD2    H3 6849   0.485   0.132  15.670 -2.1759  1.3718  0.3675
  456MPD2     N 6850   0.276   0.144  16.082 -0.2718 -0.5701 -0.2439
  456MPD2    H5 6851   0.255   0.083  16.160  2.9873 -2.8925 -1.1400
  456MPD2    N1 6852   0.623   4.557  15.959  0.5871  0.1645  0.4370
  456MPD2    H7 6853   0.698   4.538  15.893  0.2949 -0.0917  0.1785
  457TMC3    C1 6854   0.156   0.290  16.217 -0.4563  0.3870  0.0229
  457TMC3    C2 6855   0.045   0.364  16.210 -0.4542 -0.3008  0.1434
  457TMC3    C3 6856   4.710   0.374  16.322  0.7843  0.1316  0.5911
  457TMC3    C4 6857   0.200   0.218  16.329  0.0870  0.1139  0.2248
  457TMC3    C5 6858   0.115   0.224  16.435  0.2570 -0.4610  0.3107
  457TMC3    C6 6859   0.001   0.299  16.434 -0.6679  0.0060 -0.6522
  457TMC3     C 6860   0.218   0.264  16.084  0.3592 -0.6136 -0.8080
  457TMC3     O 6861   0.214   0.357  16.003  0.3930 -0.0582  0.1155
  457TMC3     H 6862   0.018   0.411  16.116 -3.5206 -3.0813 -0.4046
  457TMC3    H1 6863   0.293   0.163  16.324 -0.7080 -1.0053 -2.7092
  457TMC3    H2 6864   4.659   0.292  16.500  1.1843 -2.0017  1.5593
  457TMC3    C7 6865   0.138   0.150  16.559 -0.9833 -0.0969  0.1986
  457TMC3    C8 6866   4.627   0.494  16.328  0.4725  0.6653 -0.9367
  457TMC3    O1 6867   0.207   0.047  16.558 -0.1906 -0.3376 -0.4655
  457TMC3    O2 6868   4.625   0.562  16.428  0.3512  0.5773  0.1049
  458MPD2     C 6869   2.805   4.148  12.344  0.2864  0.5705  0.1906
  458MPD2    C1 6870   2.718   4.045  12.380 -0.3186  0.1307 -0.1840
  458MPD2    C2 6871   2.646   3.976  12.276  0.8173  0.5608  0.5665
  458MPD2    C3 6872   2.649   4.021  12.147 -0.1629  0.6736 -0.5151
  458MPD2    C4 6873   2.721   4.136  12.119 -0.8829 -0.8829  0.2968
  458MPD2    C5 6874   2.813   4.182  12.209  0.6670  0.1664  0.2804
  458MPD2     H 6875   2.588   3.892  12.314 -0.0125  0.3184 -1.2098
  458MPD2    H1 6876   2.727   4.180  12.021 -1.4965 -1.1980  0.1151
  458MPD2    H2 6877   2.866   4.212  12.407  2.7348  1.1233 -2.7068
  458MPD2    H3 6878   2.872   4.271  12.186 -1.0998  1.1695 -0.4014
  458MPD2     N 6879   2.557   3.963  12.052 -0.3744  0.3526  0.4938
  458MPD2    H5 6880   2.494   3.888  12.078  0.6063 -0.7595 -0.3908
  458MPD2    N1 6881   2.716   4.020  12.519  0.0709  0.1449  0.1267
  458MPD2    H7 6882   2.781   4.077  12.572 -0.2720 -1.2774  2.0643
  459TMC3    C1 6883   2.642   3.943  12.728 -0.9941  0.2836 -0.7295
  459TMC3    C2 6884   2.657   4.074  12.769  0.7238 -0.1191  0.2076
  459TMC3    C3 6885   2.653   4.096  12.904  0.4459 -1.1213  0.2294
  459TMC3    C4 6886   2.618   3.833  12.813  0.0390  0.3297 -0.0255
  459TMC3    C5 6887   2.614   3.864  12.945  0.1662  0.1577 -0.7970
  459TMC3    C6 6888   2.634   3.996  12.993 -0.1168  0.4056 -0.2261
  459TMC3     C 6889   2.641   3.931  12.584  0.6065 -0.2553 -0.4484
  459TMC3     O 6890   2.574   3.839  12.540 -0.2483 -0.1555 -0.6875
  459TMC3     H 6891   2.656   4.159  12.701 -3.9777  0.3518  0.8774
  459TMC3    H1 6892   2.611   3.734  12.770  0.4019  0.2910  0.0091
  459TMC3    H2 6893   2.643   4.020  13.099  0.5334 -1.9152  0.2636
  459TMC3    C7 6894   2.662   3.761  13.030  0.3731  0.1341 -0.4725
  459TMC3    C8 6895   2.724   4.208  12.956  0.2657  0.6753 -0.2548
  459TMC3    O1 6896   2.733   3.679  12.978  0.4445  0.0726 -0.4608
  459TMC3    O2 6897   2.796   4.205  13.054 -0.0587  0.3820  0.3036
  460MPD2     C 6898   1.689   2.589  11.027 -0.4780 -0.8337 -0.5745
  460MPD2    C1 6899   1.656   2.462  10.997 -0.2827 -0.3067  0.0822
  460MPD2    C2 6900   1.552   2.435  10.914 -0.1098  0.3861 -0.9027
  460MPD2    C3 6901   1.492   2.532  10.844  0.3462  0.4092 -0.0060
  460MPD2    C4 6902   1.522   2.662  10.873 -0.1296 -0.7690 -0.0455
  460MPD2    C5 6903   1.620   2.692  10.964 -0.5652 -1.5067  0.6506
  460MPD2     H 6904   1.517   2.335  10.892 -0.2658 -0.1447  1.7209
  460MPD2    H1 6905   1.479   2.747  10.822  1.3781 -1.3196 -2.2438
  460MPD2    H2 6906   1.763   2.621  11.099 -0.9036  0.0438 -0.5200
  460MPD2    H3 6907   1.648   2.794  10.985  0.7815 -1.5490 -0.9187
  460MPD2     N 6908   1.394   2.493  10.751 -0.3638  0.3365  0.7280
  460MPD2    H5 6909   1.372   2.393  10.752 -2.1034  0.6967 -1.1291
  460MPD2    N1 6910   1.732   2.364  11.062 -0.1025 -0.0351  0.0567
  460MPD2    H7 6911   1.813   2.392  11.117 -0.8121  0.7491  0.7135
  461TMC3    C1 6912   1.235   2.532  10.579  0.7540  0.2679  0.1328
  461TMC3    C2 6913   1.178   2.406  10.585 -0.0216 -1.0712 -0.1490
  461TMC3    C3 6914   1.140   2.345  10.469 -0.1626  0.3713 -0.3696
  461TMC3    C4 6915   1.237   2.603  10.463  1.1518 -0.3197 -0.1203
  461TMC3    C5 6916   1.183   2.541  10.352  0.1180 -0.3160  0.1787
  461TMC3    C6 6917   1.142   2.412  10.352  0.0141  0.2784 -0.1734
  461TMC3     C 6918   1.317   2.584  10.679 -0.6638  0.6658 -0.2161
  461TMC3     O 6919   1.348   2.702  10.666  0.6024 -0.1183  0.0544
  461TMC3     H 6920   1.190   2.349  10.676  0.2071  1.5011  1.4330
  461TMC3    H1 6921   1.263   2.708  10.469 -2.0057  0.3829  1.3245
  461TMC3    H2 6922   1.102   2.379  10.257 -0.9839 -0.1391  0.3963
  461TMC3    C7 6923   1.203   2.616  10.230 -0.0728 -0.2508  0.4581
  461TMC3    C8 6924   1.088   2.211  10.472  0.4917 -0.4436  0.0751
  461TMC3    O1 6925   1.122   2.611  10.136 -0.2190  0.2983 -0.4285
  461TMC3    O2 6926   1.066   2.175  10.588 -0.0958 -0.3589  0.7435
  462TMC3    C1 6927   2.021   2.219  17.583  0.1970  0.6885  0.4007
  462TMC3    C2 6928   2.031   2.139  17.474 -0.4120 -0.4247  0.0244
  462TMC3    C3 6929   1.928   2.057  17.457  0.1153 -0.0585 -0.0916
  462TMC3    C4 6930   1.913   2.224  17.662  0.1929 -0.5193  0.0560
  462TMC3    C5 6931   1.803   2.145  17.631  0.1963  0.2060  0.2042
  462TMC3    C6 6932   1.818   2.049  17.539 -0.0180 -0.0570  0.3674
  462TMC3     C 6933   2.146   2.291  17.612  0.1217 -0.1258  0.0116
  462TMC3     O 6934   2.253   2.244  17.572 -0.3810  0.0725  0.1097
  462TMC3     H 6935   2.127   2.133  17.423  0.0072  2.9328  0.4457
  462TMC3    H1 6936   1.901   2.310  17.727 -2.0179  0.8777 -2.2329
  462TMC3    H2 6937   1.735   1.994  17.495 -0.9473  1.5912  0.0765
  462TMC3    C7 6938   1.671   2.185  17.665  0.4570  0.3911 -0.7257
  462TMC3    C8 6939   1.959   1.949  17.358 -0.1454 -0.0232 -0.6338
  462TMC3    O1 6940   1.581   2.096  17.659 -0.0458 -0.1858 -0.3562
  462TMC3    O2 6941   1.937   1.834  17.386 -0.1002 -0.4513  0.2230
  463MPD2     C 6942   3.298   1.573   1.230  0.8570  0.1940 -0.0326
  463MPD2    C1 6943   3.232   1.451   1.222 -0.4997 -0.8542 -0.1665
  463MPD2    C2 6944   3.308   1.331   1.224 -0.0819 -0.8646 -0.0771
  463MPD2    C3 6945   3.446   1.333   1.227  0.2365  0.1918  0.1019
  463MPD2    C4 6946   3.511   1.456   1.226  0.2187 -0.2677  0.2185
  463MPD2    C5 6947   3.437   1.573   1.229  0.1678 -0.6868 -0.3250
  463MPD2     H 6948   3.255   1.237   1.229  0.4630 -1.2217 -1.0318
  463MPD2    H1 6949   3.619   1.461   1.232  0.2022  0.0170  0.3342
  463MPD2    H2 6950   3.252   1.670   1.239  0.8819  0.4094 -2.3037
  463MPD2    H3 6951   3.486   1.670   1.225 -3.0037  1.1318  4.6788
  463MPD2     N 6952   3.526   1.222   1.245  0.0809  0.1208  0.4766
  463MPD2    H5 6953   3.620   1.249   1.272  0.9344 -3.8908  1.4118
  463MPD2    N1 6954   3.093   1.431   1.221  0.1300  0.7131  0.5387
  463MPD2    H7 6955   3.066   1.334   1.212  1.0580  0.7594 -2.5996
  464TMC3    C1 6956   2.866   1.493   1.228  0.4416 -0.8282  0.3860
  464TMC3    C2 6957   2.781   1.575   1.156 -0.2092 -0.2709  0.0542
  464TMC3    C3 6958   2.654   1.528   1.128  0.1739  0.1900 -0.1997
  464TMC3    C4 6959   2.840   1.363   1.246 -0.1135  0.3878 -0.3145
  464TMC3    C5 6960   2.713   1.315   1.206 -0.2058 -0.0040  0.2277
  464TMC3    C6 6961   2.619   1.399   1.154 -0.0940  0.2528 -0.0876
  464TMC3     C 6962   3.003   1.536   1.241  0.0814 -0.2477  0.0724
  464TMC3     O 6963   3.027   1.660   1.246 -0.2386  0.1924 -0.0333
  464TMC3     H 6964   2.814   1.677   1.140 -0.0070 -0.5141 -1.0755
  464TMC3    H1 6965   2.912   1.300   1.297  1.4725  0.9236 -1.8822
  464TMC3    H2 6966   2.514   1.373   1.152  0.1940 -0.8298 -1.1525
  464TMC3    C7 6967   2.665   1.189   1.261  0.0569 -0.4530 -0.7564
  464TMC3    C8 6968   2.544   1.620   1.094  0.3221 -0.4089  0.9683
  464TMC3    O1 6969   2.745   1.115   1.309 -0.2456 -0.1575  0.0635
  464TMC3    O2 6970   2.443   1.564   1.047 -0.0099 -0.3778  0.8191
  465MPD2     C 6971   4.125   4.723  16.436  0.1838  0.4645  0.9947
  465MPD2    C1 6972   4.070   0.010  16.559  0.4052 -0.4418  0.2593
  465MPD2    C2 6973   3.999   0.129  16.564  1.0666 -0.1464  0.5282
  465MPD2    C3 6974   3.989   0.220  16.463  0.2626  0.0005 -0.0525
  465MPD2    C4 6975   4.044   0.190  16.340  0.2171  0.0294 -0.3865
  465MPD2    C5 6976   4.114   0.062  16.331  0.0815 -0.2033 -0.2853
  465MPD2     H 6977   3.972   0.175  16.658 -0.5259 -0.5074  0.2420
  465MPD2    H1 6978   4.049   0.259  16.256 -2.4794 -1.2325 -1.6248
  465MPD2    H2 6979   4.179   4.631  16.416 -0.5122  0.0200  1.1589
  465MPD2    H3 6980   4.173   0.035  16.244 -1.2606  0.6720 -1.4740
  465MPD2     N 6981   3.912   0.334  16.482  0.2038  0.4812 -0.5509
  465MPD2    H5 6982   3.875   0.342  16.577 -1.9660 -1.2675 -1.2692
  465MPD2    N1 6983   4.077   4.679  16.679  0.0856 -0.2555  0.5040
  465MPD2    H7 6984   4.038   4.721  16.762  0.7545  0.4974  0.4294
  466TMC3    C1 6985   3.585   0.594  16.499  0.1821 -0.4987 -0.0171
  466TMC3    C2 6986   3.607   0.721  16.474  0.1792 -0.8455  0.4708
  466TMC3    C3 6987   3.736   0.765  16.445 -0.2284 -0.2748  0.5558
  466TMC3    C4 6988   3.684   0.500  16.481  0.2152  0.1507 -0.8212
  466TMC3    C5 6989   3.807   0.544  16.452 -0.5695  0.2946  0.0260
  466TMC3    C6 6990   3.840   0.673  16.427  0.5058 -0.1657 -0.0534
  466TMC3     C 6991   3.440   0.559  16.510  0.3255 -0.0975  0.2625
  466TMC3     O 6992   3.375   0.630  16.582 -0.2314 -0.0070 -0.2462
  466TMC3     H 6993   3.528   0.795  16.476  0.5180 -0.5107  1.9045
  466TMC3    H1 6994   3.668   0.398  16.514  1.8677  0.6699  1.6073
  466TMC3    H2 6995   3.943   0.703  16.411 -0.0665  1.9716  0.3415
  466TMC3    C7 6996   3.913   0.449  16.411  0.7261 -0.1701 -0.0289
  466TMC3    C8 6997   3.765   0.904  16.421 -0.0361  0.3274 -0.3660
  466TMC3    O1 6998   3.997   0.481  16.333  0.3851  0.2193 -0.1145
  466TMC3    O2 6999   3.875   0.927  16.372  0.4928 -0.0223 -0.4041
  467TMC3    C1 7000   0.064   3.588  13.873 -0.6167  0.6631  0.1335
  467TMC3    C2 7001   0.029   3.716  13.898  0.4075 -0.7843 -0.1320
  467TMC3    C3 7002   4.635   3.751  13.894 -0.1725  0.4791  0.4995
  467TMC3    C4 7003   4.715   3.494  13.859 -0.1368  0.1503  0.5369
  467TMC3    C5 7004   4.580   3.522  13.882  0.0406 -0.5789 -0.0002
  467TMC3    C6 7005   4.544   3.653  13.895 -0.3363 -0.4882 -0.2119
  467TMC3     C 7006   0.205   3.561  13.867  0.7461 -0.0710 -0.5018
  467TMC3     O 7007   0.285   3.650  13.887 -0.0328  0.4116  0.1343
  467TMC3     H 7008   0.095   3.801  13.903 -1.3806  0.5044  1.6424
  467TMC3    H1 7009   4.733   3.402  13.805 -0.1717  0.1739  0.4848
  467TMC3    H2 7010   4.441   3.688  13.892 -0.3052 -0.5016 -1.2079
  467TMC3    C7 7011   4.486   3.430  13.816  1.0614 -0.0679  0.6709
  467TMC3    C8 7012   4.610   3.894  13.912 -0.0027  0.6258  0.6993
  467TMC3    O1 7013   4.531   3.361  13.729  0.2474  0.1688 -0.2364
  467TMC3    O2 7014   4.696   3.964  13.964  0.4284 -0.1421  0.4539
  468MPD2     C 7015   3.312   1.897  10.966  0.6041  0.3208  0.3207
  468MPD2    C1 7016   3.450   1.873  10.929  0.3388 -0.4033 -0.2168
  468MPD2    C2 7017   3.515   1.763  10.982  0.0332  0.0979 -0.2676
  468MPD2    C3 7018   3.442   1.678  11.058 -0.8676 -0.8430  0.1042
  468MPD2    C4 7019   3.313   1.701  11.088  0.9357 -0.3113  0.3321
  468MPD2    C5 7020   3.245   1.803  11.039  0.2980  0.5027  0.0708
  468MPD2     H 7021   3.618   1.736  10.964  0.4375 -0.2750  2.7050
  468MPD2    H1 7022   3.273   1.627  11.157 -1.3075 -1.7777 -2.5507
  468MPD2    H2 7023   3.259   1.987  10.938 -1.5883 -0.8455  0.7186
  468MPD2    H3 7024   3.148   1.821  11.083  0.0010 -0.1941 -0.2909
  468MPD2     N 7025   3.487   1.554  11.114  0.5370 -0.8407  0.3785
  468MPD2    H5 7026   3.423   1.503  11.174  0.4586 -0.8767  0.2638
  468MPD2    N1 7027   3.513   1.964  10.839 -0.5159  0.6167  0.1115
  468MPD2    H7 7028   3.471   2.054  10.818 -1.5992  0.9702  3.7842
  469TMC3    C1 7029   3.694   2.049  10.699 -0.5707 -0.6194 -0.6628
  469TMC3    C2 7030   3.814   2.017  10.631  0.1372 -0.0433 -0.2589
  469TMC3    C3 7031   3.911   2.115  10.618 -0.3081  0.6328 -0.2239
  469TMC3    C4 7032   3.665   2.171  10.750  0.3436  1.1175  0.1977
  469TMC3    C5 7033   3.758   2.269  10.727 -0.2785 -0.5193  0.5914
  469TMC3    C6 7034   3.876   2.245  10.662 -0.5486 -0.1393 -0.5032
  469TMC3     C 7035   3.638   1.935  10.772 -0.0879 -0.4550 -0.2652
  469TMC3     O 7036   3.699   1.829  10.774 -0.4536 -0.0769  0.4142
  469TMC3     H 7037   3.825   1.918  10.589 -0.7764 -1.1651  2.1394
  469TMC3    H1 7038   3.580   2.192  10.814  0.1203 -2.5526  1.0776
  469TMC3    H2 7039   3.950   2.322  10.680 -1.2297  0.1960  0.8737
  469TMC3    C7 7040   3.772   2.371  10.826  0.3500  0.0313 -0.3159
  469TMC3    C8 7041   4.040   2.072  10.661  0.9062 -0.3172 -0.0489
  469TMC3    O1 7042   3.786   2.487  10.786  0.3356 -0.2339  0.7663
  469TMC3    O2 7043   4.143   2.118  10.615  0.0605 -0.0459 -0.2878
  470TMC3    C1 7044   1.012   2.509   0.488 -1.0159 -0.2868  0.0828
  470TMC3    C2 7045   1.010   2.648   0.478 -0.2347 -0.3019  0.9037
  470TMC3    C3 7046   1.130   2.715   0.458 -0.7602  0.4008  0.1918
  470TMC3    C4 7047   1.128   2.444   0.492 -0.0915 -0.7986 -0.9359
  470TMC3    C5 7048   1.238   2.520   0.499  0.2029 -0.0467 -0.0061
  470TMC3    C6 7049   1.250   2.651   0.459 -0.3704 -0.1295 -0.2776
  470TMC3     C 7050   0.889   2.440   0.497 -0.1400  0.8935  0.4258
  470TMC3     O 7051   0.887   2.338   0.564 -0.4818 -0.2652  0.4762
  470TMC3     H 7052   0.922   2.710   0.476 -0.5307 -0.7061  1.3127
  470TMC3    H1 7053   1.123   2.336   0.498  0.8634 -0.9510 -3.0071
  470TMC3    H2 7054   1.346   2.698   0.473 -0.3557  0.0049 -0.8105
  470TMC3    C7 7055   1.335   2.487   0.597 -0.2249 -0.5434  0.0964
  470TMC3    C8 7056   1.128   2.861   0.482  0.1096  0.1137  0.3543
  470TMC3    O1 7057   1.447   2.468   0.550 -0.1071 -0.0589  0.3732
  470TMC3    O2 7058   1.019   2.915   0.491  0.8836 -0.0251  0.2573
  471MPD2     C 7059   0.893   3.400  17.182  0.1854 -0.1287  0.4167
  471MPD2    C1 7060   0.993   3.463  17.122  0.3091 -0.4965  0.1012
  471MPD2    C2 7061   1.110   3.478  17.194  0.2473 -0.3582  0.6847
  471MPD2    C3 7062   1.120   3.419  17.321  0.0477 -0.0969 -0.3223
  471MPD2    C4 7063   1.013   3.351  17.375 -0.2366 -0.2406  0.2332
  471MPD2    C5 7064   0.906   3.326  17.300  0.1371 -0.5848  0.1846
  471MPD2     H 7065   1.199   3.524  17.152  1.3279 -1.4716  1.7402
  471MPD2    H1 7066   1.022   3.322  17.478 -3.1634  0.9527  0.8425
  471MPD2    H2 7067   0.795   3.388  17.136 -0.3090 -0.5040  1.5628
  471MPD2    H3 7068   0.826   3.267  17.345 -0.3046 -0.0904  0.0517
  471MPD2     N 7069   1.236   3.424  17.402 -0.1604  0.4158  0.6004
  471MPD2    H5 7070   1.232   3.398  17.500  0.1794 -0.0465  0.4901
  471MPD2    N1 7071   0.983   3.520  16.994  0.0994 -0.2562 -0.4305
  471MPD2    H7 7072   1.056   3.582  16.962 -0.1573 -0.7270 -1.9115
  472TMC3    C1 7073   0.913   3.561  16.782  0.4738 -0.0069 -0.6421
  472TMC3    C2 7074   0.802   3.583  16.709 -0.4316  0.6070  0.0699
  472TMC3    C3 7075   0.821   3.572  16.580  0.1573 -0.1441  0.9163
  472TMC3    C4 7076   1.037   3.535  16.730 -0.0284  0.2187 -0.1480
  472TMC3    C5 7077   1.045   3.513  16.596 -0.4554  0.0764  0.4686
  472TMC3    C6 7078   0.932   3.531  16.521  0.4583 -0.5898 -1.3025
  472TMC3     C 7079   0.877   3.505  16.909 -0.7623 -0.2251 -0.6042
  472TMC3     O 7080   0.772   3.452  16.920  0.0664  0.5355  0.2079
  472TMC3     H 7081   0.699   3.586  16.745 -0.2622 -1.1221  0.7260
  472TMC3    H1 7082   1.126   3.533  16.792 -0.3581 -2.8010  0.2302
  472TMC3    H2 7083   0.924   3.516  16.414  1.2689  1.4722 -1.6575
  472TMC3    C7 7084   1.090   3.377  16.578 -0.2487  0.5357 -0.0734
  472TMC3    C8 7085   0.701   3.555  16.505  0.3413  0.1837 -0.0381
  472TMC3    O1 7086   1.135   3.339  16.687 -0.7482  0.1140 -0.1292
  472TMC3    O2 7087   0.647   3.657  16.460  0.1909  0.8427  0.1879
  473MPD2     C 7088   1.073   0.751  13.920  0.1946  0.0374 -0.2830
  473MPD2    C1 7089   1.073   0.879  13.863 -0.0520  0.0822  0.1669
  473MPD2    C2 7090   1.078   0.989  13.942  0.4051 -0.5729 -1.3322
  473MPD2    C3 7091   1.094   0.975  14.080  0.4482  0.4015 -0.4665
  473MPD2    C4 7092   1.092   0.848  14.137 -0.3975  0.4647  0.3558
  473MPD2    C5 7093   1.076   0.741  14.058  0.1450 -0.3121 -0.5549
  473MPD2     H 7094   1.078   1.086  13.894  0.8871 -0.0296 -0.2443
  473MPD2    H1 7095   1.081   0.820  14.241  0.6958 -0.6702  0.1623
  473MPD2    H2 7096   1.072   0.661  13.859  2.8633  0.2886 -0.6715
  473MPD2    H3 7097   1.066   0.640  14.094  0.6054 -0.1556  0.0102
  473MPD2     N 7098   1.095   1.082  14.176  0.2936  0.1558  0.2799
  473MPD2    H5 7099   1.092   1.066  14.276 -3.3669 -0.6207  0.0464
  473MPD2    N1 7100   1.064   0.896  13.721  0.0430 -0.2086  0.1090
  473MPD2    H7 7101   1.059   0.988  13.678 -0.4216 -0.4518 -0.3501
  474TMC3    C1 7102   1.080   1.297  14.273  0.8757 -0.0043 -0.3213
  474TMC3    C2 7103   0.995   1.404  14.266 -0.0061 -0.1457 -0.7214
  474TMC3    C3 7104   0.952   1.460  14.375  0.5938  0.1347 -0.4024
  474TMC3    C4 7105   1.109   1.238  14.391 -0.5250  0.6520  0.6661
  474TMC3    C5 7106   1.077   1.307  14.499  0.5415 -0.0180  0.4259
  474TMC3    C6 7107   0.995   1.420  14.497  0.9567 -0.1976  0.0897
  474TMC3     C 7108   1.091   1.218  14.151  0.3486  0.5231 -0.1102
  474TMC3     O 7109   1.084   1.277  14.042 -0.4012  0.4335  0.2722
  474TMC3     H 7110   0.960   1.440  14.170 -0.7745 -0.5152 -0.5745
  474TMC3    H1 7111   1.181   1.157  14.388  1.7758  2.6850  1.2104
  474TMC3    H2 7112   0.966   1.474  14.586  2.1010  1.4365 -0.5322
  474TMC3    C7 7113   1.148   1.270  14.618  0.0047 -0.7699  0.5110
  474TMC3    C8 7114   0.859   1.571  14.356 -0.2601  0.0954 -0.6042
  474TMC3    O1 7115   1.173   1.159  14.624  0.1513  0.0106  0.5535
  474TMC3    O2 7116   0.755   1.574  14.420 -0.6266 -0.3701  0.5088
  475MPD2     C 7117   3.845   4.592  11.600  0.0344 -0.1190  0.3697
  475MPD2    C1 7118   3.925   4.642  11.497  0.3213 -0.2825  0.0430
  475MPD2    C2 7119   3.872   4.644  11.366 -0.4582  0.3750  0.7290
  475MPD2    C3 7120   3.750   4.580  11.341 -0.1537  0.3488 -0.2599
  475MPD2    C4 7121   3.673   4.544  11.449  0.1656  0.4573  0.0372
  475MPD2    C5 7122   3.722   4.546  11.583  0.6085  0.0076 -0.4792
  475MPD2     H 7123   3.935   4.678  11.284 -1.8514  1.2437  0.0179
  475MPD2    H1 7124   3.570   4.516  11.432  0.5549 -0.3125 -1.0636
  475MPD2    H2 7125   3.886   4.586  11.700 -0.4948  0.4369  0.6252
  475MPD2    H3 7126   3.657   4.504  11.659  0.0898  2.1165  0.2246
  475MPD2     N 7127   3.704   4.580  11.205  0.2750  0.0622  0.0986
  475MPD2    H5 7128   3.765   4.608  11.128  1.2162  0.3359  0.9503
  475MPD2    N1 7129   4.061   4.686  11.515  0.0116  0.0459  0.3289
  475MPD2    H7 7130   4.109   4.738  11.442  1.4040 -0.4671  0.9000
  476TMC3    C1 7131   4.254   4.730  11.634  0.0538 -0.5542 -0.5069
  476TMC3    C2 7132   4.326   4.718  11.517  0.0070 -0.4123  0.3224
  476TMC3    C3 7133   4.462   0.018  11.515 -0.5722  0.3185  0.1581
  476TMC3    C4 7134   4.316   0.028  11.749 -0.0539 -0.5278 -0.4469
  476TMC3    C5 7135   4.443   0.073  11.740 -0.2508  0.0484 -0.5115
  476TMC3    C6 7136   4.521   0.069  11.629 -0.3665 -0.5751  0.0811
  476TMC3     C 7137   4.123   4.677  11.643  0.0394  0.0461  0.9922
  476TMC3     O 7138   4.087   4.629  11.753  0.2319 -0.0613 -0.3320
  476TMC3     H 7139   4.276   4.679  11.429  1.4651 -1.6155  0.0200
  476TMC3    H1 7140   4.270   0.035  11.847 -0.2903 -0.3967 -0.5669
  476TMC3    H2 7141   4.624   0.103  11.628 -0.8478  0.8538 -0.7048
  476TMC3    C7 7142   4.502   0.117  11.865  1.1523  0.0922  0.4558
  476TMC3    C8 7143   4.545   0.006  11.400 -0.1209 -0.3561 -0.2921
  476TMC3    O1 7144   4.460   0.064  11.966  0.1062  0.0794 -0.2855
  476TMC3    O2 7145   4.649   0.069  11.397  0.0204 -0.1695  0.1524
  477MPD2     C 7146   2.327   1.504  12.123 -1.2112 -0.6257  0.2964
  477MPD2    C1 7147   2.352   1.407  12.028  0.8571 -0.4517  0.4637
  477MPD2    C2 7148   2.346   1.273  12.061  0.4415  0.2556 -0.3644
  477MPD2    C3 7149   2.322   1.239  12.191 -0.5913 -0.0519 -0.5797
  477MPD2    C4 7150   2.313   1.336  12.287  0.1371  0.3946 -0.5751
  477MPD2    C5 7151   2.310   1.466  12.251  0.0329  1.3553 -0.7524
  477MPD2     H 7152   2.370   1.193  11.992 -0.2687 -1.2160  1.0928
  477MPD2    H1 7153   2.319   1.323  12.394 -0.1427  0.3628 -0.5636
  477MPD2    H2 7154   2.328   1.610  12.102 -0.9298 -0.9570 -1.3373
  477MPD2    H3 7155   2.292   1.538  12.330 -1.4125  0.0628  0.0853
  477MPD2     N 7156   2.290   1.108  12.221 -0.3212 -0.5063  0.0412
  477MPD2    H5 7157   2.301   1.041  12.146  1.8243 -1.8294  1.5276
  477MPD2    N1 7158   2.362   1.459  11.893  0.3620 -0.6591 -0.0344
  477MPD2    H7 7159   2.370   1.559  11.876 -1.8530 -0.1785  1.7648
  478TMC3    C1 7160   2.391   1.469  11.659  0.4340 -0.4443  0.4859
  478TMC3    C2 7161   2.384   1.605  11.682  0.1311  0.2580  0.0210
  478TMC3    C3 7162   2.283   1.674  11.622  0.2160 -0.1427 -0.8984
  478TMC3    C4 7163   2.323   1.414  11.558 -1.0702  0.1047  0.1542
  478TMC3    C5 7164   2.234   1.488  11.487  0.5080 -0.3304 -1.0351
  478TMC3    C6 7165   2.198   1.612  11.533  0.3649  0.7295  0.2402
  478TMC3     C 7166   2.372   1.377  11.779  0.4575  0.3256  0.6097
  478TMC3     O 7167   2.357   1.256  11.768  0.7528  0.5583  0.0125
  478TMC3     H 7168   2.456   1.643  11.753  0.2841 -1.7351  0.9385
  478TMC3    H1 7169   2.338   1.307  11.543 -1.2050  0.1649 -0.4174
  478TMC3    H2 7170   2.104   1.660  11.507 -0.3806  0.5333  2.5492
  478TMC3    C7 7171   2.174   1.426  11.372  0.1204 -0.3213 -0.6276
  478TMC3    C8 7172   2.216   1.767  11.714 -0.5499  0.3252 -0.1656
  478TMC3    O1 7173   2.225   1.322  11.348  0.1487  0.0965 -0.3728
  478TMC3    O2 7174   2.276   1.774  11.822  0.1289  0.9526 -0.0375
  479MPD2     C 7175   1.290   3.217  15.185 -0.7741 -0.2950 -0.0056
  479MPD2    C1 7176   1.234   3.161  15.291 -0.1544  0.1893 -0.3278
  479MPD2    C2 7177   1.288   3.192  15.414  0.8745 -0.0948  0.1290
  479MPD2    C3 7178   1.382   3.295  15.419  0.2749 -1.3493 -1.0907
  479MPD2    C4 7179   1.445   3.346  15.305  0.2353 -0.1515  0.4350
  479MPD2    C5 7180   1.394   3.308  15.186  0.1261  0.2779  0.0422
  479MPD2     H 7181   1.256   3.149  15.508  1.0241  0.3090  0.3623
  479MPD2    H1 7182   1.494   3.443  15.317 -3.3724  1.5698  1.1445
  479MPD2    H2 7183   1.243   3.199  15.089  0.6035  0.0461 -0.7409
  479MPD2    H3 7184   1.425   3.342  15.088  1.5009 -0.4273  0.2227
  479MPD2     N 7185   1.411   3.365  15.536 -0.1891 -0.0576 -0.5860
  479MPD2    H5 7186   1.507   3.396  15.542 -0.2225  0.1631 -1.3089
  479MPD2    N1 7187   1.123   3.074  15.280  0.4242  0.4824 -0.0738
  479MPD2    H7 7188   1.093   3.055  15.185 -0.2214  1.0397  0.0229
  480TMC3    C1 7189   1.007   3.238  15.687  0.3123  0.7543  0.2844
  480TMC3    C2 7190   0.940   3.309  15.591  0.1881  0.1625 -0.3109
  480TMC3    C3 7191   1.011   3.394  15.511  0.1265  0.9096 -1.3521
  480TMC3    C4 7192   1.140   3.264  15.714  0.5193 -0.0152  0.0240
  480TMC3    C5 7193   1.199   3.369  15.643 -0.9635 -0.6881 -0.5209
  480TMC3    C6 7194   1.142   3.425  15.533  0.2429  0.0985 -0.3724
  480TMC3     C 7195   0.943   3.127  15.761 -0.3203  0.6781  0.4667
  480TMC3     O 7196   1.019   3.054  15.825  0.0720 -0.0041 -0.4615
  480TMC3     H 7197   0.843   3.269  15.564 -1.5358  3.0747  1.6278
  480TMC3    H1 7198   1.197   3.211  15.789 -0.4526 -0.2117  0.6358
  480TMC3    H2 7199   1.197   3.487  15.463 -0.4455  0.2212 -0.8053
  480TMC3    C7 7200   1.342   3.381  15.655  0.6827 -0.0015 -0.4080
  480TMC3    C8 7201   0.935   3.456  15.406  0.1534  0.2491 -0.2148
  480TMC3    O1 7202   1.387   3.386  15.767 -0.1730 -0.1259  0.0178
  480TMC3    O2 7203   0.811   3.464  15.421 -0.2170  0.0264 -0.5162
  481MPD2     C 7204   2.801   2.516  14.163 -0.0718 -0.4962 -0.1139
  481MPD2    C1 7205   2.674   2.538  14.204 -0.1542  0.1402 -0.0238
  481MPD2    C2 7206   2.625   2.465  14.306 -0.3636 -0.3346  1.0690
  481MPD2    C3 7207   2.705   2.367  14.369  0.2189 -0.0671 -0.2091
  481MPD2    C4 7208   2.830   2.339  14.326  0.5010 -0.7692  0.2010
  481MPD2    C5 7209   2.874   2.411  14.217 -0.6258  0.2151  0.1312
  481MPD2     H 7210   2.529   2.486  14.352  0.1025  0.2733  1.7617
  481MPD2    H1 7211   2.892   2.262  14.371  1.5607  0.0284  0.1096
  481MPD2    H2 7212   2.841   2.556  14.071 -1.8237 -2.2274 -1.6036
  481MPD2    H3 7213   2.976   2.391  14.185 -0.1550 -0.0300  1.7563
  481MPD2     N 7214   2.657   2.279  14.474  0.3336 -0.2513  0.3404
  481MPD2    H5 7215   2.720   2.211  14.515 -1.0051 -0.2174  2.4480
  481MPD2    N1 7216   2.596   2.629  14.130  0.0429 -0.2693 -0.2168
  481MPD2    H7 7217   2.656   2.676  14.062  1.0109 -1.2045  0.0023
  482TMC3    C1 7218   2.406   2.732  14.023 -0.2468 -0.4383  0.3761
  482TMC3    C2 7219   2.263   2.722  13.998  0.2005 -0.2536  0.1741
  482TMC3    C3 7220   2.221   2.754  13.874 -0.0900  0.2478 -0.2517
  482TMC3    C4 7221   2.488   2.770  13.929 -0.5760 -0.2067 -0.0388
  482TMC3    C5 7222   2.434   2.798  13.806  0.6083  0.0292 -0.2370
  482TMC3    C6 7223   2.301   2.797  13.776  0.3085 -0.5415  0.4226
  482TMC3     C 7224   2.461   2.646  14.128 -0.5990 -0.4654  0.6183
  482TMC3     O 7225   2.385   2.591  14.206  0.2722  0.4475 -0.2535
  482TMC3     H 7226   2.197   2.704  14.082 -1.2992  0.6154 -0.8295
  482TMC3    H1 7227   2.596   2.781  13.941 -0.1515 -1.7496 -2.4559
  482TMC3    H2 7228   2.274   2.824  13.674 -2.0369  1.9652  1.7152
  482TMC3    C7 7229   2.517   2.862  13.705 -0.6084  0.7476 -0.1671
  482TMC3    C8 7230   2.093   2.685  13.838  0.6719 -0.2069 -0.8297
  482TMC3    O1 7231   2.620   2.911  13.743  0.4682 -0.0883 -0.2408
  482TMC3    O2 7232   2.048   2.608  13.921 -0.8777 -0.1748 -0.2259
  483TMC3    C1 7233   4.703   1.830   0.666  0.9479 -0.0354 -0.3519
  483TMC3    C2 7234   4.723   1.960   0.644 -0.8657  0.6161  0.7032
  483TMC3    C3 7235   0.074   2.026   0.720  0.8820  0.6610 -0.5029
  483TMC3    C4 7236   0.023   1.761   0.766  0.0744 -1.1571  0.0228
  483TMC3    C5 7237   0.111   1.826   0.838  0.1198 -0.0890 -0.4282
  483TMC3    C6 7238   0.137   1.961   0.822 -0.2696 -0.2881  0.0756
  483TMC3     C 7239   4.656   1.758   0.548  0.2229  0.3456 -0.0578
  483TMC3     O 7240   4.587   1.830   0.476 -0.0087  0.3860 -0.0242
  483TMC3     H 7241   4.685   2.016   0.558 -0.8107 -0.0928  0.2168
  483TMC3    H1 7242   4.739   1.658   0.787  1.7189 -1.4179  0.9058
  483TMC3    H2 7243   0.209   2.014   0.883 -0.1445 -0.9421  0.4964
  483TMC3    C7 7244   0.190   1.745   0.921  0.5438  0.0432  0.0189
  483TMC3    C8 7245   0.174   2.098   0.642 -0.2912  0.1442  0.1753
  483TMC3    O1 7246   0.205   1.625   0.893 -0.2478  0.1367 -0.0063
  483TMC3    O2 7247   0.288   2.114   0.686  0.3183  0.0338 -0.0333
  484MPD2     C 7248   2.701   4.563  12.841  0.2168 -0.0131  0.3754
  484MPD2    C1 7249   2.761   4.452  12.902  0.3866  0.6579  0.1134
  484MPD2    C2 7250   2.889   4.458  12.956 -0.3356 -0.1751  0.4726
  484MPD2    C3 7251   2.962   4.580  12.944 -0.0407  0.3123  0.5042
  484MPD2    C4 7252   2.897   4.689  12.895 -0.0978 -0.0230  0.2115
  484MPD2    C5 7253   2.764   4.688  12.849 -0.3384 -0.2604  0.8460
  484MPD2     H 7254   2.940   4.375  13.004  0.6598 -0.3373 -0.8865
  484MPD2    H1 7255   2.950   0.039  12.894  1.2094 -0.7920 -1.9881
  484MPD2    H2 7256   2.602   4.561  12.798  0.1368  0.9259  0.5090
  484MPD2    H3 7257   2.715   0.034  12.814  0.8290  0.6005  1.4344
  484MPD2     N 7258   3.101   4.580  12.967 -0.0799  0.0715 -0.2089
  484MPD2    H5 7259   3.145   4.669  12.944 -0.8212  0.7641  1.0566
  484MPD2    N1 7260   2.697   4.324  12.885  0.1188 -0.5236  0.0036
  484MPD2    H7 7261   2.614   4.324  12.827 -2.3634 -0.3798  3.5481
  485TMC3    C1 7262   3.317   4.530  13.046  0.2373 -0.1852 -0.0436
  485TMC3    C2 7263   3.394   4.454  13.128  0.4967 -0.7724 -0.0868
  485TMC3    C3 7264   3.531   4.473  13.116 -0.5397 -0.7024 -0.0030
  485TMC3    C4 7265   3.367   4.606  12.945  0.4147 -0.2550  0.1891
  485TMC3    C5 7266   3.507   4.612  12.932  1.0153 -0.0336 -0.1091
  485TMC3    C6 7267   3.589   4.551  13.023 -0.5006 -0.1132 -0.0000
  485TMC3     C 7268   3.178   4.488  13.032 -0.2923 -0.8562  0.1500
  485TMC3     O 7269   3.143   4.401  13.109 -0.5516 -0.7030 -0.6874
  485TMC3     H 7270   3.352   4.399  13.211 -0.8467  3.2453  1.9136
  485TMC3    H1 7271   3.304   4.647  12.867  1.1113 -4.5737 -2.6409
  485TMC3    H2 7272   3.693   4.581  13.024 -0.7711  0.9359 -1.9820
  485TMC3    C7 7273   3.557   4.572  12.801 -0.5110 -0.5240 -0.2817
  485TMC3    C8 7274   3.615   4.364  13.144  0.5105  0.1430 -0.2134
  485TMC3    O1 7275   3.501   4.501  12.721 -0.0895  0.3914 -0.5090
  485TMC3    O2 7276   3.734   4.371  13.117 -0.1907 -0.0318  0.6159
  486MPD2     C 7277   0.340   3.095  13.405  0.2015 -0.4574 -0.2015
  486MPD2    C1 7278   0.355   3.025  13.289 -0.2955 -0.7426 -0.6817
  486MPD2    C2 7279   0.320   3.095  13.171  0.2609  0.4669  0.7104
  486MPD2    C3 7280   0.265   3.219  13.173  0.6960  0.3774 -0.2517
  486MPD2    C4 7281   0.262   3.288  13.292  0.1723  0.2085 -0.2500
  486MPD2    C5 7282   0.297   3.225  13.407  0.0720  0.1828  0.3170
  486MPD2     H 7283   0.338   3.048  13.075  0.5583  1.7102  0.1543
  486MPD2    H1 7284   0.255   3.396  13.298 -1.2975  0.0290  0.9562
  486MPD2    H2 7285   0.347   3.055  13.506  0.5773 -0.9933 -0.4387
  486MPD2    H3 7286   0.300   3.278  13.502 -2.0867  1.0977 -0.1433
  486MPD2     N 7287   0.211   3.274  13.057  0.8133  0.2894  0.1527
  486MPD2    H5 7288   0.228   3.226  12.970 -0.5876 -2.9379  1.6788
  486MPD2    N1 7289   0.397   2.894  13.303  0.1287 -0.3840 -1.0846
  486MPD2    H7 7290   0.402   2.863  13.400 -1.4469  0.1850 -0.8228
  487TMC3    C1 7291   0.474   2.678  13.252 -0.0845  0.0062  0.4989
  487TMC3    C2 7292   0.435   2.562  13.200 -0.4050 -0.0797  0.0938
  487TMC3    C3 7293   0.482   2.446  13.256 -0.4850  0.2817 -0.6659
  487TMC3    C4 7294   0.555   2.688  13.361 -0.0220  0.0863  0.2269
  487TMC3    C5 7295   0.588   2.572  13.428  0.2187  0.3768 -0.3851
  487TMC3    C6 7296   0.561   2.452  13.362 -0.7159 -0.5262 -0.4204
  487TMC3     C 7297   0.411   2.799  13.207 -0.5648 -0.2926  0.2607
  487TMC3     O 7298   0.365   2.798  13.093  0.7741  0.1280  0.5235
  487TMC3     H 7299   0.351   2.558  13.132  0.8063  0.7111 -1.4406
  487TMC3    H1 7300   0.574   2.785  13.407  2.0374 -0.8006  1.2550
  487TMC3    H2 7301   0.612   2.364  13.397 -0.9801 -0.7755 -0.6592
  487TMC3    C7 7302   0.565   2.574  13.574 -0.7349 -0.0473 -0.4382
  487TMC3    C8 7303   0.365   2.360  13.295  0.1570 -0.0139 -0.3122
  487TMC3    O1 7304   0.554   2.685  13.626  0.1346 -0.2481  0.3354
  487TMC3    O2 7305   0.262   2.422  13.291 -0.1318  0.7211 -0.2302
  488MPD2     C 7306   0.737   0.178  16.954 -0.3338  0.2024 -0.3757
  488MPD2    C1 7307   0.722   0.317  16.980 -0.8752 -0.3662  0.4406
  488MPD2    C2 7308   0.713   0.366  17.106 -0.4577 -0.7309 -0.0171
  488MPD2    C3 7309   0.743   0.272  17.213 -0.1893 -0.1984 -0.2515
  488MPD2    C4 7310   0.760   0.134  17.186 -0.1909 -0.5991 -0.0840
  488MPD2    C5 7311   0.754   0.091  17.056  0.2807  0.3914 -0.3389
  488MPD2     H 7312   0.692   0.471  17.123  0.8188 -0.5450  0.4478
  488MPD2    H1 7313   0.781   0.060  17.262 -0.4407  1.3243  1.8487
  488MPD2    H2 7314   0.719   0.136  16.856  0.4357 -0.4313 -0.2476
  488MPD2    H3 7315   0.761   4.729  17.035 -2.4619  0.0453  0.5325
  488MPD2     N 7316   0.746   0.327  17.346 -0.1871  0.1369  0.3826
  488MPD2    H5 7317   0.743   0.427  17.362 -1.4320  0.3200 -0.9824
  488MPD2    N1 7318   0.704   0.405  16.869  0.3571 -0.1242  0.6951
  488MPD2    H7 7319   0.698   0.505  16.881  2.4709  0.3598 -2.3578
  489TMC3    C1 7320   0.702   0.327  17.584  0.0471  0.1572  0.2585
  489TMC3    C2 7321   0.665   0.458  17.580 -0.0959 -0.1017 -0.2437
  489TMC3    C3 7322   0.672   0.524  17.703 -0.2225 -0.4117 -0.3510
  489TMC3    C4 7323   0.728   0.260  17.702  0.0054  0.5014 -0.0383
  489TMC3    C5 7324   0.726   0.329   0.048  0.1223  0.9594  0.9354
  489TMC3    C6 7325   0.686   0.457   0.051 -0.0332  0.5663 -0.2624
  489TMC3     C 7326   0.725   0.252  17.462 -0.3688  0.3044  0.8374
  489TMC3     O 7327   0.752   0.138  17.476 -0.0389  0.1616 -0.2010
  489TMC3     H 7328   0.634   0.509  17.490 -0.1960 -0.4357 -0.3987
  489TMC3    H1 7329   0.781   0.166  17.694 -1.2419 -0.4113  2.4503
  489TMC3    H2 7330   0.702   0.520   0.138 -2.9813 -1.3348  1.6575
  489TMC3    C7 7331   0.768   0.254   0.164 -0.7735 -0.0764 -0.0994
  489TMC3    C8 7332   0.618   0.661  17.708  0.1550  0.7616  0.3988
  489TMC3    O1 7333   0.772   0.132   0.156 -0.0539 -0.0030  0.0539
  489TMC3    O2 7334   0.597   0.705   0.047  0.8814  0.1487 -0.3936
  490MPD2     C 7335   1.401   4.495  17.302  0.1720 -0.5374 -0.6492
  490MPD2    C1 7336   1.483   4.384  17.269  0.5142  0.1610 -0.4655
  490MPD2    C2 7337   1.618   4.387  17.300 -0.0394 -0.2552  0.4008
  490MPD2    C3 7338   1.676   4.502  17.364  0.7291  0.0935  0.0542
  490MPD2    C4 7339   1.593   4.608  17.393 -0.4275  0.0613  0.2730
  490MPD2    C5 7340   1.459   4.604  17.364  0.0072 -1.1007 -0.1670
  490MPD2     H 7341   1.673   4.296  17.280 -0.4082 -0.2401 -0.6389
  490MPD2    H1 7342   1.621   4.693  17.454  0.5885  0.6118 -0.9554
  490MPD2    H2 7343   1.299   4.496  17.267 -0.2651 -0.3971  0.6291
  490MPD2    H3 7344   1.404   4.694  17.391 -1.5173 -1.6286 -1.4616
  490MPD2     N 7345   1.805   4.506  17.428  0.2110  0.8079 -0.2560
  490MPD2    H5 7346   1.844   4.583  17.481 -0.1613  1.4025 -0.8454
  490MPD2    N1 7347   1.438   4.262  17.207 -0.6684 -0.6363  0.2167
  490MPD2    H7 7348   1.505   4.186  17.202 -0.1967 -0.3151  1.4991
  491TMC3    C1 7349   1.264   4.107  17.152 -0.1073  0.7628  0.3713
  491TMC3    C2 7350   1.313   4.026  17.250  0.2072  0.0341  0.1458
  491TMC3    C3 7351   1.242   3.909  17.286  0.7016  0.1472  0.1330
  491TMC3    C4 7352   1.142   4.085  17.104 -0.2786  0.1015  1.0809
  491TMC3    C5 7353   1.082   3.970  17.127  0.4265  0.0057 -1.0784
  491TMC3    C6 7354   1.126   3.878  17.219 -0.5337  0.7478 -0.4643
  491TMC3     C 7355   1.306   4.245  17.166  0.5565 -0.1160 -0.3148
  491TMC3     O 7356   1.230   4.331  17.125 -0.0484  0.2665  0.8195
  491TMC3     H 7357   1.399   4.055  17.310  1.1156  0.7151 -1.4717
  491TMC3    H1 7358   1.105   4.154  17.029  0.6442 -0.4373  0.1230
  491TMC3    H2 7359   1.089   3.780  17.247 -1.2458  0.5870 -1.9789
  491TMC3    C7 7360   0.952   3.948  17.076 -1.0762  0.1179 -0.5628
  491TMC3    C8 7361   1.243   3.865  17.423 -0.1710  0.3156 -0.9589
  491TMC3    O1 7362   0.911   4.010  16.975 -0.0369  0.3797 -0.3063
  491TMC3    O2 7363   1.137   3.833  17.472 -0.1411 -0.5830 -0.0409
  492MPD2     C 7364   2.222   4.434  11.542 -0.0135  0.6817  0.5261
  492MPD2    C1 7365   2.104   4.402  11.476  0.2614 -0.3116  0.0055
  492MPD2    C2 7366   2.021   4.306  11.527 -0.3848 -0.2537 -0.3135
  492MPD2    C3 7367   2.040   4.254  11.650  0.5620  0.7223  0.2077
  492MPD2    C4 7368   2.155   4.290  11.713 -0.4877  0.0151  0.4508
  492MPD2    C5 7369   2.249   4.373  11.661 -0.0609 -0.6126  0.2459
  492MPD2     H 7370   1.942   4.258  11.469 -0.4250  0.1298 -0.5730
  492MPD2    H1 7371   2.175   4.252  11.813  1.8845 -0.0764 -0.0548
  492MPD2    H2 7372   2.291   4.512  11.513  2.0252 -0.9180  1.1258
  492MPD2    H3 7373   2.345   4.386  11.709  0.2530  0.1362 -0.5896
  492MPD2     N 7374   1.939   4.181  11.712  0.3232  0.5828  0.1729
  492MPD2    H5 7375   1.957   4.149  11.807  1.3820 -0.0561 -0.2441
  492MPD2    N1 7376   2.049   4.482  11.374 -0.4513 -0.1244  0.5230
  492MPD2    H7 7377   2.119   4.548  11.340 -0.9468  1.1008  1.8995
  493TMC3    C1 7378   1.895   4.597  11.241  0.2067  0.2975  0.0599
  493TMC3    C2 7379   1.971   4.708  11.254 -0.6833 -0.2918 -0.6423
  493TMC3    C3 7380   1.908   0.091  11.254 -0.4219 -0.7794 -0.4235
  493TMC3    C4 7381   1.764   4.600  11.212  0.3795 -0.1444 -0.7528
  493TMC3    C5 7382   1.699   4.718  11.209  0.1120 -0.2029  0.0960
  493TMC3    C6 7383   1.771   0.093  11.236  0.0900  0.2066 -1.1285
  493TMC3     C 7384   1.920   4.489  11.331 -0.2329  0.3531  0.0439
  493TMC3     O 7385   1.816   4.434  11.374 -0.5571  0.0292  0.5095
  493TMC3     H 7386   2.080   4.709  11.255 -0.7198  1.9225  0.7950
  493TMC3    H1 7387   1.710   4.506  11.203  0.7080 -0.2558 -1.6338
  493TMC3    H2 7388   1.713   0.179  11.268  1.1755  0.6453 -0.3207
  493TMC3    C7 7389   1.558   4.715  11.251 -1.0683 -0.2326 -0.4915
  493TMC3    C8 7390   1.994   0.205  11.292  0.6253  0.2870  0.0812
  493TMC3    O1 7391   1.520   0.045  11.343 -0.0926  0.1709  0.3580
  493TMC3    O2 7392   2.096   0.175  11.351  0.5199  0.4103 -0.7096
  494TMC3    C1 7393   1.896   1.358   0.065  0.1469  0.6834  0.2513
  494TMC3    C2 7394   1.926   1.221   0.081 -0.2017 -0.4264  0.5913
  494TMC3    C3 7395   2.001   1.163  17.758  0.0678  0.3671  0.6592
  494TMC3    C4 7396   1.945   1.429  17.735 -0.7421  0.5219  0.1875
  494TMC3    C5 7397   2.020   1.359  17.644  0.2162 -0.0101  0.3575
  494TMC3    C6 7398   2.065   1.235  17.666  0.5963 -0.8742  1.3527
  494TMC3     C 7399   1.852   1.433   0.177 -0.4560 -0.2696  0.1446
  494TMC3     O 7400   1.886   1.552   0.187 -0.3536  1.0396 -0.1853
  494TMC3     H 7401   1.906   1.165   0.172  2.3200 -0.6314  1.0146
  494TMC3    H1 7402   1.917   1.531  17.715  0.1803  1.1125  1.9353
  494TMC3    H2 7403   2.143   1.206  17.597 -1.1654 -1.6664 -0.2964
  494TMC3    C7 7404   2.109   1.440  17.560 -0.5292  0.1941  0.6533
  494TMC3    C8 7405   2.075   1.046   0.027  0.1219  0.3807  0.1767
  494TMC3    O1 7406   2.145   1.399  17.452  0.1315 -0.0377 -0.0049
  494TMC3    O2 7407   2.075   1.012   0.142 -0.3812 -0.4013  0.1437
  495TMC3    C1 7408   1.244   3.122  14.600 -0.6267 -0.3330  0.1019
  495TMC3    C2 7409   1.194   3.151  14.474 -0.1303  0.9599  0.0603
  495TMC3    C3 7410   1.133   3.278  14.469  0.3599 -0.2004 -0.1116
  495TMC3    C4 7411   1.268   3.216  14.701 -0.4026 -0.4041  0.1489
  495TMC3    C5 7412   1.210   3.337  14.686  0.1881 -0.2687 -0.2059
  495TMC3    C6 7413   1.137   3.374  14.570  0.4378  0.0164 -0.5234
  495TMC3     C 7414   1.215   2.989  14.655 -0.3223  0.4371  0.6968
  495TMC3     O 7415   1.165   3.000  14.763 -0.6128 -0.3557 -0.2794
  495TMC3     H 7416   1.196   3.082  14.391 -1.1154  1.3588 -0.2883
  495TMC3    H1 7417   1.318   3.191  14.793  0.7088 -0.6242 -0.5107
  495TMC3    H2 7418   1.082   3.467  14.566  0.2631 -0.0477  0.5443
  495TMC3    C7 7419   1.190   3.406  14.806 -0.0408 -0.2566 -0.4819
  495TMC3    C8 7420   1.020   3.294  14.371  0.5470  0.8409 -0.0910
  495TMC3    O1 7421   1.290   3.411  14.882 -0.2274  0.2980 -0.4846
  495TMC3    O2 7422   0.963   3.399  14.356  0.1605 -0.1344  0.3230
  496MPD2     C 7423   2.748   3.824  15.447 -0.5909  0.1993 -0.2296
  496MPD2    C1 7424   2.775   3.689  15.459 -0.1598  0.5041  0.2292
  496MPD2    C2 7425   2.692   3.622  15.546  0.2634  0.0792  0.2848
  496MPD2    C3 7426   2.602   3.690  15.620  0.0297  0.0266 -0.4442
  496MPD2    C4 7427   2.593   3.827  15.611 -0.3423  0.3409  0.4919
  496MPD2    C5 7428   2.660   3.893  15.526 -0.0845  0.1952  0.3707
  496MPD2     H 7429   2.698   3.514  15.556 -1.8222  0.2365  3.1935
  496MPD2    H1 7430   2.532   3.894  15.671  0.3323 -0.3377  1.9553
  496MPD2    H2 7431   2.815   3.885  15.388 -0.7511 -0.2022 -0.8311
  496MPD2    H3 7432   2.650   4.001  15.524  3.4473  0.4931 -1.4685
  496MPD2     N 7433   2.523   3.616  15.710  0.2671  0.8076  0.2315
  496MPD2    H5 7434   2.545   3.518  15.722 -0.1380  0.1676 -4.0399
  496MPD2    N1 7435   2.882   3.628  15.391 -0.0922 -0.3404 -0.1099
  496MPD2    H7 7436   2.888   3.528  15.407 -0.3966 -0.4754 -0.8072
  497TMC3    C1 7437   2.374   3.549  15.889  0.1160 -0.0189  0.1640
  497TMC3    C2 7438   2.333   3.431  15.832 -0.3589  0.0458  0.4699
  497TMC3    C3 7439   2.291   3.328  15.919  0.1427  0.5272 -0.2150
  497TMC3    C4 7440   2.388   3.562  16.026 -0.3624 -0.9583 -0.3769
  497TMC3    C5 7441   2.352   3.454  16.105  0.1133  0.4124  0.0897
  497TMC3    C6 7442   2.283   3.348  16.052  0.1984 -0.2685 -0.1416
  497TMC3     C 7443   2.432   3.661  15.804  0.3737  0.4600 -0.9543
  497TMC3     O 7444   2.411   3.772  15.854  0.4143  0.0104 -0.0416
  497TMC3     H 7445   2.328   3.422  15.724 -0.4907  1.3199  0.3639
  497TMC3    H1 7446   2.436   3.648  16.071  2.3221 -1.9656 -1.3436
  497TMC3    H2 7447   2.250   3.271  16.121 -0.1222 -1.3471 -1.5091
  497TMC3    C7 7448   2.398   3.442  16.243  0.0277  0.3486  0.3340
  497TMC3    C8 7449   2.230   3.206  15.865  0.4394 -0.2235  0.0791
  497TMC3    O1 7450   2.366   3.345  16.308  0.0766  0.1375  0.0315
  497TMC3    O2 7451   2.146   3.154  15.940  0.1330 -0.4927 -0.1460
  498MPD2     C 7452   4.435   4.527  10.554  0.5241  0.5839  0.0201
  498MPD2    C1 7453   4.350   4.588  10.646 -0.3909 -0.6013 -0.4575
  498MPD2    C2 7454   4.232   4.527  10.678  0.2314  0.2112  0.3474
  498MPD2    C3 7455   4.192   4.412  10.613  0.4867 -0.8657  0.3587
  498MPD2    C4 7456   4.274   4.352  10.518 -0.1391  0.3996 -0.0249
  498MPD2    C5 7457   4.388   4.413  10.485  0.5271 -1.0661  0.2082
  498MPD2     H 7458   4.160   4.576  10.742  0.9772  2.2090 -0.3254
  498MPD2    H1 7459   4.250   4.260  10.467  0.1567  0.0318  0.4963
  498MPD2    H2 7460   4.535   4.565  10.535  0.8804 -0.2956  0.1404
  498MPD2    H3 7461   4.460   4.363  10.422  0.0807 -1.1076 -0.2717
  498MPD2     N 7462   4.062   4.366  10.640 -0.4617 -0.7060  0.4464
  498MPD2    H5 7463   4.003   4.418  10.704 -0.9859  1.0677 -1.4916
  498MPD2    N1 7464   4.380   4.702  10.720 -0.1223  0.7352  0.4778
  498MPD2    H7 7465   4.312   4.733  10.788 -2.4897  0.1167 -1.5887
  499TMC3    C1 7466   4.467   0.177  10.757 -0.4091  0.4941 -0.3135
  499TMC3    C2 7467   4.424   0.177  10.891 -0.5075 -0.6076 -0.1171
  499TMC3    C3 7468   4.398   0.301  10.941  0.3462  0.3138  0.2265
  499TMC3    C4 7469   4.487   0.293  10.682 -0.3302  0.3841  0.3468
  499TMC3    C5 7470   4.427   0.405  10.730  0.1529  0.0752 -0.2918
  499TMC3    C6 7471   4.390   0.412  10.863  0.9852 -0.1584 -0.4146
  499TMC3     C 7472   4.479   0.052  10.685  0.1299 -0.3007 -0.8882
  499TMC3     O 7473   4.549   0.066  10.587  0.0299  0.5798  0.4980
  499TMC3     H 7474   4.415   0.085  10.947 -1.7836 -0.4836 -0.1164
  499TMC3    H1 7475   4.512   0.295  10.576 -2.4483 -1.5522 -0.1972
  499TMC3    H2 7476   4.378   0.509  10.908 -1.9757  0.2454 -2.0895
  499TMC3    C7 7477   4.433   0.524  10.653  0.7858 -0.5901 -0.1721
  499TMC3    C8 7478   4.366   0.313  11.087 -0.4242  0.7163  0.2803
  499TMC3    O1 7479   4.483   0.517  10.541 -0.4443 -0.1234  0.4767
  499TMC3    O2 7480   4.402   0.223  11.167  0.1612  0.0060 -0.5677
  500MPD2     C 7481   0.835   0.387  11.537  0.4747 -0.6033 -0.5105
  500MPD2    C1 7482   0.889   0.474  11.435 -1.0486 -0.3014  0.4426
  500MPD2    C2 7483   0.837   0.463  11.306 -0.2277 -0.5047  0.1617
  500MPD2    C3 7484   0.724   0.374  11.291 -0.6368 -0.2457 -0.1849
  500MPD2    C4 7485   0.667   0.311  11.396 -0.3599 -0.1720 -0.0510
  500MPD2    C5 7486   0.726   0.311  11.518  0.2148 -0.7928 -0.6320
  500MPD2     H 7487   0.888   0.514  11.226  1.0255 -0.9133  0.6980
  500MPD2    H1 7488   0.575   0.255  11.393  0.7712 -2.0716  1.1991
  500MPD2    H2 7489   0.884   0.365  11.631  0.2995 -0.1321 -0.3096
  500MPD2    H3 7490   0.693   0.255  11.605  0.8380 -0.1567  0.0068
  500MPD2     N 7491   0.655   0.367  11.171  0.1641 -0.1058  0.2092
  500MPD2    H5 7492   0.570   0.311  11.175  1.3277 -1.8914 -0.5409
  500MPD2    N1 7493   0.997   0.560  11.454  0.3890  0.3476  0.3001
  500MPD2    H7 7494   1.034   0.613  11.375  1.5318  2.7876  2.4918
  501TMC3    C1 7495   1.179   0.676  11.545  0.6241  0.5504 -0.7326
  501TMC3    C2 7496   1.174   0.764  11.433 -0.2000  0.4956  0.3499
  501TMC3    C3 7497   1.297   0.815  11.395 -0.1218  0.1065  0.7262
  501TMC3    C4 7498   1.293   0.640  11.601  0.5393 -0.1958  0.1152
  501TMC3    C5 7499   1.410   0.690  11.553 -0.9128 -0.1875  0.5685
  501TMC3    C6 7500   1.418   0.779  11.453 -0.5028 -0.4313 -0.0927
  501TMC3     C 7501   1.073   0.586  11.567 -0.1674 -0.1797 -0.5899
  501TMC3     O 7502   1.059   0.525  11.672  0.3170 -0.3444  0.3963
  501TMC3     H 7503   1.073   0.786  11.400 -0.4114 -0.0759  0.6104
  501TMC3    H1 7504   1.286   0.564  11.678 -1.2370 -0.5053 -0.3560
  501TMC3    H2 7505   1.514   0.815  11.417 -0.0410 -0.6489  0.9279
  501TMC3    C7 7506   1.520   0.603  11.576 -0.0673 -0.7516 -0.1811
  501TMC3    C8 7507   1.298   0.927  11.296 -0.8345 -0.6467 -0.1246
  501TMC3    O1 7508   1.500   0.498  11.633 -0.8934 -0.0809  0.4476
  501TMC3    O2 7509   1.396   0.998  11.293  0.5090 -0.6634 -0.1420
  502TMC3    C1 7510   0.341   4.414  14.668  0.7335  0.3876  0.4700
  502TMC3    C2 7511   0.284   4.534  14.643  0.5906 -0.0172  0.0240
  502TMC3    C3 7512   0.155   4.552  14.673 -0.1772  0.0579 -0.2201
  502TMC3    C4 7513   0.274   4.311  14.726  0.0501 -1.0495  0.3755
  502TMC3    C5 7514   0.145   4.328  14.752 -0.0828  0.9107 -0.1435
  502TMC3    C6 7515   0.080   4.445  14.734 -0.3424  0.6398 -0.1235
  502TMC3     C 7516   0.475   4.423  14.716 -0.3024  0.2611 -0.1371
  502TMC3     O 7517   0.557   4.488  14.652  0.3956  0.5032 -0.3307
  502TMC3     H 7518   0.341   4.617  14.605 -2.6747  1.9556 -0.5731
  502TMC3    H1 7519   0.315   4.211  14.738  1.2390 -0.7914 -1.5450
  502TMC3    H2 7520   4.738   4.482  14.789 -0.3556 -0.4714  0.6137
  502TMC3    C7 7521   0.128   4.268  14.877 -1.0853  0.0846  0.0284
  502TMC3    C8 7522   0.138   4.688  14.730 -0.3764  0.1346 -0.1510
  502TMC3    O1 7523   0.228   4.249  14.940  0.0033 -0.3294  0.1810
  502TMC3    O2 7524   0.242   4.732  14.775 -0.3329  0.4708 -0.1160
  503MPD2     C 7525   2.425   0.568  16.590  0.4610  0.4487 -0.4089
  503MPD2    C1 7526   2.423   0.573  16.730 -0.0073 -0.1338 -0.4107
  503MPD2    C2 7527   2.474   0.467  16.811 -0.4837  0.1502  0.0245
  503MPD2    C3 7528   2.547   0.365  16.750 -0.4463  0.1891 -0.3000
  503MPD2    C4 7529   2.557   0.369  16.608 -0.4634  0.2225 -0.5824
  503MPD2    C5 7530   2.498   0.464  16.535  0.1468 -0.5730  0.1078
  503MPD2     H 7531   2.468   0.472  16.919  0.7399  1.8296  0.0249
  503MPD2    H1 7532   2.603   0.287  16.554  0.6500  0.6282 -0.2477
  503MPD2    H2 7533   2.383   0.647  16.528  2.3372  0.0414 -2.1860
  503MPD2    H3 7534   2.507   0.469  16.427 -0.1009 -0.8030  0.0756
  503MPD2     N 7535   2.604   0.258  16.827  0.4693 -0.0263 -0.1464
  503MPD2    H5 7536   2.586   0.255  16.926  1.3766 -2.1509 -0.0598
  503MPD2    N1 7537   2.363   0.679  16.803 -0.0216  0.0641 -0.6992
  503MPD2    H7 7538   2.356   0.666  16.903 -1.9712  2.4014 -0.5510
  504TMC3    C1 7539   2.768   0.078  16.867  0.4003 -0.5012  0.2744
  504TMC3    C2 7540   2.717   0.069  16.990 -0.6081 -0.2699 -0.0620
  504TMC3    C3 7541   2.792   4.735  17.075  0.3061  0.1177 -0.9266
  504TMC3    C4 7542   2.891   0.024  16.834  0.1665  0.1668  0.2316
  504TMC3    C5 7543   2.962   4.695  16.922 -0.1683  0.1014 -0.2564
  504TMC3    C6 7544   2.919   4.679  17.051 -0.1579 -0.8213 -0.4908
  504TMC3     C 7545   2.706   0.175  16.774  1.1853  0.1283  0.1517
  504TMC3     O 7546   2.770   0.196  16.668  0.6130  0.3217  0.2141
  504TMC3     H 7547   2.616   0.098  17.014 -0.6268  0.7139 -1.3687
  504TMC3    H1 7548   2.940   0.039  16.738 -0.1808 -2.1260 -0.3026
  504TMC3    H2 7549   2.978   4.635  17.131  0.1784  1.8782  0.7284
  504TMC3    C7 7550   3.108   4.690  16.893  0.2876 -0.2171 -0.1489
  504TMC3    C8 7551   2.723   4.692  17.198 -1.2126 -0.6941 -0.1081
  504TMC3    O1 7552   3.146   4.726  16.782 -0.1415 -0.5120 -0.0033
  504TMC3    O2 7553   2.605   4.678  17.180 -0.1736  0.1164 -0.0693
  505MPD2     C 7554   2.976   3.807  11.129  0.8010 -0.3891 -0.3487
  505MPD2    C1 7555   3.040   3.708  11.199  0.2262  0.7270  0.4466
  505MPD2    C2 7556   3.093   3.742  11.324 -0.5521  0.2047  0.1276
  505MPD2    C3 7557   3.099   3.872  11.367 -0.0369 -0.2303  1.7104
  505MPD2    C4 7558   3.022   3.969  11.300 -0.9518 -0.5762  0.9617
  505MPD2    C5 7559   2.972   3.942  11.175  0.4077 -0.6160  0.3898
  505MPD2     H 7560   3.159   3.672  11.375 -0.5517 -2.2071 -3.1095
  505MPD2    H1 7561   3.001   4.069  11.335 -1.4242 -0.4751  0.3980
  505MPD2    H2 7562   2.934   3.783  11.032 -1.0762 -1.6376  0.7561
  505MPD2    H3 7563   2.911   4.014  11.122 -0.0075  0.4680  2.3073
  505MPD2     N 7564   3.166   3.911  11.484  0.3171  0.0048  0.3846
  505MPD2    H5 7565   3.159   4.008  11.513 -3.1671 -0.2178  0.2951
  505MPD2    N1 7566   3.054   3.578  11.141  0.4255 -0.2479  0.3337
  505MPD2    H7 7567   3.024   3.568  11.045 -0.0987 -1.6517  0.6524
  506TMC3    C1 7568   3.157   3.363  11.128  0.2916 -0.8906 -0.5926
  506TMC3    C2 7569   3.197   3.380  11.000  0.1078  0.3310 -0.4967
  506TMC3    C3 7570   3.299   3.298  10.951  0.7375 -0.0835 -1.3101
  506TMC3    C4 7571   3.212   3.268  11.209 -0.6669  0.9010  0.1431
  506TMC3    C5 7572   3.325   3.202  11.164  0.0897 -0.2292  0.0915
  506TMC3    C6 7573   3.366   3.215  11.031 -0.2768 -0.4771  0.5966
  506TMC3     C 7574   3.103   3.468  11.210  0.7860 -0.0563 -0.1107
  506TMC3     O 7575   3.132   3.471  11.329 -0.9153  0.3793  0.1606
  506TMC3     H 7576   3.149   3.445  10.928 -0.0236 -0.2300 -0.9130
  506TMC3    H1 7577   3.177   3.258  11.312  1.0293 -0.6931  0.5676
  506TMC3    H2 7578   3.445   3.157  10.985  0.0867  0.5006 -0.0280
  506TMC3    C7 7579   3.439   3.208  11.251  0.5056  0.4666 -0.1385
  506TMC3    C8 7580   3.349   3.328  10.814 -0.4293 -0.4946 -0.2706
  506TMC3    O1 7581   3.549   3.164  11.207  0.5668  0.8245  0.4119
  506TMC3    O2 7582   3.367   3.241  10.730 -0.0924  0.2749  0.3679
  507TMC3    C1 7583   3.715   4.458  14.877 -0.2638  0.2820 -0.1398
  507TMC3    C2 7584   3.676   4.379  14.770 -0.3321 -0.4114  0.1794
  507TMC3    C3 7585   3.694   4.425  14.640  0.0557 -0.0783 -0.3916
  507TMC3    C4 7586   3.781   4.578  14.852  0.2597 -0.0585 -0.6811
  507TMC3    C5 7587   3.791   4.629  14.724  0.3480  0.2706 -0.1166
  507TMC3    C6 7588   3.760   4.543  14.622  0.2000 -0.6989 -0.1484
  507TMC3     C 7589   3.623   4.456  14.986 -0.4338 -0.2744  0.3558
  507TMC3     O 7590   3.643   4.543  15.068 -0.5278 -0.2053  0.1549
  507TMC3     H 7591   3.641   4.278  14.788  0.5556 -0.7821 -0.1773
  507TMC3    H1 7592   3.798   4.647  14.934  0.8501  0.2938 -1.0983
  507TMC3    H2 7593   3.732   4.581  14.524  3.5600  0.3799 -0.6941
  507TMC3    C7 7594   3.728   0.011  14.711  0.0951 -0.0251 -0.5978
  507TMC3    C8 7595   3.561   4.410  14.583 -0.2891  0.2718  0.6064
  507TMC3    O1 7596   3.642   0.028  14.626 -0.7598  0.2037  0.2706
  507TMC3    O2 7597   3.518   4.301  14.582 -0.5502  0.2125 -0.2897
  508MPD2     C 7598   4.602   2.156  16.016 -0.3621  0.4769 -0.0339
  508MPD2    C1 7599   4.542   2.198  16.130 -0.3651  0.0676 -0.0920
  508MPD2    C2 7600   4.453   2.299  16.120 -0.0267  0.7911 -0.4828
  508MPD2    C3 7601   4.413   2.352  16.000  1.0882 -0.2817  0.1192
  508MPD2    C4 7602   4.475   2.314  15.883  0.8560  0.0342  0.7770
  508MPD2    C5 7603   4.562   2.211  15.895 -0.4958  0.4729  0.3835
  508MPD2     H 7604   4.399   2.331  16.208 -0.7955 -3.3060  0.5342
  508MPD2    H1 7605   4.450   2.343  15.781  0.5783 -1.1207  0.5124
  508MPD2    H2 7606   4.664   2.067  16.010 -0.0508  0.6598  0.4869
  508MPD2    H3 7607   4.609   2.162  15.812  0.4348  1.3338  0.4003
  508MPD2     N 7608   4.319   2.457  15.995 -0.0128  0.1298 -0.5033
  508MPD2    H5 7609   4.282   2.478  16.087 -0.2090  0.9945 -0.7743
  508MPD2    N1 7610   4.572   2.143  16.257  0.0191 -0.3969  0.2495
  508MPD2    H7 7611   4.654   2.082  16.259  0.2211 -0.0784  1.5828
  509TMC3    C1 7612   4.182   2.875  15.843  0.0588 -0.1698  0.2712
  509TMC3    C2 7613   4.261   2.939  15.930 -0.3159 -0.4346 -0.2858
  509TMC3    C3 7614   4.299   2.863  16.037 -0.0472  0.0934 -0.1362
  509TMC3    C4 7615   4.158   2.739  15.842 -0.5195 -0.0867 -0.0922
  509TMC3    C5 7616   4.219   2.664  15.941 -0.6814 -0.7586 -0.1472
  509TMC3    C6 7617   4.287   2.728  16.048  0.4291  0.8756  0.5042
  509TMC3     C 7618   4.129   2.945  15.730  1.0162 -0.2304 -1.2121
  509TMC3     O 7619   4.044   2.893  15.656 -0.0668 -0.0095 -0.7282
  509TMC3     H 7620   4.254   3.047  15.943 -0.7957 -0.7419  1.9938
  509TMC3    H1 7621   4.096   2.681  15.773 -0.1227  1.2899 -1.6178
  509TMC3    H2 7622   4.345   2.672  16.121 -0.5274  0.4074  0.9005
  509TMC3    C7 7623   4.276   2.543  15.888 -0.1180 -0.2053  0.2217
  509TMC3    C8 7624   4.375   2.929  16.136  0.2514  0.4976  1.0207
  509TMC3    O1 7625   4.297   2.529  15.769  0.1225  0.0426 -0.3041
  509TMC3    O2 7626   4.388   2.879  16.243  0.0664  0.0956 -0.9492
  510MPD2     C 7627   2.415   3.669  14.760 -0.1592 -0.6890 -0.0207
  510MPD2    C1 7628   2.453   3.548  14.811  0.0756 -0.3208  0.0786
  510MPD2    C2 7629   2.562   3.487  14.748 -0.1614 -0.1857  0.2854
  510MPD2    C3 7630   2.623   3.544  14.635 -0.0868 -0.0834 -0.0118
  510MPD2    C4 7631   2.565   3.658  14.579  0.3444 -0.2944 -0.3093
  510MPD2    C5 7632   2.459   3.720  14.639 -0.3878 -0.6974 -0.3680
  510MPD2     H 7633   2.609   3.395  14.781  2.1355  0.6035 -0.8159
  510MPD2    H1 7634   2.598   3.706  14.488  0.5488  2.4323  1.2152
  510MPD2    H2 7635   2.336   3.726  14.807  0.3276  1.5788 -1.9956
  510MPD2    H3 7636   2.427   3.818  14.608  0.0926 -1.0499 -1.9752
  510MPD2     N 7637   2.735   3.478  14.574 -0.7081 -0.4235  0.1077
  510MPD2    H5 7638   2.793   3.412  14.624 -0.1780  0.3442  0.4998
  510MPD2    N1 7639   2.391   3.496  14.929  0.3048 -0.0982 -0.0629
  510MPD2    H7 7640   2.328   3.559  14.977 -0.2331 -0.7029  0.0299
  511TMC3    C1 7641   2.310   3.318  15.075 -0.2973  0.2320  0.7039
  511TMC3    C2 7642   2.245   3.400  15.164 -0.3200  0.1801 -0.7743
  511TMC3    C3 7643   2.148   3.341  15.244  0.2950  0.1783  0.2792
  511TMC3    C4 7644   2.277   3.189  15.062  0.4961 -0.1111  0.1795
  511TMC3    C5 7645   2.161   3.144  15.124  0.3315  0.0728  0.4424
  511TMC3    C6 7646   2.100   3.219  15.219  0.4369  0.1327  0.2428
  511TMC3     C 7647   2.399   3.363  14.964  0.3614 -0.2705 -0.2011
  511TMC3     O 7648   2.460   3.279  14.903 -0.3457  0.5032  0.4971
  511TMC3     H 7649   2.282   3.500  15.179 -1.6164  0.6447 -0.6266
  511TMC3    H1 7650   2.332   3.130  14.990 -0.6335  0.0691 -0.8387
  511TMC3    H2 7651   2.013   3.183  15.274 -0.1977  0.3510 -0.6071
  511TMC3    C7 7652   2.090   3.030  15.063  0.5538  0.2614  0.0718
  511TMC3    C8 7653   2.081   3.426  15.347 -0.0275  0.3932  0.6958
  511TMC3    O1 7654   2.126   3.007  14.951 -0.6472  0.0569 -0.1983
  511TMC3    O2 7655   2.119   3.546  15.346  0.0289  0.4805 -0.1485
  512TMC3    C1 7656   0.982   3.193  13.394 -0.2741  0.4315 -0.2782
  512TMC3    C2 7657   1.048   3.106  13.481 -0.9478 -0.2902 -0.3347
  512TMC3    C3 7658   0.989   2.983  13.498 -0.2289 -0.6157  0.4502
  512TMC3    C4 7659   0.884   3.160  13.307 -0.5392 -0.6528  0.4933
  512TMC3    C5 7660   0.845   3.028  13.307  0.2752  0.6301 -0.2958
  512TMC3    C6 7661   0.895   2.943  13.408  0.7597 -0.8310 -0.0223
  512TMC3     C 7662   1.030   3.327  13.408 -0.0681 -0.1517  0.5615
  512TMC3     O 7663   1.144   3.347  13.444 -0.0684 -0.1007 -0.0280
  512TMC3     H 7664   1.109   3.155  13.556 -0.0059  0.1262 -1.3558
  512TMC3    H1 7665   0.845   3.223  13.228 -3.0035 -0.2037  2.0250
  512TMC3    H2 7666   0.864   2.839  13.411 -1.3801 -0.2830 -2.5323
  512TMC3    C7 7667   0.773   2.979  13.190 -0.3649  0.0368 -0.2046
  512TMC3    C8 7668   1.064   2.876  13.563 -0.1232  0.4060 -0.0529
  512TMC3    O1 7669   0.688   3.042  13.130  0.6199 -0.4134 -0.6442
  512TMC3    O2 7670   1.019   2.764  13.558  0.3921  0.4331  0.0499
  513MPD2     C 7671   2.952   2.152  13.305 -0.2372 -0.1196 -0.0010
  513MPD2    C1 7672   3.045   2.111  13.218 -0.5102 -0.2104  0.2616
  513MPD2    C2 7673   3.169   2.169  13.219  0.5879 -0.7024 -0.0724
  513MPD2    C3 7674   3.206   2.260  13.317  0.7351 -0.8572 -0.6255
  513MPD2    C4 7675   3.113   2.284  13.416  0.7999 -0.2097 -0.0582
  513MPD2    C5 7676   2.991   2.229  13.409  0.2545  0.1516  0.2145
  513MPD2     H 7677   3.235   2.142  13.137  0.3493  0.4914 -0.6602
  513MPD2    H1 7678   3.129   2.352  13.499  1.8412 -0.9667  0.3599
  513MPD2    H2 7679   2.856   2.103  13.304 -0.0081 -0.5706 -0.0655
  513MPD2    H3 7680   2.923   2.262  13.486  0.1381  0.2450  0.0708
  513MPD2     N 7681   3.335   2.316  13.312  0.6195  0.1968 -0.7141
  513MPD2    H5 7682   3.389   2.322  13.226  1.5818  2.6396  0.0787
  513MPD2    N1 7683   3.014   2.039  13.100  0.0518 -0.1307 -0.0449
  513MPD2    H7 7684   3.090   2.030  13.033  0.2855  1.7939 -0.0188
  514TMC3    C1 7685   2.903   1.985  12.901  0.2865 -0.1819  0.3750
  514TMC3    C2 7686   2.894   2.103  12.832 -0.6523 -0.6080  0.4121
  514TMC3    C3 7687   2.979   2.131  12.727  0.1855  0.0880 -0.1530
  514TMC3    C4 7688   3.015   1.909  12.867  0.2908  0.4644 -0.2963
  514TMC3    C5 7689   3.100   1.944  12.765 -0.1120 -0.1176  0.2315
  514TMC3    C6 7690   3.073   2.046  12.681  0.6871  0.3103 -0.0400
  514TMC3     C 7691   2.894   2.005  13.048 -0.0814  0.0640 -0.2180
  514TMC3     O 7692   2.781   2.000  13.097  0.0442  0.0603  0.1673
  514TMC3     H 7693   2.824   2.183  12.854  0.6831 -0.1334  2.8971
  514TMC3    H1 7694   3.032   1.821  12.928 -1.4544  1.2439  1.3475
  514TMC3    H2 7695   3.154   2.089  12.624 -0.1664  2.2488  0.2063
  514TMC3    C7 7696   3.228   1.957  12.830  0.8691 -0.1296 -0.2585
  514TMC3    C8 7697   2.979   2.268  12.679 -0.2513  0.5164 -0.0885
  514TMC3    O1 7698   3.233   1.972  12.952  0.1917  0.3229 -0.6168
  514TMC3    O2 7699   2.915   2.347  12.743  0.3093  0.0906 -0.1560
  515MPD2     C 7700   1.252   4.101  14.646  0.0063  0.3497 -0.1162
  515MPD2    C1 7701   1.174   4.207  14.606  0.3519  0.0890 -0.5355
  515MPD2    C2 7702   1.190   4.334  14.659  0.0403  0.3576 -0.0204
  515MPD2    C3 7703   1.290   4.361  14.760  0.3686  0.5072  1.1691
  515MPD2    C4 7704   1.371   4.261  14.791 -0.0489 -0.4481 -0.3170
  515MPD2    C5 7705   1.352   4.136  14.735 -0.1180  0.7519 -0.0079
  515MPD2     H 7706   1.123   4.410  14.620 -0.3360 -0.7603 -1.5322
  515MPD2    H1 7707   1.442   4.280  14.871  0.9876 -2.9909 -0.6475
  515MPD2    H2 7708   1.241   3.996  14.621  0.0880 -0.0215  1.4413
  515MPD2    H3 7709   1.411   4.051  14.769 -4.8126 -1.4477  2.6917
  515MPD2     N 7710   1.317   4.484  14.825  0.1009 -0.2855  0.1032
  515MPD2    H5 7711   1.395   4.499  14.888 -1.5358 -1.2658  2.3413
  515MPD2    N1 7712   1.060   4.185  14.513 -0.0793 -0.0783 -0.0876
  515MPD2    H7 7713   1.008   4.264  14.476  1.6243 -0.1363 -2.5866
  516TMC3    C1 7714   0.868   4.093  14.414 -0.3736  0.2140 -0.4747
  516TMC3    C2 7715   0.843   4.191  14.323 -0.9972  0.4173  0.9863
  516TMC3    C3 7716   0.714   4.234  14.325  0.0893  0.0962  0.1045
  516TMC3    C4 7717   0.778   4.022  14.484 -0.3097 -0.3398 -0.3910
  516TMC3    C5 7718   0.650   4.064  14.478  0.4006 -0.5227  0.2418
  516TMC3    C6 7719   0.616   4.177  14.405  0.3059  0.3439 -0.4974
  516TMC3     C 7720   1.002   4.066  14.475  0.3806  0.3895  0.1925
  516TMC3     O 7721   1.037   3.954  14.516  0.0253  0.2685 -0.3149
  516TMC3     H 7722   0.920   4.244  14.269  0.3555 -2.1199  0.4223
  516TMC3    H1 7723   0.806   3.932  14.537  0.0071  0.4285  0.7452
  516TMC3    H2 7724   0.510   4.199  14.407 -0.1348 -1.8108 -0.5341
  516TMC3    C7 7725   0.574   4.055  14.608 -0.1161  0.1071 -0.1532
  516TMC3    C8 7726   0.684   4.366  14.280  0.3214 -0.5323 -0.2570
  516TMC3    O1 7727   0.455   4.088  14.605 -0.1433  0.1800  0.2524
  516TMC3    O2 7728   0.573   4.409  14.316  0.1236 -0.0235  0.2500
  517MPD2     C 7729   1.073   1.508   0.374 -0.6173  0.1278  0.7823
  517MPD2    C1 7730   0.976   1.542   0.278  0.1155 -0.3703  0.5793
  517MPD2    C2 7731   0.942   1.674   0.273 -0.1547 -0.6637  0.2867
  517MPD2    C3 7732   1.009   1.768   0.345 -0.2495 -0.3577 -0.6990
  517MPD2    C4 7733   1.107   1.725   0.434 -0.3634  0.3537  0.4627
  517MPD2    C5 7734   1.148   1.597   0.446 -0.3061 -0.4192  0.4051
  517MPD2     H 7735   0.863   1.703   0.205  0.4326 -0.8048 -0.4431
  517MPD2    H1 7736   1.150   1.802   0.497 -1.1442  0.3885  0.9596
  517MPD2    H2 7737   1.105   1.406   0.390  0.6274  1.1117  4.5266
  517MPD2    H3 7738   1.220   1.568   0.522 -0.8596 -3.3567 -0.1774
  517MPD2     N 7739   0.982   1.901   0.332 -0.5402 -0.0240  0.1275
  517MPD2    H5 7740   1.042   1.963   0.386  0.0830 -0.0557 -0.5230
  517MPD2    N1 7741   0.915   1.456   0.176 -0.5745 -0.7230  0.1955
  517MPD2    H7 7742   0.840   1.494   0.120 -1.7265 -1.3995  1.2748
  518TMC3    C1 7743   0.885   1.268   0.040  0.6735 -0.1769 -1.0901
  518TMC3    C2 7744   0.882   1.132   0.031 -0.0237 -0.4489 -0.6731
  518TMC3    C3 7745   0.855   1.069  17.683  0.0035 -0.5217  0.1214
  518TMC3    C4 7746   0.870   1.352  17.701  0.4996  0.2553 -0.0142
  518TMC3    C5 7747   0.832   1.288  17.583  0.4723  0.3498  0.2044
  518TMC3    C6 7748   0.827   1.148  17.572 -0.1565 -0.3699 -0.6090
  518TMC3     C 7749   0.953   1.325   0.153  0.1271 -0.3352 -0.0616
  518TMC3     O 7750   1.018   1.248   0.225  0.0788  0.6432 -0.1649
  518TMC3     H 7751   0.905   1.067   0.114  0.1863  0.9328  0.3587
  518TMC3    H1 7752   0.880   1.459  17.713 -1.7111  0.6178 -1.4030
  518TMC3    H2 7753   0.793   1.098  17.482  0.2995 -0.0716 -0.9435
  518TMC3    C7 7754   0.919   1.333  17.486  0.0722 -0.5241  0.1884
  518TMC3    C8 7755   0.886   0.928  17.654  0.0319 -0.3391 -0.3347
  518TMC3    O1 7756   0.946   1.451  17.486 -0.6367  0.6322  0.2110
  518TMC3    O2 7757   0.889   0.906  17.532 -0.1594  0.1530 -0.2426
  519MPD2     C 7758   2.432   4.584  14.475  0.3270 -0.1648  0.1531
  519MPD2    C1 7759   2.444   4.606  14.342 -0.6602  0.1062 -0.5913
  519MPD2    C2 7760   2.536   4.537  14.272 -0.4700 -0.4625  0.3027
  519MPD2    C3 7761   2.623   4.452  14.336  0.1749 -0.2693 -0.1582
  519MPD2    C4 7762   2.622   4.439  14.472  0.2602 -0.4704 -0.4000
  519MPD2    C5 7763   2.515   4.497  14.537 -0.0039  0.1655 -0.3619
  519MPD2     H 7764   2.538   4.542  14.164 -0.7840  0.9555  0.3642
  519MPD2    H1 7765   2.701   4.380  14.519  3.5207  4.6204  0.5118
  519MPD2    H2 7766   2.345   4.628  14.523  1.2726  0.9760  0.8200
  519MPD2    H3 7767   2.503   4.472  14.642  2.2062 -2.1370 -0.6521
  519MPD2     N 7768   2.728   4.377  14.278  0.0953  0.1815 -0.5420
  519MPD2    H5 7769   2.767   4.308  14.341  1.3246  1.5352  0.1980
  519MPD2    N1 7770   2.356   4.696  14.278 -0.3572 -0.1636  0.1514
  519MPD2    H7 7771   2.294   0.003  14.340 -0.2533 -0.2927  0.3601
  520TMC3    C1 7772   2.777   4.244  14.105 -0.0983 -0.4886 -0.5149
  520TMC3    C2 7773   2.719   4.203  13.992  0.4026 -1.0823 -0.0161
  520TMC3    C3 7774   2.770   4.096  13.927 -0.0007  0.2243  0.0821
  520TMC3    C4 7775   2.905   4.204  14.142  0.5389  0.6469 -0.8265
  520TMC3    C5 7776   2.959   4.107  14.061  0.3533 -0.2690 -0.4776
  520TMC3    C6 7777   2.892   4.046  13.958  0.5738 -1.1238 -0.0275
  520TMC3     C 7778   2.754   4.376  14.147  0.5544 -0.0085 -0.0713
  520TMC3     O 7779   2.717   4.463  14.065  0.1288  0.2285  0.0523
  520TMC3     H 7780   2.618   4.238  13.971  0.8100  0.5608  0.7684
  520TMC3    H1 7781   2.960   4.239  14.229 -2.4974  0.0802  1.3318
  520TMC3    H2 7782   2.925   3.970  13.888  0.1360  0.6906 -2.1891
  520TMC3    C7 7783   3.100   4.078  14.076  0.5238 -0.0771  0.5173
  520TMC3    C8 7784   2.717   4.059  13.796  0.0704  0.1979 -0.1396
  520TMC3    O1 7785   3.157   4.131  14.169  0.7960 -0.3053 -0.0401
  520TMC3    O2 7786   2.741   3.945  13.760 -0.2440  0.2498  0.4327
  521MPD2     C 7787   3.459   2.688   0.053 -0.6533  0.5316  0.2825
  521MPD2    C1 7788   3.509   2.572  17.772 -0.2623  0.0988  0.4812
  521MPD2    C2 7789   3.597   2.587  17.663 -0.9956  0.2899 -0.1596
  521MPD2    C3 7790   3.648   2.707  17.616 -0.2015  0.6570 -0.1736
  521MPD2    C4 7791   3.612   2.823  17.684 -0.2299 -0.1913  0.0097
  521MPD2    C5 7792   3.513   2.810   0.012 -0.0695  0.2808 -0.5454
  521MPD2     H 7793   3.628   2.497  17.610 -0.8756  0.5848 -0.5824
  521MPD2    H1 7794   3.662   2.918  17.671 -0.9837 -0.1217 -2.5823
  521MPD2    H2 7795   3.382   2.697   0.129 -2.4038  0.4040 -1.4709
  521MPD2    H3 7796   3.477   2.900   0.061  1.0911 -0.2492  1.3029
  521MPD2     N 7797   3.731   2.707  17.506  0.2676 -0.5505 -0.1325
  521MPD2    H5 7798   3.753   2.617  17.464  1.4513  0.5468 -1.8626
  521MPD2    N1 7799   3.452   2.447   0.040 -0.0433 -0.2909  0.8435
  521MPD2    H7 7800   3.381   2.451   0.113 -0.0793  1.3487  0.7311
  522TMC3    C1 7801   3.876   2.767  17.336  0.7052  0.5281 -0.3208
  522TMC3    C2 7802   3.969   2.670  17.363 -0.0466 -0.2019  0.6648
  522TMC3    C3 7803   4.064   2.629  17.266 -0.0132 -0.0080 -0.2602
  522TMC3    C4 7804   3.883   2.834  17.218 -0.5371 -0.5188  0.0826
  522TMC3    C5 7805   3.954   2.777  17.115 -0.4094 -0.1266  0.5426
  522TMC3    C6 7806   4.046   2.674  17.136  0.0815  0.5664  0.4092
  522TMC3     C 7807   3.790   2.817  17.441  0.3978 -0.2485  0.1310
  522TMC3     O 7808   3.765   2.937  17.451  0.4395  0.3970 -0.3936
  522TMC3     H 7809   3.975   2.628  17.463  2.2877  0.8874  0.9707
  522TMC3    H1 7810   3.826   2.925  17.203 -0.3360 -0.7306 -1.9816
  522TMC3    H2 7811   4.096   2.624  17.054  2.5995  2.1003  1.0251
  522TMC3    C7 7812   3.929   2.824  16.978 -0.1984  1.4322  0.9699
  522TMC3    C8 7813   4.163   2.527  17.303 -0.2620  0.4684 -0.2913
  522TMC3    O1 7814   4.029   2.818  16.912 -0.3023 -0.2487  0.4946
  522TMC3    O2 7815   4.173   2.508  17.419  0.0738  0.1397 -0.0712
  523MPD2     C 7816   1.471   2.864  10.189  0.8742  0.1017  0.8003
  523MPD2    C1 7817   1.351   2.812  10.162 -0.5645  0.5342 -0.0842
  523MPD2    C2 7818   1.268   2.882  10.075  0.2001 -0.6895  0.8349
  523MPD2    C3 7819   1.301   3.007  10.019  0.5754  0.0159  0.3207
  523MPD2    C4 7820   1.415   3.062  10.056  0.0005  0.3816  0.1462
  523MPD2    C5 7821   1.502   2.987  10.134  0.6308  0.2406  0.0847
  523MPD2     H 7822   1.166   2.847  10.064  0.3665 -0.6535 -0.9008
  523MPD2    H1 7823   1.451   3.160  10.030 -0.7537  0.3882 -0.8765
  523MPD2    H2 7824   1.548   2.811  10.244  0.3816  0.7072  2.0747
  523MPD2    H3 7825   1.596   3.033  10.164 -0.0214  1.1313  0.7579
  523MPD2     N 7826   1.204   3.076   9.945 -0.4595 -0.5646 -0.0368
  523MPD2    H5 7827   1.229   3.173   9.926 -1.3883 -0.7866 -2.3661
  523MPD2    N1 7828   1.314   2.700  10.243  0.5379 -0.0467 -0.0937
  523MPD2    H7 7829   1.385   2.670  10.309  0.9860  0.8988 -0.1535
  524TMC3    C1 7830   1.001   3.142   9.850  0.0813  0.2918 -0.2149
  524TMC3    C2 7831   0.936   3.134   9.731  0.4953  0.0947  0.4236
  524TMC3    C3 7832   0.865   3.245   9.684  0.5597 -0.5614  0.6117
  524TMC3    C4 7833   1.001   3.254   9.928 -0.0979  0.3333 -0.0482
  524TMC3    C5 7834   0.933   3.361   9.882  0.0220  0.8612 -0.2163
  524TMC3    C6 7835   0.866   3.358   9.764  0.2574 -0.1346 -0.2058
  524TMC3     C 7836   1.084   3.030   9.900  0.0996 -0.1757  0.7257
  524TMC3     O 7837   1.049   2.915   9.876  0.1921 -0.0393 -0.2199
  524TMC3     H 7838   0.952   3.049   9.667  0.7541  0.3206  0.1905
  524TMC3    H1 7839   1.037   3.257  10.030  0.7326  0.2575 -0.3305
  524TMC3    H2 7840   0.808   3.440   9.723 -1.4989 -1.1287  0.3025
  524TMC3    C7 7841   0.904   3.464   9.987  0.3608 -0.4565  0.2673
  524TMC3    C8 7842   0.775   3.242   9.576  0.4416 -0.4672  0.3955
  524TMC3    O1 7843   0.896   3.424  10.104  0.1005  0.1949 -0.3557
  524TMC3    O2 7844   0.698   3.334   9.553 -0.1621  0.4852  0.0493
  525MPD2     C 7845   3.999   4.165  14.429  0.2325  0.7785 -0.4613
  525MPD2    C1 7846   4.131   4.188  14.466 -1.0028 -0.6495  0.7157
  525MPD2    C2 7847   4.200   4.297  14.423  0.4207 -1.0372 -0.5100
  525MPD2    C3 7848   4.123   4.399  14.362 -0.1964 -0.0736  0.5277
  525MPD2    C4 7849   3.989   4.379  14.337 -0.1878  0.4604 -0.1185
  525MPD2    C5 7850   3.924   4.263  14.373  0.7913  0.9052  0.1751
  525MPD2     H 7851   4.300   4.310  14.462 -0.6908  1.0211  1.6693
  525MPD2    H1 7852   3.939   4.457  14.281 -0.4798 -0.7887 -1.5952
  525MPD2    H2 7853   3.949   4.071  14.452 -1.7278  1.5924 -1.4194
  525MPD2    H3 7854   3.821   4.261  14.339  0.7825  2.7822  0.1092
  525MPD2     N 7855   4.160   4.536  14.336  0.2668  0.1833  0.3051
  525MPD2    H5 7856   4.079   4.587  14.301  0.4460 -0.5946 -1.2734
  525MPD2    N1 7857   4.198   4.091  14.549 -0.4713  1.0774 -0.3663
  525MPD2    H7 7858   4.294   4.110  14.577  0.2664 -0.1463 -2.1202
  526TMC3    C1 7859   4.233   3.937  14.727  0.0582  0.2471 -0.1560
  526TMC3    C2 7860   4.180   3.919  14.844  0.5048  0.4811  0.7380
  526TMC3    C3 7861   4.253   3.927  14.959 -0.3357  0.6504  1.0144
  526TMC3    C4 7862   4.369   3.968  14.717  0.1170 -1.0614  0.0945
  526TMC3    C5 7863   4.442   3.959  14.828 -0.4821  0.3295  0.3082
  526TMC3    C6 7864   4.389   3.946  14.951  0.5220  0.0728  0.1371
  526TMC3     C 7865   4.139   3.996  14.626  0.0219  0.8553  0.1236
  526TMC3     O 7866   4.020   3.984  14.655  0.1834 -0.8163 -0.1187
  526TMC3     H 7867   4.072   3.916  14.856  0.5748  0.6294  1.4023
  526TMC3    H1 7868   4.420   3.976  14.621 -0.7038 -0.3526 -0.2891
  526TMC3    H2 7869   4.441   3.931  15.045  1.1814  1.2203 -0.0544
  526TMC3    C7 7870   4.581   3.931  14.822  0.0501  0.2825  0.8686
  526TMC3    C8 7871   4.187   3.921  15.091 -0.2995 -0.0654 -0.1981
  526TMC3    O1 7872   4.631   3.925  14.936  0.1572 -0.2960 -0.7171
  526TMC3    O2 7873   4.263   3.939  15.183 -0.6080  0.2884 -0.4308
  527MPD2     C 7874   2.004   2.634   1.338  0.2545  0.4773 -0.3272
  527MPD2    C1 7875   1.940   2.531   1.271  0.2406  0.6436 -0.3486
  527MPD2    C2 7876   2.008   2.445   1.196  0.3355 -0.2016 -1.1094
  527MPD2    C3 7877   2.149   2.450   1.189 -0.6116  0.1655  0.3208
  527MPD2    C4 7878   2.215   2.558   1.254 -0.2558 -0.4794 -0.4356
  527MPD2    C5 7879   2.142   2.647   1.323 -0.5813  0.7961 -0.6222
  527MPD2     H 7880   1.946   2.385   1.130 -0.7037  0.7239 -0.9733
  527MPD2    H1 7881   2.318   2.576   1.225  0.1463 -1.9929  0.0723
  527MPD2    H2 7882   1.961   2.711   1.400 -0.8898 -0.3848 -0.0314
  527MPD2    H3 7883   2.196   2.731   1.365 -1.0478  0.3624  0.8442
  527MPD2     N 7884   2.212   2.354   1.106 -0.2497 -0.2098  0.0629
  527MPD2    H5 7885   2.147   2.289   1.064 -1.3151  2.8927 -3.0204
  527MPD2    N1 7886   1.802   2.509   1.275  0.4668  0.0279 -0.6056
  527MPD2    H7 7887   1.779   2.421   1.230 -2.4766  1.5727 -2.1574
  528TMC3    C1 7888   1.586   2.510   1.358 -0.2893  0.1895 -0.0219
  528TMC3    C2 7889   1.554   2.441   1.246 -0.3030  0.7341  0.4451
  528TMC3    C3 7890   1.433   2.382   1.227 -0.6371 -0.6890 -0.1074
  528TMC3    C4 7891   1.504   2.509   1.461  0.1846 -0.1862 -0.6656
  528TMC3    C5 7892   1.383   2.464   1.439 -0.2630 -0.5518 -0.4347
  528TMC3    C6 7893   1.340   2.398   1.325 -0.9157  0.4253  0.0597
  528TMC3     C 7894   1.714   2.567   1.363  0.1547  0.1806 -0.2534
  528TMC3     O 7895   1.721   2.663   1.442 -0.0324 -0.0639  0.2749
  528TMC3     H 7896   1.610   2.436   1.154 -1.0253 -4.1840  0.2510
  528TMC3    H1 7897   1.533   2.569   1.546  1.7666 -1.9856  0.0755
  528TMC3    H2 7898   1.246   2.345   1.326 -0.7202  0.0119 -4.2416
  528TMC3    C7 7899   1.284   2.516   1.529 -0.1015  0.4896 -0.8945
  528TMC3    C8 7900   1.405   2.301   1.102 -0.4725  0.4965 -0.0834
  528TMC3    O1 7901   1.170   2.521   1.491  0.0682  0.2241  0.3235
  528TMC3    O2 7902   1.508   2.261   1.047  0.5480 -0.1408  0.1847
  529MPD2     C 7903   0.010   1.008   0.572  0.3037 -0.2426  0.2404
  529MPD2    C1 7904   0.041   0.902   0.491 -0.3447  0.6542  1.3665
  529MPD2    C2 7905   4.734   0.901   0.364 -0.0140 -0.3615 -0.0907
  529MPD2    C3 7906   4.643   0.999   0.319 -0.2277  0.2573  0.3060
  529MPD2    C4 7907   4.593   1.095   0.407  0.0114  0.1499 -0.2131
  529MPD2    C5 7908   4.651   1.096   0.533 -0.3285 -1.1563  0.2169
  529MPD2     H 7909   0.030   0.827   0.295 -0.6283 -1.1422  0.3889
  529MPD2    H1 7910   4.519   1.170   0.381 -1.0895 -1.3692 -1.4545
  529MPD2    H2 7911   0.054   1.003   0.671 -1.0213  1.5590  0.9181
  529MPD2    H3 7912   4.623   1.175   0.602  1.5369 -0.9228  0.7189
  529MPD2     N 7913   4.600   0.993   0.180 -0.2342  0.3221  0.9348
  529MPD2    H5 7914   4.545   1.070   0.142  0.3828  0.4909  0.3707
  529MPD2    N1 7915   0.115   0.784   0.528 -0.3181 -0.3653 -0.2995
  529MPD2    H7 7916   0.129   0.717   0.453 -1.5553  0.0065 -0.8573
  530TMC3    C1 7917   0.194   0.602   0.658 -0.0659 -0.1231  0.1230
  530TMC3    C2 7918   0.268   0.576   0.767  0.8694 -0.4367 -0.2447
  530TMC3    C3 7919   0.293   0.448   0.782  0.1161  0.2423  0.0119
  530TMC3    C4 7920   0.146   0.507   0.569  0.1627  0.4998 -0.0589
  530TMC3    C5 7921   0.170   0.379   0.597  0.0002 -0.7736 -0.2349
  530TMC3    C6 7922   0.247   0.348   0.703 -0.2354  0.4103  0.2038
  530TMC3     C 7923   0.151   0.742   0.654  0.2458  0.0868  0.1809
  530TMC3     O 7924   0.175   0.811   0.754 -0.5989 -0.0630  0.3734
  530TMC3     H 7925   0.310   0.652   0.831  0.7006 -0.9628  0.4910
  530TMC3    H1 7926   0.071   0.542   0.499  1.5686  1.9192 -0.8636
  530TMC3    H2 7927   0.262   0.246   0.736  0.1065  1.0426  1.9950
  530TMC3    C7 7928   0.086   0.277   0.539 -0.3074 -0.3151  0.0515
  530TMC3    C8 7929   0.360   0.402   0.903 -0.4845 -0.3139 -0.4934
  530TMC3    O1 7930   0.059   0.284   0.421 -0.0175 -0.4091 -0.8790
  530TMC3    O2 7931   0.430   0.304   0.897  0.1857 -0.1081 -0.0052
  531MPD2     C 7932   3.727   2.025  12.827 -0.0070 -0.0523 -0.2142
  531MPD2    C1 7933   3.628   2.061  12.917 -0.3826  0.3287  0.3156
  531MPD2    C2 7934   3.497   2.028  12.893  0.4938  0.7250 -0.3758
  531MPD2    C3 7935   3.465   1.960  12.774 -0.3189 -0.6437  0.1429
  531MPD2    C4 7936   3.563   1.935  12.683 -0.0666 -0.6726 -0.1351
  531MPD2    C5 7937   3.694   1.969  12.709 -0.1465  0.5328  0.2151
  531MPD2     H 7938   3.422   2.070  12.959 -0.7821 -3.0325  0.5586
  531MPD2    H1 7939   3.545   1.909  12.579 -1.5252  3.5119 -0.9131
  531MPD2    H2 7940   3.828   2.057  12.849  0.0199  0.0373 -0.4705
  531MPD2    H3 7941   3.772   1.956  12.635 -0.5961  0.2216 -0.2025
  531MPD2     N 7942   3.334   1.931  12.742 -0.6936 -0.3325  0.4002
  531MPD2    H5 7943   3.315   1.877  12.658 -0.0863 -0.5993  0.4337
  531MPD2    N1 7944   3.671   2.136  13.027 -0.0239 -0.1728 -0.0237
  531MPD2    H7 7945   3.772   2.131  13.033 -0.1335 -1.4607  0.7791
  532TMC3    C1 7946   3.652   2.278  13.211 -0.3555 -0.1915  0.0830
  532TMC3    C2 7947   3.579   2.379  13.258  0.6050 -0.4077 -0.4166
  532TMC3    C3 7948   3.548   2.394  13.395 -0.4722  0.3285 -0.0080
  532TMC3    C4 7949   3.713   2.191  13.299  0.3025 -0.3333  0.3072
  532TMC3    C5 7950   3.704   2.227  13.435 -0.0937  0.4100 -0.5003
  532TMC3    C6 7951   3.617   2.318  13.482 -0.3222  0.1697 -0.0517
  532TMC3     C 7952   3.592   2.224  13.094 -1.0906 -0.0204  0.3154
  532TMC3     O 7953   3.477   2.264  13.070  0.2097 -0.1783  0.0919
  532TMC3     H 7954   3.544   2.451  13.186 -1.4284 -2.2556 -1.2567
  532TMC3    H1 7955   3.772   2.112  13.255 -0.5046  1.0437 -3.2466
  532TMC3    H2 7956   3.598   2.329  13.588 -2.2199 -2.7582 -0.0887
  532TMC3    C7 7957   3.801   2.187  13.538  0.3621 -0.6934  0.1792
  532TMC3    C8 7958   3.404   2.372  13.423  0.2603 -0.1229  0.0474
  532TMC3    O1 7959   3.804   2.230  13.649 -0.3206  0.1730 -0.0163
  532TMC3    O2 7960   3.371   2.366  13.543  0.2110 -0.1571  0.3167
  533TMC3    C1 7961   4.277   4.734  14.373  0.0936  0.0937 -0.5410
  533TMC3    C2 7962   4.405   0.037  14.385 -0.7284 -0.5772  0.1314
  533TMC3    C3 7963   4.421   0.138  14.466  0.9001 -0.1207  0.2290
  533TMC3    C4 7964   4.169   0.039  14.439 -0.2431  0.8816 -0.0970
  533TMC3    C5 7965   4.190   0.142  14.532 -0.0612  0.0984 -0.5759
  533TMC3    C6 7966   4.316   0.195  14.544 -1.0059  0.6482 -0.4388
  533TMC3     C 7967   4.283   4.591  14.362  0.3163  0.2557 -0.2269
  533TMC3     O 7968   4.388   4.544  14.407  0.2354  0.0749  0.4297
  533TMC3     H 7969   4.488   4.730  14.338 -0.9689 -1.0230  0.1869
  533TMC3    H1 7970   4.071   4.737  14.434  0.1358  0.3594 -3.0138
  533TMC3    H2 7971   4.347   0.272  14.613 -3.4292  0.0456  1.3212
  533TMC3    C7 7972   4.120   0.113  14.651 -0.0711 -0.4075 -0.1904
  533TMC3    C8 7973   4.551   0.206  14.484 -0.2458 -0.0356 -0.2189
  533TMC3    O1 7974   4.042   0.015  14.653 -0.9022 -0.1832  0.1761
  533TMC3    O2 7975   4.537   0.323  14.521  0.1702  0.2413 -0.0024
  534MPD2     C 7976   2.513   0.958   1.360  0.2157  0.3152  0.3900
  534MPD2    C1 7977   2.471   1.042   1.262 -0.2398 -0.3138  0.0658
  534MPD2    C2 7978   2.349   1.022   1.209 -0.0765 -0.2416  0.4093
  534MPD2    C3 7979   2.263   0.922   1.244  0.0601 -0.7174 -0.1672
  534MPD2    C4 7980   2.311   0.831   1.337 -0.4689  0.1561 -0.3524
  534MPD2    C5 7981   2.434   0.854   1.391 -0.0025 -0.2275  0.1806
  534MPD2     H 7982   2.313   1.099   1.142 -0.6536  1.6471  2.8581
  534MPD2    H1 7983   2.255   0.742   1.366  0.7979 -0.2296  0.8726
  534MPD2    H2 7984   2.606   0.974   1.414  1.1278 -1.1259 -0.7820
  534MPD2    H3 7985   2.484   0.786   1.459 -3.0536 -2.4858  0.1636
  534MPD2     N 7986   2.135   0.912   1.186  0.8057 -0.4141 -0.2131
  534MPD2    H5 7987   2.121   0.979   1.111  1.7935 -0.3690 -0.3611
  534MPD2    N1 7988   2.542   1.157   1.218  0.1214  0.1386  0.2761
  534MPD2    H7 7989   2.487   1.224   1.165  2.5976  0.5327 -1.7930
  535TMC3    C1 7990   1.924   0.822   1.143  0.2437 -0.8618 -0.1310
  535TMC3    C2 7991   1.808   0.785   1.197  0.1423  1.1547 -0.6069
  535TMC3    C3 7992   1.686   0.825   1.146 -0.3118 -0.4914  0.5937
  535TMC3    C4 7993   1.926   0.889   1.026  0.5879  0.0265 -0.3763
  535TMC3    C5 7994   1.806   0.918   0.967 -0.2148 -0.5159  0.1457
  535TMC3    C6 7995   1.686   0.903   1.035  0.0447 -0.2305  0.6053
  535TMC3     C 7996   2.038   0.823   1.227  0.3869 -0.3152  0.9134
  535TMC3     O 7997   2.032   0.752   1.328 -0.1038  0.5103 -0.0389
  535TMC3     H 7998   1.820   0.712   1.276 -2.9775  0.1117 -1.0765
  535TMC3    H1 7999   2.020   0.916   0.979  0.9671  0.0865  0.4028
  535TMC3    H2 8000   1.592   0.915   0.983  0.1740 -2.9193 -0.2625
  535TMC3    C7 8001   1.813   0.936   0.818  0.6147 -1.1001  0.4149
  535TMC3    C8 8002   1.550   0.780   1.196 -0.9939  0.8573  0.2590
  535TMC3    O1 8003   1.925   0.943   0.764  0.5849 -0.6411  0.3973
  535TMC3    O2 8004   1.458   0.823   1.132  0.9644 -0.3197  0.9901
  536MPD2     C 8005   0.719   3.799  16.164 -0.2655  0.3243 -0.7817
  536MPD2    C1 8006   0.595   3.856  16.170 -0.1092  0.0427  0.7113
  536MPD2    C2 8007   0.554   3.940  16.068  0.2174  0.6284 -0.6530
  536MPD2    C3 8008   0.640   3.951  15.961  1.2162  0.2460 -0.4456
  536MPD2    C4 8009   0.766   3.908  15.958  0.4932  0.5878  0.2180
  536MPD2    C5 8010   0.804   3.819  16.057  0.1971 -0.6453 -0.3993
  536MPD2     H 8011   0.455   3.985  16.069  0.0853  0.3268  0.4866
  536MPD2    H1 8012   0.837   3.926  15.878  0.0756  0.5686 -0.1607
  536MPD2    H2 8013   0.745   3.729  16.242  0.7471  1.3590 -0.1796
  536MPD2    H3 8014   0.893   3.757  16.060  0.7859  0.1495 -1.4082
  536MPD2     N 8015   0.581   4.011  15.847 -0.0128 -0.5190 -0.4169
  536MPD2    H5 8016   0.485   4.042  15.863  0.1460  0.1488 -0.7366
  536MPD2    N1 8017   0.517   3.829  16.284  0.3329  0.2847  0.1186
  536MPD2    H7 8018   0.567   3.780  16.358 -1.1004 -0.5961  0.5087
  537TMC3    C1 8019   0.361   3.868  16.449 -0.1135 -0.1325 -0.0668
  537TMC3    C2 8020   0.453   3.866  16.547 -0.3754  0.1459  0.7119
  537TMC3    C3 8021   0.408   3.859  16.676  0.0983  0.3408  0.1595
  537TMC3    C4 8022   0.230   3.864  16.478  0.5622  0.2535 -0.1068
  537TMC3    C5 8023   0.189   3.863  16.608  0.1158 -0.1226 -0.2733
  537TMC3    C6 8024   0.277   3.855  16.714 -0.6188 -0.1492  0.1209
  537TMC3     C 8025   0.386   3.875  16.304  0.3027 -0.3775  0.1756
  537TMC3     O 8026   0.299   3.920  16.227  0.4253 -0.8151  0.1652
  537TMC3     H 8027   0.560   3.863  16.531 -0.3099 -3.9837  1.9158
  537TMC3    H1 8028   0.153   3.865  16.402 -0.2898 -1.6485  0.7308
  537TMC3    H2 8029   0.243   3.857  16.816 -3.4152 -1.8216 -0.7718
  537TMC3    C7 8030   0.057   3.846  16.633 -0.0704 -0.7979  0.5418
  537TMC3    C8 8031   0.506   3.857  16.781  0.2083 -0.7820  0.3164
  537TMC3    O1 8032   4.722   3.901  16.557  0.3486 -0.1398 -0.2471
  537TMC3    O2 8033   0.615   3.898  16.742 -0.3574 -0.4085  0.2282
  538TMC3    C1 8034   2.155   2.552  11.011  0.6000 -0.3821 -0.4559
  538TMC3    C2 8035   2.281   2.551  10.951 -0.3931 -1.1734 -0.0875
  538TMC3    C3 8036   2.291   2.620  10.831 -0.5335  0.1845  0.0283
  538TMC3    C4 8037   2.051   2.622  10.960  0.0054  0.5744 -0.3560
  538TMC3    C5 8038   2.070   2.685  10.848 -0.4384  0.6725 -0.2899
  538TMC3    C6 8039   2.188   2.693  10.784  1.7319 -0.4495 -0.5949
  538TMC3     C 8040   2.129   2.496  11.142  0.0535 -0.5587 -0.5924
  538TMC3     O 8041   2.013   2.468  11.177 -0.3665  0.2277  0.2270
  538TMC3     H 8042   2.363   2.487  10.982  0.3132  0.5969  1.6662
  538TMC3    H1 8043   1.948   2.616  10.992  0.7614  0.6407  2.1385
  538TMC3    H2 8044   2.192   2.759  10.697  0.2914  1.5092  0.8179
  538TMC3    C7 8045   1.962   2.778  10.814  0.2751  0.6017 -0.0893
  538TMC3    C8 8046   2.411   2.602  10.758 -0.0583 -0.0790  0.2724
  538TMC3    O1 8047   1.886   2.805  10.907 -0.1678 -0.5895  0.4141
  538TMC3    O2 8048   2.501   2.545  10.816  0.6144  0.6966  0.0051
  539MPD2     C 8049   2.011   1.903  11.882  0.3911  0.6365 -0.0732
  539MPD2    C1 8050   2.025   1.927  11.745  0.1850  0.3788  0.6050
  539MPD2    C2 8051   1.946   2.022  11.686 -0.3372  0.7426  0.3279
  539MPD2    C3 8052   1.857   2.099  11.761 -0.1634 -0.2962 -0.0705
  539MPD2    C4 8053   1.849   2.071  11.898 -0.1182 -0.8608 -1.1348
  539MPD2    C5 8054   1.928   1.978  11.961 -0.6702 -0.1995 -0.2099
  539MPD2     H 8055   1.972   2.052  11.585 -0.1566  0.5705  0.3243
  539MPD2    H1 8056   1.785   2.130  11.963 -0.6835 -1.6629 -0.9692
  539MPD2    H2 8057   2.070   1.830  11.936  0.8801 -0.2703 -1.8491
  539MPD2    H3 8058   1.912   1.960  12.067  0.1599  0.0285 -0.0427
  539MPD2     N 8059   1.777   2.200  11.704 -0.2939  0.4152  0.0804
  539MPD2    H5 8060   1.702   2.237  11.760 -0.1930 -1.1206  1.2190
  539MPD2    N1 8061   2.116   1.853  11.665 -0.0684 -0.6817  0.0432
  539MPD2    H7 8062   2.095   1.852  11.566  0.2274  1.5770 -0.0400
  540TMC3    C1 8063   1.710   2.377  11.572  0.0090  0.4568  0.4389
  540TMC3    C2 8064   1.700   2.437  11.444  0.0415  0.4076  0.4199
  540TMC3    C3 8065   1.623   2.551  11.430  0.4871 -0.1092 -0.0603
  540TMC3    C4 8066   1.646   2.429  11.680  0.4316 -0.2325 -0.2811
  540TMC3    C5 8067   1.569   2.543  11.658 -0.0141  0.4672  0.4858
  540TMC3    C6 8068   1.561   2.602  11.539  0.2143 -0.3900 -0.1304
  540TMC3     C 8069   1.793   2.258  11.578  0.1390  0.1557  0.0942
  540TMC3     O 8070   1.852   2.224  11.477 -0.3901  0.1139  0.1212
  540TMC3     H 8071   1.751   2.396  11.357 -0.7903 -0.8898  0.5443
  540TMC3    H1 8072   1.643   2.386  11.779  1.3040  3.5615  1.3776
  540TMC3    H2 8073   1.476   2.667  11.522  0.5584 -0.0955 -0.7171
  540TMC3    C7 8074   1.445   2.522  11.719  0.2859  0.8596  1.0949
  540TMC3    C8 8075   1.533   2.554  11.317  0.0845 -0.0538 -0.3921
  540TMC3    O1 8076   1.420   2.410  11.756  0.4103  0.8424  0.4345
  540TMC3    O2 8077   1.490   2.664  11.284  0.1575 -0.2562 -0.2181
  541MPD2     C 8078   4.705   2.805  13.810 -0.4535  0.1925 -0.5442
  541MPD2    C1 8079   4.647   2.729  13.713  0.5665 -0.4472  0.7133
  541MPD2    C2 8080   4.669   2.761  13.578  0.0971 -0.4862  0.5612
  541MPD2    C3 8081   4.734   2.874  13.547  0.2573  0.5648  0.0564
  541MPD2    C4 8082   0.050   2.952  13.645 -0.7727 -0.1242 -0.2240
  541MPD2    C5 8083   0.039   2.910  13.773 -0.1424 -0.5185 -0.4984
  541MPD2     H 8084   4.620   2.706  13.499  1.3491 -1.4837  0.4917
  541MPD2    H1 8085   0.100   3.045  13.620  1.5040 -1.5292 -0.8967
  541MPD2    H2 8086   4.688   2.791  13.916 -1.1777  1.1568 -0.5334
  541MPD2    H3 8087   0.091   2.964  13.851 -1.2732 -2.0122  1.2978
  541MPD2     N 8088   0.014   2.912  13.410 -0.0370  0.5500 -0.1276
  541MPD2    H5 8089   0.043   3.009  13.396  0.4876  0.3205 -0.6318
  541MPD2    N1 8090   4.576   2.612  13.763 -0.1457  0.7920 -0.4524
  541MPD2    H7 8091   4.595   2.588  13.860  1.5882  4.8809  0.2246
  542TMC3    C1 8092   0.008   2.921  13.184 -0.4581 -0.3377 -0.6900
  542TMC3    C2 8093   0.034   2.858  13.069  0.5616  0.6082  0.5298
  542TMC3    C3 8094   4.713   2.908  12.961 -0.4107  0.1697  0.2119
  542TMC3    C4 8095   4.678   3.034  13.203 -0.0752  0.9275  0.2858
  542TMC3    C5 8096   4.613   3.082  13.092 -0.3519 -0.3735 -0.5098
  542TMC3    C6 8097   4.635   3.014  12.970  0.2861  0.5497 -0.1989
  542TMC3     C 8098   0.014   2.833  13.299 -0.0438  0.5376 -0.5913
  542TMC3     O 8099   0.007   2.708  13.292  0.3481  0.0286 -0.6669
  542TMC3     H 8100   0.098   2.771  13.066 -1.8958 -1.1145 -2.4971
  542TMC3    H1 8101   4.649   3.092  13.290  0.0987 -0.3256  1.1762
  542TMC3    H2 8102   4.595   3.065  12.883  0.4111  0.1247 -0.5058
  542TMC3    C7 8103   4.520   3.189  13.101 -0.0124  0.6019 -0.0904
  542TMC3    C8 8104   4.735   2.866  12.829 -0.0942 -0.1652  0.0303
  542TMC3    O1 8105   4.546   3.282  13.180  0.3771  0.2163 -0.2297
  542TMC3    O2 8106   4.638   2.869  12.754 -0.2541  0.5041  1.1032
  543TMC3    C1 8107   4.193   4.739  17.286 -0.1917  0.0947 -0.3988
  543TMC3    C2 8108   4.259   4.656  17.381  0.0131 -0.0530 -0.1934
  543TMC3    C3 8109   4.193   4.640  17.502 -0.5455 -0.0191 -0.1059
  543TMC3    C4 8110   4.078   0.064  17.321  0.4111 -0.4496  0.0421
  543TMC3    C5 8111   4.028   0.051  17.447 -0.1430 -0.0211 -0.3834
  543TMC3    C6 8112   4.080   4.710  17.537 -0.3509 -0.4722  0.2038
  543TMC3     C 8113   4.258   4.743  17.154 -0.1239 -0.5623 -0.0813
  543TMC3     O 8114   4.320   4.643  17.128 -0.1657 -0.3826  0.1746
  543TMC3     H 8115   4.347   4.599  17.356  0.8637  0.4684  1.6489
  543TMC3    H1 8116   4.026   0.115  17.241  0.5227  2.7479  2.0233
  543TMC3    H2 8117   4.037   4.699  17.636 -1.9276 -0.1355 -0.4403
  543TMC3    C7 8118   3.909   0.119  17.491  0.2284 -0.4139  0.0636
  543TMC3    C8 8119   4.193   4.502  17.548 -0.0560 -0.2618  0.0448
  543TMC3    O1 8120   3.857   0.084  17.595 -0.0380  0.3669  0.0721
  543TMC3    O2 8121   4.238   4.423  17.467 -0.3386  0.2430  0.2427
  544MPD2     C 8122   3.944   4.113   0.002  0.3886 -0.6275 -0.1739
  544MPD2    C1 8123   3.981   4.139  17.643 -0.3194  0.5806 -0.0724
  544MPD2    C2 8124   4.050   4.255  17.614 -0.1601  0.0777  0.3636
  544MPD2    C3 8125   4.069   4.355  17.703 -0.3193 -0.2219 -0.4238
  544MPD2    C4 8126   4.024   4.332   0.059  0.4557 -0.2930  0.5922
  544MPD2    C5 8127   3.965   4.210   0.097  0.9164  0.3352  0.3455
  544MPD2     H 8128   4.080   4.260  17.510  1.8977  1.0304  1.0080
  544MPD2    H1 8129   4.041   4.407   0.135  0.0452 -0.2488  0.6412
  544MPD2    H2 8130   3.906   4.013   0.023 -1.5361 -0.0541 -0.9490
  544MPD2    H3 8131   3.935   4.182   0.197 -0.0351 -0.9186 -0.2887
  544MPD2     N 8132   4.127   4.473  17.668 -0.1921  0.3836  0.5589
  544MPD2    H5 8133   4.130   4.547  17.738 -1.7871  0.2045  0.8000
  544MPD2    N1 8134   3.921   4.057  17.542 -0.4075 -0.2600 -0.0060
  544MPD2    H7 8135   3.884   3.965  17.567 -0.7683 -0.7638 -2.3567
  545TMC3    C1 8136   3.816   3.996  17.337 -0.1248 -0.2341 -0.8410
  545TMC3    C2 8137   3.732   4.052  17.241  0.0240 -0.2743 -0.1308
  545TMC3    C3 8138   3.676   3.969  17.143  0.5691  0.3232  0.8869
  545TMC3    C4 8139   3.835   3.866  17.349  0.0584  0.6285  0.3593
  545TMC3    C5 8140   3.763   3.778  17.268  0.4528  0.4961  0.1308
  545TMC3    C6 8141   3.687   3.829  17.167 -0.1278 -0.1995 -0.7968
  545TMC3     C 8142   3.907   4.083  17.406 -0.9949 -0.2253 -0.2534
  545TMC3     O 8143   3.940   4.180  17.335  0.3239 -0.1244 -0.2428
  545TMC3     H 8144   3.714   4.159  17.241 -1.6820 -0.5586  1.4449
  545TMC3    H1 8145   3.902   3.835  17.429  0.3069  4.3994  1.5931
  545TMC3    H2 8146   3.634   3.769  17.094 -2.9826  1.1383  0.1765
  545TMC3    C7 8147   3.768   3.632  17.287  0.2531  1.0058 -0.1395
  545TMC3    C8 8148   3.576   4.028  17.055  0.3330 -0.5647 -0.0464
  545TMC3    O1 8149   3.685   3.566  17.226  0.8295 -0.0281  0.5983
  545TMC3    O2 8150   3.527   4.128  17.092  0.8117 -0.4647  0.8601
  546MPD2     C 8151   1.026   4.173  17.467 -0.3387 -1.5286 -0.5469
  546MPD2    C1 8152   0.935   4.234  17.373 -0.0531 -0.4734  1.2125
  546MPD2    C2 8153   0.949   4.370  17.349 -0.0721  0.8063 -0.2029
  546MPD2    C3 8154   1.054   4.439  17.408 -0.0540  0.0071  0.4184
  546MPD2    C4 8155   1.144   4.378  17.499 -0.5578  0.4247 -0.0718
  546MPD2    C5 8156   1.130   4.244  17.524 -0.5187 -0.9565  0.0439
  546MPD2     H 8157   0.885   4.415  17.274  1.4841 -0.7611 -2.4644
  546MPD2    H1 8158   1.218   4.430  17.558  1.2526 -2.2972  0.0339
  546MPD2    H2 8159   1.013   4.072  17.503 -0.1271 -1.1515  0.5940
  546MPD2    H3 8160   1.198   4.187  17.586  1.2055  0.1206 -0.8664
  546MPD2     N 8161   1.068   4.580  17.389 -0.1368 -0.4449 -0.3433
  546MPD2    H5 8162   1.130   4.636  17.448  1.4552 -3.6549  1.0234
  546MPD2    N1 8163   0.825   4.158  17.322  0.1115 -0.3898 -0.1630
  546MPD2    H7 8164   0.820   4.066  17.364  0.2944 -1.1282 -1.7438
  547TMC3    C1 8165   0.616   4.106  17.238 -0.5398  0.6002 -0.8184
  547TMC3    C2 8166   0.527   4.113  17.134  0.0576  0.7316 -0.7076
  547TMC3    C3 8167   0.415   4.029  17.135 -0.5159  0.4070  0.1860
  547TMC3    C4 8168   0.590   4.038  17.356  0.6177 -0.0561 -0.5188
  547TMC3    C5 8169   0.470   3.972  17.360 -1.1159 -0.3320  0.5999
  547TMC3    C6 8170   0.387   3.961  17.250 -0.5932 -0.1303  0.5142
  547TMC3     C 8171   0.722   4.200  17.241  0.4136  0.2788  0.3757
  547TMC3     O 8172   0.709   4.298  17.168  0.3903 -0.9735  0.1011
  547TMC3     H 8173   0.548   4.174  17.047 -0.6758 -0.0240 -1.4116
  547TMC3    H1 8174   0.658   4.027  17.440 -0.0523  0.3023  0.0611
  547TMC3    H2 8175   0.293   3.909  17.266 -1.9183  2.4114  0.9517
  547TMC3    C7 8176   0.469   3.860  17.453  0.2312  0.7876 -0.8934
  547TMC3    C8 8177   0.312   4.063  17.035 -0.0225  0.6517  0.0128
  547TMC3    O1 8178   0.545   3.870  17.555 -0.8696 -0.1761 -0.1722
  547TMC3    O2 8179   0.341   4.132  16.936 -0.8293 -0.0486  0.1006
  548MPD2     C 8180   0.318   4.618  12.852  0.0692  0.1854 -1.0595
  548MPD2    C1 8181   0.256   4.494  12.814  0.2390  0.5531  0.3859
  548MPD2    C2 8182   0.348   4.396  12.775 -0.5517  0.3924 -0.9670
  548MPD2    C3 8183   0.486   4.414  12.779  0.2562 -0.9119 -0.4382
  548MPD2    C4 8184   0.536   4.538  12.815  0.5621 -0.5408 -0.2902
  548MPD2    C5 8185   0.453   4.639  12.840  0.0543 -0.6038 -0.0140
  548MPD2     H 8186   0.319   4.291  12.775 -2.6141  0.9517 -0.3726
  548MPD2    H1 8187   0.640   4.563  12.830 -0.2120  1.2430  2.1366
  548MPD2    H2 8188   0.261   4.705  12.883  0.5364  0.4043 -0.8079
  548MPD2    H3 8189   0.499   4.732  12.873  0.2071 -1.0348  0.9821
  548MPD2     N 8190   0.572   4.305  12.746  0.1042  0.1348 -0.0155
  548MPD2    H5 8191   0.528   4.213  12.742 -3.3707  1.7602  0.2038
  548MPD2    N1 8192   0.115   4.479  12.835 -0.1759 -0.0373 -0.9338
  548MPD2    H7 8193   0.068   4.565  12.861 -0.5183 -0.4849 -0.0575
  549TMC3    C1 8194   4.644   4.385  12.808 -0.0336 -1.0745 -0.0596
  549TMC3    C2 8195   4.592   4.514  12.803  0.1152 -0.7478 -0.1973
  549TMC3    C3 8196   4.463   4.541  12.775  0.3385 -0.1076  0.4116
  549TMC3    C4 8197   4.555   4.279  12.798  0.1741 -0.1153 -0.5755
  549TMC3    C5 8198   4.420   4.302  12.778  0.4873 -0.4353  0.1647
  549TMC3    C6 8199   4.379   4.431  12.759  0.2153  0.7920  0.3912
  549TMC3     C 8200   0.045   4.365  12.809  0.1108 -0.0492 -0.3889
  549TMC3     O 8201   0.086   4.260  12.752  0.4949  0.5997 -0.0579
  549TMC3     H 8202   4.660   4.598  12.790  1.6507 -1.8298  0.8370
  549TMC3    H1 8203   4.588   4.176  12.800  0.5948  0.0515  1.3821
  549TMC3    H2 8204   4.277   4.450  12.727 -0.3212 -0.1493  1.5566
  549TMC3    C7 8205   4.335   4.193  12.721 -0.5395  0.1140 -0.1265
  549TMC3    C8 8206   4.403   4.677  12.784 -0.0842  0.1867 -0.0219
  549TMC3    O1 8207   4.243   4.226  12.649  0.0435 -0.6865 -0.3139
  549TMC3    O2 8208   4.281   4.676  12.772 -0.2219 -0.0478 -0.1699
  550TMC3    C1 8209   4.152   2.273  12.875  0.2659 -0.1383  0.6951
  550TMC3    C2 8210   4.101   2.361  12.971  0.3712 -0.3506  0.2364
  550TMC3    C3 8211   3.969   2.394  12.947  0.5153  0.1240  0.2325
  550TMC3    C4 8212   4.078   2.240  12.764 -0.3336 -0.5229  0.1082
  550TMC3    C5 8213   3.944   2.282  12.747  0.7665  0.0380  0.7582
  550TMC3    C6 8214   3.895   2.373  12.830 -1.0679 -0.2901  0.1978
  550TMC3     C 8215   4.300   2.241  12.881 -0.0726 -0.2703 -0.2137
  550TMC3     O 8216   4.358   2.269  12.981  0.2246 -0.2281 -0.2611
  550TMC3     H 8217   4.154   2.396  13.058 -0.6241  0.7125  0.4065
  550TMC3    H1 8218   4.122   2.165  12.700  0.5423  0.1490 -0.0652
  550TMC3    H2 8219   3.797   2.419  12.825 -0.1404  1.8612  1.7300
  550TMC3    C7 8220   3.884   2.277  12.617  0.0331 -0.3068 -0.0407
  550TMC3    C8 8221   3.914   2.515  13.012 -0.3472 -0.4885  0.1805
  550TMC3    O1 8222   3.796   2.360  12.606 -0.1056  0.1313 -0.4972
  550TMC3    O2 8223   3.875   2.602  12.937  0.0257  0.2852 -0.4165
  551TMC3    C1 8224   1.458   0.882  13.547 -0.2947 -0.7228 -0.3467
  551TMC3    C2 8225   1.590   0.849  13.527 -0.3954  0.2071  0.1100
  551TMC3    C3 8226   1.685   0.922  13.592  1.1559  0.1508 -0.3068
  551TMC3    C4 8227   1.423   0.979  13.635 -0.8083  0.0538  0.2339
  551TMC3    C5 8228   1.518   1.041  13.702 -0.4965 -0.5781  0.1743
  551TMC3    C6 8229   1.649   1.015  13.686 -0.3370  0.3843  0.5320
  551TMC3     C 8230   1.372   0.864  13.436  0.1955  0.9148 -0.3717
  551TMC3     O 8231   1.388   0.761  13.375 -0.8878 -0.0293  0.5960
  551TMC3     H 8232   1.624   0.770  13.461 -2.4451  1.7219 -2.7759
  551TMC3    H1 8233   1.319   0.999  13.660 -0.6845 -0.6394  1.2987
  551TMC3    H2 8234   1.725   1.068  13.742  1.3323 -0.2604 -1.0802
  551TMC3    C7 8235   1.490   1.109  13.821 -0.6048 -0.0336 -0.4721
  551TMC3    C8 8236   1.790   0.943  13.499 -0.5332  0.3954 -0.8719
  551TMC3    O1 8237   1.380   1.164  13.815 -0.5186 -0.0543 -0.3225
  551TMC3    O2 8238   1.836   0.840  13.452 -0.0971  0.5475  0.1195
  552MPD2     C 8239   3.691   2.481  13.916  0.3255 -0.2297 -0.4615
  552MPD2    C1 8240   3.729   2.399  14.028  0.1213  0.6195 -0.3112
  552MPD2    C2 8241   3.815   2.452  14.124  0.1236 -0.3355 -0.1928
  552MPD2    C3 8242   3.843   2.590  14.118 -0.5384 -0.0929 -0.0660
  552MPD2    C4 8243   3.810   2.665  14.013 -0.1822 -0.2472  0.1918
  552MPD2    C5 8244   3.731   2.611  13.912 -0.6056  0.0667 -0.0278
  552MPD2     H 8245   3.853   2.386  14.201 -0.6109 -0.9788 -0.3740
  552MPD2    H1 8246   3.826   2.771  13.999  1.3698 -0.4118  0.6865
  552MPD2    H2 8247   3.634   2.448  13.830  0.7088 -0.8409 -0.4857
  552MPD2    H3 8248   3.711   2.678  13.829 -1.5312  0.3105  0.3930
  552MPD2     N 8249   3.927   2.662  14.207  0.5184  0.2125 -0.2792
  552MPD2    H5 8250   3.951   2.757  14.182  1.9276 -0.3689 -1.1599
  552MPD2    N1 8251   3.693   2.261  14.040 -0.3670  0.7147 -0.2009
  552MPD2    H7 8252   3.730   2.207  14.118 -0.5823 -1.3341 -1.5088
  553TMC3    C1 8253   3.595   2.050  13.958  0.0977  0.2651 -0.0386
  553TMC3    C2 8254   3.589   2.016  13.829 -0.0434 -0.1612  0.6658
  553TMC3    C3 8255   3.645   1.898  13.792 -0.0212 -0.5686  0.0690
  553TMC3    C4 8256   3.670   1.983  14.046 -0.0231 -0.4219  0.5175
  553TMC3    C5 8257   3.725   1.867  14.007 -0.2547  0.7908  0.0361
  553TMC3    C6 8258   3.703   1.822  13.882  0.7485 -0.1509  1.0650
  553TMC3     C 8259   3.590   2.198  13.966  0.0538  1.2330  0.0484
  553TMC3     O 8260   3.509   2.253  13.893  0.2202 -0.3073 -1.2337
  553TMC3     H 8261   3.559   2.092  13.758  3.5565 -0.7270 -1.4779
  553TMC3    H1 8262   3.664   2.018  14.148 -1.9868 -1.4605  0.7618
  553TMC3    H2 8263   3.745   1.725  13.859 -0.1498 -0.5045  0.9219
  553TMC3    C7 8264   3.809   1.789  14.096 -0.0754 -0.0136 -0.3867
  553TMC3    C8 8265   3.638   1.862  13.650 -0.5089  0.0086  0.2549
  553TMC3    O1 8266   3.836   1.676  14.055 -0.2400 -0.8930 -0.2321
  553TMC3    O2 8267   3.706   1.770  13.610  0.2332 -0.6904  0.1887
  554TMC3    C1 8268   1.177   1.972  11.383  0.0227  0.6948  0.0199
  554TMC3    C2 8269   1.082   1.932  11.293 -0.4350  0.1814 -0.3781
  554TMC3    C3 8270   0.994   2.023  11.255  0.1347  0.4296 -0.8263
  554TMC3    C4 8271   1.167   2.090  11.453  0.4395  0.0637 -0.5147
  554TMC3    C5 8272   1.067   2.176  11.416  0.4845  0.4563 -0.2091
  554TMC3    C6 8273   0.980   2.147  11.313  0.1174 -0.5305 -0.1960
  554TMC3     C 8274   1.238   1.861  11.455 -0.0398  0.4855  0.1319
  554TMC3     O 8275   1.207   1.747  11.416 -0.6240  0.7428 -0.5161
  554TMC3     H 8276   1.083   1.842  11.234 -0.4991 -0.0663 -0.0029
  554TMC3    H1 8277   1.225   2.114  11.542  0.7746 -3.0563  0.0863
  554TMC3    H2 8278   0.893   2.208  11.289  0.9231  1.0289  0.8140
  554TMC3    C7 8279   1.078   2.311  11.457 -1.0243  0.5463 -0.6310
  554TMC3    C8 8280   0.949   2.022  11.121 -0.4377 -0.9379 -0.3301
  554TMC3    O1 8281   1.119   2.324  11.570 -0.1042 -0.0172  0.6455
  554TMC3    O2 8282   0.929   2.132  11.068  0.2689 -0.2227  0.1658
  555TMC3    C1 8283   4.110   1.726  15.327 -0.4642  0.1608 -0.0531
  555TMC3    C2 8284   4.190   1.768  15.428  0.5125 -0.3266 -0.4379
  555TMC3    C3 8285   4.293   1.686  15.471  0.0133 -0.5746  0.5853
  555TMC3    C4 8286   4.138   1.615  15.259  0.2860  0.0170 -0.1224
  555TMC3    C5 8287   4.238   1.533  15.305  0.3214 -0.2098 -0.1354
  555TMC3    C6 8288   4.318   1.574  15.408  0.0753 -0.5232 -0.6136
  555TMC3     C 8289   4.020   1.837  15.281  0.6891  0.2855 -0.7216
  555TMC3     O 8290   4.024   1.943  15.335 -0.1384  0.0333  0.1460
  555TMC3     H 8291   4.168   1.858  15.484  2.7400 -1.5823  2.4553
  555TMC3    H1 8292   4.087   1.598  15.164 -1.2560  0.8416  0.5605
  555TMC3    H2 8293   4.402   1.511  15.436  0.0061 -0.4393 -0.2194
  555TMC3    C7 8294   4.229   1.399  15.274 -0.1365 -0.1335  0.3957
  555TMC3    C8 8295   4.408   1.753  15.548 -0.1233 -0.9344  0.1722
  555TMC3    O1 8296   4.306   1.322  15.327  0.3569  0.6569  0.2246
  555TMC3    O2 8297   4.389   1.864  15.595  0.0367  0.1036 -0.3579
  556MPD2     C 8298   2.160   3.088  10.664  0.1656  0.3657 -0.0974
  556MPD2    C1 8299   2.300   3.079  10.677 -0.0244  0.2299  0.1640
  556MPD2    C2 8300   2.376   3.128  10.571 -0.3268  0.0219  0.2920
  556MPD2    C3 8301   2.310   3.181  10.462 -0.0692  0.5120 -0.4279
  556MPD2    C4 8302   2.171   3.185  10.448  0.4444  0.5903  0.7035
  556MPD2    C5 8303   2.101   3.137  10.554  0.2261 -0.1643  0.3159
  556MPD2     H 8304   2.484   3.133  10.576 -0.1274 -1.1415 -2.3778
  556MPD2    H1 8305   2.122   3.206  10.354 -0.2907  3.7499  1.8040
  556MPD2    H2 8306   2.091   3.049  10.737 -0.4137  2.6322  0.5699
  556MPD2    H3 8307   1.993   3.138  10.543  0.3220 -1.6395 -0.8149
  556MPD2     N 8308   2.393   3.226  10.351 -0.5451 -0.8101  0.6164
  556MPD2    H5 8309   2.492   3.217  10.371 -0.4443  1.2953  0.9944
  556MPD2    N1 8310   2.368   3.031  10.794  0.8099 -0.4248  0.6835
  556MPD2    H7 8311   2.469   3.043  10.797  0.6395  1.7721 -2.0588
  557TMC3    C1 8312   2.465   3.241  10.139 -0.0772  0.5057 -0.8323
  557TMC3    C2 8313   2.426   3.264  10.008  0.3132  0.5740 -0.4909
  557TMC3    C3 8314   2.458   3.169   9.918  0.1064 -0.1871  0.5929
  557TMC3    C4 8315   2.537   3.124  10.168  0.2860 -0.1415  0.2985
  557TMC3    C5 8316   2.574   3.034  10.067  0.6513 -0.0415  0.0213
  557TMC3    C6 8317   2.523   3.053   9.943  0.0627  0.6960 -0.1924
  557TMC3     C 8318   2.359   3.272  10.231  0.3019 -0.2511  0.7412
  557TMC3     O 8319   2.252   3.309  10.183 -0.5703  0.7691 -0.4882
  557TMC3     H 8320   2.360   3.342   9.972 -0.5236 -0.5436 -1.3327
  557TMC3    H1 8321   2.581   3.112  10.266 -0.9635 -0.1816  0.8515
  557TMC3    H2 8322   2.554   2.977   9.872 -0.2635 -1.0265  1.5068
  557TMC3    C7 8323   2.623   2.911  10.128  0.2501  0.2221 -0.2754
  557TMC3    C8 8324   2.379   3.181   9.800 -0.4431 -0.4654 -0.6851
  557TMC3    O1 8325   2.722   2.860  10.080  0.1869  0.6979  0.8862
  557TMC3    O2 8326   2.393   3.280   9.731 -0.3888 -0.3789 -0.2723
  558TMC3    C1 8327   0.575   0.439  10.968 -0.2175 -0.2450 -0.1375
  558TMC3    C2 8328   0.456   0.480  11.028  1.0058  0.3399  0.7423
  558TMC3    C3 8329   0.349   0.504  10.945 -0.6336 -0.2110  0.2908
  558TMC3    C4 8330   0.590   0.429  10.831  0.3415  0.6182  0.1785
  558TMC3    C5 8331   0.479   0.452  10.754 -0.2905 -0.5624 -0.2348
  558TMC3    C6 8332   0.359   0.481  10.812  0.4258  0.5657 -0.2544
  558TMC3     C 8333   0.686   0.433  11.051  0.1569 -0.7790  0.1656
  558TMC3     O 8334   0.795   0.467  11.008  0.7091  0.4765  0.0643
  558TMC3     H 8335   0.446   0.499  11.134 -2.9682  0.6361  0.3367
  558TMC3    H1 8336   0.686   0.401  10.790  1.1844  0.9600  1.9285
  558TMC3    H2 8337   0.272   0.508  10.754  0.5346 -0.0058 -0.6893
  558TMC3    C7 8338   0.494   0.480  10.613  0.1769  0.6698  0.1285
  558TMC3    C8 8339   0.233   0.575  10.985  0.3840 -1.0048  0.1124
  558TMC3    O1 8340   0.597   0.448  10.555 -0.2606  0.0562 -0.7031
  558TMC3    O2 8341   0.136   0.571  10.911 -0.6137 -0.3341  0.4655
  559MPD2     C 8342   0.447   1.722  11.115 -0.0250  0.8628  0.1315
  559MPD2    C1 8343   0.440   1.587  11.117 -1.1487  0.0794 -1.0617
  559MPD2    C2 8344   0.550   1.512  11.141 -0.3331  0.5016 -0.2175
  559MPD2    C3 8345   0.671   1.575  11.169  0.4983  0.2695  0.0613
  559MPD2    C4 8346   0.673   1.712  11.177  0.0968  0.0383 -0.0864
  559MPD2    C5 8347   0.565   1.784  11.146  0.3649  0.4367 -0.0155
  559MPD2     H 8348   0.533   1.406  11.154  1.1775  0.2318 -0.3560
  559MPD2    H1 8349   0.764   1.759  11.213 -1.0324  1.0708  1.4009
  559MPD2    H2 8350   0.366   1.790  11.092 -1.6844 -1.5275 -1.1790
  559MPD2    H3 8351   0.567   1.892  11.147  0.5339  0.4220  1.5485
  559MPD2     N 8352   0.783   1.494  11.202 -0.8497 -0.0615  0.9711
  559MPD2    H5 8353   0.763   1.396  11.217  0.0179 -0.4043 -0.1459
  559MPD2    N1 8354   0.313   1.536  11.085 -1.1102  0.0749 -1.2993
  559MPD2    H7 8355   0.239   1.606  11.081 -0.7949  0.4337 -0.7462
  560TMC3    C1 8356   1.002   1.434  11.281  0.6103 -0.3973 -0.4423
  560TMC3    C2 8357   0.943   1.320  11.337  0.2859  1.1022  0.7022
  560TMC3    C3 8358   0.997   1.247  11.434 -0.3843 -0.1185  0.3286
  560TMC3    C4 8359   1.125   1.469  11.326  0.3484  0.6119  0.6121
  560TMC3    C5 8360   1.180   1.390  11.425 -0.1936  0.0408  0.6517
  560TMC3    C6 8361   1.108   1.288  11.489 -0.3324  0.5768 -0.1237
  560TMC3     C 8362   0.909   1.534  11.228 -0.1936  0.1943  0.3407
  560TMC3     O 8363   0.958   1.646  11.205 -0.4934  0.0851  0.4950
  560TMC3     H 8364   0.853   1.280  11.291  2.2012 -1.9169 -0.4448
  560TMC3    H1 8365   1.172   1.559  11.288 -1.5264  0.5370 -1.8818
  560TMC3    H2 8366   1.150   1.237  11.575 -2.4295  0.3288  0.7658
  560TMC3    C7 8367   1.316   1.401  11.458 -0.6345  1.3733 -0.1559
  560TMC3    C8 8368   0.915   1.143  11.502  0.6305 -0.2361  0.2826
  560TMC3    O1 8369   1.358   1.311  11.533 -0.2633 -0.5713  0.1291
  560TMC3    O2 8370   0.798   1.147  11.470 -0.2925 -0.0313  0.1423
  561TMC3    C1 8371   2.963   0.483  11.450 -0.6054  0.3970 -0.5282
  561TMC3    C2 8372   2.899   0.496  11.571 -0.6149  1.2808  0.1741
  561TMC3    C3 8373   2.798   0.581  11.600 -0.2531  0.0987 -0.0161
  561TMC3    C4 8374   2.918   0.567  11.350 -0.4928  0.1085 -0.1357
  561TMC3    C5 8375   2.809   0.646  11.384 -0.7519  0.6633  0.1972
  561TMC3    C6 8376   2.736   0.646  11.500  0.6824  0.5529  0.1993
  561TMC3     C 8377   3.075   0.390  11.438  0.1674  0.1761 -0.2229
  561TMC3     O 8378   3.083   0.302  11.524  0.1624 -0.1748 -0.0659
  561TMC3     H 8379   2.941   0.437  11.652 -2.4818  1.0162  0.9551
  561TMC3    H1 8380   2.945   0.561  11.245  0.4634 -0.9145  0.1774
  561TMC3    H2 8381   2.654   0.715  11.513  1.7045  1.3482  2.4935
  561TMC3    C7 8382   2.807   0.773  11.318  0.0053 -0.3994 -1.0107
  561TMC3    C8 8383   2.741   0.597  11.733  0.1257  0.2589  0.0144
  561TMC3    O1 8384   2.704   0.838  11.341  1.0911  0.2057  0.1939
  561TMC3    O2 8385   2.633   0.661  11.735  0.1956  0.5001 -0.2069
  562TMC3    C1 8386   4.655   1.577  16.070 -0.4715 -0.2664 -0.1515
  562TMC3    C2 8387   4.581   1.676  16.113 -0.1729 -0.0769  0.1565
  562TMC3    C3 8388   4.465   1.688  16.042  0.5468 -0.3562  0.3371
  562TMC3    C4 8389   4.625   1.499  15.965  0.1307  0.3094  0.0876
  562TMC3    C5 8390   4.505   1.520  15.890 -0.2521  0.5038 -0.1951
  562TMC3    C6 8391   4.422   1.624  15.928  0.3634 -0.1506 -0.0548
  562TMC3     C 8392   0.041   1.568  16.124 -0.2453  0.5484  0.5120
  562TMC3     O 8393   0.119   1.496  16.062  0.4999  0.4634 -0.5618
  562TMC3     H 8394   4.619   1.746  16.187 -0.5167 -0.2561  0.5067
  562TMC3    H1 8395   4.693   1.425  15.925 -0.0994 -0.5979  1.3767
  562TMC3    H2 8396   4.334   1.650  15.870  0.3732 -0.3638 -0.1690
  562TMC3    C7 8397   4.462   1.433  15.786  0.2714  0.6589  0.1772
  562TMC3    C8 8398   4.400   1.820  16.075 -0.1126 -0.1299 -0.3990
  562TMC3    O1 8399   4.358   1.461  15.730  0.3181  0.2160  0.4601
  562TMC3    O2 8400   4.414   1.857  16.189  0.0058  0.3163  0.8734
  563MPD2     C 8401   1.553   2.837  15.860  0.0147  0.3546  0.1734
  563MPD2    C1 8402   1.573   2.954  15.929  0.3755 -0.1158 -0.2909
  563MPD2    C2 8403   1.701   2.968  15.985 -0.6761  0.4732  0.1509
  563MPD2    C3 8404   1.807   2.879  15.977 -0.4148 -0.0044  0.3073
  563MPD2    C4 8405   1.781   2.764  15.905 -1.1015  0.0500  0.5434
  563MPD2    C5 8406   1.656   2.749  15.845 -0.6012  0.0616 -0.0840
  563MPD2     H 8407   1.718   3.054  16.048  1.4409 -1.7841  2.6743
  563MPD2    H1 8408   1.852   2.682  15.897 -1.5410 -0.3830  1.0993
  563MPD2    H2 8409   1.457   2.818  15.812  1.0644 -3.3310 -0.4717
  563MPD2    H3 8410   1.646   2.656  15.791 -1.2517 -0.4284  0.8806
  563MPD2     N 8411   1.927   2.905  16.054  0.4897 -0.0687 -0.1153
  563MPD2    H5 8412   1.927   2.997  16.097 -0.8629 -0.1640  0.0798
  563MPD2    N1 8413   1.467   3.051  15.940 -0.3972 -0.2578 -0.1317
  563MPD2    H7 8414   1.377   3.037  15.896 -0.6713 -0.9501  0.6476
  564TMC3    C1 8415   1.355   3.187  16.112 -0.0565 -0.4133 -0.3816
  564TMC3    C2 8416   1.245   3.109  16.084 -0.2567  0.5865  0.5696
  564TMC3    C3 8417   1.206   3.032  16.192 -0.9857 -0.1260  0.2303
  564TMC3    C4 8418   1.419   3.192  16.229 -0.2750  0.0903  0.0226
  564TMC3    C5 8419   1.390   3.099  16.331  1.0391 -0.1215 -0.1776
  564TMC3    C6 8420   1.271   3.031  16.313  0.3898 -0.5501  0.6320
  564TMC3     C 8421   1.472   3.173  16.008  0.5336 -0.6703  0.0331
  564TMC3     O 8422   1.573   3.242  16.015  0.0790 -0.4784 -0.7123
  564TMC3     H 8423   1.215   3.099  15.981  1.4497  0.9081  0.0406
  564TMC3    H1 8424   1.512   3.248  16.221  0.1403 -0.7131 -0.7087
  564TMC3    H2 8425   1.236   2.973  16.398 -0.0701 -0.1821  0.6921
  564TMC3    C7 8426   1.506   3.013  16.352 -0.1261  0.2609 -0.0633
  564TMC3    C8 8427   1.189   2.883  16.154  0.3960  0.1039  0.2295
  564TMC3    O1 8428   1.614   3.064  16.375  0.6548  1.1418  0.4685
  564TMC3    O2 8429   1.215   2.807  16.242  0.0245  0.0190 -0.0841
  565TMC3    C1 8430   2.109   4.571  10.160 -0.5663 -0.1458 -0.4729
  565TMC3    C2 8431   2.198   4.497  10.224 -0.1213 -0.1430  0.7048
  565TMC3    C3 8432   2.175   4.360  10.248  0.0453 -0.9706  0.1391
  565TMC3    C4 8433   1.998   4.511  10.106 -0.6577  0.0082 -0.4540
  565TMC3    C5 8434   1.986   4.373  10.119  0.4858  0.4616  0.3020
  565TMC3    C6 8435   2.069   4.296  10.195  0.4021 -0.1875  0.6319
  565TMC3     C 8436   2.109   4.713  10.146  0.0436  0.5358  0.0080
  565TMC3     O 8437   2.051   0.023  10.053 -0.7482 -0.0830  0.1704
  565TMC3     H 8438   2.295   4.534  10.257 -1.3189  0.7721  3.1473
  565TMC3    H1 8439   1.926   4.565  10.045 -0.3007  0.1055 -0.7960
  565TMC3    H2 8440   2.058   4.188  10.198  2.3818 -0.3338  2.7722
  565TMC3    C7 8441   1.879   4.302  10.059 -0.0510 -0.3011 -0.1420
  565TMC3    C8 8442   2.261   4.279  10.326 -0.7596  0.1348 -0.3395
  565TMC3    O1 8443   1.851   4.191  10.095  0.1299 -0.0193  0.2107
  565TMC3    O2 8444   2.242   4.157  10.323  0.4681  0.3522  0.6342
  566MPD2     C 8445   3.364   0.971  14.072 -0.1707 -0.2794 -0.2313
  566MPD2    C1 8446   3.406   1.048  13.967  0.8702  0.6502  0.3713
  566MPD2    C2 8447   3.344   1.026  13.849 -0.6398  0.1030 -0.2072
  566MPD2    C3 8448   3.251   0.929  13.833 -0.1916 -0.2051 -0.5914
  566MPD2    C4 8449   3.208   0.858  13.937 -0.5910 -0.2614  0.0574
  566MPD2    C5 8450   3.269   0.871  14.056 -0.4899  0.1707 -0.3857
  566MPD2     H 8451   3.383   1.082  13.764  0.9217 -0.2046  0.3072
  566MPD2    H1 8452   3.131   0.782  13.935 -0.9690  0.1194  0.0740
  566MPD2    H2 8453   3.411   0.984  14.169  1.5334  0.6527 -1.1684
  566MPD2    H3 8454   3.239   0.817  14.145  0.1095 -0.2780 -0.4573
  566MPD2     N 8455   3.206   0.895  13.712 -0.2525 -0.3228 -0.2862
  566MPD2    H5 8456   3.129   0.830  13.724 -1.6971  1.3019 -0.7551
  566MPD2    N1 8457   3.526   1.120  13.979  0.1469 -0.2014  0.3160
  566MPD2    H7 8458   3.564   1.130  14.073 -0.2313 -0.1136  0.4592
  567TMC3    C1 8459   3.732   1.192  13.907  0.1586  0.7087 -0.4274
  567TMC3    C2 8460   3.807   1.187  13.794 -0.0064  0.2171  0.0691
  567TMC3    C3 8461   3.939   1.150  13.804  0.4454 -0.5885  0.1911
  567TMC3    C4 8462   3.780   1.164  14.029 -0.0604  0.5664 -0.0262
  567TMC3    C5 8463   3.919   1.145  14.029 -0.4800  0.7556 -0.5816
  567TMC3    C6 8464   3.999   1.136  13.920 -0.3850  0.0021 -0.6383
  567TMC3     C 8465   3.588   1.185  13.882 -0.6230 -0.1935  0.4234
  567TMC3     O 8466   3.559   1.214  13.762  0.3414 -1.0353 -0.7647
  567TMC3     H 8467   3.771   1.209  13.694 -0.5004 -0.7411  0.0400
  567TMC3    H1 8468   3.714   1.150  14.114 -1.1545 -0.8067 -1.0889
  567TMC3    H2 8469   4.103   1.105  13.929 -0.5078  0.5005  2.5130
  567TMC3    C7 8470   3.995   1.170  14.145  0.2488 -0.5721 -1.1305
  567TMC3    C8 8471   4.024   1.203  13.698 -0.7520  0.1063  0.1993
  567TMC3    O1 8472   4.116   1.184  14.125 -0.2764  0.9530  0.2243
  567TMC3    O2 8473   3.992   1.175  13.585  0.1808  0.4224  0.2797
  568MPD2     C 8474   0.892   1.496  16.481 -0.1762  0.4058  0.1546
  568MPD2    C1 8475   0.995   1.534  16.564 -0.6722  0.7846 -0.0165
  568MPD2    C2 8476   1.076   1.629  16.512 -0.4939 -0.5895 -0.5892
  568MPD2    C3 8477   1.075   1.674  16.381 -0.3942  0.4445  0.8589
  568MPD2    C4 8478   0.981   1.616  16.297 -0.3939 -0.1278  0.0938
  568MPD2    C5 8479   0.885   1.532  16.350 -0.3547 -0.6771  0.1356
  568MPD2     H 8480   1.154   1.674  16.573 -0.5532  0.8300 -1.5743
  568MPD2    H1 8481   0.967   1.648  16.194  1.5739  2.2335  0.5602
  568MPD2    H2 8482   0.804   1.445  16.517 -0.4151 -0.6952 -1.9666
  568MPD2    H3 8483   0.808   1.494  16.285  1.1474 -1.5030 -1.1542
  568MPD2     N 8484   1.155   1.780  16.345  0.0590 -0.2592 -0.2937
  568MPD2    H5 8485   1.220   1.812  16.416  0.8198  1.7605 -1.9034
  568MPD2    N1 8486   1.013   1.469  16.687 -0.7179  0.0529 -0.6294
  568MPD2    H7 8487   0.938   1.408  16.717 -0.2543 -1.1095 -1.7881
  569TMC3    C1 8488   1.207   1.973  16.218 -0.1496  0.0714  0.4168
  569TMC3    C2 8489   1.233   2.030  16.335  0.0875 -0.1745  0.2699
  569TMC3    C3 8490   1.315   2.138  16.334 -0.3566  0.1554  0.5052
  569TMC3    C4 8491   1.241   2.028  16.098 -0.5969 -0.1924  0.0435
  569TMC3    C5 8492   1.312   2.144  16.100 -0.1196 -0.2744  0.6435
  569TMC3    C6 8493   1.350   2.204  16.219  0.8949 -0.2541  0.2080
  569TMC3     C 8494   1.137   1.848  16.224 -0.1883 -0.4107  0.4344
  569TMC3     O 8495   1.129   1.788  16.118  0.6399  0.2821  0.1940
  569TMC3     H 8496   1.206   1.995  16.434  1.6430 -1.3402  0.2847
  569TMC3    H1 8497   1.202   1.991  16.003 -1.1067  1.2679 -0.3127
  569TMC3    H2 8498   1.417   2.290  16.221  2.0238 -1.1341  0.1420
  569TMC3    C7 8499   1.267   2.240  16.001  0.2682  0.0420 -0.5958
  569TMC3    C8 8500   1.264   2.231  16.424 -0.2135  0.6993 -0.2166
  569TMC3    O1 8501   1.218   2.188  15.899  0.0474  0.7197  0.3710
  569TMC3    O2 8502   1.159   2.211  16.482  0.2250  0.2353  0.3694
  570TMC3    C1 8503   0.726   0.481  16.642 -0.5108  0.4617  0.2159
  570TMC3    C2 8504   0.795   0.469  16.520  0.1082 -0.1425  0.6296
  570TMC3    C3 8505   0.785   0.576  16.441 -0.6143  0.7779  0.0665
  570TMC3    C4 8506   0.637   0.576  16.671  0.3158  0.4814  0.6047
  570TMC3    C5 8507   0.623   0.673  16.578 -0.3308  1.1853 -0.2317
  570TMC3    C6 8508   0.692   0.676  16.462 -0.2252  0.0061 -0.5452
  570TMC3     C 8509   0.745   0.370  16.737 -0.7929  0.0953 -0.1559
  570TMC3     O 8510   0.825   0.285  16.705  0.5768  0.5261  0.2467
  570TMC3     H 8511   0.844   0.377  16.491 -0.4704  0.6664 -2.8871
  570TMC3    H1 8512   0.579   0.586  16.762 -1.3520  1.1731 -0.5383
  570TMC3    H2 8513   0.686   0.763  16.398 -0.5884 -0.8577 -1.6965
  570TMC3    C7 8514   0.540   0.788  16.620  0.6058 -0.2161 -0.0094
  570TMC3    C8 8515   0.864   0.578  16.318 -0.1014  0.1266  0.7210
  570TMC3    O1 8516   0.538   0.825  16.738 -0.1645 -0.3926  0.3986
  570TMC3    O2 8517   0.852   0.681  16.253  0.0638  0.2232  0.4827
  571MPD2     C 8518   3.441   1.886   0.251 -0.1349  0.3849  1.1079
  571MPD2    C1 8519   3.380   1.995   0.305  0.6214 -0.3220 -1.0882
  571MPD2    C2 8520   3.451   2.107   0.335  0.4718  0.7480  0.3861
  571MPD2    C3 8521   3.584   2.117   0.308 -0.0047 -0.1403  0.1448
  571MPD2    C4 8522   3.651   2.010   0.244 -0.0364  0.4786 -0.4885
  571MPD2    C5 8523   3.582   1.894   0.223 -0.4244  0.4504  0.5678
  571MPD2     H 8524   3.399   2.188   0.385 -0.2563  0.1898  0.5309
  571MPD2    H1 8525   3.759   2.010   0.235  0.2329  3.6815  2.8180
  571MPD2    H2 8526   3.387   1.793   0.234  0.9340 -0.7325  3.8756
  571MPD2    H3 8527   3.650   1.812   0.202 -0.1228  0.1827  2.5629
  571MPD2     N 8528   3.662   2.225   0.340 -0.7226  0.4577 -0.3037
  571MPD2    H5 8529   3.761   2.217   0.318 -1.2019  2.4080 -3.1834
  571MPD2    N1 8530   3.242   1.976   0.342 -0.4542 -0.0874 -0.1513
  571MPD2    H7 8531   3.206   1.885   0.316 -3.1659  1.0963 -0.4563
  572TMC3    C1 8532   3.718   2.438   0.428  0.2742 -0.5359  0.6781
  572TMC3    C2 8533   3.831   2.384   0.478  0.1865 -0.3592  0.7870
  572TMC3    C3 8534   3.935   2.469   0.492  0.1851 -0.7420 -0.4095
  572TMC3    C4 8535   3.706   2.564   0.374 -0.5827 -0.1523 -0.3118
  572TMC3    C5 8536   3.811   2.647   0.392  0.4279 -0.6406  0.7201
  572TMC3    C6 8537   3.921   2.605   0.460  0.0232 -0.4642 -0.6239
  572TMC3     C 8538   3.617   2.348   0.377 -0.0645 -0.9817  0.7559
  572TMC3     O 8539   3.508   2.400   0.365 -0.3286 -0.1163 -0.0594
  572TMC3     H 8540   3.826   2.288   0.528 -0.5129 -1.7919 -2.0254
  572TMC3    H1 8541   3.620   2.606   0.322 -0.5032 -0.9782 -1.1118
  572TMC3    H2 8542   4.003   2.666   0.496 -1.3457  1.1361 -0.2038
  572TMC3    C7 8543   3.804   2.788   0.358 -1.0058  0.0136 -0.4733
  572TMC3    C8 8544   4.056   2.423   0.554  0.4985 -0.3262 -0.8470
  572TMC3    O1 8545   3.704   2.839   0.306 -0.6640 -0.0964 -0.1758
  572TMC3    O2 8546   4.131   2.498   0.613 -0.2318 -0.1775  0.3789
  573MPD2     C 8547   4.391   2.902   0.695 -0.1337 -0.1550 -0.5445
  573MPD2    C1 8548   4.506   2.970   0.658  0.4947 -0.3691  0.2634
  573MPD2    C2 8549   4.516   3.014   0.522  0.3222 -0.2291 -0.0924
  573MPD2    C3 8550   4.431   2.957   0.431 -0.7618 -0.6312  0.2387
  573MPD2    C4 8551   4.333   2.870   0.470  0.3041  0.5647 -0.9638
  573MPD2    C5 8552   4.308   2.847   0.605 -0.1336  0.6964 -0.7479
  573MPD2     H 8553   4.593   3.087   0.496  2.4011 -1.5065  2.4171
  573MPD2    H1 8554   4.266   2.827   0.396 -1.3037 -2.9250  2.5678
  573MPD2    H2 8555   4.396   2.853   0.792 -1.9293 -1.6253 -1.1915
  573MPD2    H3 8556   4.242   2.772   0.647 -0.1579  0.5022 -1.1330
  573MPD2     N 8557   4.429   3.010   0.303 -0.3937 -0.2699 -0.0318
  573MPD2    H5 8558   4.346   2.988   0.248 -0.3298  1.4957 -0.8288
  573MPD2    N1 8559   4.605   2.997   0.761 -0.2063 -0.4140  0.2138
  573MPD2    H7 8560   4.570   2.990   0.855  0.2276 -1.7361  0.2881
  574TMC3    C1 8561   4.495   3.124   0.110 -0.2874  0.4818 -0.8526
  574TMC3    C2 8562   4.361   3.140   0.080  0.0686  0.0092  0.0856
  574TMC3    C3 8563   4.335   3.195  17.738 -0.3700  0.3619 -0.3406
  574TMC3    C4 8564   4.603   3.161   0.030 -0.0035 -0.4857 -0.2380
  574TMC3    C5 8565   4.566   3.217  17.686  0.4518 -0.1056  0.3554
  574TMC3    C6 8566   4.435   3.229  17.650  0.0204 -0.1517  0.2435
  574TMC3     C 8567   4.535   3.070   0.242  0.3279  0.2174 -0.4219
  574TMC3     O 8568   4.649   3.065   0.279  0.3045 -0.2249  0.0786
  574TMC3     H 8569   4.271   3.117   0.136  0.4594  0.4895  0.9093
  574TMC3    H1 8570   4.701   3.162   0.077 -1.3678  0.8109  2.5986
  574TMC3    H2 8571   4.417   3.246  17.544  2.9668 -1.9126 -0.5391
  574TMC3    C7 8572   4.663   3.249  17.585  0.3120 -0.2382 -0.0058
  574TMC3    C8 8573   4.192   3.198  17.700  0.1558  0.5837  0.2877
  574TMC3    O1 8574   0.015   3.175  17.571 -0.3139 -0.0068 -0.4844
  574TMC3    O2 8575   4.119   3.108  17.736 -0.0107 -0.0923  0.8503
  575TMC3    C1 8576   2.577   3.555  10.607  0.2616  0.1020  0.3550
  575TMC3    C2 8577   2.555   3.541  10.741 -0.2044  0.1381 -0.0764
  575TMC3    C3 8578   2.519   3.646  10.815 -0.4099 -0.4877 -0.0960
  575TMC3    C4 8579   2.568   3.675  10.548 -0.3281 -0.4295  0.4109
  575TMC3    C5 8580   2.549   3.783  10.627 -0.3479  0.5589 -0.5348
  575TMC3    C6 8581   2.521   3.770  10.757  0.0240 -0.9487 -0.3109
  575TMC3     C 8582   2.627   3.437  10.529  0.3929  0.1464 -0.4194
  575TMC3     O 8583   2.639   3.329  10.590 -0.1738  0.2603  0.0630
  575TMC3     H 8584   2.553   3.448  10.797  3.2503 -0.3629 -0.7911
  575TMC3    H1 8585   2.614   3.693  10.451 -0.9523 -1.6114 -0.1019
  575TMC3    H2 8586   2.477   3.852  10.813  1.5134  1.2961 -2.4277
  575TMC3    C7 8587   2.548   3.917  10.568 -0.2518  0.3535 -0.2021
  575TMC3    C8 8588   2.528   3.650  10.957 -0.7113  0.2230  0.0606
  575TMC3    O1 8589   2.535   3.915  10.443 -0.0388 -0.2693  0.6238
  575TMC3    O2 8590   2.550   3.759  11.003  0.0449  0.0222  0.3401
  576MPD2     C 8591   1.828   0.684  12.776  0.6130 -0.3866 -0.3738
  576MPD2    C1 8592   1.886   0.795  12.735  0.3600  0.6677 -0.3037
  576MPD2    C2 8593   1.848   0.917  12.786  0.2071 -0.9907 -0.4178
  576MPD2    C3 8594   1.746   0.931  12.883  0.2484 -0.2841 -0.4093
  576MPD2    C4 8595   1.690   0.819  12.937  0.0687 -0.2501 -0.3295
  576MPD2    C5 8596   1.736   0.694  12.880 -0.2221  0.0764  0.1750
  576MPD2     H 8597   1.888   1.005  12.737 -2.7332 -0.0527 -1.1507
  576MPD2    H1 8598   1.630   0.814  13.027  0.6795  2.7803  0.2561
  576MPD2    H2 8599   1.857   0.586  12.740  2.9960 -0.0610  0.6764
  576MPD2    H3 8600   1.686   0.601  12.902  0.4187  0.5139  3.3926
  576MPD2     N 8601   1.720   1.063  12.929 -0.4631  0.0956  0.9894
  576MPD2    H5 8602   1.790   1.131  12.902 -1.9138  1.4031  0.5446
  576MPD2    N1 8603   1.977   0.790  12.627  0.7120 -1.0042 -0.0759
  576MPD2    H7 8604   2.025   0.876  12.599 -1.5942  0.7778  1.4576
  577TMC3    C1 8605   2.117   0.734  12.459 -0.1932 -0.1361 -0.4871
  577TMC3    C2 8606   2.214   0.650  12.410  0.0902 -0.1095 -0.0428
  577TMC3    C3 8607   2.297   0.699  12.315 -0.0769 -0.3263 -0.6513
  577TMC3    C4 8608   2.101   0.869  12.421  0.0719 -0.4710 -0.5275
  577TMC3    C5 8609   2.202   0.914  12.338  0.2986  0.4104 -0.4769
  577TMC3    C6 8610   2.303   0.831  12.294  0.1131 -0.0250  0.0827
  577TMC3     C 8611   2.019   0.683  12.557 -0.4369 -0.4045 -0.1912
  577TMC3     O 8612   2.012   0.564  12.581  0.2811  0.2753  0.0573
  577TMC3     H 8613   2.212   0.542  12.413 -1.0040 -0.1262 -1.1254
  577TMC3    H1 8614   2.018   0.936  12.441  0.5577  0.3092 -1.1094
  577TMC3    H2 8615   2.392   0.879  12.255  1.0107 -2.4705 -0.9154
  577TMC3    C7 8616   2.226   1.056  12.330 -0.5321  0.1310  0.4247
  577TMC3    C8 8617   2.419   0.635  12.303 -0.3719  0.1969 -0.0206
  577TMC3    O1 8618   2.178   1.120  12.420 -0.3167 -0.0177  0.0092
  577TMC3    O2 8619   2.449   0.567  12.402 -0.3877  0.1618 -0.5903
  578MPD2     C 8620   0.411   1.011   0.748 -0.0841  0.9018  0.2616
  578MPD2    C1 8621   0.448   0.923   0.651 -0.3799  0.4445 -0.1630
  578MPD2    C2 8622   0.518   0.810   0.695 -0.0644  0.2608  0.5449
  578MPD2    C3 8623   0.548   0.784   0.830  0.2653  0.4418  0.7098
  578MPD2    C4 8624   0.503   0.879   0.922 -0.6629  0.7874 -0.0388
  578MPD2    C5 8625   0.442   0.997   0.882  0.0638  0.1286  0.6897
  578MPD2     H 8626   0.560   0.754   0.611 -1.1277 -0.1222  0.2719
  578MPD2    H1 8627   0.507   0.853   1.028 -1.6491  0.3629 -0.1092
  578MPD2    H2 8628   0.342   1.089   0.719 -2.4580 -0.7230  1.5308
  578MPD2    H3 8629   0.398   1.064   0.956 -0.4695  2.9028 -2.1394
  578MPD2     N 8630   0.623   0.671   0.870 -0.5868  0.3733 -0.4831
  578MPD2    H5 8631   0.652   0.604   0.799 -1.2710 -0.2415 -0.1847
  578MPD2    N1 8632   0.399   0.949   0.519 -0.2169  0.3787  0.1595
  578MPD2    H7 8633   0.350   1.037   0.506  0.3689  0.6090 -0.5167
  579TMC3    C1 8634   0.778   0.547   1.007  0.2437 -0.8406  0.3886
  579TMC3    C2 8635   0.861   0.556   1.115 -0.0961 -0.0701 -0.3604
  579TMC3    C3 8636   0.906   0.444   1.176  0.5639  0.4030 -0.1693
  579TMC3    C4 8637   0.745   0.421   0.956  0.1560 -0.1146 -0.4584
  579TMC3    C5 8638   0.792   0.309   1.019 -0.6255 -0.0595 -0.5663
  579TMC3    C6 8639   0.873   0.321   1.132  0.1858  0.2326  0.0310
  579TMC3     C 8640   0.677   0.654   0.995 -0.4402 -0.1141 -0.2459
  579TMC3     O 8641   0.664   0.721   1.096 -0.3456 -0.2744  0.8398
  579TMC3     H 8642   0.878   0.653   1.160  1.2862 -1.1182  1.3281
  579TMC3    H1 8643   0.705   0.409   0.856  0.8808 -0.2834 -0.7221
  579TMC3    H2 8644   0.921   0.232   1.173  0.6988  0.3027 -0.4196
  579TMC3    C7 8645   0.812   0.191   0.941  0.2420 -0.4056  1.1244
  579TMC3    C8 8646   0.986   0.458   1.298  0.2862  0.6812 -0.6361
  579TMC3    O1 8647   0.900   0.112   0.975  0.3552  0.2876  0.3977
  579TMC3    O2 8648   0.984   0.362   1.379  0.0713 -0.0999  0.3758
  580TMC3    C1 8649   0.016   4.405  12.399  0.5364 -0.4505 -0.5626
  580TMC3    C2 8650   0.089   4.454  12.291  0.1299 -0.0672 -0.0030
  580TMC3    C3 8651   0.084   4.370  12.181  0.2158 -0.0063 -0.2345
  580TMC3    C4 8652   4.707   4.280  12.407 -0.3410 -0.0829  0.0057
  580TMC3    C5 8653   4.723   4.197  12.300  0.0901  0.0396  0.3528
  580TMC3    C6 8654   0.036   4.242  12.190 -0.6453 -1.1722  0.3017
  580TMC3     C 8655   4.709   4.509  12.481  0.8430  0.9048  0.2607
  580TMC3     O 8656   4.587   4.512  12.499  0.0803 -0.4456  0.8908
  580TMC3     H 8657   0.125   4.556  12.281 -1.0252  0.1823 -1.6361
  580TMC3    H1 8658   4.632   4.265  12.485 -0.7304 -1.4862 -0.6312
  580TMC3    H2 8659   0.038   4.186  12.098 -1.3109 -1.0274  0.1963
  580TMC3    C7 8660   0.012   4.069  12.347  0.6157  0.5918 -0.1796
  580TMC3    C8 8661   0.177   4.414  12.080  0.6754 -0.6296 -0.0269
  580TMC3    O1 8662   4.723   4.042  12.462 -0.6166 -0.1897  0.2636
  580TMC3    O2 8663   0.141   4.395  11.964  0.0766 -0.3574 -0.2058
  581MPD2     C 8664   2.622   4.004  14.340  0.0664 -0.0725 -0.2561
  581MPD2    C1 8665   2.579   4.049  14.458 -0.3378 -0.5782 -0.4599
  581MPD2    C2 8666   2.468   4.125  14.471  0.0933 -0.1565 -0.1347
  581MPD2    C3 8667   2.384   4.153  14.366  0.8184  0.2259  0.3809
  581MPD2    C4 8668   2.438   4.124  14.248  0.3071 -0.3806 -0.3318
  581MPD2    C5 8669   2.554   4.046  14.227 -0.8086 -0.2619 -0.1229
  581MPD2     H 8670   2.451   4.167  14.570  1.2847  4.1615 -1.7881
  581MPD2    H1 8671   2.385   4.144  14.156  2.8072  0.3683 -1.6234
  581MPD2    H2 8672   2.716   3.951  14.328 -0.4281 -0.6289 -1.6838
  581MPD2    H3 8673   2.567   4.002  14.129 -3.9728 -0.6955 -0.3597
  581MPD2     N 8674   2.265   4.227  14.386 -0.5393 -0.2038 -0.4931
  581MPD2    H5 8675   2.239   4.252  14.481 -1.8933  0.1300 -0.9471
  581MPD2    N1 8676   2.656   4.019  14.578 -0.1608  0.3014  0.5535
  581MPD2    H7 8677   2.748   3.978  14.562 -0.7210 -1.1394  1.0038
  582TMC3    C1 8678   2.728   4.012  14.804  0.0987  0.2010  0.0660
  582TMC3    C2 8679   2.743   4.103  14.907 -0.1425  0.0170  0.0384
  582TMC3    C3 8680   2.801   4.063  15.023 -0.3408  0.4198  0.1554
  582TMC3    C4 8681   2.744   3.873  14.822 -0.3787 -0.0576  0.2652
  582TMC3    C5 8682   2.801   3.842  14.938  0.2548  0.0777 -0.1056
  582TMC3    C6 8683   2.829   3.931  15.033  0.4496  0.2819 -0.5382
  582TMC3     C 8684   2.623   4.042  14.708 -0.6743  0.0347 -0.2065
  582TMC3     O 8685   2.524   4.094  14.753 -0.1845 -0.0385  0.4103
  582TMC3     H 8686   2.744   4.210  14.885  0.3510 -0.4668 -2.2849
  582TMC3    H1 8687   2.745   3.796  14.747 -2.5914 -0.5037  0.6935
  582TMC3    H2 8688   2.865   3.898  15.130  0.8720  1.6828 -0.2198
  582TMC3    C7 8689   2.723   3.732  14.982 -0.3510  0.2497  0.4391
  582TMC3    C8 8690   2.803   4.137  15.145 -0.0499  0.0953  0.1709
  582TMC3    O1 8691   2.776   3.640  15.045  1.0436  0.0644 -0.1255
  582TMC3    O2 8692   2.728   4.232  15.162 -0.2340  0.3621 -0.2252
  583MPD2     C 8693   2.783   1.310  16.313 -0.0155  0.1157  0.0355
  583MPD2    C1 8694   2.881   1.393  16.366  0.2488 -0.8556 -0.5350
  583MPD2    C2 8695   2.859   1.456  16.484  0.6680 -0.2085  0.5822
  583MPD2    C3 8696   2.746   1.440  16.562  0.1636 -0.5782 -0.0095
  583MPD2    C4 8697   2.655   1.354  16.516  0.0200 -0.2560 -0.2197
  583MPD2    C5 8698   2.668   1.301  16.388  1.2442  0.3496  0.0917
  583MPD2     H 8699   2.942   1.516  16.520 -1.5565  2.9588  0.4108
  583MPD2    H1 8700   2.560   1.337  16.565 -1.0064  2.6091 -1.2455
  583MPD2    H2 8701   2.787   1.267  16.213  0.7406  1.9057 -0.7076
  583MPD2    H3 8702   2.582   1.245  16.354  1.2875 -0.2267  0.9058
  583MPD2     N 8703   2.725   1.518  16.682 -0.2777 -0.2441  0.5286
  583MPD2    H5 8704   2.797   1.586  16.708 -1.0499 -0.2233  2.5968
  583MPD2    N1 8705   3.012   1.416  16.313  0.2331 -0.1634 -0.1048
  583MPD2    H7 8706   3.079   1.479  16.357  0.8448 -0.8639 -0.0409
  584TMC3    C1 8707   2.616   1.597  16.869  0.1131  0.2134 -0.2450
  584TMC3    C2 8708   2.675   1.720  16.856  0.9075 -0.4124  0.1417
  584TMC3    C3 8709   2.707   1.789  16.968 -0.2984  0.5510  0.2783
  584TMC3    C4 8710   2.561   1.556  16.989 -0.6652  0.0494 -0.4596
  584TMC3    C5 8711   2.576   1.640  17.100  0.2719  0.2487  0.1632
  584TMC3    C6 8712   2.651   1.756  17.090  0.5011  0.4374  0.1448
  584TMC3     C 8713   2.619   1.504  16.765  0.5235  0.6534  0.5012
  584TMC3     O 8714   2.522   1.431  16.765  0.5805 -0.1007  0.3948
  584TMC3     H 8715   2.707   1.768  16.764  0.0318  0.2825  0.1977
  584TMC3    H1 8716   2.486   1.477  16.985 -0.3578 -0.3375  1.1370
  584TMC3    H2 8717   2.664   1.807  17.185  0.8182  1.4359 -0.4410
  584TMC3    C7 8718   2.473   1.625  17.204  0.2431  0.3580 -0.4452
  584TMC3    C8 8719   2.805   1.894  16.952  0.3237 -0.0770  0.2024
  584TMC3    O1 8720   2.426   1.511  17.215 -0.4365  0.0285 -0.0707
  584TMC3    O2 8721   2.874   1.896  16.849 -0.3857 -0.0355  0.3283
  585MPD2     C 8722   1.971   0.124   0.359  0.0523  0.5215 -0.3049
  585MPD2    C1 8723   2.007   0.176   0.237  0.6886  0.3475 -0.6817
  585MPD2    C2 8724   2.046   0.086   0.144  0.1301  0.4090  0.4699
  585MPD2    C3 8725   2.055   4.700   0.167  0.2786  0.1955 -0.1601
  585MPD2    C4 8726   2.032   4.654   0.294 -0.4871  0.1282  0.7741
  585MPD2    C5 8727   1.992   4.739   0.394 -0.0508  0.6492 -0.3111
  585MPD2     H 8728   2.073   0.128   0.047  1.5255  0.3063  0.8145
  585MPD2    H1 8729   2.025   4.549   0.319  2.9006  0.0618  1.4434
  585MPD2    H2 8730   1.933   0.186   0.440  0.4949 -0.9752  1.0406
  585MPD2    H3 8731   1.962   4.705   0.492  0.1005  1.4965  0.0353
  585MPD2     N 8732   2.085   4.606   0.066  0.6030 -0.0836  0.4636
  585MPD2    H5 8733   2.082   4.656  17.750  0.9481 -0.0667  0.4636
  585MPD2    N1 8734   1.993   0.314   0.226 -0.6562 -0.3368  0.4852
  585MPD2    H7 8735   1.954   0.366   0.304 -0.1301  0.7707  0.0100
  586TMC3    C1 8736   2.121   4.430  17.702  0.4506  0.5115 -0.0138
  586TMC3    C2 8737   2.207   4.336  17.663  0.2589 -0.2505  1.1029
  586TMC3    C3 8738   2.206   4.308  17.527  0.5990 -0.1970  0.9366
  586TMC3    C4 8739   2.014   4.477  17.621  0.1637  0.1768 -0.2771
  586TMC3    C5 8740   2.015   4.445  17.494  0.2135 -0.2023  0.2995
  586TMC3    C6 8741   2.106   4.354  17.441 -0.5561 -0.2580  0.6598
  586TMC3     C 8742   2.126   4.472   0.067  0.8525  0.0338  0.1399
  586TMC3     O 8743   2.193   4.409   0.147 -0.3945  0.3320  0.2673
  586TMC3     H 8744   2.280   4.291  17.728  1.8608  0.9422  0.1228
  586TMC3    H1 8745   1.939   4.546  17.657  0.8750  0.0806  1.3848
  586TMC3    H2 8746   2.103   4.313  17.341 -0.3508  2.7163 -0.5399
  586TMC3    C7 8747   1.885   4.399  17.443 -1.0868 -0.5689  0.5518
  586TMC3    C8 8748   2.293   4.205  17.472 -0.9998 -0.0446 -0.2244
  586TMC3    O1 8749   1.877   4.294  17.378 -0.2444  0.0899  0.1471
  586TMC3    O2 8750   2.319   4.101  17.534 -0.2352  0.5558  0.5887
  587TMC3    C1 8751   3.971   3.728  15.833  0.3022 -0.8603 -0.0325
  587TMC3    C2 8752   4.006   3.744  15.966  0.5202 -0.1964 -0.4382
  587TMC3    C3 8753   4.136   3.741  15.987 -0.5500 -0.0948  0.0083
  587TMC3    C4 8754   4.056   3.706  15.728 -0.2128 -0.2115 -0.0194
  587TMC3    C5 8755   4.182   3.723  15.757  0.0302 -0.5218 -0.2848
  587TMC3    C6 8756   4.232   3.733  15.887  0.2452  0.9003  0.4957
  587TMC3     C 8757   3.828   3.711  15.817  0.1580 -0.3330 -0.2001
  587TMC3     O 8758   3.789   3.715  15.702  0.4998 -0.3507 -0.8845
  587TMC3     H 8759   3.933   3.779  16.038  1.2771  2.8342 -1.1420
  587TMC3    H1 8760   4.023   3.706  15.625 -0.5081  0.9716  0.0771
  587TMC3    H2 8761   4.333   3.765  15.910  0.1448 -1.2168  3.8352
  587TMC3    C7 8762   4.262   3.764  15.650 -0.1625 -0.0890  0.4470
  587TMC3    C8 8763   4.180   3.804  16.114 -0.4534 -0.3398  0.1547
  587TMC3    O1 8764   4.207   3.830  15.562  0.1993  0.6330  0.1318
  587TMC3    O2 8765   4.294   3.788  16.155 -0.3195  0.2368  0.3662
  588TMC3    C1 8766   1.484   1.857  10.243  0.3596  0.3999 -0.3804
  588TMC3    C2 8767   1.452   1.727  10.236 -0.7422  0.1628  0.5012
  588TMC3    C3 8768   1.551   1.639  10.265  0.0293  0.5249  1.1522
  588TMC3    C4 8769   1.608   1.906  10.282  1.3379 -0.6408  0.1057
  588TMC3    C5 8770   1.702   1.812  10.315 -0.1528  0.2961  0.6319
  588TMC3    C6 8771   1.683   1.678  10.303  0.4879 -0.4555 -0.5080
  588TMC3     C 8772   1.395   1.950  10.169  0.0447  0.7429 -0.0984
  588TMC3     O 8773   1.341   1.892  10.078  1.1726 -0.7035 -0.7409
  588TMC3     H 8774   1.353   1.699  10.204 -0.7722  3.7226 -2.4776
  588TMC3    H1 8775   1.634   2.007  10.256  0.6804 -0.8636 -1.4051
  588TMC3    H2 8776   1.763   1.605  10.308  0.8084 -0.0288  0.5954
  588TMC3    C7 8777   1.830   1.854  10.357 -0.2199  0.0265 -0.2434
  588TMC3    C8 8778   1.513   1.498  10.271  0.7151  0.6444 -0.0075
  588TMC3    O1 8779   1.921   1.773  10.353  0.4054  0.3045 -0.1727
  588TMC3    O2 8780   1.407   1.464  10.214 -0.5430 -0.0547 -0.0716
  589TMC3    C1 8781   0.801   3.594   0.897  0.4376 -0.2015  0.0937
  589TMC3    C2 8782   0.876   3.653   0.994 -0.4591  0.1786 -0.1449
  589TMC3    C3 8783   1.003   3.599   1.020  1.1057  0.1262 -0.3830
  589TMC3    C4 8784   0.858   3.494   0.823 -0.7580  0.1188 -0.5937
  589TMC3    C5 8785   0.985   3.449   0.847 -0.3302 -0.6219  1.0045
  589TMC3    C6 8786   1.062   3.506   0.941  0.2528  0.1767  0.6596
  589TMC3     C 8787   0.660   3.620   0.881  0.2115 -0.7425  0.6376
  589TMC3     O 8788   0.587   3.547   0.815  0.2744 -0.1985  0.4566
  589TMC3     H 8789   0.834   3.722   1.066 -3.2153 -1.2037 -0.4469
  589TMC3    H1 8790   0.807   3.458   0.734 -0.2868  0.6018 -1.0607
  589TMC3    H2 8791   1.160   3.462   0.951  1.2594  1.9430 -1.4194
  589TMC3    C7 8792   1.037   3.347   0.764  0.2008  0.0512 -0.0356
  589TMC3    C8 8793   1.095   3.691   1.085  0.0792 -0.3390  0.7066
  589TMC3    O1 8794   0.952   3.275   0.715  0.2441  0.1566 -0.9946
  589TMC3    O2 8795   1.053   3.804   1.108 -0.3614  0.6337 -0.3434
  590MPD2     C 8796   0.439   2.222  16.846 -0.1701 -0.6405  0.8943
  590MPD2    C1 8797   0.392   2.233  16.717 -0.3643 -0.0525  0.5243
  590MPD2    C2 8798   0.485   2.259  16.615 -0.5740 -0.6495  0.1193
  590MPD2    C3 8799   0.615   2.291  16.643 -0.5609  0.1874 -0.1351
  590MPD2    C4 8800   0.663   2.264  16.768 -0.4816  0.7805 -0.5394
  590MPD2    C5 8801   0.573   2.230  16.867  0.0566  0.0230 -0.0046
  590MPD2     H 8802   0.444   2.266  16.515  1.8212  0.8134 -0.7747
  590MPD2    H1 8803   0.769   2.268  16.792 -0.2273  0.6662 -1.6667
  590MPD2    H2 8804   0.375   2.206  16.932 -1.5272 -2.0492 -0.3760
  590MPD2    H3 8805   0.609   2.199  16.964 -3.9166  0.1593  1.5270
  590MPD2     N 8806   0.697   2.321  16.531 -0.2844  0.7427  0.0754
  590MPD2    H5 8807   0.661   2.304  16.437 -0.5044 -3.1966  0.8608
  590MPD2    N1 8808   0.255   2.212  16.696  0.0680  0.2534  0.7310
  590MPD2    H7 8809   0.209   2.185  16.783 -1.8131  1.5677  0.1489
  591TMC3    C1 8810   0.858   2.420  16.407 -0.3185  0.2536  0.2582
  591TMC3    C2 8811   0.891   2.327  16.310  0.4488 -0.1357  0.7614
  591TMC3    C3 8812   0.892   2.366  16.178 -0.3070 -0.6605 -0.5780
  591TMC3    C4 8813   0.835   2.546  16.370 -0.1484  0.4515  0.6373
  591TMC3    C5 8814   0.823   2.581  16.246 -0.0699  0.1056 -0.4953
  591TMC3    C6 8815   0.852   2.495  16.140 -0.4375 -0.3358  0.0064
  591TMC3     C 8816   0.821   2.376  16.536 -1.0497  0.4088 -0.5199
  591TMC3     O 8817   0.882   2.418  16.634 -0.2083  0.0782  0.8129
  591TMC3     H 8818   0.905   2.227  16.349  0.2054  0.0456  1.3334
  591TMC3    H1 8819   0.788   2.617  16.438  0.9840  0.1006  1.7812
  591TMC3    H2 8820   0.871   2.536  16.042 -1.1886 -0.3261 -0.1373
  591TMC3    C7 8821   0.754   2.698  16.216  0.2231  0.1335  0.0593
  591TMC3    C8 8822   0.883   2.267  16.075 -0.1701 -0.2260 -0.0531
  591TMC3    O1 8823   0.663   2.734  16.293 -0.6282 -0.0159 -0.3956
  591TMC3    O2 8824   0.884   2.150  16.114 -0.1007  0.4969 -0.0402
  592MPD2     C 8825   0.696   3.912  11.687  1.0732 -0.3392 -0.1719
  592MPD2    C1 8826   0.738   3.876  11.814 -0.0628  0.4111  0.9058
  592MPD2    C2 8827   0.672   3.771  11.869  0.1434 -0.2220 -0.4059
  592MPD2    C3 8828   0.565   3.707  11.809 -0.3887 -0.1474 -0.2233
  592MPD2    C4 8829   0.517   3.752  11.688 -0.6206  0.1248 -0.1014
  592MPD2    C5 8830   0.582   3.856  11.628 -0.2649  0.4370 -0.0775
  592MPD2     H 8831   0.721   3.731  11.957  0.1878 -2.3686 -1.4137
  592MPD2    H1 8832   0.438   3.694  11.641 -1.9265  0.3194  1.8275
  592MPD2    H2 8833   0.755   3.986  11.633  0.9135 -0.2993 -0.2910
  592MPD2    H3 8834   0.556   3.884  11.527  0.2601 -1.0984 -0.6424
  592MPD2     N 8835   0.514   3.595  11.881 -0.2648 -0.1508 -0.0674
  592MPD2    H5 8836   0.536   3.577  11.979  4.6208  1.0959 -0.9309
  592MPD2    N1 8837   0.851   3.938  11.878 -0.1208  0.3676  0.4159
  592MPD2    H7 8838   0.896   4.015  11.829  0.1539 -0.5532 -0.7527
  593TMC3    C1 8839   0.991   4.012  12.050  0.0625 -0.4333  0.2405
  593TMC3    C2 8840   0.994   4.049  12.183 -0.3415 -0.3190  0.4402
  593TMC3    C3 8841   1.086   4.136  12.233  0.0679 -0.2230  0.4141
  593TMC3    C4 8842   1.084   4.057  11.961  0.1248  0.1670 -0.2820
  593TMC3    C5 8843   1.177   4.150  12.015 -0.4258  0.5812 -0.4673
  593TMC3    C6 8844   1.176   4.192  12.144 -0.3944  0.5304  0.2614
  593TMC3     C 8845   0.878   3.930  12.009 -0.1286 -0.4485 -0.4030
  593TMC3     O 8846   0.811   3.871  12.096  0.0291 -0.1839 -0.4527
  593TMC3     H 8847   0.924   4.003  12.252 -1.3317  2.3315  1.2290
  593TMC3    H1 8848   1.087   4.023  11.858  1.8929  2.0451 -0.8646
  593TMC3    H2 8849   1.247   4.261  12.188 -1.4604  1.2395  0.8502
  593TMC3    C7 8850   1.265   4.222  11.929 -0.2982 -1.0004 -0.2004
  593TMC3    C8 8851   1.060   4.199  12.361 -0.1784 -0.3781  0.0969
  593TMC3    O1 8852   1.342   4.299  11.991 -0.1859  0.4839  0.1272
  593TMC3    O2 8853   0.955   4.187  12.427  0.3285  0.2809  0.2390
  594MPD2     C 8854   4.353   3.032  14.027 -0.2718  0.6291  1.1720
  594MPD2    C1 8855   4.384   3.018  14.160 -0.6779  0.3428  0.0117
  594MPD2    C2 8856   4.511   3.074  14.203 -0.3644 -0.0921 -0.9768
  594MPD2    C3 8857   4.601   3.123  14.105  0.4462 -0.3412 -0.1850
  594MPD2    C4 8858   4.568   3.115  13.968 -0.0605  0.2947 -0.2082
  594MPD2    C5 8859   4.447   3.066  13.929 -0.1647 -0.2364  0.1288
  594MPD2     H 8860   4.536   3.085  14.307  0.8488  1.6944 -1.4601
  594MPD2    H1 8861   4.632   3.150  13.887 -0.7055 -0.0836 -0.8840
  594MPD2    H2 8862   4.269   2.977  13.987  1.1666 -1.3445  0.8719
  594MPD2    H3 8863   4.421   3.056  13.825  1.3816 -0.9432 -0.1984
  594MPD2     N 8864   4.716   3.190  14.144 -0.2394  0.6430 -0.4957
  594MPD2    H5 8865   4.730   3.216  14.241 -2.7836 -0.8731  0.2927
  594MPD2    N1 8866   4.286   2.967  14.247 -0.4676 -0.5609 -0.1172
  594MPD2    H7 8867   4.199   2.938  14.202 -0.5588  1.2682 -1.1260
  595TMC3    C1 8868   0.373   3.407  14.136  0.2465 -0.2115  0.4901
  595TMC3    C2 8869   0.291   3.307  14.088 -0.1714 -0.1836 -0.9140
  595TMC3    C3 8870   0.163   3.324  14.131 -0.8161 -0.0213  0.1895
  595TMC3    C4 8871   0.322   3.514  14.204  0.0432 -0.0732 -0.3962
  595TMC3    C5 8872   0.190   3.517  14.237 -1.0102 -0.3977 -0.9241
  595TMC3    C6 8873   0.113   3.411  14.216  0.5839 -0.6533 -0.5792
  595TMC3     C 8874   0.512   3.375  14.161 -0.1886  0.1054  0.3456
  595TMC3     O 8875   0.586   3.463  14.207 -0.7111  0.7387 -0.2613
  595TMC3     H 8876   0.317   3.224  14.023  0.5290  1.0044 -2.1652
  595TMC3    H1 8877   0.394   3.582  14.247  0.7462 -1.5124  0.6808
  595TMC3    H2 8878   0.008   3.418  14.243  0.2399 -2.6010 -1.4570
  595TMC3    C7 8879   0.132   3.621  14.317 -0.2278 -0.6557  0.1829
  595TMC3    C8 8880   0.067   3.244  14.056  0.9135  0.0445 -0.2475
  595TMC3    O1 8881   0.010   3.640  14.309 -0.3020  0.0925 -0.0880
  595TMC3    O2 8882   0.087   3.236  13.935 -0.6338  0.3505  0.4382
  596MPD2     C 8883   3.989   1.577  16.863  0.7903 -0.1870 -0.2101
  596MPD2    C1 8884   3.900   1.624  16.774 -0.4530 -0.7225 -0.2625
  596MPD2    C2 8885   3.936   1.638  16.644  0.1732 -0.6107 -0.1602
  596MPD2    C3 8886   4.062   1.597  16.599 -0.4727  0.5309 -0.6117
  596MPD2    C4 8887   4.148   1.540  16.695  0.8946  0.2277 -0.0077
  596MPD2    C5 8888   4.112   1.540  16.826  0.0323 -0.6759 -0.5805
  596MPD2     H 8889   3.860   1.657  16.568 -0.0682  0.9570  0.4694
  596MPD2    H1 8890   4.242   1.502  16.658  1.1854  1.3867 -0.4389
  596MPD2    H2 8891   3.962   1.569  16.967 -2.2602 -0.3317 -1.0242
  596MPD2    H3 8892   4.169   1.502  16.910 -1.0412  0.6471  0.7376
  596MPD2     N 8893   4.088   1.601  16.457 -0.0510 -0.0483  0.4466
  596MPD2    H5 8894   4.170   1.550  16.424  0.0531  0.0195  0.6029
  596MPD2    N1 8895   3.766   1.648  16.802  0.8608 -0.5047 -0.1725
  596MPD2    H7 8896   3.711   1.693  16.729 -0.3305  0.5013  1.3497
  597TMC3    C1 8897   3.569   1.671  16.934  0.1119  0.6325 -0.9956
  597TMC3    C2 8898   3.527   1.776  16.847  1.0936  0.1461  0.0949
  597TMC3    C3 8899   3.410   1.845  16.872  0.8128  0.0080  0.3303
  597TMC3    C4 8900   3.488   1.645  17.042  0.1676  0.2202 -0.2298
  597TMC3    C5 8901   3.366   1.706  17.053 -0.0995 -0.6815  0.1750
  597TMC3    C6 8902   3.317   1.797  16.966 -0.4305  0.0822  0.9664
  597TMC3     C 8903   3.705   1.616  16.920  0.2057 -0.6384 -0.1067
  597TMC3     O 8904   3.739   1.544  17.014 -0.3372 -0.7658  0.3510
  597TMC3     H 8905   3.588   1.802  16.762 -0.7870 -0.3717 -1.4147
  597TMC3    H1 8906   3.509   1.559  17.104 -1.0284 -0.7698 -1.1840
  597TMC3    H2 8907   3.231   1.858  16.991 -0.3714  0.4758  0.2079
  597TMC3    C7 8908   3.297   1.718  17.174  0.1872  0.0758  0.0154
  597TMC3    C8 8909   3.368   1.933  16.767 -0.2143  0.0326  0.2130
  597TMC3    O1 8910   3.173   1.718  17.168  0.4547 -0.1642  0.3186
  597TMC3    O2 8911   3.246   1.954  16.755  0.3905  0.3667 -0.4071
  598TMC3    C1 8912   1.541   2.304  15.479  0.3674 -0.5265  0.1420
  598TMC3    C2 8913   1.432   2.235  15.453 -0.3970 -0.3729 -0.7721
  598TMC3    C3 8914   1.369   2.258  15.335  0.0040 -0.0821  0.4341
  598TMC3    C4 8915   1.585   2.412  15.403  0.1437 -0.3756 -0.1779
  598TMC3    C5 8916   1.512   2.437  15.286  0.2008  0.3604 -0.3297
  598TMC3    C6 8917   1.411   2.361  15.250  0.0429  0.7324 -0.6117
  598TMC3     C 8918   1.603   2.289  15.607 -0.3629  0.0901  0.2572
  598TMC3     O 8919   1.693   2.366  15.637  0.5983  0.0794  0.0498
  598TMC3     H 8920   1.398   2.151  15.513 -1.4987  0.3017 -0.4428
  598TMC3    H1 8921   1.671   2.473  15.424 -0.1000  0.2283 -0.9706
  598TMC3    H2 8922   1.336   2.394  15.179 -0.4204 -1.4359 -1.1354
  598TMC3    C7 8923   1.564   2.520  15.182 -0.1352 -0.3185  0.0847
  598TMC3    C8 8924   1.250   2.183  15.300  0.1172 -0.2308  0.5064
  598TMC3    O1 8925   1.518   2.492  15.074  0.7744 -0.1542  0.2392
  598TMC3    O2 8926   1.179   2.141  15.391  0.0596 -0.0023  0.5200
  599MPD2     C 8927   1.922   0.623  16.074  0.0407 -0.3519 -0.3369
  599MPD2    C1 8928   1.878   0.490  16.101  0.3115  0.1564 -0.0862
  599MPD2    C2 8929   1.749   0.471  16.144  0.1280 -0.7029  0.2470
  599MPD2    C3 8930   1.667   0.580  16.168 -0.1668  0.3526 -0.0043
  599MPD2    C4 8931   1.710   0.708  16.135  0.3836  0.7639  0.2694
  599MPD2    C5 8932   1.838   0.732  16.102  0.3174  0.1032  0.3882
  599MPD2     H 8933   1.714   0.373  16.174 -0.3759 -0.3694  0.7601
  599MPD2    H1 8934   1.657   0.800  16.155 -1.4636 -0.0342 -0.9960
  599MPD2    H2 8935   2.009   0.647  16.013 -1.5895  0.3619 -2.3839
  599MPD2    H3 8936   1.875   0.833  16.087 -0.2949  0.4821  1.3577
  599MPD2     N 8937   1.535   0.565  16.219  0.2621 -0.4686  0.0444
  599MPD2    H5 8938   1.476   0.647  16.229  1.9950  0.6711  0.9760
  599MPD2    N1 8939   1.970   0.384  16.077 -0.0125  0.2683 -0.1037
  599MPD2    H7 8940   2.059   0.397  16.030  0.8758 -2.5501  0.7800
  600TMC3    C1 8941   1.359   0.442  16.335 -0.2733  0.0637 -0.1366
  600TMC3    C2 8942   1.293   0.319  16.353  0.6289  0.0597  0.0411
  600TMC3    C3 8943   1.193   0.306  16.448 -0.7544 -0.2735 -0.1587
  600TMC3    C4 8944   1.322   0.548  16.410 -0.1187  0.1999 -0.1216
  600TMC3    C5 8945   1.213   0.537  16.492 -0.2351 -0.1025  0.4986
  600TMC3    C6 8946   1.144   0.419  16.512  0.6643  0.3566  0.1966
  600TMC3     C 8947   1.477   0.443  16.243  0.3850  0.0081 -0.4023
  600TMC3     O 8948   1.500   0.337  16.192  0.9824  0.2153  0.2468
  600TMC3     H 8949   1.319   0.237  16.287 -2.0550 -1.3381  0.7196
  600TMC3    H1 8950   1.380   0.640  16.409  2.1125 -1.1876  0.8428
  600TMC3    H2 8951   1.062   0.401  16.580  0.3925  0.2816 -0.1510
  600TMC3    C7 8952   1.165   0.647  16.577 -0.7004 -0.6390  0.0403
  600TMC3    C8 8953   1.123   0.185  16.471  0.0255 -0.7639 -0.5521
  600TMC3    O1 8954   1.080   0.621  16.659  1.2045 -0.2364 -0.5503
  600TMC3    O2 8955   1.003   0.191  16.460 -0.1181  0.3056 -0.3820
  601MPD2     C 8956   4.027   3.254   0.326 -0.2986  1.0644 -0.1023
  601MPD2    C1 8957   3.921   3.203   0.250  0.5947  0.1507 -1.1401
  601MPD2    C2 8958   3.874   3.077   0.278 -0.8611  0.2672  0.1823
  601MPD2    C3 8959   3.941   2.994   0.366 -0.7109  0.3268 -0.4339
  601MPD2    C4 8960   4.050   3.046   0.432 -0.4746  0.3264 -0.2814
  601MPD2    C5 8961   4.089   3.175   0.415  0.5070 -0.5520  0.4306
  601MPD2     H 8962   3.800   3.032   0.214 -1.0174  1.6015 -0.5759
  601MPD2    H1 8963   4.109   2.992   0.505 -1.0916 -0.8081 -0.6319
  601MPD2    H2 8964   4.066   3.354   0.311  1.7665  0.4164  1.0514
  601MPD2    H3 8965   4.175   3.215   0.468 -0.0092 -1.8930  2.2959
  601MPD2     N 8966   3.922   2.854   0.388 -0.1668  0.0388 -0.5414
  601MPD2    H5 8967   3.993   2.791   0.425  0.8965  2.0432  0.8289
  601MPD2    N1 8968   3.856   3.278   0.145  0.3866 -0.3184  0.4186
  601MPD2    H7 8969   3.772   3.238   0.103 -0.2373  1.2943  0.1038
  602TMC3    C1 8970   3.783   3.447   0.003  0.4161 -0.5149  0.1070
  602TMC3    C2 8971   3.777   3.581  17.750 -0.0048  0.0415  0.3143
  602TMC3    C3 8972   3.664   3.639  17.699  0.4832 -0.4894 -0.4970
  602TMC3    C4 8973   3.679   3.370  17.734  0.3655 -0.2863 -0.1791
  602TMC3    C5 8974   3.558   3.420  17.685  0.1942 -0.1126 -0.0579
  602TMC3    C6 8975   3.555   3.562  17.660 -0.1746 -0.6489 -0.4166
  602TMC3     C 8976   3.887   3.396   0.090 -0.2251  0.1376 -0.8287
  602TMC3     O 8977   3.987   3.463   0.113  0.1491  0.1207 -0.2651
  602TMC3     H 8978   3.859   3.648   0.001 -0.7669  1.3617 -0.8007
  602TMC3    H1 8979   3.699   3.263  17.734  0.8356 -0.1992  1.0383
  602TMC3    H2 8980   3.479   3.608  17.599 -0.8389 -1.3693 -0.1260
  602TMC3    C7 8981   3.453   3.335  17.637  0.4568 -0.2230 -0.4411
  602TMC3    C8 8982   3.672   3.786  17.681 -0.0996  0.1530 -0.3190
  602TMC3    O1 8983   3.490   3.225  17.596 -0.6638  0.1416  0.3830
  602TMC3    O2 8984   3.775   3.842  17.637 -0.4369  0.2463  0.0786
  603TMC3    C1 8985   1.193   3.584  11.277  0.0791 -0.2541 -0.5018
  603TMC3    C2 8986   1.279   3.590  11.382  0.3431  0.0843 -0.0016
  603TMC3    C3 8987   1.405   3.635  11.351  0.2523 -0.0771  0.4762
  603TMC3    C4 8988   1.217   3.644  11.157 -0.0609  0.6584 -0.7549
  603TMC3    C5 8989   1.339   3.685  11.129  0.3128  0.3570 -0.2846
  603TMC3    C6 8990   1.439   3.671  11.222 -0.2272  0.0420 -0.1655
  603TMC3     C 8991   1.058   3.543  11.308  0.4784  0.4806 -0.8481
  603TMC3     O 8992   0.963   3.603  11.259  0.7043 -0.5650  0.4744
  603TMC3     H 8993   1.246   3.546  11.476  2.1440 -1.0903  0.0894
  603TMC3    H1 8994   1.141   3.668  11.084  1.5696  2.5103 -1.8638
  603TMC3    H2 8995   1.541   3.702  11.203 -0.6732  1.1487 -0.7363
  603TMC3    C7 8996   1.381   3.710  10.988 -0.0015 -0.0871 -0.9817
  603TMC3    C8 8997   1.510   3.636  11.458 -0.6707  0.2960 -0.1128
  603TMC3    O1 8998   1.499   3.684  10.970  0.5517 -0.9593 -0.2584
  603TMC3    O2 8999   1.483   3.571  11.553  0.6185  0.1794  0.7435
  604MPD2     C 9000   2.724   2.797  16.154 -0.1904 -0.6663 -0.4380
  604MPD2    C1 9001   2.622   2.703  16.135 -0.5617 -0.1227 -0.3576
  604MPD2    C2 9002   2.619   2.612  16.033  0.0206 -0.7557 -0.2971
  604MPD2    C3 9003   2.720   2.623  15.937  0.5745  0.6077  0.0331
  604MPD2    C4 9004   2.825   2.711  15.963  0.7141  0.2442 -0.7611
  604MPD2    C5 9005   2.832   2.796  16.072 -0.2498 -0.2133  0.0433
  604MPD2     H 9006   2.541   2.538  16.021  0.8198 -1.9166  1.6723
  604MPD2    H1 9007   2.904   2.728  15.891 -0.2692  1.4810 -1.5426
  604MPD2    H2 9008   2.733   2.866  16.237 -0.1260 -0.0448 -0.9618
  604MPD2    H3 9009   2.918   2.861  16.080  1.5923 -2.5763 -0.7804
  604MPD2     N 9010   2.711   2.524  15.841  1.2561  0.2628 -0.1969
  604MPD2    H5 9011   2.638   2.453  15.850  0.3109  1.4120  1.2519
  604MPD2    N1 9012   2.528   2.686  16.234  0.1962  0.5265 -1.0316
  604MPD2    H7 9013   2.550   2.738  16.318  0.4804  1.7525 -1.8623
  605TMC3    C1 9014   2.327   2.633  16.354 -0.0084 -0.1242  0.2739
  605TMC3    C2 9015   2.396   2.681  16.470  0.3930 -0.5854 -0.5456
  605TMC3    C3 9016   2.316   2.732  16.567  0.2545  0.1552  0.3905
  605TMC3    C4 9017   2.192   2.636  16.344 -0.2424 -0.1788  0.2422
  605TMC3    C5 9018   2.127   2.692  16.447  0.1025  0.3572 -0.8119
  605TMC3    C6 9019   2.187   2.751  16.557 -0.3265 -0.0048  0.1545
  605TMC3     C 9020   2.407   2.621  16.226  0.0529  0.4482  0.4143
  605TMC3     O 9021   2.343   2.571  16.134  0.2638 -0.0946  0.1681
  605TMC3     H 9022   2.502   2.664  16.483  0.1758 -2.2267 -0.8915
  605TMC3    H1 9023   2.146   2.603  16.251  1.2590 -2.6688  0.4065
  605TMC3    H2 9024   2.129   2.787  16.641  0.7354 -1.2908  1.4395
  605TMC3    C7 9025   1.980   2.710  16.447  0.0426 -0.5984  0.1603
  605TMC3    C8 9026   2.393   2.804  16.671 -0.4638  0.4879  0.0323
  605TMC3    O1 9027   1.930   2.781  16.537 -0.2479 -0.4319  0.4393
  605TMC3    O2 9028   2.504   2.758  16.682 -0.2843  0.1719 -0.4201
  606TMC3    C1 9029   3.409   0.886  17.740 -1.0985  0.6500  0.5933
  606TMC3    C2 9030   3.532   0.862   0.011  0.4426 -0.0016 -0.4447
  606TMC3    C3 9031   3.577   0.735   0.009  0.6063 -0.0327  0.0351
  606TMC3    C4 9032   3.315   0.789  17.710 -0.4511 -0.2023 -0.4436
  606TMC3    C5 9033   3.356   0.662  17.730 -0.0713 -0.3628  0.4056
  606TMC3    C6 9034   3.485   0.633  17.764 -0.7411  0.0561 -0.1946
  606TMC3     C 9035   3.361   1.027  17.746  0.3473  0.2187  0.1068
  606TMC3     O 9036   3.416   1.107   0.052 -0.2585 -0.5930  0.2850
  606TMC3     H 9037   3.604   0.942   0.015  1.4191 -1.0120  2.1572
  606TMC3    H1 9038   3.210   0.813  17.700 -0.3389  1.1666  1.6649
  606TMC3    H2 9039   3.522   0.532   0.002  0.2391  0.3933 -0.4083
  606TMC3    C7 9040   3.283   0.555  17.684  0.1320 -0.5339 -0.5164
  606TMC3    C8 9041   3.718   0.724  17.765 -0.5572 -0.8114 -0.4144
  606TMC3    O1 9042   3.298   0.444  17.734  0.2921 -0.1577  0.1482
  606TMC3    O2 9043   3.786   0.827  17.770 -0.8448 -0.0864  0.1043
  607MPD2     C 9044   1.157   3.734  11.697  0.0882  0.4954  0.4167
  607MPD2    C1 9045   1.234   3.742  11.817 -0.3608  0.1451  0.4094
  607MPD2    C2 9046   1.200   3.676  11.932 -0.0203 -0.0626  0.0137
  607MPD2    C3 9047   1.086   3.608  11.943 -0.9690  0.5984  0.0558
  607MPD2    C4 9048   1.011   3.591  11.825  0.5381  0.1123  0.7551
  607MPD2    C5 9049   1.050   3.649  11.709  0.2239 -0.4118 -0.4929
  607MPD2     H 9050   1.261   3.674  12.022 -0.2002 -0.5542  0.1229
  607MPD2    H1 9051   0.927   3.523  11.820 -0.1946  1.2324 -1.6041
  607MPD2    H2 9052   1.177   3.779  11.600  0.6507  1.8551  1.1772
  607MPD2    H3 9053   0.983   3.640  11.624  0.1515  1.2542 -0.6101
  607MPD2     N 9054   1.054   3.552  12.066  0.1021 -1.1360  0.4842
  607MPD2    H5 9055   1.110   3.576  12.147  1.3033 -0.6071 -0.5233
  607MPD2    N1 9056   1.355   3.810  11.821 -0.7505  0.1954 -0.7629
  607MPD2    H7 9057   1.405   3.809  11.909  0.3866  1.7145 -1.3887
  608TMC3    C1 9058   1.534   3.959  11.786  0.0477 -0.2851  0.5050
  608TMC3    C2 9059   1.525   4.004  11.915 -0.7377 -0.6296  0.0521
  608TMC3    C3 9060   1.628   4.084  11.960 -0.2372 -0.7561  0.1409
  608TMC3    C4 9061   1.636   3.989  11.711  0.3548  0.1372  0.8094
  608TMC3    C5 9062   1.744   4.059  11.761  0.0149  0.3657 -0.1464
  608TMC3    C6 9063   1.739   4.106  11.887  0.1003 -0.2344 -0.3921
  608TMC3     C 9064   1.429   3.881  11.726  0.3723  0.2437  0.2715
  608TMC3     O 9065   1.410   3.891  11.605  0.1235  0.1452 -0.2623
  608TMC3     H 9066   1.429   4.002  11.965 -0.7883 -0.7000 -0.0487
  608TMC3    H1 9067   1.630   3.965  11.605  2.9337 -2.4471  1.2529
  608TMC3    H2 9068   1.824   4.156  11.934  1.9450 -1.6527 -2.2182
  608TMC3    C7 9069   1.822   4.133  11.665 -0.5428 -0.0169  0.1257
  608TMC3    C8 9070   1.625   4.096  12.104  0.2232 -0.2803  0.2592
  608TMC3    O1 9071   1.790   4.132  11.548 -0.8278 -0.3393 -0.3146
  608TMC3    O2 9072   1.682   4.189  12.161  0.4929  0.1559 -0.4156
  609TMC3    C1 9073   4.307   3.607   9.796  1.0860 -0.1018 -0.0199
  609TMC3    C2 9074   4.381   3.723   9.803 -0.4485  0.2758 -0.3387
  609TMC3    C3 9075   4.504   3.734   9.740  0.2825 -0.1944  0.1967
  609TMC3    C4 9076   4.362   3.493   9.748  0.1317 -0.3501  0.5399
  609TMC3    C5 9077   4.486   3.507   9.679  0.3831  0.8091  0.1276
  609TMC3    C6 9078   4.555   3.626   9.678 -0.2291 -0.1610  0.5715
  609TMC3     C 9079   4.202   3.600   9.894  0.1509  0.2481 -0.3680
  609TMC3     O 9080   4.180   3.482   9.922 -0.7438 -0.3879  0.0868
  609TMC3     H 9081   4.331   3.812   9.841  0.1443 -0.4146  2.0586
  609TMC3    H1 9082   4.324   3.394   9.770  1.1699 -1.1726 -1.3321
  609TMC3    H2 9083   4.660   3.621   9.653  0.0607  2.0774  1.3297
  609TMC3    C7 9084   4.541   3.403   9.609 -0.8939  0.6680  0.0472
  609TMC3    C8 9085   4.545   3.870   9.710  1.0833  0.5653 -0.0529
  609TMC3    O1 9086   4.658   3.414   9.572 -0.7201 -0.1152 -0.3705
  609TMC3    O2 9087   4.469   3.962   9.740  0.0650  0.2571  0.2787
  610TMC3    C1 9088   1.924   3.782  12.780  0.2690 -0.1967 -0.9555
  610TMC3    C2 9089   1.926   3.872  12.677 -0.7046 -0.4935 -0.3847
  610TMC3    C3 9090   1.988   3.841  12.558  0.2152 -0.0358 -0.0398
  610TMC3    C4 9091   1.962   3.651  12.754  0.5829  0.1588 -0.4970
  610TMC3    C5 9092   2.037   3.623  12.646  1.5837 -0.4230 -0.9706
  610TMC3    C6 9093   2.055   3.720  12.549  0.8651  0.0106  0.0328
  610TMC3     C 9094   1.897   3.831  12.914  0.0982 -0.2320  0.6465
  610TMC3     O 9095   1.842   3.938  12.914  0.2295  0.2354 -0.3284
  610TMC3     H 9096   1.904   3.978  12.686  3.3256  0.4207 -1.3652
  610TMC3    H1 9097   1.946   3.571  12.825  0.1811 -0.6267 -1.4752
  610TMC3    H2 9098   2.111   3.693  12.460  2.3382  1.8316  0.3844
  610TMC3    C7 9099   2.123   3.510  12.652 -0.0981 -0.2599  0.4694
  610TMC3    C8 9100   1.995   3.947  12.458  0.1600  0.0599 -0.0528
  610TMC3    O1 9101   2.094   3.429  12.739 -0.1802  0.1262 -0.5815
  610TMC3    O2 9102   1.908   4.033  12.458 -0.3909 -0.0054 -0.5369
  611MPD2     C 9103   0.191   4.000  10.782 -0.7379  0.2881  0.6617
  611MPD2    C1 9104   0.291   3.913  10.746  0.2654 -0.3167  0.6343
  611MPD2    C2 9105   0.393   3.959  10.669  0.4768  0.4458 -0.1585
  611MPD2    C3 9106   0.401   4.092  10.629 -0.7241  0.5010  0.1043
  611MPD2    C4 9107   0.298   4.175  10.661  0.2307  0.0129  0.1972
  611MPD2    C5 9108   0.198   4.129  10.743 -0.2010 -1.0098 -0.7943
  611MPD2     H 9109   0.460   3.885  10.626  0.5765  1.7885 -2.3400
  611MPD2    H1 9110   0.309   4.279  10.634  0.9068  0.3856  1.8893
  611MPD2    H2 9111   0.113   3.968  10.850 -0.8971 -0.2675  0.2263
  611MPD2    H3 9112   0.113   4.190  10.773  0.9133  0.4732 -0.6966
  611MPD2     N 9113   0.519   4.147  10.562  0.1167  0.6521  0.0221
  611MPD2    H5 9114   0.521   4.248  10.561  1.6809  0.5970 -2.5280
  611MPD2    N1 9115   0.281   3.776  10.781 -0.1368 -0.0259 -0.2975
  611MPD2    H7 9116   0.191   3.754  10.822  0.5778  0.8169  1.7276
  612TMC3    C1 9117   0.736   4.146  10.466  0.2097 -0.2685  0.6369
  612TMC3    C2 9118   0.861   4.108  10.491 -0.4977  0.7445 -0.4984
  612TMC3    C3 9119   0.969   4.183  10.455 -0.2345  0.1174  0.0580
  612TMC3    C4 9120   0.701   4.248  10.391 -0.3777 -0.6037 -0.5294
  612TMC3    C5 9121   0.807   4.316  10.340 -0.4431 -0.5369  0.0524
  612TMC3    C6 9122   0.939   4.284  10.368 -0.2148  0.5695  0.3355
  612TMC3     C 9123   0.629   4.070  10.523  0.0507 -0.1066  1.1310
  612TMC3     O 9124   0.662   3.957  10.554  0.4826  0.1929 -0.7083
  612TMC3     H 9125   0.884   4.019  10.549 -1.5273  0.7409 -0.0885
  612TMC3    H1 9126   0.599   4.272  10.362  0.3197  0.7199 -1.9232
  612TMC3    H2 9127   1.021   4.348  10.340 -0.1652 -0.0864 -1.0213
  612TMC3    C7 9128   0.773   4.438  10.273  0.7391  0.5613 -0.8745
  612TMC3    C8 9129   1.092   4.111  10.451  0.8579  0.3030 -0.2664
  612TMC3    O1 9130   0.677   4.501  10.317 -0.3631  0.4408 -0.2831
  612TMC3    O2 9131   1.165   4.127  10.350 -0.2421  0.6416 -0.6590
  613MPD2     C 9132   0.506   1.065  16.009  0.0472  0.4324 -0.4695
  613MPD2    C1 9133   0.493   1.044  15.868 -0.3578 -0.4387  0.5534
  613MPD2    C2 9134   0.429   0.934  15.828 -0.5406  0.1718  0.9646
  613MPD2    C3 9135   0.380   0.843  15.915 -0.3894 -0.1530 -0.2175
  613MPD2    C4 9136   0.393   0.865  16.044 -0.0706  0.3677  0.2301
  613MPD2    C5 9137   0.463   0.974  16.099  0.8909  0.0109 -0.4701
  613MPD2     H 9138   0.409   0.922  15.722 -1.9194 -0.0588  1.2411
  613MPD2    H1 9139   0.360   0.791  16.117 -2.4498  1.6074  0.3771
  613MPD2    H2 9140   0.557   1.149  16.056 -1.0371  0.4966  0.5911
  613MPD2    H3 9141   0.481   1.001  16.202 -2.4266  0.3946 -0.0054
  613MPD2     N 9142   0.308   0.748  15.848 -0.4725  0.2247 -0.2702
  613MPD2    H5 9143   0.319   0.734  15.748 -1.3577  2.2683 -0.6491
  613MPD2    N1 9144   0.536   1.156  15.784  0.2402 -0.0148 -0.0860
  613MPD2    H7 9145   0.567   1.232  15.843  1.8040 -0.0231 -0.9130
  614TMC3    C1 9146   0.579   1.281  15.586  0.4374 -0.4023 -0.0118
  614TMC3    C2 9147   0.574   1.261  15.444 -0.3765  0.2104  0.2284
  614TMC3    C3 9148   0.495   1.341  15.372 -0.4854 -0.5687  0.9000
  614TMC3    C4 9149   0.530   1.398  15.645  0.5637 -0.3462  0.0413
  614TMC3    C5 9150   0.455   1.478  15.567  0.0606  0.7571 -0.0824
  614TMC3    C6 9151   0.443   1.452  15.432 -0.1450 -0.4060  0.3287
  614TMC3     C 9152   0.526   1.163  15.650  0.0570 -0.0376 -0.6232
  614TMC3     O 9153   0.480   1.078  15.573 -0.2249 -0.2085  0.3686
  614TMC3     H 9154   0.605   1.172  15.390  1.1183  0.9345 -0.1304
  614TMC3    H1 9155   0.512   1.401  15.752  1.0984  0.3528  0.1099
  614TMC3    H2 9156   0.364   1.507  15.382 -1.8474 -1.7490  1.5621
  614TMC3    C7 9157   0.367   1.564  15.642  0.4727  0.4786  0.0945
  614TMC3    C8 9158   0.407   1.269  15.281  0.5882 -0.1605  0.3635
  614TMC3    O1 9159   0.408   1.615  15.741  1.0530 -0.1470 -0.1843
  614TMC3    O2 9160   0.346   1.346  15.207  0.7245  0.7419 -0.4643
  615MPD2     C 9161   3.945   2.988  16.231  0.4630  0.1925 -0.2905
  615MPD2    C1 9162   3.933   2.850  16.234 -0.1099  0.2155  0.6616
  615MPD2    C2 9163   3.897   2.781  16.124  0.9119 -0.1828 -0.1502
  615MPD2    C3 9164   3.869   2.851  16.003  1.2528 -0.8381 -0.4499
  615MPD2    C4 9165   3.881   2.986  16.004 -0.0758 -0.2488  0.4721
  615MPD2    C5 9166   3.926   3.048  16.110 -0.5354 -0.5671  0.2022
  615MPD2     H 9167   3.896   2.673  16.121 -3.9828 -0.1113 -1.1620
  615MPD2    H1 9168   3.855   3.044  15.916  0.0978  1.0979  1.3080
  615MPD2    H2 9169   3.975   3.041  16.320  0.1840  0.0587 -0.1157
  615MPD2    H3 9170   3.945   3.154  16.097  0.7676 -0.8599 -0.3199
  615MPD2     N 9171   3.822   2.790  15.885 -0.8179 -0.3328  0.6866
  615MPD2    H5 9172   3.793   2.847  15.806  1.1841  0.5045  0.5429
  615MPD2    N1 9173   3.958   2.774  16.348 -0.3478 -0.4397  0.1628
  615MPD2    H7 9174   3.927   2.678  16.343  1.1933 -0.9896  1.1736
  616TMC3    C1 9175   4.022   2.721  16.560  0.4774  0.0370  0.2630
  616TMC3    C2 9176   4.143   2.716  16.627  0.0576 -0.1228 -0.0557
  616TMC3    C3 9177   4.156   2.613  16.718 -0.2080 -0.2061  0.2301
  616TMC3    C4 9178   3.916   2.640  16.576 -0.2537  0.1514  0.0871
  616TMC3    C5 9179   3.933   2.548  16.676 -0.4240 -0.2003 -0.1742
  616TMC3    C6 9180   4.051   2.536  16.747 -0.1214 -0.3925  0.3851
  616TMC3     C 9181   4.006   2.824  16.465 -0.4187 -0.2990  0.2708
  616TMC3     O 9182   4.066   2.924  16.493 -0.1094 -0.3327  0.4181
  616TMC3     H 9183   4.229   2.765  16.584 -0.8133 -0.0561 -1.7119
  616TMC3    H1 9184   3.818   2.669  16.539 -0.8889  0.6818  2.2016
  616TMC3    H2 9185   4.049   2.469  16.832  0.0749  1.5026  1.9090
  616TMC3    C7 9186   3.811   2.491  16.729  0.5389 -0.4364  0.1821
  616TMC3    C8 9187   4.279   2.612  16.794  0.7024 -0.1004  0.3470
  616TMC3    O1 9188   3.708   2.560  16.735 -0.1411 -0.0132  0.3137
  616TMC3    O2 9189   4.264   2.598  16.916  0.2380  0.0648 -0.1421
  617MPD2     C 9190   2.410   1.089  14.336 -0.0370  0.1971 -0.1179
  617MPD2    C1 9191   2.449   0.972  14.271 -0.1301 -0.5650 -0.0742
  617MPD2    C2 9192   2.352   0.883  14.239  0.4786 -0.3948  0.1645
  617MPD2    C3 9193   2.213   0.921  14.241  0.3961 -0.1929 -0.0070
  617MPD2    C4 9194   2.181   1.051  14.287  0.6731 -0.3364  0.0769
  617MPD2    C5 9195   2.285   1.124  14.344  0.8342  0.5875 -0.5818
  617MPD2     H 9196   2.383   0.786  14.203  0.1115 -0.3926 -0.1572
  617MPD2    H1 9197   2.080   1.091  14.289  0.6204 -0.4988  0.5902
  617MPD2    H2 9198   2.476   1.166  14.374 -0.0469  0.5479 -0.8031
  617MPD2    H3 9199   2.273   1.223  14.385 -2.4110  0.0331 -0.1648
  617MPD2     N 9200   2.105   0.840  14.199  0.1769  0.1534  0.1189
  617MPD2    H5 9201   2.015   0.886  14.206 -0.0252 -0.0460 -1.0579
  617MPD2    N1 9202   2.581   0.926  14.272 -0.2776 -0.9131  0.2248
  617MPD2    H7 9203   2.607   0.833  14.240  1.3811 -0.1557 -0.5989
  618TMC3    C1 9204   2.809   0.923  14.325  0.4105  0.2645 -0.6317
  618TMC3    C2 9205   2.820   0.798  14.268 -0.1019 -0.3439  0.1415
  618TMC3    C3 9206   2.943   0.736  14.272  0.4046  0.4791 -0.0537
  618TMC3    C4 9207   2.915   0.991  14.374 -0.5099 -0.2944  0.2381
  618TMC3    C5 9208   3.039   0.924  14.369 -0.1602 -0.4016 -0.2949
  618TMC3    C6 9209   3.051   0.796  14.329  0.3669  0.4544 -0.3568
  618TMC3     C 9210   2.689   0.997  14.323  0.2639 -0.1059  0.0396
  618TMC3     O 9211   2.700   1.114  14.363 -0.0860 -0.4042 -0.3548
  618TMC3     H 9212   2.731   0.747  14.232 -0.2017  1.4157 -2.0830
  618TMC3    H1 9213   2.917   1.090  14.420 -1.1043  0.4671 -1.3917
  618TMC3    H2 9214   3.152   0.755  14.328 -0.1244 -0.7599  0.3848
  618TMC3    C7 9215   3.160   0.996  14.407 -0.2347  0.8140  0.2022
  618TMC3    C8 9216   2.954   0.621  14.192 -0.9324  0.3559  0.2764
  618TMC3    O1 9217   3.231   0.924  14.481 -0.0464  0.0014 -0.6191
  618TMC3    O2 9218   2.846   0.577  14.148  0.6396  0.4822  0.2029
  619MPD2     C 9219   3.536   1.504  13.669  0.3256  0.4634 -0.3682
  619MPD2    C1 9220   3.500   1.540  13.538  0.3386  1.1794  0.1740
  619MPD2    C2 9221   3.375   1.606  13.520  0.3089 -0.4803 -0.2784
  619MPD2    C3 9222   3.295   1.649  13.627  0.3133  0.1422 -0.2584
  619MPD2    C4 9223   3.336   1.610  13.755 -0.8748 -0.1986  0.2321
  619MPD2    C5 9224   3.451   1.537  13.775  0.0439  0.0377  0.0001
  619MPD2     H 9225   3.332   1.630  13.423  2.3109  0.1582 -1.0006
  619MPD2    H1 9226   3.274   1.623  13.843 -0.1814 -1.9364  0.9870
  619MPD2    H2 9227   3.624   1.449  13.701  1.4495  1.1312 -2.2511
  619MPD2    H3 9228   3.478   1.496  13.871 -1.0923 -2.4558 -0.7365
  619MPD2     N 9229   3.168   1.717  13.618 -0.0702  0.3669  0.1167
  619MPD2    H5 9230   3.118   1.742  13.703 -2.3759 -0.9275 -0.8677
  619MPD2    N1 9231   3.585   1.518  13.425  0.0240  0.3077  0.4662
  619MPD2    H7 9232   3.557   1.577  13.348 -0.7634 -0.0772  0.4547
  620TMC3    C1 9233   3.795   1.473  13.317  0.0449 -0.9523 -1.0768
  620TMC3    C2 9234   3.740   1.537  13.205 -0.1661 -0.2273  0.2435
  620TMC3    C3 9235   3.823   1.622  13.143 -0.0461 -0.3189  0.6883
  620TMC3    C4 9236   3.927   1.485  13.359 -0.0549  0.0139  0.2781
  620TMC3    C5 9237   4.003   1.567  13.287  0.0225  0.5552 -0.1804
  620TMC3    C6 9238   3.959   1.627  13.172 -0.0452  0.0078 -0.4200
  620TMC3     C 9239   3.707   1.457  13.431  0.8086 -0.5161  0.8607
  620TMC3     O 9240   3.754   1.387  13.524  0.0621  0.5546 -0.1975
  620TMC3     H 9241   3.633   1.534  13.186  0.0238  0.6274 -0.9562
  620TMC3    H1 9242   3.969   1.443  13.450 -1.4073 -1.2254  0.3402
  620TMC3    H2 9243   4.018   1.701  13.120  1.6516 -0.7653  0.4249
  620TMC3    C7 9244   4.090   1.658  13.359  0.0066  0.3366 -0.1896
  620TMC3    C8 9245   3.775   1.759  13.141 -1.1681 -0.1243 -0.2580
  620TMC3    O1 9246   4.157   1.736  13.294 -0.4449 -0.0294 -0.0864
  620TMC3    O2 9247   3.843   1.836  13.207 -0.2821  0.1354 -0.3684
  621MPD2     C 9248   4.219   2.728  10.274  0.4646 -0.3445 -0.7708
  621MPD2    C1 9249   4.279   2.698  10.157  0.5739  1.3055 -0.3814
  621MPD2    C2 9250   4.388   2.771  10.117 -0.2854  0.2339  0.1558
  621MPD2    C3 9251   4.446   2.866  10.199 -0.0467 -0.3691 -0.5852
  621MPD2    C4 9252   4.378   2.898  10.321 -0.0389 -0.1960 -0.5489
  621MPD2    C5 9253   4.269   2.824  10.362  0.3769  0.3075  0.0680
  621MPD2     H 9254   4.437   2.753  10.022  1.1463  1.5437  0.6487
  621MPD2    H1 9255   4.420   2.965  10.395  1.1756 -2.3972  0.7488
  621MPD2    H2 9256   4.138   2.673  10.321  1.4886 -0.4358  0.8757
  621MPD2    H3 9257   4.214   2.844  10.454  0.2254 -1.9058  0.4689
  621MPD2     N 9258   4.555   2.944  10.158 -0.5989  0.5620  0.1892
  621MPD2    H5 9259   4.625   2.907  10.094 -2.2019  2.9695 -2.9647
  621MPD2    N1 9260   4.223   2.599  10.074 -0.6320  0.2334  0.1407
  621MPD2    H7 9261   4.283   2.573   9.996 -0.3999 -0.9292  0.7142
  622TMC3    C1 9262   4.072   2.446   9.996  0.3238 -0.1530  0.3625
  622TMC3    C2 9263   3.985   2.348  10.039 -0.5024 -0.5598  0.8392
  622TMC3    C3 9264   3.948   2.252   9.949  0.6047 -0.0980 -0.3271
  622TMC3    C4 9265   4.116   2.455   9.867  0.0003  0.4364  0.3863
  622TMC3    C5 9266   4.054   2.367   9.780 -0.5531  0.3394  0.0575
  622TMC3    C6 9267   3.980   2.261   9.823 -0.2169  1.0123  0.8609
  622TMC3     C 9268   4.099   2.548  10.090  0.4795  0.5768  0.2501
  622TMC3     O 9269   4.009   2.575  10.170  0.2757  0.1719  0.0222
  622TMC3     H 9270   3.964   2.329  10.144  0.4884 -2.2812  0.7265
  622TMC3    H1 9271   4.190   2.524   9.828 -0.3591  1.0615  0.7869
  622TMC3    H2 9272   3.944   2.185   9.755 -0.8113  3.9778 -2.1448
  622TMC3    C7 9273   4.054   2.404   9.637  0.6001  0.1470 -0.4986
  622TMC3    C8 9274   3.871   2.135   9.990  0.4289  0.2648 -0.6359
  622TMC3    O1 9275   4.138   2.487   9.600 -0.0590  0.6908  0.2812
  622TMC3    O2 9276   3.898   2.021   9.951  0.1500  0.1334  0.1544
  623MPD2     C 9277   2.718   3.225  16.129 -0.4261 -0.3013  0.3760
  623MPD2    C1 9278   2.670   3.163  16.238  0.6304 -0.5308 -0.3345
  623MPD2    C2 9279   2.735   3.175  16.358  0.4010 -0.4558 -0.0670
  623MPD2    C3 9280   2.853   3.245  16.368  0.0983  0.1580  0.1304
  623MPD2    C4 9281   2.896   3.318  16.253  0.4528  0.0150  0.4600
  623MPD2    C5 9282   2.835   3.295  16.137 -0.1239  0.2689 -0.4909
  623MPD2     H 9283   2.698   3.111  16.438 -0.9900  0.3036 -0.0929
  623MPD2    H1 9284   2.996   3.358  16.255  1.1593 -1.7744  0.9450
  623MPD2    H2 9285   2.673   3.214  16.031 -1.7330  1.4743  0.7816
  623MPD2    H3 9286   2.884   3.319  16.044 -1.0762 -0.2676 -1.1275
  623MPD2     N 9287   2.921   3.233  16.488  0.1922  0.4950  0.1213
  623MPD2    H5 9288   2.881   3.171  16.559 -0.8888  0.8294 -0.1879
  623MPD2    N1 9289   2.551   3.083  16.249 -0.0279 -0.5599  0.0456
  623MPD2    H7 9290   2.522   3.055  16.342 -0.7996 -2.3525 -0.7370
  624TMC3    C1 9291   3.204   3.084  16.759 -0.2113 -0.9157  0.5136
  624TMC3    C2 9292   3.092   3.035  16.826  0.2478 -0.2981 -0.5948
  624TMC3    C3 9293   2.982   3.118  16.830 -0.5901  0.0735 -0.0368
  624TMC3    C4 9294   3.193   3.192  16.667  0.3995  0.0130  0.0034
  624TMC3    C5 9295   3.071   3.246  16.652 -0.2785 -0.1872 -0.0429
  624TMC3    C6 9296   2.966   3.220  16.737  0.3882  0.1224 -0.0934
  624TMC3     C 9297   3.332   3.027  16.782 -0.3371 -0.5330  0.1051
  624TMC3     O 9298   3.343   2.917  16.834 -0.1462 -0.1023  0.1859
  624TMC3     H 9299   3.089   2.945  16.888 -1.0170 -0.5987 -1.0929
  624TMC3    H1 9300   3.265   3.216  16.589  0.6790 -0.7170  0.0336
  624TMC3    H2 9301   2.887   3.294  16.745 -0.4525 -0.5828 -2.0227
  624TMC3    C7 9302   3.043   3.287  16.517 -0.1853 -0.5717  0.7137
  624TMC3    C8 9303   2.855   3.056  16.851 -0.4467  0.2786  0.0236
  624TMC3    O1 9304   3.117   3.372  16.466 -0.4726 -0.5819 -1.0200
  624TMC3    O2 9305   2.851   2.934  16.845 -0.3186 -0.0439  0.4266
  625MPD2     C 9306   3.229   4.100   0.426 -0.0046 -0.6926 -0.2609
  625MPD2    C1 9307   3.282   4.221   0.465 -0.4393  0.5184 -0.3851
  625MPD2    C2 9308   3.411   4.212   0.519  0.1256  0.3272 -0.1411
  625MPD2    C3 9309   3.479   4.085   0.539  0.3446  0.5249 -0.5150
  625MPD2    C4 9310   3.407   3.969   0.507 -0.0478 -0.7814 -0.0158
  625MPD2    C5 9311   3.288   3.977   0.447 -0.2357  0.5889 -0.2688
  625MPD2     H 9312   3.465   4.304   0.538  0.9059 -0.6264  2.3810
  625MPD2    H1 9313   3.446   3.869   0.523  2.1131  0.7161  3.9989
  625MPD2    H2 9314   3.133   4.091   0.376  0.0823 -0.3414 -0.4865
  625MPD2    H3 9315   3.236   3.892   0.405 -0.8843  1.1381 -0.6005
  625MPD2     N 9316   3.613   4.077   0.594 -0.2768  0.7263  0.7704
  625MPD2    H5 9317   3.658   4.166   0.612 -0.7091  1.2479 -0.7785
  625MPD2    N1 9318   3.229   4.345   0.429 -0.8445  0.1565 -0.4471
  625MPD2    H7 9319   3.287   4.423   0.456  0.2869 -0.5621 -0.7839
  626TMC3    C1 9320   3.089   4.497   0.325  0.2097 -0.4804  0.3956
  626TMC3    C2 9321   3.021   4.523   0.209  0.1622  0.3799 -0.5696
  626TMC3    C3 9322   2.992   4.650   0.171 -0.1759 -0.1123 -0.1601
  626TMC3    C4 9323   3.134   4.596   0.416  0.0229 -0.3907  0.9171
  626TMC3    C5 9324   3.085   4.716   0.377  0.1149  0.4946  0.1707
  626TMC3    C6 9325   3.021   0.009   0.260 -0.1635 -0.2517  0.1757
  626TMC3     C 9326   3.113   4.365   0.356 -0.6642  0.6645  0.9527
  626TMC3     O 9327   3.043   4.283   0.300  0.3910 -0.1294 -0.6439
  626TMC3     H 9328   3.002   4.441   0.141 -2.2129 -1.1799  1.9308
  626TMC3    H1 9329   3.165   4.579   0.519  2.8439 -1.4853 -0.1012
  626TMC3    H2 9330   2.998   0.112   0.235 -1.0498 -0.1421  1.4274
  626TMC3    C7 9331   3.070   0.066   0.481  0.3149  0.4622  0.6817
  626TMC3    C8 9332   2.940   4.676   0.036 -0.3841 -0.7133 -0.6795
  626TMC3    O1 9333   3.155   0.064   0.569 -0.0840  0.3761  0.4386
  626TMC3    O2 9334   2.941   0.037  17.755 -0.1923 -0.2734 -1.0319
  627MPD2     C 9335   1.468   4.197  14.288 -0.3170  0.4216 -0.4482
  627MPD2    C1 9336   1.591   4.148  14.290 -0.5794  0.0152 -0.6966
  627MPD2    C2 9337   1.608   4.013  14.320 -0.0924 -0.2685 -0.6792
  627MPD2    C3 9338   1.503   3.928  14.351 -0.1035 -0.1051  0.0027
  627MPD2    C4 9339   1.377   3.982  14.344  0.1586  0.2603 -0.3836
  627MPD2    C5 9340   1.365   4.114  14.313  0.6473 -0.5402  0.1814
  627MPD2     H 9341   1.712   3.984  14.326  0.2113  1.1972  0.9720
  627MPD2    H1 9342   1.292   3.916  14.354 -0.4196  1.3206  1.8336
  627MPD2    H2 9343   1.446   4.291  14.238  2.8599  0.6029 -1.4848
  627MPD2    H3 9344   1.265   4.155  14.307  0.7393 -0.3832 -0.2378
  627MPD2     N 9345   1.524   3.794  14.365 -0.2151  0.5125 -0.5158
  627MPD2    H5 9346   1.620   3.763  14.361  0.1479  1.6822 -0.7871
  627MPD2    N1 9347   1.712   4.218  14.270  0.0727 -0.1179  0.1706
  627MPD2    H7 9348   1.793   4.160  14.289 -0.2026 -1.0511 -1.5212
  628TMC3    C1 9349   1.859   4.397  14.289  1.1791 -0.1999  0.2871
  628TMC3    C2 9350   1.968   4.329  14.252 -0.7891 -0.2466  0.4898
  628TMC3    C3 9351   2.083   4.351  14.319 -0.6687  0.7442 -0.0025
  628TMC3    C4 9352   1.864   4.487  14.389  0.1731 -0.4182  0.6206
  628TMC3    C5 9353   1.974   4.507  14.459 -0.0373  0.0795  0.1854
  628TMC3    C6 9354   2.087   4.432  14.429  0.0038 -0.4849 -0.9267
  628TMC3     C 9355   1.725   4.355  14.248 -0.3094 -0.1464 -0.1235
  628TMC3     O 9356   1.640   4.446  14.239  0.5191  0.6582  0.7758
  628TMC3     H 9357   1.948   4.250  14.181 -1.0971  0.1549  0.1287
  628TMC3    H1 9358   1.775   4.542  14.417 -0.1171 -2.2358  3.2653
  628TMC3    H2 9359   2.183   4.463  14.469  0.0170  1.9258 -2.8203
  628TMC3    C7 9360   1.972   4.636  14.522 -0.1081  0.5136  0.6619
  628TMC3    C8 9361   2.192   4.265  14.278 -0.7601  0.4078  0.3515
  628TMC3    O1 9362   2.047   4.654  14.615  0.1777  0.1368 -0.3757
  628TMC3    O2 9363   2.197   4.243  14.157  0.0741 -0.5080  0.5627
  629MPD2     C 9364   0.036   2.549  16.858 -0.2112 -0.0597  0.2696
  629MPD2    C1 9365   0.013   2.567  16.724  0.1127  0.9558 -0.1031
  629MPD2    C2 9366   4.627   2.589  16.678 -0.0569 -0.0529 -0.1785
  629MPD2    C3 9367   4.525   2.581  16.772  0.4014  0.7251 -0.0555
  629MPD2    C4 9368   4.552   2.565  16.909  0.0809  0.2593 -0.5559
  629MPD2    C5 9369   4.679   2.547  16.953 -0.3723 -0.8542 -0.0667
  629MPD2     H 9370   4.607   2.614  16.575 -1.5080 -2.1593 -0.3996
  629MPD2    H1 9371   4.479   2.564  16.989 -0.6051  1.0743 -1.1705
  629MPD2    H2 9372   0.139   2.535  16.887 -0.4815  1.3232  1.9071
  629MPD2    H3 9373   4.707   2.538  17.058  0.2273 -0.6279 -0.2046
  629MPD2     N 9374   4.395   2.613  16.719 -0.6440  0.6174  0.3272
  629MPD2    H5 9375   4.391   2.621  16.618 -2.5432  0.6729  0.4005
  629MPD2    N1 9376   0.129   2.582  16.646  0.1292  0.0548  0.1412
  629MPD2    H7 9377   0.222   2.563  16.682  0.3262 -2.2313 -1.6337
  630TMC3    C1 9378   0.269   2.641  16.465 -0.1114 -0.5898 -0.0240
  630TMC3    C2 9379   0.303   2.772  16.427 -0.2121  0.1189 -0.3101
  630TMC3    C3 9380   0.422   2.820  16.469 -0.4623 -0.8861 -0.8405
  630TMC3    C4 9381   0.361   2.554  16.528  0.3257  0.1453 -0.6265
  630TMC3    C5 9382   0.480   2.605  16.576 -0.6087  0.2752 -0.8073
  630TMC3    C6 9383   0.508   2.738  16.537  0.3235  0.3701 -0.1280
  630TMC3     C 9384   0.132   2.647  16.524 -0.2751 -0.0821 -0.3696
  630TMC3     O 9385   0.044   2.714  16.470  0.2871 -0.0295  0.1359
  630TMC3     H 9386   0.224   2.841  16.402  1.0500  2.0484  0.9969
  630TMC3    H1 9387   0.328   2.454  16.550 -1.1901  0.4615 -1.4913
  630TMC3    H2 9388   0.608   2.772  16.563  0.5491 -0.7986  0.5770
  630TMC3    C7 9389   0.464   2.616  16.720 -0.7283  0.2044 -0.6880
  630TMC3    C8 9390   0.441   2.958  16.502 -0.5289 -0.5905 -0.2834
  630TMC3    O1 9391   0.375   2.552  16.768 -0.0535 -0.0394 -0.3018
  630TMC3    O2 9392   0.505   2.985  16.602 -0.1034 -0.7221 -0.2869
  631MPD2     C 9393   3.041   3.079  15.590 -0.3736 -0.1413 -0.7558
  631MPD2    C1 9394   3.148   3.101  15.511 -0.7575 -0.3771 -0.6042
  631MPD2    C2 9395   3.260   3.020  15.501  0.0587  0.4845 -0.3809
  631MPD2    C3 9396   3.270   2.907  15.583  0.1152  0.6985 -1.0858
  631MPD2    C4 9397   3.165   2.883  15.661 -0.9044  0.3626  0.2951
  631MPD2    C5 9398   3.052   2.969  15.665 -0.1775 -0.0253  0.0755
  631MPD2     H 9399   3.351   3.053  15.450  1.6485  0.0239  2.1693
  631MPD2    H1 9400   3.160   2.793  15.721 -0.6268  0.2601  0.1666
  631MPD2    H2 9401   2.967   3.157  15.608  1.5063  1.5331 -0.3631
  631MPD2    H3 9402   2.975   2.941  15.737 -1.8681 -0.1393 -1.7946
  631MPD2     N 9403   3.389   2.825  15.575 -0.5953 -0.3780 -0.4541
  631MPD2    H5 9404   3.464   2.859  15.515  1.3443  0.6656  2.5671
  631MPD2    N1 9405   3.140   3.225  15.441  0.1529 -0.2104 -0.2517
  631MPD2    H7 9406   3.055   3.279  15.454  0.1586  0.2846 -2.3235
  632TMC3    C1 9407   3.175   3.380  15.267 -0.5508 -0.2083  0.1094
  632TMC3    C2 9408   3.074   3.457  15.320 -0.3877 -0.7580 -0.0192
  632TMC3    C3 9409   3.047   3.566  15.239 -0.1210  0.0183  0.5243
  632TMC3    C4 9410   3.242   3.403  15.151  0.1050 -0.1677  0.2387
  632TMC3    C5 9411   3.202   3.509  15.078 -0.4255  0.3980 -0.1448
  632TMC3    C6 9412   3.106   3.595  15.119  0.1739  0.4118 -0.7130
  632TMC3     C 9413   3.224   3.269  15.345  0.1016  0.9529 -0.1254
  632TMC3     O 9414   3.325   3.218  15.305  0.0745 -0.2958  0.0644
  632TMC3     H 9415   3.016   3.427  15.406  0.0490 -0.1184  0.5095
  632TMC3    H1 9416   3.319   3.338  15.111  0.1757  0.6267 -0.9431
  632TMC3    H2 9417   3.068   3.684  15.069  0.6499  1.0599  0.0625
  632TMC3    C7 9418   3.304   3.567  14.996 -0.9324 -0.1112  0.6006
  632TMC3    C8 9419   2.976   3.674  15.299 -0.0532  0.1456 -0.4764
  632TMC3    O1 9420   3.276   3.600  14.879  0.0455  1.0129 -0.3126
  632TMC3    O2 9421   2.999   3.794  15.272  0.0839  0.5925 -0.0832
  633MPD2     C 9422   2.791   1.352  17.087  0.3375  0.1504  1.0140
  633MPD2    C1 9423   2.849   1.300  16.972 -0.2910  0.1460 -0.1669
  633MPD2    C2 9424   2.827   1.167  16.948 -0.2940  1.2143  0.4633
  633MPD2    C3 9425   2.751   1.089  17.025  0.1872  0.2241 -0.0976
  633MPD2    C4 9426   2.676   1.148  17.128 -0.0525 -0.1746  0.5878
  633MPD2    C5 9427   2.699   1.279  17.157 -0.1519  0.6819  0.2849
  633MPD2     H 9428   2.886   1.119  16.870 -1.1756 -1.3430  1.3890
  633MPD2    H1 9429   2.602   1.099  17.189  1.1136  0.3672  2.4587
  633MPD2    H2 9430   2.804   1.452  17.127  0.6995  0.3741  0.3342
  633MPD2    H3 9431   2.643   1.324  17.238  0.7624  4.0153 -0.9551
  633MPD2     N 9432   2.741   0.944  17.002  0.4791  0.0255 -0.7852
  633MPD2    H5 9433   2.684   0.888  17.064  1.6554 -0.4426 -0.1180
  633MPD2    N1 9434   2.949   1.364  16.903  0.0269 -0.7310 -0.1255
  633MPD2    H7 9435   3.002   1.315  16.831 -0.6564 -2.5025  0.5856
  634TMC3    C1 9436   3.091   1.521  16.834 -0.3087 -0.2592  0.1866
  634TMC3    C2 9437   3.191   1.436  16.803 -0.1381  0.3467 -0.0644
  634TMC3    C3 9438   3.279   1.485  16.708  0.6583 -0.3492  0.0593
  634TMC3    C4 9439   3.066   1.636  16.762 -0.5565  0.0026  0.4884
  634TMC3    C5 9440   3.147   1.674  16.657  0.4041  0.0645  0.2408
  634TMC3    C6 9441   3.260   1.598  16.630  0.5074  0.1825 -1.3734
  634TMC3     C 9442   2.991   1.490  16.925  0.7253  0.3853  0.1501
  634TMC3     O 9443   2.934   1.576  16.988 -0.0528 -0.7052 -0.2489
  634TMC3     H 9444   3.209   1.341  16.853 -0.8025  2.1969  3.6815
  634TMC3    H1 9445   2.972   1.686  16.785  0.8758  2.8213  0.2048
  634TMC3    H2 9446   3.333   1.637  16.560  0.3090  1.1849 -1.0281
  634TMC3    C7 9447   3.088   1.744  16.540  0.3350  0.3070  0.4169
  634TMC3    C8 9448   3.362   1.386  16.649 -0.0317 -0.3737  0.1397
  634TMC3    O1 9449   3.124   1.707  16.428  0.1955 -0.3812  0.9369
  634TMC3    O2 9450   3.320   1.276  16.667 -0.1678 -0.2588  0.2006
  635TMC3    C1 9451   3.027   2.011   0.418 -1.1756 -0.1162 -0.3893
  635TMC3    C2 9452   3.010   1.872   0.434 -0.4311 -0.2457  0.3236
  635TMC3    C3 9453   2.880   1.829   0.461 -0.2687  0.8044 -0.3737
  635TMC3    C4 9454   2.936   2.100   0.457 -0.6203  0.1688  0.3297
  635TMC3    C5 9455   2.815   2.052   0.491 -0.7510  0.6855 -0.2607
  635TMC3    C6 9456   2.778   1.918   0.477 -0.2746  0.1445  0.6436
  635TMC3     C 9457   3.163   2.063   0.403 -0.3817  0.8630  0.6022
  635TMC3     O 9458   3.183   2.177   0.437  0.1982 -0.0131 -0.2753
  635TMC3     H 9459   3.082   1.795   0.410  0.1115  0.0618  0.9437
  635TMC3    H1 9460   2.963   2.205   0.453 -0.1064  0.0642  1.1739
  635TMC3    H2 9461   2.675   1.885   0.484 -0.3859  0.2681 -0.5711
  635TMC3    C7 9462   2.710   2.140   0.531  0.7044  0.2064  0.1139
  635TMC3    C8 9463   2.850   1.695   0.415 -0.1840  0.6326  0.3935
  635TMC3    O1 9464   2.594   2.100   0.512 -0.5218  0.2325 -0.1747
  635TMC3    O2 9465   2.929   1.630   0.353 -0.3125 -0.2989  0.0625
  636MPD2     C 9466   4.368   1.185  15.646  0.8108  0.5820  0.2306
  636MPD2    C1 9467   4.477   1.197  15.729  1.2019  0.3284 -0.2219
  636MPD2    C2 9468   4.552   1.082  15.751 -0.0456  0.6183  0.8807
  636MPD2    C3 9469   4.512   0.960  15.697  0.5037 -0.5678 -0.0203
  636MPD2    C4 9470   4.401   0.952  15.618 -0.5938 -0.3521  0.4778
  636MPD2    C5 9471   4.326   1.065  15.588 -0.3234 -0.2139 -0.2307
  636MPD2     H 9472   4.638   1.094  15.815  0.4633 -2.6232  0.7761
  636MPD2    H1 9473   4.362   0.869  15.560 -1.7880  0.8304 -0.4212
  636MPD2    H2 9474   4.305   1.272  15.628 -2.8448 -1.5363  2.6594
  636MPD2    H3 9475   4.233   1.060  15.532 -2.0824  0.1520  2.6457
  636MPD2     N 9476   4.590   0.846  15.732 -0.7227 -0.0466  0.5326
  636MPD2    H5 9477   4.681   0.864  15.775 -0.6978  1.0018  0.0316
  636MPD2    N1 9478   4.524   1.311  15.794 -0.1973 -0.7682 -0.5661
  636MPD2    H7 9479   4.603   1.294  15.856  0.8887  0.9473 -1.4786
  637TMC3    C1 9480   4.685   0.645  15.708 -0.0854 -0.2273 -0.2926
  637TMC3    C2 9481   0.014   0.647  15.818  0.3959 -0.0422  0.1891
  637TMC3    C3 9482   0.140   0.598  15.814 -0.5577 -0.0237 -0.2591
  637TMC3    C4 9483   4.739   0.610  15.580  0.0133 -0.0741 -0.0934
  637TMC3    C5 9484   0.128   0.585  15.574  0.5131 -0.2151  0.3833
  637TMC3    C6 9485   0.198   0.566  15.691 -0.7362 -0.7570  0.4264
  637TMC3     C 9486   4.573   0.721  15.687 -0.0336 -0.3720 -0.2659
  637TMC3     O 9487   4.479   0.660  15.632  0.3668 -0.8361  0.9238
  637TMC3     H 9488   4.724   0.678  15.916  1.7067 -0.3133  0.7211
  637TMC3    H1 9489   4.672   0.625  15.497  1.1274  0.9364 -0.8165
  637TMC3    H2 9490   0.304   0.548  15.684 -1.1424 -1.1046 -4.4452
  637TMC3    C7 9491   0.191   0.689  15.485  0.7306 -0.6354  0.9666
  637TMC3    C8 9492   0.207   0.676  15.912 -0.3577 -0.6809  0.3907
  637TMC3    O1 9493   0.303   0.723  15.529  0.0802 -0.3212 -0.3188
  637TMC3    O2 9494   0.172   0.687  16.030 -0.1787  0.2900 -0.0978
  638MPD2     C 9495   4.125   0.312  14.961  0.6928  0.4874  0.5952
  638MPD2    C1 9496   4.112   0.194  14.883  1.0824  0.6695 -0.3252
  638MPD2    C2 9497   4.084   0.074  14.947 -0.2997 -0.6984 -0.3774
  638MPD2    C3 9498   4.063   0.064  15.090 -0.2834  0.3495 -0.0688
  638MPD2    C4 9499   4.078   0.181  15.161  0.7617 -0.1749  0.4530
  638MPD2    C5 9500   4.103   0.306  15.094 -0.0730  0.0334 -0.1610
  638MPD2     H 9501   4.073   4.731  14.883 -0.5216 -0.3984 -0.7514
  638MPD2    H1 9502   4.076   0.176  15.269  1.1241  0.1308  0.4746
  638MPD2    H2 9503   4.153   0.407  14.916  0.3010  2.5070  4.6133
  638MPD2    H3 9504   4.110   0.393  15.158  0.8921 -0.3990  0.3084
  638MPD2     N 9505   4.048   4.685  15.152 -0.1065  0.1041 -0.5541
  638MPD2    H5 9506   4.035   4.609  15.086  0.6293  0.6882 -1.3676
  638MPD2    N1 9507   4.135   0.213  14.745 -0.2260 -0.4083 -0.2593
  638MPD2    H7 9508   4.167   0.304  14.710  0.4791 -1.2441 -1.8031
  639TMC3    C1 9509   4.044   4.524  15.323  0.2208  0.1509 -0.4695
  639TMC3    C2 9510   3.969   4.450  15.226  1.2073  0.3751 -0.0170
  639TMC3    C3 9511   4.009   4.320  15.200  0.2632 -0.1295  0.1777
  639TMC3    C4 9512   4.152   4.471  15.399  0.3951  0.0903 -0.0571
  639TMC3    C5 9513   4.187   4.348  15.352  0.7351 -0.1727  0.2621
  639TMC3    C6 9514   4.122   4.276  15.262  0.2233  0.5756  0.5332
  639TMC3     C 9515   4.055   4.660  15.293  0.2692 -0.1983  0.1917
  639TMC3     O 9516   4.114   4.729  15.375 -0.1646  0.1724 -0.1967
  639TMC3     H 9517   3.882   4.500  15.185  0.0040 -1.3468  0.4015
  639TMC3    H1 9518   4.217   4.528  15.464  0.5649  0.0696 -0.2084
  639TMC3    H2 9519   4.148   4.175  15.233 -0.0435  0.0541  2.1100
  639TMC3    C7 9520   4.327   4.307  15.366 -0.0710  0.2948  0.5381
  639TMC3    C8 9521   3.952   4.245  15.093 -0.1714  0.3270 -0.0221
  639TMC3    O1 9522   4.387   4.340  15.467  0.2228 -0.0210  0.6186
  639TMC3    O2 9523   4.026   4.199  15.005  0.4042 -0.1678 -0.2866
  640MPD2     C 9524   4.501   3.596  10.157 -0.4087 -0.0035 -0.0625
  640MPD2    C1 9525   4.578   3.708  10.170  0.5579  0.6131 -0.3014
  640MPD2    C2 9526   4.536   3.802  10.262 -0.2981  0.4692 -0.1993
  640MPD2    C3 9527   4.419   3.791  10.331 -0.2747  0.2882 -0.5762
  640MPD2    C4 9528   4.341   3.677  10.310  0.3674 -0.0933  0.0754
  640MPD2    C5 9529   4.382   3.579  10.223 -0.5100 -0.4253  0.3918
  640MPD2     H 9530   4.601   3.886  10.282 -0.9348  1.2695 -1.4590
  640MPD2    H1 9531   4.264   3.654  10.383  1.6107 -0.5149  1.2659
  640MPD2    H2 9532   4.539   3.531  10.079 -3.2113 -0.0498 -1.3923
  640MPD2    H3 9533   4.325   3.488  10.206  1.1554 -1.2172 -1.0300
  640MPD2     N 9534   4.385   3.880  10.435  0.2714 -0.4252 -0.3516
  640MPD2    H5 9535   4.310   3.859  10.500  0.2018  1.1912  0.0995
  640MPD2    N1 9536   4.699   3.717  10.090  0.0239 -0.3319 -0.2376
  640MPD2    H7 9537   4.721   3.639  10.030 -1.1573 -0.1376 -0.9244
  641TMC3    C1 9538   0.148   3.805   9.989 -1.0789  0.5540  0.4234
  641TMC3    C2 9539   0.213   3.684   9.992 -0.2448 -0.2043  0.1800
  641TMC3    C3 9540   0.346   3.678   9.978 -1.0516 -0.3516  0.2145
  641TMC3    C4 9541   0.220   3.919   9.957 -0.2251  0.0340 -0.2978
  641TMC3    C5 9542   0.355   3.904   9.927  0.2783  0.2937  1.1846
  641TMC3    C6 9543   0.418   3.787   9.936 -0.3993  0.2395 -0.3157
  641TMC3     C 9544   0.035   3.825  10.082  0.5437  0.5493  0.5875
  641TMC3     O 9545   0.032   3.932  10.141  0.1468 -0.4758  0.3458
  641TMC3     H 9546   0.161   3.593  10.019  0.0902 -0.3298  0.3889
  641TMC3    H1 9547   0.176   4.017   9.956 -1.3128 -0.4258  2.7179
  641TMC3    H2 9548   0.521   3.763   9.913 -1.1397 -2.5999 -0.7274
  641TMC3    C7 9549   0.417   4.006   9.842 -0.1273 -0.7051 -0.0939
  641TMC3    C8 9550   0.388   3.556   9.912  0.3302  0.6890 -0.1177
  641TMC3    O1 9551   0.526   3.972   9.793  0.3997  0.2268 -0.9652
  641TMC3    O2 9552   0.355   3.540   9.798  0.0251 -0.2691 -0.5881
  642TMC3    C1 9553   0.764   4.185  12.701  0.4140  0.1342  0.0468
  642TMC3    C2 9554   0.894   4.186  12.737  0.0617  0.1082 -0.5242
  642TMC3    C3 9555   0.966   4.075  12.707  0.2445  1.0185 -0.0986
  642TMC3    C4 9556   0.702   4.074  12.658  0.2501  0.0377 -0.0261
  642TMC3    C5 9557   0.771   3.959  12.648  0.5262  0.3110  0.4373
  642TMC3    C6 9558   0.910   3.959  12.672 -0.1989  0.2555 -0.0700
  642TMC3     C 9559   0.701   4.314  12.710 -0.1726  0.1223  0.1191
  642TMC3     O 9560   0.777   4.406  12.681  0.1085  0.9404  0.1277
  642TMC3     H 9561   0.925   4.277  12.788  2.8923  0.6183 -3.1608
  642TMC3    H1 9562   0.598   4.067  12.628  0.4171  0.4901 -0.7133
  642TMC3    H2 9563   0.954   3.860  12.663  0.3008  0.5690 -1.0743
  642TMC3    C7 9564   0.712   3.846  12.579  0.7734 -1.3001  0.4252
  642TMC3    C8 9565   1.104   4.049  12.750 -0.5489  0.4652  0.1656
  642TMC3    O1 9566   0.644   3.868  12.488 -0.2427  0.3028 -0.3651
  642TMC3    O2 9567   1.150   3.936  12.749  0.5117 -0.3466  0.1397
  643TMC3    C1 9568   0.303   3.875   0.417 -0.3033  0.6575  0.2272
  643TMC3    C2 9569   0.170   3.869   0.404 -0.5983 -0.1271  0.2416
  643TMC3    C3 9570   0.109   3.754   0.355 -0.4841 -0.4272  0.0631
  643TMC3    C4 9571   0.392   3.782   0.372  0.3913 -0.2150  0.4419
  643TMC3    C5 9572   0.330   3.686   0.305 -0.6159  0.2876  0.1677
  643TMC3    C6 9573   0.200   3.659   0.318  0.8133  0.2845 -0.8877
  643TMC3     C 9574   0.361   3.983   0.492 -0.1191  0.6144 -0.5871
  643TMC3     O 9575   0.286   4.075   0.511  0.1709  1.2306  0.6733
  643TMC3     H 9576   0.113   3.959   0.423 -0.4800  0.2943 -1.3972
  643TMC3    H1 9577   0.499   3.795   0.360  0.3088  0.1830  0.1478
  643TMC3    H2 9578   0.151   3.572   0.274  2.3307 -1.2601  0.4793
  643TMC3    C7 9579   0.371   3.692   0.172  0.1432  0.8495 -0.3550
  643TMC3    C8 9580   0.015   3.771   0.252 -0.4791 -0.3670 -0.2227
  643TMC3    O1 9581   0.421   3.796   0.131 -0.2800  0.7817 -0.1927
  643TMC3    O2 9582   4.668   3.691   0.240 -0.3473 -0.7093 -0.0802
  644MPD2     C 9583   0.646   0.183   9.632 -0.2560 -0.2838  0.7697
  644MPD2    C1 9584   0.608   0.101   9.741  0.2916  0.2281  0.4160
  644MPD2    C2 9585   0.517   0.147   9.838 -0.5187 -0.8278 -0.4753
  644MPD2    C3 9586   0.463   0.267   9.827  0.1894  0.3309  0.0183
  644MPD2    C4 9587   0.499   0.352   9.724 -0.2349 -0.6159 -0.5339
  644MPD2    C5 9588   0.585   0.310   9.631 -0.4680 -0.8289  0.1050
  644MPD2     H 9589   0.490   0.091   9.926 -0.3634  0.1597  0.2003
  644MPD2    H1 9590   0.465   0.454   9.708 -1.6422 -0.9628  0.1567
  644MPD2    H2 9591   0.719   0.152   9.558 -0.8163 -0.6183  0.3587
  644MPD2    H3 9592   0.606   0.386   9.557  1.5729 -1.4889  0.0073
  644MPD2     N 9593   0.374   0.318   9.931  0.5890 -0.3646  0.7165
  644MPD2    H5 9594   0.354   0.246   9.999 -0.0621 -0.9345 -0.0763
  644MPD2    N1 9595   0.670   4.717   9.744  0.9908  0.1086  0.5642
  644MPD2    H7 9596   0.719   4.693   9.659  0.1927 -0.8992  0.3833
  645TMC3    C1 9597   0.221   0.443  10.062 -0.2757  0.4492  0.2781
  645TMC3    C2 9598   0.120   0.532  10.057 -0.1011  0.3337  0.1355
  645TMC3    C3 9599   0.038   0.538  10.167  0.1810 -0.2488 -0.0891
  645TMC3    C4 9600   0.245   0.370  10.176  0.0709  0.0008  0.0942
  645TMC3    C5 9601   0.165   0.383  10.284  0.8933  0.7026  0.0307
  645TMC3    C6 9602   0.052   0.466  10.286  0.5243  0.5408 -0.0530
  645TMC3     C 9603   0.317   0.445   9.947  1.0335  0.2220  0.2760
  645TMC3     O 9604   0.327   0.549   9.878  0.4504  0.6027  0.3020
  645TMC3     H 9605   0.098   0.582   9.963  2.5548  1.0936 -0.0926
  645TMC3    H1 9606   0.328   0.300  10.181 -0.7047 -1.0174 -0.9554
  645TMC3    H2 9607   4.724   0.455  10.366 -0.2744 -0.4478 -0.9142
  645TMC3    C7 9608   0.206   0.297  10.396  0.6875 -0.1129 -0.2932
  645TMC3    C8 9609   4.674   0.635  10.157  1.5967  0.3685  0.1041
  645TMC3    O1 9610   0.293   0.210  10.382 -0.1781  0.0210  0.2556
  645TMC3    O2 9611   4.584   0.622  10.242  0.0521  0.2185  0.1738
  646MPD2     C 9612   4.531   3.561  14.629  0.5184  0.5763  0.5175
  646MPD2    C1 9613   4.445   3.588  14.736  0.0723 -0.0168 -0.0812
  646MPD2    C2 9614   4.311   3.626  14.707 -0.1545  0.4477  0.2422
  646MPD2    C3 9615   4.269   3.647  14.578 -0.1078  0.0441 -0.2253
  646MPD2    C4 9616   4.368   3.625  14.477  0.3139  0.4935 -0.2045
  646MPD2    C5 9617   4.492   3.591  14.507  0.0462  0.1317  0.3984
  646MPD2     H 9618   4.232   3.636  14.780  0.2046 -1.1069  0.8489
  646MPD2    H1 9619   4.340   3.635  14.373 -1.2074 -0.4589  0.1078
  646MPD2    H2 9620   4.636   3.540  14.643  0.5427 -1.5082 -2.7117
  646MPD2    H3 9621   4.553   3.565  14.421 -0.4172  3.3389 -0.9032
  646MPD2     N 9622   4.130   3.679  14.558 -0.5691  0.1832 -0.1275
  646MPD2    H5 9623   4.065   3.666  14.635  2.0932 -0.5949  2.0038
  646MPD2    N1 9624   4.501   3.586  14.863 -0.4298 -0.0808  0.1432
  646MPD2    H7 9625   4.599   3.561  14.871 -0.6069 -0.3956  1.3273
  647TMC3    C1 9626   4.512   3.602  15.103 -0.1562  0.2449 -0.7151
  647TMC3    C2 9627   4.445   3.555  15.211  0.4034  0.1665  0.5792
  647TMC3    C3 9628   4.521   3.503  15.317 -0.1330 -0.4089 -0.5619
  647TMC3    C4 9629   4.650   3.592  15.085  0.1725  0.1883 -0.1426
  647TMC3    C5 9630   4.712   3.517  15.182  0.7096  0.0838 -0.6025
  647TMC3    C6 9631   4.652   3.482  15.298  0.1849  0.4677 -0.4315
  647TMC3     C 9632   4.428   3.610  14.984  0.2832 -0.0441 -0.4639
  647TMC3     O 9633   4.305   3.616  15.000  0.5889  0.5324  0.3418
  647TMC3     H 9634   4.338   3.547  15.203  0.6458 -1.5543 -0.9729
  647TMC3    H1 9635   4.705   3.621  14.996 -0.2157  0.1450 -0.3958
  647TMC3    H2 9636   4.697   3.418  15.373  1.5176  1.1877 -0.6154
  647TMC3    C7 9637   0.112   3.497  15.169  0.4634  0.6098  0.0955
  647TMC3    C8 9638   4.453   3.439  15.432  0.6127  0.4191  0.4359
  647TMC3    O1 9639   0.162   3.454  15.270 -0.6695 -0.5014 -0.1511
  647TMC3    O2 9640   4.520   3.373  15.508  0.4664 -0.2825  0.0581
  648TMC3    C1 9641   4.046   1.627  16.224 -0.7755 -0.0659  0.2711
  648TMC3    C2 9642   4.155   1.542  16.213 -0.6051 -0.1268 -0.2087
  648TMC3    C3 9643   4.155   1.471  16.100  0.7029 -0.2881  0.9408
  648TMC3    C4 9644   3.936   1.631  16.140 -0.4672  0.2707 -0.0097
  648TMC3    C5 9645   3.945   1.548  16.030 -0.3678 -0.0985  0.2106
  648TMC3    C6 9646   4.053   1.468  16.003 -0.2832  0.4238  0.0878
  648TMC3     C 9647   4.005   1.654  16.359  0.1762  0.9048  0.7913
  648TMC3     O 9648   3.901   1.719  16.370  0.1332 -0.3063  0.4785
  648TMC3     H 9649   4.245   1.540  16.274  0.7216 -0.3668 -2.1381
  648TMC3    H1 9650   3.852   1.698  16.157 -0.0654  1.2447 -1.8574
  648TMC3    H2 9651   4.069   1.411  15.913  2.4388  1.3972 -0.0618
  648TMC3    C7 9652   3.835   1.533  15.939 -0.7740  0.0861  0.6365
  648TMC3    C8 9653   4.237   1.358  16.106 -0.1126 -0.5588  0.1909
  648TMC3    O1 9654   3.848   1.438  15.861 -0.0840  0.6678  0.4935
  648TMC3    O2 9655   4.346   1.353  16.162 -0.0860 -0.0688 -0.1458
  649TMC3    C1 9656   2.539   2.170  12.968 -0.1431  0.5772 -0.3153
  649TMC3    C2 9657   2.572   2.300  12.984  0.1527  0.4543 -0.2969
  649TMC3    C3 9658   2.583   2.345  13.115 -0.1435 -0.0098 -0.0152
  649TMC3    C4 9659   2.497   2.100  13.071 -0.1336  0.6058 -0.1465
  649TMC3    C5 9660   2.499   2.150  13.196  0.2400 -0.4054  0.1372
  649TMC3    C6 9661   2.545   2.277  13.224  0.0835  0.0193  0.0329
  649TMC3     C 9662   2.504   2.135  12.833 -1.4007 -0.5640 -0.4883
  649TMC3     O 9663   2.548   2.206  12.744 -0.1957  0.2929  0.3783
  649TMC3     H 9664   2.597   2.362  12.898  1.3448  0.9996  0.4308
  649TMC3    H1 9665   2.474   1.995  13.071 -1.1253  0.8133  1.0375
  649TMC3    H2 9666   2.535   2.315  13.326  2.5810  1.3943 -0.2386
  649TMC3    C7 9667   2.413   2.090  13.299  0.6547  0.6244 -0.0756
  649TMC3    C8 9668   2.668   2.455  13.135  0.6759 -0.3295  0.4604
  649TMC3    O1 9669   2.335   2.168  13.348 -0.9839  0.1398 -0.2907
  649TMC3    O2 9670   2.727   2.479  13.032 -0.1496 -0.1678 -0.7036
  650TMC3    C1 9671   0.059   3.398  12.934 -0.5366  0.2219  0.0476
  650TMC3    C2 9672   4.675   3.439  12.948 -0.0093  0.0615 -0.2077
  650TMC3    C3 9673   4.607   3.471  12.832 -0.1257 -0.0648  0.0505
  650TMC3    C4 9674   0.129   3.396  12.817 -0.5288  0.1059  0.6975
  650TMC3    C5 9675   0.054   3.432  12.707 -0.5131  0.3492  0.5475
  650TMC3    C6 9676   4.667   3.454  12.710  0.2864  0.1540 -0.1526
  650TMC3     C 9677   0.133   3.387  13.051 -0.1687  0.1577  0.6635
  650TMC3     O 9678   0.112   3.467  13.143 -0.5155  0.3261 -0.4753
  650TMC3     H 9679   4.643   3.468  13.048  0.6993  0.2830 -0.0511
  650TMC3    H1 9680   0.232   3.362  12.823 -0.0092  1.6163  0.2504
  650TMC3    H2 9681   4.619   3.474  12.615 -0.6131  2.2423  0.7437
  650TMC3    C7 9682   0.134   3.478  12.590  0.0348  0.0268 -0.4976
  650TMC3    C8 9683   4.521   3.585  12.843  0.6278 -0.7035  0.6089
  650TMC3    O1 9684   0.241   3.423  12.575 -0.2906  0.0578  0.0665
  650TMC3    O2 9685   4.528   3.654  12.943  0.0568 -0.2044 -0.3485
  651MPD2     C 9686   4.137   0.959  11.217  0.3429  0.0286  0.1529
  651MPD2    C1 9687   4.107   1.089  11.182 -0.4134 -1.3088  0.4800
  651MPD2    C2 9688   4.201   1.185  11.171  0.6563  0.8544 -0.1732
  651MPD2    C3 9689   4.336   1.150  11.200  0.1154 -0.2115  0.2488
  651MPD2    C4 9690   4.365   1.024  11.242  0.5847  0.2532  0.9648
  651MPD2    C5 9691   4.270   0.928  11.253 -0.2541  0.5435 -0.3775
  651MPD2     H 9692   4.174   1.282  11.131  0.4497 -0.1500 -2.4775
  651MPD2    H1 9693   4.466   0.990  11.261 -0.1004 -1.8445  0.8453
  651MPD2    H2 9694   4.059   0.885  11.230  0.8249 -0.2044  1.6909
  651MPD2    H3 9695   4.307   0.829  11.279  0.2951  0.5548 -1.1232
  651MPD2     N 9696   4.433   1.254  11.202  0.3607 -0.2015 -0.2546
  651MPD2    H5 9697   4.401   1.348  11.183  1.4154  0.2397  0.1421
  651MPD2    N1 9698   3.975   1.135  11.152  0.1324 -0.5486 -0.0914
  651MPD2    H7 9699   3.965   1.226  11.108 -1.6590 -0.7612 -0.1282
  652TMC3    C1 9700   0.123   1.414  11.088  0.0685 -0.6917  0.0566
  652TMC3    C2 9701   0.039   1.340  11.174  0.0246  0.4990  0.2761
  652TMC3    C3 9702   4.643   1.352  11.156 -0.1013 -0.0619 -0.4854
  652TMC3    C4 9703   0.071   1.499  10.999  0.1812 -0.0392  0.6977
  652TMC3    C5 9704   4.675   1.506  10.986  0.0061  0.1698  0.5663
  652TMC3    C6 9705   4.586   1.441  11.066 -0.4504  1.2288  0.0428
  652TMC3     C 9706   0.266   1.409  11.103 -0.5763 -1.0297  0.1010
  652TMC3     O 9707   0.326   1.309  11.137  0.0882  0.1798  0.0041
  652TMC3     H 9708   0.085   1.272  11.246 -0.4280 -2.3682 -2.1623
  652TMC3    H1 9709   0.136   1.546  10.925 -1.2211 -1.6279 -1.5510
  652TMC3    H2 9710   4.480   1.440  11.044 -0.5044  0.9946  0.3232
  652TMC3    C7 9711   4.626   1.591  10.878  0.3548 -0.3677 -0.3470
  652TMC3    C8 9712   4.568   1.240  11.218 -0.3196  0.2491  0.0450
  652TMC3    O1 9713   4.506   1.579  10.846 -0.1640 -0.0794  0.1518
  652TMC3    O2 9714   4.638   1.140  11.241  0.1228 -0.5410  0.4066
  653MPD2     C 9715   2.585   1.182  17.563 -0.5419  0.1972 -0.2548
  653MPD2    C1 9716   2.512   1.284  17.508 -0.1282  0.1953 -0.1847
  653MPD2    C2 9717   2.425   1.257  17.402  0.0512 -0.2737 -0.1227
  653MPD2    C3 9718   2.407   1.128  17.359 -0.5279 -0.4813 -0.5231
  653MPD2    C4 9719   2.481   1.029  17.424  0.0655 -0.2927  0.2750
  653MPD2    C5 9720   2.573   1.050  17.524 -0.4366  0.5112 -0.3071
  653MPD2     H 9721   2.376   1.341  17.355  0.3480  0.4038  0.7675
  653MPD2    H1 9722   2.455   0.929  17.392 -0.8659 -0.1655  0.6089
  653MPD2    H2 9723   2.663   1.197  17.637 -0.0597  1.5951 -1.0428
  653MPD2    H3 9724   2.630   0.971  17.571  1.3105  1.2400 -1.2070
  653MPD2     N 9725   2.319   1.105  17.250 -0.1933  0.7920 -0.5046
  653MPD2    H5 9726   2.283   1.182  17.194 -0.8345 -0.2929 -1.5838
  653MPD2    N1 9727   2.528   1.413  17.567 -0.0732 -0.3583  0.6873
  653MPD2    H7 9728   2.460   1.485  17.547  1.6049  0.9841 -0.1220
  654TMC3    C1 9729   2.248   0.998  17.051 -0.2090 -0.2860 -0.1423
  654TMC3    C2 9730   2.122   1.047  17.034 -1.0209  0.2489 -0.4090
  654TMC3    C3 9731   2.061   1.022  16.917 -0.2653  0.4473  0.2795
  654TMC3    C4 9732   2.302   0.914  16.971 -0.3940 -0.0092  0.6243
  654TMC3    C5 9733   2.237   0.873  16.861 -0.0487  0.2669 -0.1055
  654TMC3    C6 9734   2.125   0.946  16.824  0.5767  0.6986  0.1089
  654TMC3     C 9735   2.296   0.980  17.189 -0.0813 -0.5378  0.1283
  654TMC3     O 9736   2.336   0.867  17.215  0.6012 -0.6151  0.3696
  654TMC3     H 9737   2.075   1.106  17.113  0.3942 -0.5152  1.0168
  654TMC3    H1 9738   2.405   0.887  16.991 -0.5388 -0.6675  0.4799
  654TMC3    H2 9739   2.080   0.922  16.728 -0.3625  0.1453  0.6834
  654TMC3    C7 9740   2.300   0.788  16.757  0.2281 -0.4139  0.4290
  654TMC3    C8 9741   1.926   1.022  16.924 -0.2340 -0.3650 -0.3677
  654TMC3    O1 9742   2.271   0.826  16.641  0.2578  0.0489  0.1073
  654TMC3    O2 9743   1.871   1.087  17.010 -0.9378  0.4059 -0.0099
  655MPD2     C 9744   4.026   1.491  15.634  0.4047  0.5188 -0.0173
  655MPD2    C1 9745   3.938   1.577  15.570  0.6572  0.3153 -0.0164
  655MPD2    C2 9746   3.868   1.534  15.460  0.1937 -0.2040 -0.6577
  655MPD2    C3 9747   3.871   1.403  15.425 -0.1277 -1.1665 -1.2778
  655MPD2    C4 9748   3.952   1.311  15.498 -0.5822  1.0966  0.2618
  655MPD2    C5 9749   4.030   1.360  15.594 -0.3746 -0.3393  0.3292
  655MPD2     H 9750   3.795   1.599  15.413 -0.2179 -0.9721 -1.0840
  655MPD2    H1 9751   3.973   1.208  15.472 -1.6709  0.9122  0.1048
  655MPD2    H2 9752   4.092   1.512  15.718  2.1784  1.6672 -1.6969
  655MPD2    H3 9753   4.107   1.301  15.642 -0.5271 -0.8686 -0.0693
  655MPD2     N 9754   3.820   1.362  15.297 -0.1012 -0.4970  0.1726
  655MPD2    H5 9755   3.805   1.264  15.273 -1.1408 -0.6252  1.3360
  655MPD2    N1 9756   3.925   1.717  15.602 -0.2321  0.3480 -0.1490
  655MPD2    H7 9757   3.851   1.769  15.556 -0.3768  1.3085  1.1751
  656TMC3    C1 9758   3.915   1.911  15.727 -0.7246  0.0230  0.0192
  656TMC3    C2 9759   3.880   1.941  15.855 -0.0940  0.1575 -0.5592
  656TMC3    C3 9760   3.771   2.024  15.881  0.1270  0.3539 -0.2631
  656TMC3    C4 9761   3.842   1.960  15.622 -0.2194 -0.6918  0.3708
  656TMC3    C5 9762   3.727   2.033  15.652 -0.3060 -0.0191  0.8041
  656TMC3    C6 9763   3.693   2.077  15.778  0.3344 -0.3971  0.8059
  656TMC3     C 9764   3.988   1.790  15.703  0.0799  0.1213 -0.2107
  656TMC3     O 9765   4.067   1.754  15.789  0.0870  0.3895  0.7063
  656TMC3     H 9766   3.939   1.902  15.937 -2.3965 -1.5598  0.2874
  656TMC3    H1 9767   3.867   1.952  15.517 -1.1327  0.6795  0.0440
  656TMC3    H2 9768   3.604   2.135  15.798  0.7347  0.2127  0.7985
  656TMC3    C7 9769   3.625   1.995  15.558  0.0736 -0.0764  0.0180
  656TMC3    C8 9770   3.715   2.002  16.010  0.2951  0.1978 -0.8668
  656TMC3    O1 9771   3.661   1.907  15.477 -0.0028 -0.5068 -0.0752
  656TMC3    O2 9772   3.769   1.913  16.080 -0.2714  0.0396 -0.3500
  657TMC3    C1 9773   2.872   0.320  15.337 -0.1220 -0.3835 -0.0511
  657TMC3    C2 9774   2.923   0.324  15.459  0.3639  0.0249 -0.5749
  657TMC3    C3 9775   2.847   0.310  15.570  0.1117 -0.0864 -0.3331
  657TMC3    C4 9776   2.739   0.290  15.318 -0.3470 -0.3138  0.1650
  657TMC3    C5 9777   2.666   0.269  15.434 -0.1724 -0.2967 -0.3336
  657TMC3    C6 9778   2.717   0.288  15.557  0.1636  0.1478  0.2937
  657TMC3     C 9779   2.951   0.274  15.223  0.2489  0.6741  0.0067
  657TMC3     O 9780   2.889   0.264  15.116 -0.1562 -0.6735 -0.1812
  657TMC3     H 9781   3.021   0.370  15.466 -1.1160  3.2940 -1.5655
  657TMC3    H1 9782   2.691   0.301  15.221 -2.0266 -1.9603  0.8121
  657TMC3    H2 9783   2.654   0.289  15.645  3.1705  3.6679  2.3761
  657TMC3    C7 9784   2.534   0.209  15.428  0.3800  0.5720  0.1567
  657TMC3    C8 9785   2.896   0.360  15.696  0.0735  0.2295  0.2717
  657TMC3    O1 9786   2.469   0.209  15.527  0.2673  0.5051  0.0846
  657TMC3    O2 9787   2.806   0.407  15.769 -0.2726 -0.1093 -0.3432
  658MPD2     C 9788   4.094   1.298  14.628 -0.1767  0.4517 -0.0887
  658MPD2    C1 9789   3.956   1.286  14.614  0.0877 -0.0291 -0.2963
  658MPD2    C2 9790   3.898   1.240  14.495  0.9769 -0.4938  0.0668
  658MPD2    C3 9791   3.983   1.210  14.391 -0.2031  0.4167 -0.6087
  658MPD2    C4 9792   4.123   1.200  14.412 -0.6850  0.1097  0.4382
  658MPD2    C5 9793   4.176   1.248  14.532 -0.2752  0.4160  0.1708
  658MPD2     H 9794   3.790   1.227  14.485  0.7167  0.6677  1.4166
  658MPD2    H1 9795   4.194   1.171  14.335 -1.8779  2.1035 -1.4265
  658MPD2    H2 9796   4.141   1.344  14.713 -0.9026  0.2394  0.4241
  658MPD2    H3 9797   4.281   1.262  14.552 -0.3027  0.2275  0.4536
  658MPD2     N 9798   3.921   1.194  14.262 -0.1262  0.7541 -0.1612
  658MPD2    H5 9799   3.820   1.200  14.260 -0.0886  1.9082  1.8817
  658MPD2    N1 9800   3.884   1.320  14.730 -0.6727 -0.2121  0.6926
  658MPD2    H7 9801   3.935   1.336  14.816  1.3382 -1.1408 -0.3352
  659TMC3    C1 9802   3.699   1.329  14.868  0.0695  0.8301 -0.5546
  659TMC3    C2 9803   3.757   1.405  14.968  0.3187 -0.1913 -0.1211
  659TMC3    C3 9804   3.710   1.389  15.094  0.5633  0.0715  0.0403
  659TMC3    C4 9805   3.592   1.246  14.890  0.2796 -1.0229  0.0155
  659TMC3    C5 9806   3.552   1.224  15.023 -0.8189 -0.3346 -0.1447
  659TMC3    C6 9807   3.609   1.295  15.126 -0.5109 -0.8863 -0.5243
  659TMC3     C 9808   3.747   1.329  14.732  0.0560  0.4065  0.5898
  659TMC3     O 9809   3.661   1.317  14.650 -0.4573 -0.4241  0.1291
  659TMC3     H 9810   3.846   1.463  14.944  0.8777 -1.5119 -1.2009
  659TMC3    H1 9811   3.539   1.193  14.813  2.1948 -3.4175  0.3263
  659TMC3    H2 9812   3.588   1.268  15.228 -0.9754 -0.8170 -0.6024
  659TMC3    C7 9813   3.428   1.148  15.056 -0.3905 -0.6659 -0.6146
  659TMC3    C8 9814   3.782   1.450  15.203 -0.2157  0.8397  0.3201
  659TMC3    O1 9815   3.408   1.127  15.176 -0.2243 -0.0425  0.1402
  659TMC3    O2 9816   3.828   1.556  15.173 -0.5830 -0.1921 -0.4738
  660MPD2     C 9817   2.196   4.137  12.671  0.3198 -0.0814 -0.0542
  660MPD2    C1 9818   2.119   4.216  12.752  0.7416 -0.2475 -0.1303
  660MPD2    C2 9819   2.118   4.187  12.883 -0.0049  0.7490  0.4092
  660MPD2    C3 9820   2.189   4.082  12.936 -0.4355 -0.6885  0.8608
  660MPD2    C4 9821   2.275   4.013  12.850  0.5632 -0.3804 -0.9816
  660MPD2    C5 9822   2.277   4.039  12.717 -0.2447 -0.1344  0.5620
  660MPD2     H 9823   2.061   4.243  12.957 -2.5637  0.9405 -1.7129
  660MPD2    H1 9824   2.335   3.935  12.897 -0.8401 -1.0312 -0.2786
  660MPD2    H2 9825   2.195   4.153  12.563  0.4530  1.3298  0.1534
  660MPD2    H3 9826   2.340   3.982  12.651  1.2708  1.7550  0.3660
  660MPD2     N 9827   2.175   4.054  13.072 -0.3403  0.0615 -0.2996
  660MPD2    H5 9828   2.095   4.089  13.124  0.4986  0.4550  0.7334
  660MPD2    N1 9829   2.046   4.318  12.689 -0.2542 -0.5146 -0.0617
  660MPD2    H7 9830   2.054   4.326  12.588 -1.4007 -0.4957 -0.1559
  661TMC3    C1 9831   1.865   4.479  12.679 -0.0786  0.1345 -0.5349
  661TMC3    C2 9832   1.932   4.560  12.596 -0.1161  1.3352  0.6091
  661TMC3    C3 9833   1.869   4.682  12.570  0.1649  0.0932  0.0094
  661TMC3    C4 9834   1.740   4.514  12.730 -0.5994 -0.1407 -0.0252
  661TMC3    C5 9835   1.678   4.633  12.701  0.5422 -0.2030  0.1822
  661TMC3    C6 9836   1.747   4.725  12.623  0.1195  0.6389  0.1253
  661TMC3     C 9837   1.936   4.377  12.757  0.4442 -0.5561  0.0214
  661TMC3     O 9838   1.896   4.362  12.871  0.3577 -0.5265  0.2957
  661TMC3     H 9839   2.031   4.540  12.557 -0.6964  1.6656 -1.0151
  661TMC3    H1 9840   1.686   4.435  12.783 -0.9769  1.2913  1.7099
  661TMC3    H2 9841   1.713   0.084  12.631 -0.1129  0.6766 -1.3844
  661TMC3    C7 9842   1.530   4.647  12.714  0.4057 -0.6778  0.1999
  661TMC3    C8 9843   1.938   0.018  12.470 -0.9256  0.6388 -0.2079
  661TMC3    O1 9844   1.482   0.017  12.731 -0.2541  0.6874 -0.0124
  661TMC3    O2 9845   2.057   4.728  12.457  0.4628 -0.1799 -0.1503
  662MPD2     C 9846   2.608   4.072  17.081  0.6026 -0.2327 -0.0535
  662MPD2    C1 9847   2.542   3.994  17.180  0.8418 -0.7006  0.2651
  662MPD2    C2 9848   2.461   4.054  17.270  0.0242 -0.6379 -0.1165
  662MPD2    C3 9849   2.425   4.188  17.260 -0.1778 -0.2157 -0.7329
  662MPD2    C4 9850   2.502   4.269  17.175  0.7366  0.3444  0.1732
  662MPD2    C5 9851   2.599   4.213  17.092 -0.6422 -0.8221 -0.5376
  662MPD2     H 9852   2.407   4.001  17.348 -2.0784  2.6268  0.6596
  662MPD2    H1 9853   2.484   4.376  17.176 -1.1058  0.0073  2.5043
  662MPD2    H2 9854   2.657   4.029  16.995 -0.4808  0.1994 -0.8907
  662MPD2    H3 9855   2.647   4.276  17.019 -0.4916 -0.1631  0.1353
  662MPD2     N 9856   2.341   4.258  17.357 -0.6362  0.1234 -0.1488
  662MPD2    H5 9857   2.322   4.355  17.338  1.0091  0.2050 -1.4461
  662MPD2    N1 9858   2.551   3.851  17.178  0.1577 -0.2023 -0.1543
  662MPD2    H7 9859   2.505   3.796  17.249  0.6559  1.2501  1.2866
  663TMC3    C1 9860   2.572   3.639  17.084  0.4325  0.5611 -0.7158
  663TMC3    C2 9861   2.479   3.605  16.989 -0.4250  0.0881 -0.3560
  663TMC3    C3 9862   2.354   3.555  17.028  1.0547 -0.4720 -0.0624
  663TMC3    C4 9863   2.539   3.625  17.212  0.3168 -0.3380  0.0310
  663TMC3    C5 9864   2.443   3.539  17.243  0.1337  0.6034  0.1695
  663TMC3    C6 9865   2.348   3.497  17.156  0.5169  0.1519  0.0761
  663TMC3     C 9866   2.601   3.780  17.066 -0.4334 -0.2254  0.3496
  663TMC3     O 9867   2.659   3.817  16.966 -0.2999  0.5141  0.5211
  663TMC3     H 9868   2.485   3.673  16.905  0.5802  1.1067  0.5465
  663TMC3    H1 9869   2.613   3.644  17.289 -1.6074  2.8307  1.1192
  663TMC3    H2 9870   2.256   3.464  17.203  1.3588 -1.7077  0.3877
  663TMC3    C7 9871   2.467   3.437  17.350 -0.3124 -0.1913 -0.7119
  663TMC3    C8 9872   2.248   3.653  16.998 -0.7619 -1.1999  0.1782
  663TMC3    O1 9873   2.558   3.464  17.431 -0.4248 -0.2898 -0.6783
  663TMC3    O2 9874   2.238   3.709  16.889  0.7729 -0.5501 -0.2298
  664MPD2     C 9875   4.369   2.924  17.511 -0.2592  0.0595  0.4762
  664MPD2    C1 9876   4.504   2.932  17.492 -0.4498  0.5937  0.2164
  664MPD2    C2 9877   4.580   2.882  17.586  0.2420 -0.4041  0.5919
  664MPD2    C3 9878   4.535   2.835  17.709 -0.2467 -0.0509  0.3137
  664MPD2    C4 9879   4.400   2.825  17.724 -0.6528  0.0696  0.1386
  664MPD2    C5 9880   4.319   2.872  17.623 -0.0843 -0.4534  0.3792
  664MPD2     H 9881   4.686   2.886  17.560 -0.0484 -0.5621 -0.6026
  664MPD2    H1 9882   4.353   2.806   0.047 -0.8913 -0.2244 -0.0388
  664MPD2    H2 9883   4.297   2.962  17.440  1.1475  2.8037  0.4794
  664MPD2    H3 9884   4.211   2.866  17.628 -0.1324 -0.0196 -0.2050
  664MPD2     N 9885   4.620   2.807   0.046  0.0019 -0.2528  0.3759
  664MPD2    H5 9886   4.719   2.829   0.033  0.0296 -1.2915 -1.1667
  664MPD2    N1 9887   4.559   2.991  17.377 -0.3778  0.1589  0.6793
  664MPD2    H7 9888   4.660   2.978  17.369 -0.2495  0.1160  2.4719
  665TMC3    C1 9889   4.711   2.724   0.254  0.5396 -0.6957 -0.0879
  665TMC3    C2 9890   4.674   2.694   0.385  0.2941  0.2285  0.6032
  665TMC3    C3 9891   0.022   2.719   0.488 -0.5882  0.0758 -0.0462
  665TMC3    C4 9892   0.086   2.780   0.223  0.3408 -0.1730  0.7533
  665TMC3    C5 9893   0.171   2.822   0.328 -0.8669  0.9221 -0.0046
  665TMC3    C6 9894   0.139   2.782   0.457 -0.3327  0.9672 -0.1410
  665TMC3     C 9895   4.595   2.729   0.159  0.4711  0.5776  0.4618
  665TMC3     O 9896   4.505   2.656   0.183  0.1274  0.2763 -0.3266
  665TMC3     H 9897   4.579   2.644   0.397  0.1780 -0.0326 -1.4648
  665TMC3    H1 9898   0.113   2.806   0.121  1.1292 -0.9478  0.7680
  665TMC3    H2 9899   0.212   2.796   0.536 -0.0930 -0.4829 -0.0958
  665TMC3    C7 9900   0.303   2.875   0.303 -0.0774  0.0162 -0.6787
  665TMC3    C8 9901   4.729   2.699   0.627 -0.6214  0.9164 -0.2136
  665TMC3    O1 9902   0.359   2.846   0.199 -0.4638 -0.6630  0.0206
  665TMC3    O2 9903   0.071   2.735   0.706 -0.0117 -0.5501  0.0333
  666TMC3    C1 9904   4.713   3.116  10.168  0.3351  0.6629  1.0310
  666TMC3    C2 9905   0.074   3.031  10.165  0.1997  0.1244  0.5077
  666TMC3    C3 9906   0.198   3.079  10.174 -1.2926 -0.5129  0.2917
  666TMC3    C4 9907   4.737   3.253  10.179  0.2429 -0.4337 -0.6090
  666TMC3    C5 9908   0.124   3.299  10.184  0.4170 -0.2801 -0.2592
  666TMC3    C6 9909   0.229   3.212  10.168  0.4826  0.1316 -0.1939
  666TMC3     C 9910   4.575   3.074  10.191 -0.2784 -0.1815 -0.1103
  666TMC3     O 9911   4.494   3.161  10.219  0.0544  0.6935  0.5256
  666TMC3     H 9912   0.048   2.926  10.156 -1.9801  0.6541  0.5532
  666TMC3    H1 9913   4.657   3.325  10.168  0.7705  0.2392  0.0101
  666TMC3    H2 9914   0.331   3.249  10.166 -0.4212  2.6118 -0.4231
  666TMC3    C7 9915   0.151   3.421  10.262 -0.0471  0.3190 -1.2029
  666TMC3    C8 9916   0.301   2.976  10.195  0.4227  0.2325  0.4039
  666TMC3    O1 9917   0.256   3.475  10.230  0.2428 -0.1373  0.3713
  666TMC3    O2 9918   0.265   2.861  10.174  0.3351  0.6505  0.6481
  667MPD2     C 9919   1.399   2.662  14.697  0.6472  0.2546 -0.1960
  667MPD2    C1 9920   1.354   2.675  14.825  0.2622 -1.4789 -0.7503
  667MPD2    C2 9921   1.246   2.599  14.871  0.2804  0.1220  0.8547
  667MPD2    C3 9922   1.195   2.499  14.797  0.1004  0.6420  0.0264
  667MPD2    C4 9923   1.244   2.478  14.670 -0.9299 -1.1402 -0.0158
  667MPD2    C5 9924   1.345   2.561  14.616 -0.5632 -0.5300  0.5616
  667MPD2     H 9925   1.204   2.611  14.970  0.1944  0.0327  0.8281
  667MPD2    H1 9926   1.212   2.394  14.609 -0.4333 -0.0698 -1.7442
  667MPD2    H2 9927   1.466   2.731  14.647  0.5061  2.0155  2.0591
  667MPD2    H3 9928   1.379   2.556  14.513 -0.0927  0.3081  0.6775
  667MPD2     N 9929   1.102   2.412  14.848  0.0811  0.1109 -0.0651
  667MPD2    H5 9930   1.062   2.350  14.778  0.1462 -0.2266  0.2002
  667MPD2    N1 9931   1.393   2.772  14.916  0.5044 -0.2540  0.0312
  667MPD2    H7 9932   1.346   2.764  15.005  1.2283  2.3048  0.6543
  668TMC3    C1 9933   1.515   2.943  15.012  0.0118 -0.1047  0.4927
  668TMC3    C2 9934   1.597   3.055  15.000  0.1774  0.1152 -0.7020
  668TMC3    C3 9935   1.638   3.119  15.117 -0.0003 -0.2684  0.0612
  668TMC3    C4 9936   1.494   2.887  15.139 -0.0670  0.5567  0.1328
  668TMC3    C5 9937   1.544   2.953  15.252 -0.1360  0.0160 -0.0276
  668TMC3    C6 9938   1.621   3.075  15.245  0.0310  0.3456  0.0899
  668TMC3     C 9939   1.470   2.880  14.888 -0.3828  0.2884  0.2863
  668TMC3     O 9940   1.512   2.917  14.779  0.3878 -0.3097 -0.1686
  668TMC3     H 9941   1.611   3.101  14.902 -1.5499 -0.2212 -1.1038
  668TMC3    H1 9942   1.477   2.781  15.149  0.4199  0.4805  0.1471
  668TMC3    H2 9943   1.641   3.125  15.339 -0.3393 -0.8403  0.8013
  668TMC3    C7 9944   1.501   2.915  15.385  0.1394  1.0087  0.0965
  668TMC3    C8 9945   1.753   3.214  15.105 -0.0706  0.1503  0.0971
  668TMC3    O1 9946   1.563   2.944  15.486  0.7422 -0.4716  0.0642
  668TMC3    O2 9947   1.794   3.271  15.209 -0.6009  0.3076  0.3067
  669TMC3    C1 9948   4.098   2.780  14.626  0.1533  0.3158 -0.1238
  669TMC3    C2 9949   4.027   2.688  14.550 -0.5582 -0.2477 -0.0811
  669TMC3    C3 9950   4.042   2.703  14.416 -0.1430  0.2057 -0.1481
  669TMC3    C4 9951   4.188   2.869  14.574 -0.3505  0.3479 -0.0961
  669TMC3    C5 9952   4.200   2.880  14.437  0.0364 -0.4103 -0.6891
  669TMC3    C6 9953   4.128   2.789  14.354  0.2170  0.2191  0.5281
  669TMC3     C 9954   4.093   2.751  14.770 -0.1720 -0.3250  0.0405
  669TMC3     O 9955   3.998   2.686  14.811 -0.4766 -0.2012  0.2692
  669TMC3     H 9956   3.960   2.613  14.591 -1.2790 -0.5588 -1.8292
  669TMC3    H1 9957   4.226   2.956  14.627 -3.0769  2.0632 -0.9899
  669TMC3    H2 9958   4.140   2.774  14.247 -0.0080 -1.1707  0.6998
  669TMC3    C7 9959   4.306   2.957  14.383 -0.2885  0.1889  0.5144
  669TMC3    C8 9960   3.964   2.616  14.331  0.2515  1.0305 -0.3930
  669TMC3    O1 9961   4.404   2.977  14.449 -0.3034 -0.0141  0.2794
  669TMC3    O2 9962   3.940   2.507  14.382  0.8679  0.8758  0.5838
  670MPD2     C 9963   2.499   0.620  13.505  0.3421  0.2275 -0.2425
  670MPD2    C1 9964   2.549   0.644  13.641 -0.1077 -0.8465  1.0906
  670MPD2    C2 9965   2.483   0.577  13.739 -0.1822  0.4529  1.0309
  670MPD2    C3 9966   2.381   0.483  13.722 -0.5234  0.3876 -0.5133
  670MPD2    C4 9967   2.333   0.466  13.596  0.1634 -0.4513 -0.4384
  670MPD2    C5 9968   2.397   0.536  13.492 -0.4883  0.0168  0.0311
  670MPD2     H 9969   2.510   0.602  13.841 -1.0227 -0.7010  1.5494
  670MPD2    H1 9970   2.249   0.401  13.576  0.9723 -1.4987 -0.3845
  670MPD2    H2 9971   2.554   0.656  13.418  0.5407  1.3858  0.3624
  670MPD2    H3 9972   2.357   0.517  13.393  1.2764  3.1640 -1.2671
  670MPD2     N 9973   2.327   0.409  13.833 -0.1601 -0.4429 -0.2534
  670MPD2    H5 9974   2.377   0.425  13.920  0.1403 -0.0777 -0.4973
  670MPD2    N1 9975   2.653   0.740  13.674 -0.3763  0.1869 -0.3539
  670MPD2    H7 9976   2.682   0.746  13.771  1.1464 -2.5775 -0.6459
  671TMC3    C1 9977   2.193   0.264  13.964 -0.6863  0.3896  0.7392
  671TMC3    C2 9978   2.290   0.195  14.031 -0.0993  0.4197  0.4391
  671TMC3    C3 9979   2.261   0.086  14.105  0.1395 -0.1540 -0.4850
  671TMC3    C4 9980   2.056   0.232  13.997  0.6055  0.1808 -1.3530
  671TMC3    C5 9981   2.026   0.133  14.085  0.1081 -0.1656  0.5548
  671TMC3    C6 9982   2.127   0.057  14.129  0.2656  0.4291  1.0678
  671TMC3     C 9983   2.228   0.314  13.832 -0.0362  0.0096  0.2449
  671TMC3     O 9984   2.139   0.296  13.752 -0.1216 -0.3872 -0.3667
  671TMC3     H 9985   2.392   0.196  13.996  0.2040  0.2282  1.3369
  671TMC3    H1 9986   1.985   0.277  13.929  1.2251  3.1951 -0.0320
  671TMC3    H2 9987   2.103   4.704  14.170 -0.2628  1.0390  2.2216
  671TMC3    C7 9988   1.928   0.043  14.018  0.3305  0.8286 -0.3236
  671TMC3    C8 9989   2.364   4.735  14.143  0.4778  0.4143 -0.6675
  671TMC3    O1 9990   1.945   4.666  13.992  0.0131  0.1515 -0.1236
  671TMC3    O2 9991   2.462   0.002  14.069  0.2113 -0.1192  0.0225
  672MPD2     C 9992   2.592   0.903   0.778  0.3035 -0.4974  0.1245
  672MPD2    C1 9993   2.706   0.883   0.705 -0.1772  0.7209  0.5138
  672MPD2    C2 9994   2.813   0.977   0.716  0.1728  0.4089  0.0764
  672MPD2    C3 9995   2.804   1.070   0.819 -0.7002  1.0276  0.7341
  672MPD2    C4 9996   2.695   1.079   0.905 -0.0100  0.3699 -0.5535
  672MPD2    C5 9997   2.587   1.000   0.879  0.4943  0.3915 -0.9543
  672MPD2     H 9998   2.895   0.977   0.645 -0.3922  4.0024 -0.5349
  672MPD2    H1 9999   2.691   1.154   0.983  0.8808 -0.0021 -0.1477
  672MPD2    H210000   2.505   0.837   0.777 -0.7404  0.8982 -1.2177
  672MPD2    H310001   2.500   1.013   0.942 -0.8632  0.5549 -2.8654
  672MPD2     N10002   2.893   1.174   0.831 -0.6731  0.9875 -0.7144
  672MPD2    H510003   2.881   1.253   0.894  0.5329 -0.0396  0.8223
  672MPD2    N110004   2.722   0.795   0.598  0.1829  0.2634 -0.6096
  672MPD2    H710005   2.811   0.786   0.548 -1.3194  3.2575 -3.8485
  673TMC3    C110006   2.650   0.631   0.432 -0.1697 -0.5694 -0.1277
  673TMC3    C210007   2.777   0.578   0.417 -0.0484 -0.8891  0.1398
  673TMC3    C310008   2.795   0.494   0.314 -0.1158  0.7356  1.3084
  673TMC3    C410009   2.541   0.614   0.347 -0.5218 -0.0186  0.4481
  673TMC3    C510010   2.573   0.532   0.242  0.0059  0.1018 -0.8274
  673TMC3    C610011   2.688   0.462   0.227  0.1418 -0.0169  0.3326
  673TMC3     C10012   2.621   0.713   0.553 -0.1313  0.5816  0.1932
  673TMC3     O10013   2.506   0.716   0.591 -0.0770  0.8852 -0.7105
  673TMC3     H10014   2.853   0.584   0.494  0.6195 -2.2738 -0.4189
  673TMC3    H110015   2.452   0.677   0.354  1.4133  2.6640  0.9953
  673TMC3    H210016   2.698   0.374   0.164 -3.0182  1.1867 -1.8281
  673TMC3    C710017   2.493   0.528   0.119  0.2589  0.3301  0.0974
  673TMC3    C810018   2.928   0.425   0.297  0.2760 -0.1832 -0.4978
  673TMC3    O110019   2.532   0.458   0.027 -0.2353 -0.7124  0.5171
  673TMC3    O210020   2.926   0.331   0.213 -0.7995 -0.0109 -0.1371
  674MPD2     C10021   2.116   0.582  17.061  0.0580 -0.0231  0.3449
  674MPD2    C110022   2.191   0.511  17.149 -0.8587 -0.5890  0.3622
  674MPD2    C210023   2.154   0.511  17.284  1.4186  0.1202 -0.2329
  674MPD2    C310024   2.057   0.602  17.335 -0.7763  0.0019 -0.8184
  674MPD2    C410025   1.995   0.681  17.241 -0.3660 -0.5223  0.6454
  674MPD2    C510026   2.017   0.671  17.107 -0.2332 -0.8320  0.3456
  674MPD2     H10027   2.208   0.440  17.346 -0.3639  0.8750  2.1864
  674MPD2    H110028   1.917   0.750  17.271 -0.6414  0.2537 -1.8783
  674MPD2    H210029   2.126   0.562  16.955 -0.1893  0.3820  0.2455
  674MPD2    H310030   1.955   0.733  17.043  0.4502  0.9717  1.4256
  674MPD2     N10031   2.033   0.602  17.477 -0.3458  0.7099 -0.3919
  674MPD2    H510032   2.098   0.558  17.540 -2.3977 -1.0542  0.4938
  674MPD2    N110033   2.288   0.419  17.079  0.7270 -0.0900  0.8536
  674MPD2    H710034   2.274   0.400  16.981 -3.5626  0.8662  1.2964
  675TMC3    C110035   2.422   0.347  17.279 -0.6029 -0.3648 -0.2580
  675TMC3    C210036   2.429   0.237  17.349 -0.9875 -0.5977  0.3294
  675TMC3    C310037   2.508   0.240  17.457  0.4643 -0.4425 -0.1562
  675TMC3    C410038   2.492   0.460  17.304 -0.1774 -0.0107  0.0204
  675TMC3    C510039   2.576   0.459  17.415  0.2397  0.1918 -0.5033
  675TMC3    C610040   2.579   0.347  17.494  0.1022  0.4117 -0.0917
  675TMC3     C10041   2.375   0.329  17.143  0.5461 -0.2436  0.2737
  675TMC3     O10042   2.433   0.239  17.086  0.8557  0.3232 -0.1437
  675TMC3     H10043   2.366   0.152  17.324 -0.3607 -1.3004  1.1444
  675TMC3    H110044   2.484   0.535  17.226 -1.6982 -0.5377 -0.3468
  675TMC3    H210045   2.646   0.330  17.577 -1.8726 -1.2586  1.1825
  675TMC3    C710046   2.648   0.579  17.445  0.3103  0.1924 -0.4227
  675TMC3    C810047   2.471   0.144  17.557  0.0967  0.2181  0.8193
  675TMC3    O110048   2.663   0.655  17.354  0.0879 -0.4847  0.2752
  675TMC3    O210049   2.415   0.044  17.523  0.4941 -0.0114  0.1942
  676MPD2     C10050   0.388   3.849  11.244  0.5335  0.0557 -0.0161
  676MPD2    C110051   0.271   3.830  11.317  0.3638 -0.1247  0.3082
  676MPD2    C210052   0.212   3.707  11.309  0.5226  0.1265  0.2931
  676MPD2    C310053   0.266   3.604  11.238 -0.0618  0.2359 -1.2056
  676MPD2    C410054   0.378   3.623  11.169  0.1479 -0.7799  0.0355
  676MPD2    C510055   0.441   3.748  11.173 -0.7624  0.7430 -0.2231
  676MPD2     H10056   0.126   3.711  11.375 -1.6304  0.4114 -2.5286
  676MPD2    H110057   0.423   3.540  11.115 -1.9363 -1.5265 -0.5660
  676MPD2    H210058   0.439   3.944  11.244 -0.1596  0.4237  1.3889
  676MPD2    H310059   0.529   3.767  11.112  1.6560 -2.9009  2.1669
  676MPD2     N10060   0.218   3.470  11.248  0.2450 -0.0346 -0.0244
  676MPD2    H510061   0.267   3.392  11.205  2.8267  1.2672  0.5606
  676MPD2    N110062   0.214   3.932  11.395  0.5915 -0.3285 -0.2408
  676MPD2    H710063   0.132   3.908  11.450  1.3915 -3.4740 -0.3984
  677TMC3    C110064   0.208   4.097  11.549  0.0240  0.0845  0.3768
  677TMC3    C210065   0.078   4.056  11.576 -0.2741 -0.1847 -0.6567
  677TMC3    C310066   0.018   4.073  11.697  0.0327 -0.2587 -0.1932
  677TMC3    C410067   0.290   4.132  11.651  0.5619 -0.7396 -0.1749
  677TMC3    C510068   0.235   4.143  11.776  0.0326 -0.6054 -0.2198
  677TMC3    C610069   0.105   4.123  11.796 -0.4054 -0.1297 -0.6144
  677TMC3     C10070   0.278   4.039  11.442  0.0900 -0.1239  0.2878
  677TMC3     O10071   0.393   4.077  11.413 -0.1944  0.7044  0.2235
  677TMC3     H10072   0.012   4.015  11.500  1.2973 -0.2023 -1.9972
  677TMC3    H110073   0.396   4.124  11.629 -0.0816  0.1345 -3.5328
  677TMC3    H210074   0.056   4.137  11.892  2.2864 -0.5712  0.8210
  677TMC3    C710075   0.310   4.094  11.887 -0.4926 -1.0207 -0.4594
  677TMC3    C810076   4.706   3.941  11.729  0.7499  1.3341 -0.2610
  677TMC3    O110077   0.244   4.031  11.965  0.3685 -0.0665  0.2341
  677TMC3    O210078   4.737   3.855  11.645  0.6405  0.4508  0.4842
  678MPD2     C10079   1.583   3.844   1.164  0.0398  0.0860  0.3299
  678MPD2    C110080   1.582   3.717   1.110 -0.5978  0.3810  0.8684
  678MPD2    C210081   1.462   3.657   1.079  0.8396  0.1156 -0.6653
  678MPD2    C310082   1.337   3.711   1.124  0.8971 -0.1839 -0.2375
  678MPD2    C410083   1.348   3.832   1.187 -0.1372 -0.8570  0.7574
  678MPD2    C510084   1.467   3.904   1.205  0.3836 -0.2931 -0.1636
  678MPD2     H10085   1.462   3.565   1.021 -3.8929 -1.0666  1.2166
  678MPD2    H110086   1.263   3.878   1.235 -0.5144 -0.2780 -0.4708
  678MPD2    H210087   1.676   3.896   1.181  0.1556 -0.6964  2.1380
  678MPD2    H310088   1.479   3.999   1.254  1.4055 -0.0980 -0.7949
  678MPD2     N10089   1.220   3.642   1.086 -0.1511 -0.0964  0.4862
  678MPD2    H510090   1.238   3.552   1.042  0.1948  0.3035 -0.1798
  678MPD2    N110091   1.700   3.654   1.061  0.1135 -0.5015  0.2824
  678MPD2    H710092   1.701   3.579   0.993 -0.8300 -0.5673  0.3418
  679TMC3    C110093   2.037   3.445   0.926 -0.0557  0.4848  0.5224
  679TMC3    C210094   1.935   3.497   0.997 -0.1675 -0.1459 -0.3722
  679TMC3    C310095   1.922   3.634   0.998  0.0493 -0.3159  0.8983
  679TMC3    C410096   2.124   3.517   0.857  0.2682  0.8015  0.3399
  679TMC3    C510097   2.101   3.653   0.844  0.2340 -0.4446 -0.6677
  679TMC3    C610098   2.003   3.714   0.926  0.6140  0.2664  0.3348
  679TMC3     C10099   2.068   3.300   0.925  0.5297  0.0469  0.2880
  679TMC3     O10100   2.156   3.265   0.853 -0.3411 -0.9322  0.1927
  679TMC3     H10101   1.856   3.430   1.028  1.6876 -1.6024  1.1918
  679TMC3    H110102   2.192   3.468   0.788  0.3495  0.3238  0.7579
  679TMC3    H210103   1.989   3.822   0.922  0.8020  0.2940  0.4029
  679TMC3    C710104   2.150   3.723   0.728  0.2200 -0.3695 -0.1243
  679TMC3    C810105   1.828   3.704   1.081 -0.5884  0.0674 -0.2469
  679TMC3    O110106   2.071   3.814   0.704 -0.3386  0.0020  0.2402
  679TMC3    O210107   1.868   3.814   1.116 -0.4574 -0.4164  0.1372
  680MPD2     C10108   1.744   2.523  13.492  0.2858  0.1963  0.1647
  680MPD2    C110109   1.793   2.468  13.613 -0.7338  0.1038  0.1408
  680MPD2    C210110   1.881   2.534  13.688 -0.7283 -0.5092 -0.3747
  680MPD2    C310111   1.926   2.662  13.648 -0.3837  0.3214  0.2003
  680MPD2    C410112   1.869   2.720  13.537  0.0340  0.1033  0.1565
  680MPD2    C510113   1.773   2.655  13.465  0.2402 -0.3029  0.1752
  680MPD2     H10114   1.928   2.476  13.766 -1.9586 -1.6357 -0.4651
  680MPD2    H110115   1.902   2.816  13.497  0.4518 -0.1385 -0.0837
  680MPD2    H210116   1.673   2.485  13.420 -0.1340 -0.0752  0.7228
  680MPD2    H310117   1.731   2.691  13.372 -0.0118 -1.6336 -0.2299
  680MPD2     N10118   2.034   2.721  13.718 -0.3178  0.2076 -0.3493
  680MPD2    H510119   2.088   2.794  13.672  1.1882 -1.3181 -0.9867
  680MPD2    N110120   1.762   2.342  13.652 -0.3690  0.3569 -0.6438
  680MPD2    H710121   1.806   2.309  13.737 -0.2565  1.2651 -0.3550
  681TMC3    C110122   1.677   2.132  13.657  0.5373 -0.9150 -1.4324
  681TMC3    C210123   1.564   2.068  13.679 -0.2936  0.1554 -0.1217
  681TMC3    C310124   1.572   1.946  13.729  0.3711 -0.1014 -0.0685
  681TMC3    C410125   1.794   2.069  13.660 -0.1730  0.0372 -0.9113
  681TMC3    C510126   1.802   1.939  13.702  0.1052 -0.1960  0.3728
  681TMC3    C610127   1.692   1.881  13.750  0.6745 -0.4466  0.3981
  681TMC3     C10128   1.668   2.261  13.600  0.1695 -0.4752  0.3377
  681TMC3     O10129   1.562   2.291  13.542  0.4293 -0.1578  0.2842
  681TMC3     H10130   1.472   2.119  13.653 -1.4216 -1.4997  0.6978
  681TMC3    H110131   1.885   2.124  13.637 -0.4552  0.0808 -1.9105
  681TMC3    H210132   1.706   1.779  13.785  1.9402 -0.2566  0.4545
  681TMC3    C710133   1.923   1.850  13.676 -0.0180 -0.5902  0.4121
  681TMC3    C810134   1.454   1.884  13.776 -0.3614  0.2682 -0.1530
  681TMC3    O110135   1.921   1.732  13.708 -0.3842 -0.2251 -0.0428
  681TMC3    O210136   1.342   1.887  13.722 -0.5989 -0.2214  0.6116
  682MPD2     C10137   4.026   3.891  11.404  0.5209 -0.3853  0.0951
  682MPD2    C110138   4.083   3.763  11.380  0.5196  0.2881 -0.0649
  682MPD2    C210139   4.074   3.666  11.480 -0.1723 -0.4556  0.7544
  682MPD2    C310140   4.017   3.698  11.597  0.7042  0.0083  0.0351
  682MPD2    C410141   3.969   3.823  11.629 -0.7836 -0.2579 -0.0574
  682MPD2    C510142   3.968   3.919  11.528 -0.1293 -1.2719  0.1155
  682MPD2     H10143   4.109   3.566  11.459  1.0573 -0.5802  3.4545
  682MPD2    H110144   3.917   3.843  11.722  2.1807 -2.1063  1.9966
  682MPD2    H210145   4.043   3.973  11.336  0.0321  0.6273  1.1975
  682MPD2    H310146   3.934   4.019  11.555  0.5955 -0.4311 -2.0508
  682MPD2     N10147   3.993   3.600  11.698 -0.5346 -0.0404 -0.3455
  682MPD2    H510148   3.945   3.635  11.781 -0.3669 -1.1587  0.2126
  682MPD2    N110149   4.135   3.719  11.255  0.2567 -0.3173  0.0277
  682MPD2    H710150   4.151   3.620  11.240  0.5500 -0.0803 -1.2539
  683TMC3    C110151   3.946   3.372  12.036 -0.5938 -0.2079  0.0981
  683TMC3    C210152   3.986   3.240  12.050 -0.3322  0.6989 -0.0282
  683TMC3    C310153   4.035   3.198  11.935  0.2435 -0.0582  0.1184
  683TMC3    C410154   3.959   3.450  11.923  0.3403 -0.0866  0.1140
  683TMC3    C510155   4.007   3.391  11.814  0.3787  0.0619  0.2828
  683TMC3    C610156   4.051   3.261  11.813 -0.4010  0.3735  0.1249
  683TMC3     C10157   3.868   3.442  12.150 -0.1345 -0.3157  0.3372
  683TMC3     O10158   3.886   3.567  12.161 -0.2580  0.5529 -0.2731
  683TMC3     H10159   3.977   3.179  12.140  0.9757  1.7458  0.8063
  683TMC3    H110160   3.907   3.545  11.923  1.7330  0.6609 -0.6431
  683TMC3    H210161   4.101   3.218  11.727 -1.4331 -1.0347  0.2151
  683TMC3    C710162   4.036   3.466  11.693 -0.3119  0.2104 -0.3992
  683TMC3    C810163   4.018   3.061  11.911  0.4250 -0.3287 -0.5598
  683TMC3    O110164   4.089   3.398  11.608  0.3154  0.1818 -0.3461
  683TMC3    O210165   3.940   3.039  11.819 -0.4606 -0.1509 -0.7276
  684MPD2     C10166   2.085   3.336  16.619 -0.3135  0.7139  0.2442
  684MPD2    C110167   2.109   3.341  16.479 -0.3912  0.3843  0.3720
  684MPD2    C210168   2.115   3.457  16.412  0.1293  0.0931 -0.0606
  684MPD2    C310169   2.104   3.571  16.486  0.4435  0.5427 -0.1472
  684MPD2    C410170   2.073   3.574  16.620  0.4807 -0.5517 -0.3066
  684MPD2    C510171   2.073   3.455  16.686 -0.1919 -0.2370 -0.1981
  684MPD2     H10172   2.119   3.458  16.304 -0.9301  1.9452 -0.0978
  684MPD2    H110173   2.064   3.670  16.670 -1.1866 -0.6528 -0.4113
  684MPD2    H210174   2.069   3.241  16.669  0.2852  0.1754 -0.5928
  684MPD2    H310175   2.070   3.449  16.794  0.7319 -2.3347 -0.2861
  684MPD2     N10176   2.138   3.697  16.437  0.0553  0.2374 -0.9079
  684MPD2    H510177   2.157   3.774  16.500 -2.1260  0.3716 -0.4110
  684MPD2    N110178   2.117   3.224  16.401 -0.0743 -0.2488  0.5070
  684MPD2    H710179   2.149   3.224  16.305  1.4182 -2.2373  0.9887
  685TMC3    C110180   2.170   3.004  16.355  0.1825  0.2217  0.0260
  685TMC3    C210181   2.086   2.947  16.265 -0.4215 -0.1647  0.8185
  685TMC3    C310182   2.132   2.892  16.153  0.8519 -0.1379 -0.1865
  685TMC3    C410183   2.303   3.022  16.320  0.6685  0.5788  0.0789
  685TMC3    C510184   2.346   2.983  16.193 -0.2090  0.5348  0.0535
  685TMC3    C610185   2.263   2.907  16.111  0.4399  0.5859 -0.7246
  685TMC3     C10186   2.118   3.095  16.455  0.1751 -0.3263 -0.4612
  685TMC3     O10187   2.109   3.048  16.568 -0.3096 -0.0180 -0.0337
  685TMC3     H10188   1.983   2.944  16.298 -1.4744  2.7079 -2.2416
  685TMC3    H110189   2.373   3.060  16.394 -0.1697  1.2161  0.5546
  685TMC3    H210190   2.294   2.883  16.010 -1.2562  1.3082 -1.4131
  685TMC3    C710191   2.465   3.049  16.143  0.5596 -0.8296  0.6960
  685TMC3    C810192   2.034   2.825  16.069 -0.3460  0.4562  0.1477
  685TMC3    O110193   2.479   3.068  16.023 -0.4383 -0.0646  0.2382
  685TMC3    O210194   2.073   2.721  16.018 -0.4379 -0.1078  0.7899
  686MPD2     C10195   3.608   3.200  15.391  0.0202  0.0828  0.3931
  686MPD2    C110196   3.625   3.118  15.495  0.3854  0.2002  0.0489
  686MPD2    C210197   3.697   3.003  15.477 -0.7244  0.4934  0.0466
  686MPD2    C310198   3.726   2.958  15.355  0.0871  0.0388 -0.1891
  686MPD2    C410199   3.708   3.041  15.248 -0.2610  0.6652 -0.1682
  686MPD2    C510200   3.660   3.166  15.269 -0.8580  0.7215 -0.1504
  686MPD2     H10201   3.734   2.949  15.563  1.0545  2.1126  0.2899
  686MPD2    H110202   3.717   3.008  15.146  1.3321  0.4226  0.0443
  686MPD2    H210203   3.553   3.293  15.392  0.1804  0.1960 -1.4293
  686MPD2    H310204   3.641   3.236  15.190 -1.2747  0.0530 -0.6427
  686MPD2     N10205   3.791   2.836  15.322  0.4433 -0.1801 -0.2085
  686MPD2    H510206   3.831   2.831  15.228 -1.4939 -0.8419 -0.9893
  686MPD2    N110207   3.577   3.153  15.622 -0.0499  0.0619  0.2699
  686MPD2    H710208   3.530   3.242  15.636  2.4878  1.2792  1.1655
  687TMC3    C110209   3.746   2.702  15.525 -0.2127 -0.0501 -0.1432
  687TMC3    C210210   3.609   2.699  15.520 -0.3078  0.1148 -0.4155
  687TMC3    C310211   3.536   2.653  15.626 -0.1318  0.0329  0.0551
  687TMC3    C410212   3.811   2.671  15.638  0.5600 -0.0917 -0.0940
  687TMC3    C510213   3.743   2.628  15.749  0.4698  0.0691 -0.1337
  687TMC3    C610214   3.600   2.620  15.747  0.3521  0.6818  0.7800
  687TMC3     C10215   3.832   2.740  15.409  0.8794  0.2308  0.5069
  687TMC3     O10216   3.923   2.661  15.390  0.3476  0.6889  0.5074
  687TMC3     H10217   3.563   2.714  15.423 -1.5108 -1.7529 -0.1499
  687TMC3    H110218   3.919   2.675  15.641  0.5924 -0.8774 -0.2876
  687TMC3    H210219   3.549   2.588  15.837 -2.7980  1.1274 -0.8476
  687TMC3    C710220   3.798   2.654  15.878 -0.1366  0.4521 -0.0495
  687TMC3    C810221   3.409   2.717  15.647  0.0422  0.2067 -0.0723
  687TMC3    O110222   3.847   2.555  15.935 -0.0770 -0.0028 -0.3853
  687TMC3    O210223   3.361   2.677  15.752  0.1499 -0.2906 -1.2667
  688MPD2     C10224   3.231   1.804  17.683 -0.3142 -0.2492  0.4091
  688MPD2    C110225   3.135   1.784  17.583  0.0317 -0.5159 -0.3597
  688MPD2    C210226   3.185   1.769  17.452 -0.1021  0.4945  0.4571
  688MPD2    C310227   3.317   1.773  17.418  0.5634 -0.5890 -0.4738
  688MPD2    C410228   3.408   1.810  17.515 -0.5956  0.0681 -0.1880
  688MPD2    C510229   3.357   1.823  17.639 -0.4663  0.1373  0.7991
  688MPD2     H10230   3.112   1.758  17.373 -0.7370 -2.6800  1.4992
  688MPD2    H110231   3.511   1.826  17.486 -0.2645 -1.1920  0.3199
  688MPD2    H210232   3.212   1.822   0.016 -0.4684 -2.1158  0.6962
  688MPD2    H310233   3.428   1.846  17.718  0.5927 -2.2279  0.5445
  688MPD2     N10234   3.371   1.742  17.287  0.1876 -0.0100  0.5025
  688MPD2    H510235   3.473   1.737  17.286  0.1732  0.2939 -1.8125
  688MPD2    N110236   2.995   1.776  17.602  0.2293 -0.0064 -0.1197
  688MPD2    H710237   2.936   1.751  17.523 -1.7361  0.9472  1.0466
  689TMC3    C110238   2.783   1.769  17.710 -0.3921 -0.0802  0.4286
  689TMC3    C210239   2.706   1.826   0.031 -0.0775 -0.1384 -0.2615
  689TMC3    C310240   2.582   1.770   0.047 -0.1928 -0.1918  0.0067
  689TMC3    C410241   2.750   1.651  17.645  1.3306  0.4542 -0.4527
  689TMC3    C510242   2.626   1.602  17.665  0.1638  0.1112  0.1080
  689TMC3    C610243   2.539   1.664  17.749 -1.1130  0.0680 -0.5182
  689TMC3     C10244   2.921   1.808  17.718 -0.0415 -0.8981 -0.3992
  689TMC3     O10245   2.960   1.830   0.060 -0.4312 -0.0572  0.3098
  689TMC3     H10246   2.745   1.907   0.092  1.4701 -2.7218  2.1958
  689TMC3    H110247   2.826   1.598  17.589  0.0106  1.3378 -3.0641
  689TMC3    H210248   2.448   1.606  17.762 -0.6880 -0.4081  0.3262
  689TMC3    C710249   2.616   1.454  17.662  0.1477 -0.0218  0.0452
  689TMC3    C810250   2.505   1.846   0.150 -0.2466 -1.0816 -0.4845
  689TMC3    O110251   2.718   1.391  17.696  0.1498  0.1522  0.2483
  689TMC3    O210252   2.553   1.953   0.183 -0.0650 -0.1156 -0.3838
  690MPD2     C10253   0.761   3.482  15.932  0.2076  0.1278 -0.2008
  690MPD2    C110254   0.688   3.557  15.838 -0.3312  0.2718 -0.5799
  690MPD2    C210255   0.750   3.640  15.755  0.0320 -0.5193  0.1996
  690MPD2    C310256   0.892   3.653  15.748  0.2291 -0.2471 -0.0730
  690MPD2    C410257   0.970   3.580  15.840  0.1148  0.1755 -0.3648
  690MPD2    C510258   0.901   3.494  15.929  0.4296 -0.2636  1.2764
  690MPD2     H10259   0.694   3.702  15.686  1.3789 -0.5923 -0.9714
  690MPD2    H110260   1.076   3.593  15.825  0.1903 -0.1338 -0.0762
  690MPD2    H210261   0.710   3.405  15.989 -2.3643  1.4816 -0.7157
  690MPD2    H310262   0.955   3.433  16.000 -1.3499 -1.0561  1.9375
  690MPD2     N10263   0.941   3.744  15.657 -0.5881 -0.3129  0.1115
  690MPD2    H510264   0.872   3.795  15.603 -0.3785 -2.1451 -1.8877
  690MPD2    N110265   0.549   3.566  15.835  0.3371 -0.6054 -0.1528
  690MPD2    H710266   0.503   3.630  15.771  0.3349 -0.0315  0.4325
  691TMC3    C110267   0.338   3.579  15.921  0.1803 -0.2852 -0.3446
  691TMC3    C210268   0.338   3.711  15.895 -0.5413  0.2609 -0.5351
  691TMC3    C310269   0.231   3.778  15.946 -0.4534  0.0097  0.6548
  691TMC3    C410270   0.228   3.512  15.976  0.2943  0.3993 -0.3838
  691TMC3    C510271   0.134   3.587  16.031 -0.3664  0.0934 -0.4913
  691TMC3    C610272   0.136   3.721  16.028  0.5763  0.5621 -0.2152
  691TMC3     C10273   0.464   3.502  15.922  0.3140 -0.6201  0.5358
  691TMC3     O10274   0.467   3.397  15.983  0.3239 -0.1558 -0.0682
  691TMC3     H10275   0.409   3.761  15.830  0.2439 -0.8173 -0.5085
  691TMC3    H110276   0.230   3.406  15.998 -1.6137  0.5178  0.3635
  691TMC3    H210277   0.055   3.774  16.077 -1.2067 -0.5627 -1.9547
  691TMC3    C710278   0.048   3.520  16.132  0.3621 -0.2550  0.5619
  691TMC3    C810279   0.210   3.911  15.895  0.8930 -0.1847 -0.0382
  691TMC3    O110280   0.039   3.584  16.237 -0.1083  0.0870  0.4885
  691TMC3    O210281   0.307   3.957  15.832 -0.4954 -0.5110 -0.3039
  692TMC3    C110282   2.054   0.169  16.053  0.0651 -0.2277 -0.1202
  692TMC3    C210283   2.184   0.192  16.098 -0.8480  0.2263 -0.9542
  692TMC3    C310284   2.282   0.098  16.062  0.4963 -0.1321  0.1000
  692TMC3    C410285   2.020   0.039  16.012  0.1194 -0.4363  0.0308
  692TMC3    C510286   2.118   4.696  15.974  0.0077  0.2995  0.5534
  692TMC3    C610287   2.246   4.715  16.009  0.2352  0.6600  0.3164
  692TMC3     C10288   1.944   0.248  16.103 -0.6530 -0.5422  0.1040
  692TMC3     O10289   1.854   0.194  16.170  0.5897 -0.0375  0.2250
  692TMC3     H10290   2.205   0.298  16.107 -2.5463  0.5970 -1.1756
  692TMC3    H110291   1.919   0.026  15.976 -0.3453  2.7419  0.1684
  692TMC3    H210292   2.321   4.668  15.946  1.7730  0.7851  2.0415
  692TMC3    C710293   2.081   4.588  15.887 -0.5181  0.2106  0.1876
  692TMC3    C810294   2.374   0.057  16.176 -0.3921 -0.4673 -0.5743
  692TMC3    O110295   1.968   4.588  15.837  0.1721 -0.5992  0.0051
  692TMC3    O210296   2.417   4.688  16.162 -0.6634 -0.9646 -0.0388
  693MPD2     C10297   1.661   3.024  10.473 -0.0677 -0.2925  0.7666
  693MPD2    C110298   1.636   2.997  10.610 -0.0506  0.3242  0.1970
  693MPD2    C210299   1.723   2.924  10.688 -0.0299  0.5303 -0.2127
  693MPD2    C310300   1.832   2.872  10.622 -0.3700 -0.0583  0.3426
  693MPD2    C410301   1.850   2.892  10.489  0.5179 -0.1200  0.6078
  693MPD2    C510302   1.774   2.978  10.412 -1.2062 -0.2323 -0.3577
  693MPD2     H10303   1.705   2.901  10.792  3.4644  3.2869  1.0178
  693MPD2    H110304   1.953   2.873  10.460  0.6342  0.3984  0.6718
  693MPD2    H210305   1.594   3.088  10.416  0.0461  0.2688  1.2636
  693MPD2    H310306   1.806   3.008  10.313 -2.4657 -0.0897 -0.7254
  693MPD2     N10307   1.940   2.796  10.677  0.2090 -0.4295  0.7933
  693MPD2    H510308   2.004   2.750  10.613 -1.0553 -0.2787 -0.5763
  693MPD2    N110309   1.507   3.033  10.657  0.6655  0.1458  0.5010
  693MPD2    H710310   1.438   3.075  10.595 -0.1676 -0.9895  0.6660
  694TMC3    C110311   1.320   3.029  10.801 -0.0430  0.0529  0.8768
  694TMC3    C210312   1.233   2.989  10.708 -0.0372  0.4926 -0.7910
  694TMC3    C310313   1.120   2.931  10.752 -0.2176 -0.0461 -0.5741
  694TMC3    C410314   1.291   3.039  10.936 -0.4225  0.5569  0.1600
  694TMC3    C510315   1.177   2.978  10.973 -0.2423 -0.0236  0.0457
  694TMC3    C610316   1.091   2.923  10.883  1.0276 -0.4593  0.3407
  694TMC3     C10317   1.463   3.014  10.783 -0.2852 -0.4034 -0.5303
  694TMC3     O10318   1.528   2.995  10.886  0.0844 -0.5017  0.4541
  694TMC3     H10319   1.256   2.982  10.602  1.6841 -0.4745 -0.3505
  694TMC3    H110320   1.359   3.084  11.008  0.5924 -1.7633  0.6630
  694TMC3    H210321   0.989   2.898  10.913  0.5132 -0.6682 -1.6179
  694TMC3    C710322   1.154   2.961  11.107 -0.5037 -0.0667 -0.1146
  694TMC3    C810323   1.033   2.855  10.664  0.1402  0.3162  0.4666
  694TMC3    O110324   1.196   3.043  11.186 -0.1784  0.1124  0.1536
  694TMC3    O210325   0.973   2.755  10.710  0.2199 -0.2985  0.5626
  695MPD2     C10326   2.565   4.065  13.534  0.3227  0.1188  0.1592
  695MPD2    C110327   2.556   4.161  13.635 -0.4308  0.1674 -0.7198
  695MPD2    C210328   2.474   4.269  13.608  0.2562  0.4879 -0.2243
  695MPD2    C310329   2.401   4.278  13.494  0.4992 -0.0917 -0.5958
  695MPD2    C410330   2.406   4.181  13.395 -0.2581 -0.4661 -0.1541
  695MPD2    C510331   2.500   4.077  13.407  0.7686 -0.2536  0.9402
  695MPD2     H10332   2.462   4.355  13.674 -0.2548  0.0309  0.2778
  695MPD2    H110333   2.339   4.181  13.309 -0.1206 -0.5419 -0.2616
  695MPD2    H210334   2.615   3.971  13.554  0.7165 -0.2274 -2.4268
  695MPD2    H310335   2.508   4.001  13.330 -2.1587  1.7628 -1.3487
  695MPD2     N10336   2.320   4.395  13.469 -0.1264 -0.6969 -0.3516
  695MPD2    H510337   2.319   4.472  13.534 -0.6799 -0.1132 -1.0505
  695MPD2    N110338   2.630   4.155  13.753  0.2072  0.3268  0.6958
  695MPD2    H710339   2.608   4.233  13.814 -0.4032 -0.0893  1.0110
  696TMC3    C110340   2.117   4.501  13.413  0.2883 -0.0134  0.3259
  696TMC3    C210341   1.998   4.470  13.474 -0.0832  0.2910  0.4525
  696TMC3    C310342   1.892   4.548  13.462  0.3645  0.3255 -0.6508
  696TMC3    C410343   2.133   4.611  13.338 -0.1838  0.9015  0.2006
  696TMC3    C510344   2.025   4.696  13.336 -0.0561 -0.2192 -0.9227
  696TMC3    C610345   1.906   4.673  13.404 -0.3036 -0.4606 -0.1908
  696TMC3     C10346   2.203   4.390  13.390 -0.2603  0.4642 -0.6848
  696TMC3     O10347   2.143   4.295  13.344 -0.2169 -0.8130 -0.7420
  696TMC3     H10348   1.981   4.368  13.508 -0.4647 -0.0252 -0.6983
  696TMC3    H110349   2.232   4.640  13.303 -0.0752 -0.2594 -0.4613
  696TMC3    H210350   1.828   0.003  13.396  0.8751  0.5830 -1.9350
  696TMC3    C710351   2.065   0.093  13.311 -0.0093  0.1293  0.3958
  696TMC3    C810352   1.816   4.556  13.584 -1.0188  0.4063 -0.1778
  696TMC3    O110353   2.151   0.110  13.226  0.4094 -1.0202 -0.3961
  696TMC3    O210354   1.861   4.488  13.677 -0.1755  0.2269  1.0915
  697MPD2     C10355   1.341   1.565  15.908 -0.7803 -0.2251 -0.3291
  697MPD2    C110356   1.386   1.477  15.808 -0.7857 -0.3282 -0.6367
  697MPD2    C210357   1.422   1.530  15.691 -0.2481 -0.3642 -0.2157
  697MPD2    C310358   1.420   1.667  15.657  0.1531  0.3655  0.0957
  697MPD2    C410359   1.364   1.745  15.754  0.1068  0.1787  0.3728
  697MPD2    C510360   1.335   1.697  15.882 -0.4372 -0.3731 -0.3078
  697MPD2     H10361   1.462   1.468  15.612  3.6786 -0.5910  1.9548
  697MPD2    H110362   1.352   1.852  15.735  0.4077  0.0054 -0.7521
  697MPD2    H210363   1.313   1.531  16.007 -2.1179 -1.2529 -1.0544
  697MPD2    H310364   1.280   1.766  15.946 -2.0389 -1.3236 -0.6576
  697MPD2     N10365   1.459   1.709  15.533  0.5457 -0.2199 -0.3006
  697MPD2    H510366   1.467   1.636  15.463 -1.6308 -0.8788  0.1128
  697MPD2    N110367   1.409   1.334  15.815  0.2121  0.3426 -0.0990
  697MPD2    H710368   1.442   1.291  15.729  2.6755  0.0943  0.9605
  698TMC3    C110369   1.515   1.830  15.347 -0.4056  0.3364 -0.4901
  698TMC3    C210370   1.588   1.937  15.296 -0.2068  0.1120  0.2613
  698TMC3    C310371   1.601   1.942  15.159  0.0196  0.9643  0.3397
  698TMC3    C410372   1.463   1.732  15.266  0.8061 -0.0082 -0.1468
  698TMC3    C510373   1.490   1.747  15.131 -0.1924 -0.0116 -0.7425
  698TMC3    C610374   1.555   1.850  15.071 -0.2173  1.0488  0.6543
  698TMC3     C10375   1.488   1.832  15.494 -0.1414 -0.1368  0.4574
  698TMC3     O10376   1.480   1.938  15.552 -0.0577  0.6266  0.4411
  698TMC3     H10377   1.603   2.026  15.357 -3.2371 -0.1114  1.3352
  698TMC3    H110378   1.393   1.654  15.294  0.6731  1.1538  2.7756
  698TMC3    H210379   1.554   1.874  14.965 -0.4172 -0.0154  0.4205
  698TMC3    C710380   1.426   1.657  15.040  0.4105  0.0012 -0.1031
  698TMC3    C810381   1.651   2.059  15.107 -0.6988  0.0188  0.4247
  698TMC3    O110382   1.410   1.699  14.926  0.2498 -0.0502  0.0265
  698TMC3    O210383   1.628   2.159  15.174 -0.2530  0.3396 -0.3833
  699TMC3    C110384   2.199   3.936  13.273  0.7910  0.6985  0.1445
  699TMC3    C210385   2.256   3.833  13.333 -0.2332  0.3760 -0.5796
  699TMC3    C310386   2.205   3.796  13.461 -0.6210 -0.2493  0.2578
  699TMC3    C410387   2.101   4.012  13.329 -0.7310  0.0011  0.0331
  699TMC3    C510388   2.052   3.969  13.449  0.3931 -0.3537 -0.1299
  699TMC3    C610389   2.103   3.866  13.518  0.8064  0.0061  0.0090
  699TMC3     C10390   2.251   3.961  13.139 -0.1458  0.1258  0.7218
  699TMC3     O10391   2.371   3.940  13.118  0.4791 -0.1303 -0.0722
  699TMC3     H10392   2.330   3.774  13.279  0.5485  1.0838 -0.2916
  699TMC3    H110393   2.049   4.091  13.275 -1.2351  0.1009  0.6474
  699TMC3    H210394   2.057   3.828  13.609  1.3312 -0.7468 -0.0378
  699TMC3    C710395   1.923   4.023  13.501 -0.0624  0.4151  0.2267
  699TMC3    C810396   2.246   3.673  13.522  0.1470 -0.2467  0.4660
  699TMC3    O110397   1.902   3.999  13.624 -0.0166  0.0152  0.1511
  699TMC3    O210398   2.214   3.663  13.636  0.6847  0.1491 -0.3419
  700TMC3    C110399   0.514   2.075  17.563  0.3535 -0.0600 -0.6874
  700TMC3    C210400   0.556   1.943  17.533 -0.6634  0.6619  0.0264
  700TMC3    C310401   0.684   1.901  17.558 -0.1708  0.3299 -0.2691
  700TMC3    C410402   0.611   2.165  17.598 -0.3430 -0.0691 -0.0209
  700TMC3    C510403   0.743   2.122  17.603 -0.3832  0.4669  0.0839
  700TMC3    C610404   0.781   1.992  17.593 -0.1469 -0.1450 -0.2974
  700TMC3     C10405   0.429   2.114  17.451 -0.2559 -0.3669  0.1889
  700TMC3     O10406   0.304   2.096  17.460  0.2051  0.4813  0.0975
  700TMC3     H10407   0.477   1.878  17.497  1.1728 -0.2512 -2.4150
  700TMC3    H110408   0.584   2.265  17.627 -0.2253  0.2796 -1.0957
  700TMC3    H210409   0.884   1.959  17.588  0.5707  1.7926  1.4891
  700TMC3    C710410   0.852   2.218  17.591 -0.0532  0.6005 -0.3691
  700TMC3    C810411   0.726   1.788  17.478  0.0815  0.4552 -0.1222
  700TMC3    O110412   0.964   2.174  17.601 -0.4817 -0.6335  0.0233
  700TMC3    O210413   0.836   1.785  17.431  0.4597 -0.1827  0.3126
  701TMC3    C110414   0.638   0.464  16.007 -0.4900  0.0447 -0.0117
  701TMC3    C210415   0.667   0.384  15.899  0.2890  0.4673 -0.1328
  701TMC3    C310416   0.717   0.439  15.790 -0.7550 -0.0474  0.4932
  701TMC3    C410417   0.677   0.589  16.011 -0.0024 -0.2370 -0.1492
  701TMC3    C510418   0.741   0.639  15.903  0.2590 -0.1148  0.1411
  701TMC3    C610419   0.769   0.567  15.791 -0.5134  0.4049 -0.3555
  701TMC3     C10420   0.598   0.403  16.134 -0.2948  0.8506  0.4018
  701TMC3     O10421   0.552   0.486  16.213 -0.1113  0.0642 -0.5742
  701TMC3     H10422   0.636   0.280  15.892 -1.3708  0.9509  0.1728
  701TMC3    H110423   0.645   0.651  16.094 -1.7876  0.8419 -1.6390
  701TMC3    H210424   0.821   0.609  15.706  0.4551  0.7274  0.3966
  701TMC3    C710425   0.794   0.781  15.902  0.4725  0.5192  0.3863
  701TMC3    C810426   0.752   0.363  15.681 -0.2210  0.8845  0.2795
  701TMC3    O110427   0.820   0.831  15.794  0.6045 -0.2849  0.3017
  701TMC3    O210428   0.792   0.250  15.698 -0.9670  0.0423 -0.2899
  702MPD2     C10429   0.155   2.878  10.897 -0.3943  0.5354  0.2731
  702MPD2    C110430   0.223   2.998  10.927 -1.0158  0.1239 -0.4594
  702MPD2    C210431   0.267   3.083  10.821  0.2852  0.1763  0.9973
  702MPD2    C310432   0.230   3.049  10.689  0.5050  0.1930  0.6317
  702MPD2    C410433   0.184   2.922  10.658 -0.5630  0.2055  0.3664
  702MPD2    C510434   0.146   2.841  10.770 -0.6286  0.1269 -0.0921
  702MPD2     H10435   0.316   3.178  10.841  1.0129 -0.4020  1.9663
  702MPD2    H110436   0.176   2.891  10.554  0.2142 -0.2884  0.4532
  702MPD2    H210437   0.115   2.821  10.979  0.7045 -1.0916 -0.3315
  702MPD2    H310438   0.102   2.744  10.752  0.3838 -0.0677 -1.5933
  702MPD2     N10439   0.271   3.126  10.577 -0.5142 -1.2123  0.0960
  702MPD2    H510440   0.270   3.064  10.497  0.7753 -0.6721 -0.3519
  702MPD2    N110441   0.232   3.052  11.060 -0.5980  0.6407  0.4314
  702MPD2    H710442   0.254   3.150  11.073  0.6389  0.3399  0.6549
  703TMC3    C110443   0.281   3.347  10.678  0.5594 -0.0792 -0.3900
  703TMC3    C210444   0.148   3.349  10.707 -0.4768  0.1072  0.1979
  703TMC3    C310445   0.109   3.451  10.786  0.1211 -0.7299  0.6522
  703TMC3    C410446   0.366   3.455  10.702 -0.9267 -0.9326 -0.0142
  703TMC3    C510447   0.324   3.552  10.791  0.3248 -0.2976  0.4980
  703TMC3    C610448   0.193   3.545  10.843  0.0244 -0.4133 -0.0139
  703TMC3     C10449   0.334   3.247  10.580 -0.2272  0.3030  0.4407
  703TMC3     O10450   0.399   3.298  10.492  0.1808 -0.6486  0.4478
  703TMC3     H10451   0.084   3.266  10.682 -0.9932 -0.1408  2.3360
  703TMC3    H110452   0.463   3.473  10.657 -1.8739 -1.4030 -2.2282
  703TMC3    H210453   0.161   3.616  10.919  1.7949 -0.6018  0.9065
  703TMC3    C710454   0.376   3.680  10.765  0.2807 -0.9239  0.3620
  703TMC3    C810455   4.717   3.440  10.844  0.4529  0.0345  0.1948
  703TMC3    O110456   0.496   3.689  10.742  0.1106  0.0666 -0.6061
  703TMC3    O210457   4.632   3.370  10.793 -0.8795  0.0832 -0.7949
  704TMC3    C110458   2.664   0.975  12.610 -0.4250 -0.3433 -0.5024
  704TMC3    C210459   2.537   0.926  12.593 -0.9284 -0.0368 -0.7099
  704TMC3    C310460   2.503   0.798  12.626 -0.2869  0.4326 -0.0290
  704TMC3    C410461   2.755   0.900  12.676 -0.7118  0.3954  0.1312
  704TMC3    C510462   2.722   0.775  12.709 -0.1045 -0.5835 -0.0535
  704TMC3    C610463   2.600   0.713  12.678  0.5491  0.3831 -0.2030
  704TMC3     C10464   2.675   1.118  12.636  0.4843  0.0750 -0.0894
  704TMC3     O10465   2.729   1.149  12.739  0.1290  0.1692  0.8619
  704TMC3     H10466   2.460   0.990  12.551  0.3359  2.6525  1.1218
  704TMC3    H110467   2.844   0.950  12.711 -2.4017  2.0719  2.0432
  704TMC3    H210468   2.579   0.607  12.687  0.9838  0.2488 -0.7796
  704TMC3    C710469   2.811   0.689  12.799  0.0645  0.7778 -0.1663
  704TMC3    C810470   2.382   0.799  12.703  0.0484  0.4889 -0.6704
  704TMC3    O110471   2.762   0.590  12.849  0.0044 -0.4368 -0.0301
  704TMC3    O210472   2.316   0.901  12.717 -0.4525 -0.0389  0.0417
  705MPD2     C10473   2.673   4.353  16.561 -0.0206  0.1608  0.8976
  705MPD2    C110474   2.576   4.318  16.469 -0.4624 -1.3593  0.4024
  705MPD2    C210475   2.450   4.312  16.522 -0.2733 -1.2045 -0.1334
  705MPD2    C310476   2.409   4.336  16.652  0.4152 -0.1387  0.3380
  705MPD2    C410477   2.506   4.372  16.743  0.7056  0.7700 -0.0518
  705MPD2    C510478   2.635   4.392  16.695  0.6048 -0.0827  0.9625
  705MPD2     H10479   2.373   4.267  16.459  0.7630 -2.7582 -0.2745
  705MPD2    H110480   2.485   4.393  16.847 -5.0813  0.2356 -1.1314
  705MPD2    H210481   2.776   4.377  16.536  0.0975 -1.5698 -0.2433
  705MPD2    H310482   2.707   4.424  16.769  1.1267 -1.7144  1.1496
  705MPD2     N10483   2.279   4.314  16.695  0.6499  0.5347 -0.0667
  705MPD2    H510484   2.255   4.358  16.783  0.0854  2.7706 -1.3684
  705MPD2    N110485   2.602   4.307  16.329  0.1760  0.1266  0.3557
  705MPD2    H710486   2.520   4.303  16.269  1.4438 -0.8256 -1.2810
  706TMC3    C110487   2.755   4.270  15.911 -0.2921  0.0159 -0.1321
  706TMC3    C210488   2.722   4.395  15.861 -0.2454  0.3194 -0.0959
  706TMC3    C310489   2.667   4.489  15.949 -0.5744  0.3664 -0.0022
  706TMC3    C410490   2.758   4.255  16.042 -0.3815 -0.3021  0.3931
  706TMC3    C510491   2.708   4.344  16.127 -0.1295  0.4333 -0.7836
  706TMC3    C610492   2.658   4.469  16.088  0.0358  0.1572 -0.3848
  706TMC3     C10493   2.843   4.184  15.825 -0.7164  0.1444  0.2599
  706TMC3     O10494   2.938   4.137  15.888  0.7985  0.6268 -0.7682
  706TMC3     H10495   2.728   4.419  15.756  0.1942 -0.0785 -0.1611
  706TMC3    H110496   2.802   4.164  16.081 -0.2674 -1.3541 -2.1874
  706TMC3    H210497   2.615   4.550  16.146 -0.9060 -0.3457 -0.3905
  706TMC3    C710498   2.723   4.309  16.269 -0.2063 -0.1305 -0.6625
  706TMC3    C810499   2.663   4.621  15.901  0.5344  0.4168 -0.0574
  706TMC3    O110500   2.832   4.304  16.314  0.1505  0.2764  0.5812
  706TMC3    O210501   2.645   4.632  15.783  0.1018  0.6631 -0.5226
  707TMC3    C110502   4.261   3.531   1.484 -0.6594 -0.7786  0.4870
  707TMC3    C210503   4.257   3.490   1.615 -0.5984  0.4664  1.5046
  707TMC3    C310504   4.137   3.474   1.670 -0.4272  0.4787 -0.2592
  707TMC3    C410505   4.150   3.534   1.407  0.2809 -0.1837 -0.3502
  707TMC3    C510506   4.029   3.513   1.466 -0.9454  0.2506  0.3586
  707TMC3    C610507   4.022   3.481   1.600  0.2065 -0.8054 -0.2207
  707TMC3     C10508   4.390   3.527   1.416  0.1693 -0.3330 -0.7582
  707TMC3     O10509   4.400   3.497   1.298  0.5783  0.0154 -0.0641
  707TMC3     H10510   4.342   3.476   1.681 -1.2257 -2.3188  1.6829
  707TMC3    H110511   4.159   3.567   1.304  0.1783  0.8152 -0.0429
  707TMC3    H210512   3.927   3.463   1.649  0.8516 -0.3153  1.1907
  707TMC3    C710513   3.909   3.520   1.396  0.4178  0.3763 -0.1995
  707TMC3    C810514   4.143   3.372   1.767  0.0276 -0.3143 -0.1957
  707TMC3    O110515   3.818   3.578   1.456  0.2974 -0.2274  0.1444
  707TMC3    O210516   4.101   3.393   1.882  0.1886 -0.9102 -0.3380
  708MPD2     C10517   0.023   2.373  14.610 -0.2826  0.0469 -0.2720
  708MPD2    C110518   0.054   2.508  14.611 -0.1476 -0.3376 -0.0059
  708MPD2    C210519   0.153   2.554  14.691  1.0138  0.4140  0.3583
  708MPD2    C310520   0.224   2.464  14.770 -0.5308  0.2288  0.7368
  708MPD2    C410521   0.209   2.329  14.759  0.5623  0.2348 -0.8035
  708MPD2    C510522   0.105   2.287  14.676  0.1508 -0.5631  0.4903
  708MPD2     H10523   0.183   2.658  14.690  1.7657  0.2150  1.5396
  708MPD2    H110524   0.267   2.254  14.811 -0.6592 -0.1930 -0.0689
  708MPD2    H210525   4.698   2.335  14.535  1.4340 -2.3138 -0.6661
  708MPD2    H310526   0.095   2.179  14.669 -0.9148 -0.3914 -0.7315
  708MPD2     N10527   0.328   2.528  14.848  0.4393 -0.2121  0.0889
  708MPD2    H510528   0.328   2.628  14.861 -0.0682 -0.1663 -0.2372
  708MPD2    N110529   4.742   2.579  14.503  0.0506  0.6376 -0.6095
  708MPD2    H710530   4.680   2.532  14.437 -0.9584 -1.4993  1.8751
  709TMC3    C110531   4.737   2.763  14.352  0.3203 -0.4353  0.4766
  709TMC3    C210532   0.016   2.673  14.253  0.3464 -0.2679 -0.0198
  709TMC3    C310533   0.098   2.707  14.151 -0.3098 -0.0168  0.1296
  709TMC3    C410534   0.051   2.881  14.347  0.1354 -0.7451 -1.0305
  709TMC3    C510535   0.136   2.912  14.247  0.4403 -0.0251  0.1954
  709TMC3    C610536   0.151   2.835  14.135 -0.0984  0.2760  0.2987
  709TMC3     C10537   0.016   2.717  14.489  0.6567  0.4279 -0.2692
  709TMC3     O10538   0.060   2.798  14.573  0.3198  0.1293  0.3512
  709TMC3     H10539   4.698   2.583  14.253  1.7455 -1.2282 -0.2142
  709TMC3    H110540   0.046   2.956  14.425  1.6645 -0.6538 -1.0247
  709TMC3    H210541   0.231   2.855  14.064  0.0846 -2.2061 -0.2190
  709TMC3    C710542   0.246   2.987  14.294  0.3612  0.0286  0.4792
  709TMC3    C810543   0.091   2.615  14.042 -0.3343 -0.6640  0.4955
  709TMC3    O110544   0.331   3.034  14.210  0.1590 -0.8600  0.6113
  709TMC3    O210545   4.736   2.542  14.025  0.1330  0.5529  0.1921
  710TMC3    C110546   1.900   4.183   0.034  0.5938  0.3078 -0.5376
  710TMC3    C210547   1.918   4.122  17.682  0.0506  0.0449  0.5844
  710TMC3    C310548   1.998   4.018  17.673 -0.3798  0.8123 -0.3051
  710TMC3    C410549   1.955   4.133   0.150  0.5029  0.2269 -0.7305
  710TMC3    C510550   2.056   4.038   0.128  0.3551 -0.0256  0.7643
  710TMC3    C610551   2.077   3.978   0.004  0.4037 -0.4353  0.0179
  710TMC3     C10552   1.799   4.292   0.032 -0.6794 -0.2075 -0.6757
  710TMC3     O10553   1.758   4.335  17.694  0.4766 -0.4399 -0.4888
  710TMC3     H10554   1.851   4.147  17.601  1.5907  1.4987 -0.2491
  710TMC3    H110555   1.930   4.164   0.251  2.3881  0.9913 -0.5115
  710TMC3    H210556   2.156   3.905  17.763  0.1163 -0.3736 -2.1814
  710TMC3    C710557   2.098   3.965   0.250  0.5809 -0.2275  0.5129
  710TMC3    C810558   2.035   3.948  17.547  0.2590 -0.0195  0.4215
  710TMC3    O110559   2.046   3.994   0.358 -0.5163 -0.3062 -0.3334
  710TMC3    O210560   2.086   3.839  17.555  0.3040  0.2486 -0.3554
  711TMC3    C110561   1.331   4.710  14.799  0.4386  0.0691  0.3412
  711TMC3    C210562   1.330   0.038  14.914 -0.6713  0.6197  0.2718
  711TMC3    C310563   1.448   0.092  14.957 -0.0224  0.2401 -0.8294
  711TMC3    C410564   1.451   4.688  14.737 -0.4820 -0.3872 -0.7089
  711TMC3    C510565   1.570   4.740  14.786  0.4697 -0.1368  0.1456
  711TMC3    C610566   1.569   0.079  14.894  0.1707  0.3882 -0.0991
  711TMC3     C10567   1.247   4.599  14.792  0.3164  0.7931  0.1803
  711TMC3     O10568   1.129   4.610  14.760 -0.0684 -0.2175 -0.5407
  711TMC3     H10569   1.241   0.043  14.975 -1.3626  1.1267 -0.7896
  711TMC3    H110570   1.445   4.640  14.640  1.1888  2.7679 -2.3651
  711TMC3    H210571   1.662   0.109  14.939 -0.1797  1.3429 -0.0271
  711TMC3    C710572   1.686   4.652  14.780  0.5878 -0.5786  0.0443
  711TMC3    C810573   1.442   0.131  15.097 -0.3123  0.1498  0.3040
  711TMC3    O110574   1.776   4.683  14.859  0.3876  0.0399  0.3635
  711TMC3    O210575   1.335   0.120  15.147  0.0679 -0.1299 -0.2028
  712MPD2     C10576   2.644   1.236  13.998 -0.0958  0.1199  0.2462
  712MPD2    C110577   2.608   1.245  13.868  0.4625  0.2293 -0.7408
  712MPD2    C210578   2.623   1.364  13.796  0.2599 -0.1507 -0.0325
  712MPD2    C310579   2.683   1.476  13.848 -0.7336  0.1868  0.5893
  712MPD2    C410580   2.724   1.464  13.981  0.3200 -0.8106  0.0860
  712MPD2    C510581   2.714   1.343  14.048  0.3165  0.2937 -0.1845
  712MPD2     H10582   2.583   1.362  13.695  0.3048 -5.3709  0.0600
  712MPD2    H110583   2.767   1.546  14.038  1.9311 -0.2579 -1.8834
  712MPD2    H210584   2.636   1.149  14.062  2.5830 -1.0340 -0.9766
  712MPD2    H310585   2.740   1.323  14.151 -0.5195 -1.1672 -0.2564
  712MPD2     N10586   2.720   1.590  13.772 -0.0562 -0.8578  0.6013
  712MPD2    H510587   2.785   1.656  13.814 -0.9048 -0.7114  1.6925
  712MPD2    N110588   2.537   1.140  13.800  0.4491 -0.0457 -0.7536
  712MPD2    H710589   2.483   1.165  13.718 -0.5937 -0.0838 -0.0702
  713TMC3    C110590   2.750   1.726  13.597  0.1507 -0.0755 -0.5283
  713TMC3    C210591   2.861   1.702  13.521  0.3579  0.1178  0.1682
  713TMC3    C310592   2.963   1.791  13.539 -0.3318 -0.0929  0.7869
  713TMC3    C410593   2.732   1.833  13.685 -0.2849 -0.5234 -0.2991
  713TMC3    C510594   2.840   1.918  13.690  0.2874 -0.1632  0.6816
  713TMC3    C610595   2.954   1.894  13.623 -0.8766  0.0823 -0.3824
  713TMC3     C10596   2.684   1.610  13.640  0.8618 -0.1450 -0.0415
  713TMC3     O10597   2.642   1.542  13.549 -0.4492  0.1109  0.4954
  713TMC3     H10598   2.867   1.623  13.447  0.3428 -0.1770  0.4764
  713TMC3    H110599   2.649   1.855  13.751 -0.0137 -0.3398 -0.0195
  713TMC3    H210600   3.034   1.966  13.634 -0.9049 -0.5190  3.7789
  713TMC3    C710601   2.807   2.056  13.737 -0.0782 -0.9325  0.2490
  713TMC3    C810602   3.093   1.742  13.501 -0.3412  0.2320 -0.6004
  713TMC3    O110603   2.901   2.115  13.785  0.7648 -0.0942 -0.5925
  713TMC3    O210604   3.097   1.695  13.386 -0.2281 -0.4376 -0.5311
  714MPD2     C10605   0.488   0.442   1.397 -0.1070 -0.2552  0.2866
  714MPD2    C110606   0.513   0.346   1.301  0.1854  0.4367  0.0002
  714MPD2    C210607   0.461   0.355   1.171  0.1042  0.2326 -0.4722
  714MPD2    C310608   0.382   0.455   1.140 -0.3909  0.0605 -0.8160
  714MPD2    C410609   0.358   0.557   1.235  0.6035 -0.5722  0.3818
  714MPD2    C510610   0.415   0.551   1.359 -0.1647 -0.1157 -0.1884
  714MPD2     H10611   0.488   0.269   1.112 -0.6339 -0.6382  0.4641
  714MPD2    H110612   0.304   0.648   1.209 -1.1634 -1.1656  1.9863
  714MPD2    H210613   0.528   0.447   1.498  0.0409  0.3959  0.1974
  714MPD2    H310614   0.392   0.629   1.431  2.1981  1.3872 -1.0132
  714MPD2     N10615   0.335   0.484   1.011 -0.3376  0.5259 -0.3022
  714MPD2    H510616   0.281   0.567   0.993 -1.2183 -0.1092 -0.5913
  714MPD2    N110617   0.602   0.248   1.351 -0.2334  0.1561 -0.1798
  714MPD2    H710618   0.645   0.269   1.440  2.3823 -2.7255 -0.7758
  715TMC3    C110619   0.759   0.068   1.350  0.1376  0.3797 -1.1981
  715TMC3    C210620   0.808   4.713   1.270  0.4983  0.3118  0.3429
  715TMC3    C310621   0.889   4.626   1.335 -0.4967  0.4133  0.1241
  715TMC3    C410622   0.804   0.098   1.474  0.9598 -0.4093  0.1517
  715TMC3    C510623   0.885   0.010   1.533 -0.4934  0.3393  0.6476
  715TMC3    C610624   0.935   4.645   1.463 -0.3752  0.1418 -0.0456
  715TMC3     C10625   0.649   0.138   1.282 -0.4279 -0.5053  0.0652
  715TMC3     O10626   0.602   0.086   1.183 -0.1078  0.0305 -0.3541
  715TMC3     H10627   0.798   4.705   1.162 -0.0832 -0.2166  0.4340
  715TMC3    H110628   0.762   0.176   1.536  1.6131  1.1981 -1.4375
  715TMC3    H210629   1.003   4.580   1.517 -0.0201  0.3930 -0.1857
  715TMC3    C710630   0.992   0.073   1.607  0.2032 -0.4178 -1.0775
  715TMC3    C810631   0.970   4.553   1.251  0.3380  0.5180 -0.2919
  715TMC3    O110632   1.109   0.038   1.589 -0.4475 -0.5223  0.0936
  715TMC3    O210633   0.916   4.497   1.151  0.4855  0.3238 -0.4284
  716MPD2     C10634   0.602   3.297  10.074 -0.4920 -1.2413 -0.1584
  716MPD2    C110635   0.526   3.354   9.974 -0.4130 -0.4187 -0.4616
  716MPD2    C210636   0.499   3.284   9.859  0.2028 -0.7954 -0.3718
  716MPD2    C310637   0.560   3.161   9.830  0.7435  0.0048  0.3058
  716MPD2    C410638   0.641   3.110   9.932  0.1590  0.0244 -0.2164
  716MPD2    C510639   0.655   3.176  10.052  0.5465  0.0395 -0.3218
  716MPD2     H10640   0.430   3.327   9.787  0.6985 -0.9071 -0.9155
  716MPD2    H110641   0.696   3.017   9.919  0.4434  0.2017 -0.2704
  716MPD2    H210642   0.608   3.338  10.174 -1.1096  1.0730 -1.0487
  716MPD2    H310643   0.713   3.130  10.131  1.1897 -1.1284 -1.4919
  716MPD2     N10644   0.528   3.104   9.707  0.2897  0.0993  0.1609
  716MPD2    H510645   0.465   3.164   9.655 -0.6004 -0.1220  0.9816
  716MPD2    N110646   0.464   3.479  10.002 -0.4200  0.2649 -0.8220
  716MPD2    H710647   0.478   3.511  10.098 -1.1767 -1.6942 -0.0674
  717TMC3    C110648   0.466   2.935   9.559  0.1345  0.0223 -0.0233
  717TMC3    C210649   0.359   3.017   9.518  0.3867  0.1319 -0.1811
  717TMC3    C310650   0.264   2.955   9.443  0.6399  0.2097  0.5925
  717TMC3    C410651   0.486   2.811   9.506  0.2345 -0.4652  0.4717
  717TMC3    C510652   0.383   2.755   9.436 -0.1670 -0.1816  0.0530
  717TMC3    C610653   0.272   2.824   9.399 -0.0347 -0.1059  0.1478
  717TMC3     C10654   0.534   2.971   9.682  0.2323 -0.4980  0.0715
  717TMC3     O10655   0.604   2.886   9.745 -0.4222  0.3166 -0.5397
  717TMC3     H10656   0.331   3.110   9.565 -0.9926  0.1405 -1.0108
  717TMC3    H110657   0.572   2.758   9.543 -0.4800  0.7912  3.9378
  717TMC3    H210658   0.199   2.775   9.336 -0.4191  0.1887  0.3601
  717TMC3    C710659   0.379   2.603   9.414 -0.3403 -0.2536 -0.2309
  717TMC3    C810660   0.139   3.027   9.443 -0.4225 -0.2168 -0.4366
  717TMC3    O110661   0.275   2.563   9.361 -0.5374 -0.3973 -0.0809
  717TMC3    O210662   0.150   3.148   9.422  0.1721  0.0851 -0.0165
  718MPD2     C10663   4.155   1.647  12.233  0.2108 -0.5585  0.4136
  718MPD2    C110664   4.185   1.651  12.373  0.2459 -0.4062 -0.0100
  718MPD2    C210665   4.145   1.547  12.453  0.8098 -0.4426 -0.3638
  718MPD2    C310666   4.077   1.435  12.402 -0.1007  0.0867 -0.5497
  718MPD2    C410667   4.035   1.443  12.266  0.0571  0.3573 -0.7344
  718MPD2    C510668   4.078   1.546  12.185 -0.5265  0.3660 -0.1632
  718MPD2     H10669   4.162   1.552  12.560 -1.8047  0.4184  0.0089
  718MPD2    H110670   3.975   1.358  12.235 -1.4537  0.6456  1.3708
  718MPD2    H210671   4.206   1.712  12.162 -1.2405 -0.5714 -0.6416
  718MPD2    H310672   4.044   1.541  12.083  0.4348  1.8068 -0.5508
  718MPD2     N10673   4.058   1.322  12.491 -0.0511 -0.0143 -0.0389
  718MPD2    H510674   4.089   1.317  12.588  0.0893 -0.2107 -0.0952
  718MPD2    N110675   4.262   1.752  12.439 -0.6624  0.4781  0.5916
  718MPD2    H710676   4.269   1.730  12.538 -1.5285  1.7071  0.9368
  719TMC3    C110677   4.428   1.908  12.478  0.4368  0.2306  0.4763
  719TMC3    C210678   4.425   1.856  12.606  0.1577  0.3444 -0.1034
  719TMC3    C310679   4.525   1.773  12.648 -0.2479 -0.5946  0.2109
  719TMC3    C410680   4.545   1.897  12.410  0.3875 -0.8366 -0.3663
  719TMC3    C510681   4.651   1.835  12.469  0.4338 -0.2298 -0.2150
  719TMC3    C610682   4.644   1.762  12.582  0.5187 -0.4071 -0.0793
  719TMC3     C10683   4.330   1.856  12.385 -0.4323  0.3076 -0.1998
  719TMC3     O10684   4.353   1.873  12.265 -0.5299  0.4845 -0.0048
  719TMC3     H10685   4.336   1.870  12.667 -0.7091 -0.5336 -1.1573
  719TMC3    H110686   4.566   1.941  12.313  0.4877  0.5061  0.2524
  719TMC3    H210687   4.719   1.684  12.590 -0.4726 -1.2458  0.9296
  719TMC3    C710688   0.040   1.875  12.435  0.0047 -0.6524  0.5469
  719TMC3    C810689   4.476   1.652  12.700 -0.0120 -0.2200  0.4722
  719TMC3    O110690   0.057   1.937  12.333  0.5537 -0.6786  0.0402
  719TMC3    O210691   4.360   1.626  12.669 -0.4365 -0.3573  0.3316
  720MPD2     C10692   3.144   3.014  13.941 -0.6547  0.0455  0.1620
  720MPD2    C110693   3.233   3.089  13.866  0.4935  1.0737 -0.6223
  720MPD2    C210694   3.333   3.154  13.933 -0.3752 -0.1100  0.5154
  720MPD2    C310695   3.343   3.133  14.072  0.5236  0.3307  0.7529
  720MPD2    C410696   3.253   3.047  14.139  0.1434 -0.4318  0.0287
  720MPD2    C510697   3.158   2.987  14.067 -0.8975 -0.1948 -0.0037
  720MPD2     H10698   3.399   3.223  13.880  0.0214 -1.0982 -0.2656
  720MPD2    H110699   3.264   3.020  14.244 -0.6204 -0.2127  0.1643
  720MPD2    H210700   3.062   2.956  13.900  0.2270 -0.7894 -0.4301
  720MPD2    H310701   3.089   2.921  14.119 -2.4450  1.9461  0.6764
  720MPD2     N10702   3.454   3.190  14.131 -0.3484 -0.3204  0.2232
  720MPD2    H510703   3.523   3.241  14.076 -1.2392  1.4999  0.8079
  720MPD2    N110704   3.226   3.111  13.726 -0.1890 -0.0397 -0.3208
  720MPD2    H710705   3.303   3.170  13.693 -0.7744  1.0064  0.1809
  721TMC3    C110706   3.611   3.253  14.294  0.9472 -0.4396 -1.2058
  721TMC3    C210707   3.635   3.298  14.415 -0.4338 -0.4011 -0.2354
  721TMC3    C310708   3.745   3.374  14.439  0.6902  0.2284 -0.2411
  721TMC3    C410709   3.703   3.279  14.192  0.6097 -0.3026  0.6392
  721TMC3    C510710   3.820   3.353  14.224  0.2053  0.0042  0.3695
  721TMC3    C610711   3.835   3.413  14.342  0.0887  0.1206 -0.7720
  721TMC3     C10712   3.485   3.184  14.261  0.4328  0.1818  0.2539
  721TMC3     O10713   3.425   3.126  14.352  0.1439  0.5106  0.5006
  721TMC3     H10714   3.569   3.267  14.495  0.2638  0.8183  0.8002
  721TMC3    H110715   3.690   3.254  14.087 -0.2077  0.2802  0.6021
  721TMC3    H210716   3.917   3.478  14.367 -2.0660  2.2752  0.7259
  721TMC3    C710717   3.918   3.389  14.124 -0.4924 -0.5550  0.2485
  721TMC3    C810718   3.779   3.422  14.561 -0.0047 -0.0575  0.2132
  721TMC3    O110719   3.990   3.482  14.154 -0.6211  0.4882  0.1672
  721TMC3    O210720   3.896   3.450  14.582  0.2033  0.2640  0.5509
  722MPD2     C10721   1.736   1.997  13.321  0.1865 -1.0692 -0.2399
  722MPD2    C110722   1.719   2.120  13.272 -1.1794 -0.9713 -0.4352
  722MPD2    C210723   1.596   2.145  13.223  0.2846 -0.6178 -1.0082
  722MPD2    C310724   1.491   2.057  13.224 -0.3026  0.0630  0.2497
  722MPD2    C410725   1.504   1.937  13.296 -0.5269  0.0892  1.0881
  722MPD2    C510726   1.631   1.912  13.342 -0.1724  0.3356  0.6883
  722MPD2     H10727   1.590   2.245  13.184 -1.0720  0.1278  1.1184
  722MPD2    H110728   1.424   1.866  13.308 -2.2409  2.0484  1.1698
  722MPD2    H210729   1.830   1.952  13.349  0.2508 -1.6844 -1.4425
  722MPD2    H310730   1.642   1.815  13.389  0.1004  0.0077 -0.0382
  722MPD2     N10731   1.370   2.102  13.170 -0.4215 -0.3553 -0.3346
  722MPD2    H510732   1.365   2.198  13.137 -2.0265  0.8502  3.4572
  722MPD2    N110733   1.809   2.217  13.289  0.2346 -0.3909 -0.5983
  722MPD2    H710734   1.787   2.310  13.254 -3.7513 -0.9423  0.4030
  723TMC3    C110735   1.156   2.085  13.065 -0.1183  0.9110 -0.2197
  723TMC3    C210736   1.067   2.004  13.011 -0.5411 -0.3980 -0.4478
  723TMC3    C310737   0.973   2.051  12.923 -0.0830 -0.5265  0.2350
  723TMC3    C410738   1.148   2.224  13.044  0.3835  0.8537  0.5465
  723TMC3    C510739   1.047   2.274  12.957 -0.4079 -0.1740  0.9086
  723TMC3    C610740   0.955   2.185  12.901 -0.4758 -0.0147  0.3442
  723TMC3     C10741   1.261   2.022  13.147 -0.3810 -0.3115 -0.1150
  723TMC3     O10742   1.255   1.898  13.160  0.0196  0.1750 -0.3832
  723TMC3     H10743   1.077   1.899  13.036 -2.0274 -0.7631 -1.3600
  723TMC3    H110744   1.208   2.297  13.097  2.5002  0.4654 -1.3289
  723TMC3    H210745   0.868   2.220  12.848 -0.9758 -0.6262  0.7664
  723TMC3    C710746   1.010   2.414  12.970  0.0414  0.5612  0.2857
  723TMC3    C810747   0.863   1.968  12.879  0.0540 -0.0480  0.0223
  723TMC3    O110748   1.093   2.491  13.023  0.1503  0.1061 -0.2408
  723TMC3    O210749   0.757   2.017  12.850 -0.3989  0.0147 -0.1610
  724TMC3    C110750   1.902   0.338  10.755  1.1758 -0.5231 -0.2587
  724TMC3    C210751   1.858   0.348  10.623 -0.7244  0.1729 -0.2001
  724TMC3    C310752   1.943   0.413  10.537 -1.3019 -0.9207  0.4963
  724TMC3    C410753   2.022   0.383  10.800  0.5069  0.0549 -0.1667
  724TMC3    C510754   2.102   0.436  10.704  0.0586  0.1731 -0.0298
  724TMC3    C610755   2.066   0.457  10.571  0.6898 -0.2969  1.0673
  724TMC3     C10756   1.809   0.285  10.850 -0.5626 -0.1648 -0.2305
  724TMC3     O10757   1.839   0.294  10.971 -0.3575 -0.3191 -0.0540
  724TMC3     H10758   1.753   0.344  10.598 -0.9795 -1.8659  1.2295
  724TMC3    H110759   2.052   0.376  10.904 -2.1488  2.5902  0.7736
  724TMC3    H210760   2.142   0.484  10.499 -0.6917 -0.0264 -0.2804
  724TMC3    C710761   2.216   0.515  10.741  0.3318  0.4389  1.4229
  724TMC3    C810762   1.887   0.450  10.410 -0.1660 -0.5307  0.0309
  724TMC3    O110763   2.230   0.606  10.664  1.1570  0.3046 -0.0966
  724TMC3    O210764   1.812   0.376  10.349  0.2865  0.7040 -0.1681
  725TMC3    C110765   3.835   3.403  13.256  0.6739  0.2658 -0.0378
  725TMC3    C210766   3.733   3.422  13.165  0.0349  0.5086  0.4454
  725TMC3    C310767   3.651   3.318  13.133  0.8279  0.0266  0.1527
  725TMC3    C410768   3.841   3.287  13.332 -0.3485 -0.1490 -0.9987
  725TMC3    C510769   3.754   3.193  13.296  0.2421 -0.2712 -0.6673
  725TMC3    C610770   3.658   3.204  13.198  0.1296 -0.5198 -0.2093
  725TMC3     C10771   3.937   3.501  13.268 -0.3051  0.8296 -0.3676
  725TMC3     O10772   3.925   3.603  13.202 -0.5310 -0.3208 -0.5633
  725TMC3     H10773   3.729   3.520  13.118  1.3741  1.1689  1.7194
  725TMC3    H110774   3.911   3.256  13.408 -1.0900  2.7441  0.8506
  725TMC3    H210775   3.578   3.130  13.195 -0.2029 -0.1883  0.6139
  725TMC3    C710776   3.776   3.058  13.357 -0.5526 -0.0951  0.3033
  725TMC3    C810777   3.542   3.322  13.033  0.0957 -0.0156  0.3456
  725TMC3    O110778   3.796   3.057  13.479 -0.1772  0.0096 -0.7574
  725TMC3    O210779   3.480   3.217  13.025 -0.2520 -0.1815 -0.4590
  726MPD2     C10780   1.647   0.779  11.123 -0.6010  0.0327 -0.2177
  726MPD2    C110781   1.518   0.777  11.069 -0.7265  0.0762  0.2744
  726MPD2    C210782   1.437   0.669  11.097 -0.8244 -0.3073  0.9916
  726MPD2    C310783   1.474   0.567  11.176 -0.0294 -0.9740 -0.2524
  726MPD2    C410784   1.597   0.568  11.234  0.0190  0.1004 -1.0276
  726MPD2    C510785   1.685   0.676  11.208  0.5297  0.2260 -0.4314
  726MPD2     H10786   1.335   0.664  11.060 -0.1620 -1.1264 -0.7374
  726MPD2    H110787   1.631   0.483  11.291  1.2742  1.3770  0.1224
  726MPD2    H210788   1.707   0.865  11.094 -0.1218 -0.3051 -0.2140
  726MPD2    H310789   1.781   0.665  11.256  0.1592 -0.1276  0.2335
  726MPD2     N10790   1.392   0.465  11.221  0.1370  0.1656 -0.0123
  726MPD2    H510791   1.425   0.400  11.292 -0.8074 -0.8169 -0.4622
  726MPD2    N110792   1.467   0.879  10.986  0.3121 -0.1493 -0.0060
  726MPD2    H710793   1.382   0.850  10.938  0.1139 -0.7804  0.7173
  727TMC3    C110794   1.455   1.055  10.833 -0.4278 -0.1727  0.7442
  727TMC3    C210795   1.511   1.177  10.798  0.9425 -0.4074 -0.2567
  727TMC3    C310796   1.431   1.257  10.717 -0.0066 -0.4240 -0.2838
  727TMC3    C410797   1.330   1.013  10.782  0.2253 -0.0554 -0.0808
  727TMC3    C510798   1.270   1.090  10.691  0.3000 -0.9153  0.0204
  727TMC3    C610799   1.318   1.212  10.653  0.4413 -0.5338  0.1573
  727TMC3     C10800   1.537   0.977  10.927  0.0265  0.4626 -0.2861
  727TMC3     O10801   1.635   1.030  10.969  0.5538  0.1554  0.0121
  727TMC3     H10802   1.604   1.214  10.841  0.2188  1.5970 -0.4244
  727TMC3    H110803   1.291   0.914  10.802  1.8801 -0.8645 -0.8615
  727TMC3    H210804   1.267   1.279  10.585  1.0599  1.3909  1.6059
  727TMC3    C710805   1.129   1.068  10.652  0.3908 -0.3637  0.1061
  727TMC3    C810806   1.468   1.395  10.720 -0.0413  0.0324  0.0835
  727TMC3    O110807   1.064   1.161  10.611 -0.7653  0.6572  0.8124
  727TMC3    O210808   1.580   1.409  10.768  0.3377  0.2409 -0.0129
  728TMC3    C110809   1.077   3.841  15.498 -0.1206  0.3667  0.3840
  728TMC3    C210810   1.176   3.795  15.412  0.3311 -0.0097  0.1293
  728TMC3    C310811   1.153   3.793  15.274  0.4317 -0.2994 -0.0752
  728TMC3    C410812   0.968   3.914  15.458  0.4272 -0.6862  0.2486
  728TMC3    C510813   0.950   3.916  15.324 -0.4023  0.7502 -0.8692
  728TMC3    C610814   1.035   3.856  15.230 -0.5275 -0.1728  0.1202
  728TMC3     C10815   1.071   3.772  15.621 -0.1903 -0.2112  0.7616
  728TMC3     O10816   1.180   3.732  15.668 -0.8463 -0.4729 -0.2963
  728TMC3     H10817   1.265   3.743  15.443  0.4816  0.1164 -0.0914
  728TMC3    H110818   0.896   3.950  15.531 -0.4117  0.3477 -1.0851
  728TMC3    H210819   1.010   3.845  15.125 -0.7491 -0.8070  0.2418
  728TMC3    C710820   0.821   3.964  15.286 -0.2593  0.2008  0.0516
  728TMC3    C810821   1.255   3.726  15.192 -0.4600  0.0099  0.8805
  728TMC3    O110822   0.721   3.932  15.351 -0.4624 -0.4035  0.2482
  728TMC3    O210823   1.313   3.635  15.247  0.1369 -0.0783 -0.7018
  729MPD2     C10824   3.265   0.244  16.408 -0.4334 -1.0284 -0.3874
  729MPD2    C110825   3.278   0.379  16.446 -0.6006 -0.0416 -0.4301
  729MPD2    C210826   3.170   0.438  16.503  0.6977 -0.1225  0.5356
  729MPD2    C310827   3.053   0.366  16.526 -0.2751 -0.1380 -0.1911
  729MPD2    C410828   3.035   0.249  16.464 -0.8623  0.5801  1.0805
  729MPD2    C510829   3.142   0.184  16.416 -1.0060 -0.0514 -0.5155
  729MPD2     H10830   3.181   0.542  16.534 -0.9321  0.3350 -0.4190
  729MPD2    H110831   2.946   0.190  16.443  0.1366  0.5387 -3.0577
  729MPD2    H210832   3.349   0.187  16.371  1.3127  0.7003  0.9176
  729MPD2    H310833   3.131   0.089  16.365 -2.7315 -0.6365  0.9322
  729MPD2     N10834   2.937   0.419  16.596  0.0813 -0.6452 -0.3758
  729MPD2    H510835   2.862   0.351  16.606  0.3797 -1.0929 -1.2354
  729MPD2    N110836   3.403   0.447  16.437 -0.3509 -0.3268 -0.0163
  729MPD2    H710837   3.474   0.403  16.380  1.2989 -1.2631  2.7254
  730TMC3    C110838   2.821   0.554  16.741 -0.3985  0.3507  1.0451
  730TMC3    C210839   2.855   0.473  16.852  0.3622  0.3903  0.1510
  730TMC3    C310840   2.848   0.533  16.977  0.0465 -0.0117  0.5492
  730TMC3    C410841   2.785   0.682  16.759  0.1071  0.3758 -0.0018
  730TMC3    C510842   2.763   0.735  16.884 -0.3959 -0.8262  0.5736
  730TMC3    C610843   2.786   0.657  16.998  0.1291  0.2146  0.3543
  730TMC3     C10844   2.920   0.542  16.638 -0.6676 -0.3280 -0.5111
  730TMC3     O10845   2.969   0.647  16.591  0.5108  0.1794 -0.1182
  730TMC3     H10846   2.901   0.376  16.840  1.8327  1.1108  0.0338
  730TMC3    H110847   2.773   0.742  16.669 -1.6476 -0.4485 -0.3248
  730TMC3    H210848   2.766   0.697  17.096 -1.0348 -0.8422  0.5669
  730TMC3    C710849   2.787   0.876  16.893  0.0397 -0.5167 -0.0293
  730TMC3    C810850   2.891   0.451  17.086 -0.6227 -0.1908 -0.1923
  730TMC3    O110851   2.860   0.918  16.807  0.3155  0.3540  0.1258
  730TMC3    O210852   2.887   0.330  17.071 -0.8323  0.1682  0.4697
  731MPD2     C10853   3.099   2.671  12.373 -0.1755 -0.4904  0.2423
  731MPD2    C110854   3.175   2.564  12.334 -0.2816 -0.3443 -0.8286
  731MPD2    C210855   3.168   2.439  12.398  0.1155 -0.0877  0.0789
  731MPD2    C310856   3.069   2.422  12.496  0.5337 -0.0430  0.6520
  731MPD2    C410857   2.991   2.534  12.527 -0.4645 -0.2545  0.1740
  731MPD2    C510858   3.006   2.662  12.473  0.5795  0.2286 -0.3641
  731MPD2     H10859   3.230   2.355  12.369 -0.9942 -0.3166 -1.6277
  731MPD2    H110860   2.914   2.527  12.603 -0.8634 -1.2913 -0.3147
  731MPD2    H210861   3.108   2.759  12.312  0.0178 -0.4521  0.3264
  731MPD2    H310862   2.944   2.748  12.496  0.9078  1.1282 -2.9137
  731MPD2     N10863   3.052   2.299  12.566 -0.1266  0.8210 -0.1677
  731MPD2    H510864   3.106   2.223  12.525 -0.8726  1.0944 -1.6587
  731MPD2    N110865   3.260   2.593  12.222  0.3600  0.0360 -0.6150
  731MPD2    H710866   3.261   2.686  12.182  1.1399  0.0031 -0.6738
  732TMC3    C110867   3.448   2.560  12.075  0.4863  0.7197 -0.1325
  732TMC3    C210868   3.390   2.577  11.953 -0.2305 -0.2847 -0.2013
  732TMC3    C310869   3.460   2.525  11.847  0.4610  0.6386  0.0676
  732TMC3    C410870   3.576   2.514  12.090  0.6329 -0.0526 -0.0576
  732TMC3    C510871   3.647   2.473  11.983  0.6507  0.5634  0.3848
  732TMC3    C610872   3.592   2.475  11.860  0.1444 -0.1437 -0.3723
  732TMC3     C10873   3.355   2.500  12.173  0.2412 -0.5650  0.8618
  732TMC3     O10874   3.406   2.405  12.233  0.1417  0.2786  0.2545
  732TMC3     H10875   3.297   2.630  11.938  0.4802  1.0690  0.0909
  732TMC3    H110876   3.608   2.497  12.192 -1.0720  2.5972  0.9215
  732TMC3    H210877   3.646   2.466  11.767  0.2716  1.3351 -0.4447
  732TMC3    C710878   3.762   2.386  11.996 -0.6137  0.0524  0.3002
  732TMC3    C810879   3.401   2.509  11.713 -0.5143 -0.0169  0.0898
  732TMC3    O110880   3.796   2.318  11.902  0.5742 -0.4217 -0.8616
  732TMC3    O210881   3.472   2.509  11.617 -0.5581 -0.1986  0.3950
  733TMC3    C110882   3.921   1.000  12.756  0.1039  0.0919  0.6148
  733TMC3    C210883   3.899   1.053  12.630 -0.0195 -0.7801  0.3487
  733TMC3    C310884   4.008   1.105  12.569  0.1050 -0.2977  0.1429
  733TMC3    C410885   4.044   0.991  12.813 -0.1582  0.3850  0.2776
  733TMC3    C510886   4.149   1.040  12.739  0.1440  0.9594 -0.5453
  733TMC3    C610887   4.132   1.099  12.618  0.4618 -0.1896  0.0929
  733TMC3     C10888   3.803   0.945  12.814 -0.0831 -0.4448  0.1378
  733TMC3     O10889   3.701   0.988  12.765  0.3614 -0.2573  0.2678
  733TMC3     H10890   3.803   1.063  12.579  0.7007  3.1597 -0.2499
  733TMC3    H110891   4.059   0.969  12.918 -0.6928 -0.2322  0.2237
  733TMC3    H210892   4.215   1.137  12.560 -1.2107  2.3574 -0.6059
  733TMC3    C710893   4.276   1.057  12.812 -0.3327  0.0489  0.7961
  733TMC3    C810894   3.989   1.202  12.462  0.2008 -0.3023 -0.3390
  733TMC3    O110895   4.280   1.003  12.921 -0.3586  0.4315 -0.7030
  733TMC3    O210896   3.916   1.175  12.368 -0.1172 -0.1613 -0.0985
  734MPD2     C10897   1.397   3.945  12.535 -0.2544  0.0066 -0.4609
  734MPD2    C110898   1.339   3.873  12.429  0.2579  0.4249 -0.3594
  734MPD2    C210899   1.403   3.891  12.304  0.0749  0.0116 -0.0167
  734MPD2    C310900   1.495   3.984  12.289 -0.6404  0.2442 -0.5919
  734MPD2    C410901   1.521   4.076  12.382 -0.0301  0.2616 -0.4405
  734MPD2    C510902   1.478   4.050  12.507  0.1865 -0.1028  0.0387
  734MPD2     H10903   1.381   3.818  12.226  1.6773  0.5148 -0.9423
  734MPD2    H110904   1.583   4.163  12.361 -0.5796  0.9250  0.6491
  734MPD2    H210905   1.376   3.927  12.639 -0.6496 -1.6914 -0.8428
  734MPD2    H310906   1.512   4.100  12.597  0.0014 -1.5607  0.9163
  734MPD2     N10907   1.555   3.987  12.157  0.1442 -0.2652 -0.8531
  734MPD2    H510908   1.522   3.913  12.096 -1.9332  0.7369 -0.9130
  734MPD2    N110909   1.240   3.769  12.457 -0.1559 -0.1670  0.5932
  734MPD2    H710910   1.217   3.741  12.552 -1.9424  2.6057  0.9939
  735TMC3    C110911   1.069   3.623  12.401  0.2796 -0.4775 -0.0662
  735TMC3    C210912   0.979   3.608  12.301  0.3505 -0.3042 -0.7707
  735TMC3    C310913   0.942   3.489  12.253  0.5111  0.1817  0.3651
  735TMC3    C410914   1.124   3.509  12.451 -0.0591  0.7977  0.5349
  735TMC3    C510915   1.105   3.384  12.395  0.2661 -0.2647 -0.1942
  735TMC3    C610916   1.006   3.376  12.299  0.7171  0.4620 -0.6160
  735TMC3     C10917   1.163   3.720  12.356 -0.2126  0.0846 -1.0036
  735TMC3     O10918   1.161   3.750  12.237 -0.2800  0.1928 -0.0023
  735TMC3     H10919   0.947   3.697  12.249 -0.8148 -0.8327 -0.9652
  735TMC3    H110920   1.229   3.526  12.475  0.3035  0.6024 -0.8848
  735TMC3    H210921   1.016   3.295  12.227 -0.8818 -0.4895  0.2306
  735TMC3    C710922   1.233   3.335  12.340  0.7327 -0.0269 -0.1453
  735TMC3    C810923   0.942   3.495  12.106  0.0668  0.5315 -0.0709
  735TMC3    O110924   1.294   3.403  12.258  0.3004  0.1820  0.3469
  735TMC3    O210925   0.839   3.470  12.040  0.3015 -0.2908  0.2461
  736MPD2     C10926   1.442   3.092  12.524  0.5643 -1.2046 -0.3839
  736MPD2    C110927   1.418   3.192  12.432  0.8726 -0.1301  1.0816
  736MPD2    C210928   1.517   3.214  12.338 -0.1158 -0.6487 -0.4700
  736MPD2    C310929   1.641   3.145  12.347  0.6359  0.0720  0.0317
  736MPD2    C410930   1.657   3.053  12.448 -0.8842 -0.8786 -0.2993
  736MPD2    C510931   1.558   3.015  12.533 -0.1648 -0.3579  0.1063
  736MPD2     H10932   1.495   3.278  12.253  3.2316 -1.1658 -1.7275
  736MPD2    H110933   1.753   3.002  12.456  0.3558  1.5506  0.1551
  736MPD2    H210934   1.360   3.065  12.590 -0.2465  0.6536 -0.6276
  736MPD2    H310935   1.559   2.933  12.603  2.1985 -2.7776 -2.7439
  736MPD2     N10936   1.746   3.161  12.253  0.2806  0.5855 -0.5201
  736MPD2    H510937   1.825   3.098  12.250  0.8607  1.3354 -0.8695
  736MPD2    N110938   1.287   3.249  12.430 -0.2693 -0.5378  0.3892
  736MPD2    H710939   1.219   3.211  12.495  0.6738 -1.6324  0.7260
  737TMC3    C110940   1.867   3.262  12.067 -0.1623 -0.0221  0.0236
  737TMC3    C210941   1.882   3.377  12.001 -0.2992 -0.7947 -0.1552
  737TMC3    C310942   1.996   3.380  11.925 -0.4590  0.0753 -0.4334
  737TMC3    C410943   1.928   3.141  12.041  0.3709  0.0183  0.6771
  737TMC3    C510944   2.037   3.147  11.961 -0.2512 -0.1657 -0.5075
  737TMC3    C610945   2.077   3.268  11.896 -1.3543 -0.0984  0.1402
  737TMC3     C10946   1.748   3.263  12.159 -1.1692 -0.0341 -0.8504
  737TMC3     O10947   1.676   3.364  12.146 -0.0651  0.1301  0.4286
  737TMC3     H10948   1.836   3.470  12.033  2.8872  0.5019  0.7056
  737TMC3    H110949   1.898   3.043  12.076  0.6526  0.1111  1.1711
  737TMC3    H210950   2.173   3.273  11.846 -0.5375 -3.1475  1.3706
  737TMC3    C710951   2.090   3.019  11.922  0.3943 -0.2684  0.1204
  737TMC3    C810952   2.016   3.484  11.825  0.2428  0.5454 -0.6886
  737TMC3    O110953   2.099   2.933  12.005 -0.8608  0.4425 -0.1212
  737TMC3    O210954   2.128   3.488  11.776  0.0104  0.2190  0.4815
  738MPD2     C10955   1.790   2.265  14.960  1.1119  0.1223 -0.0951
  738MPD2    C110956   1.818   2.133  14.940 -0.2296  0.2695 -0.1188
  738MPD2    C210957   1.933   2.090  14.872  0.2733 -0.0237 -0.3535
  738MPD2    C310958   2.027   2.184  14.849  0.3552  0.3732 -0.0842
  738MPD2    C410959   1.999   2.317  14.868 -0.5344  0.3920  0.0629
  738MPD2    C510960   1.879   2.358  14.920 -0.6986  0.1444  0.8923
  738MPD2     H10961   1.950   1.984  14.863 -0.6023 -0.1130 -0.9254
  738MPD2    H110962   2.074   2.391  14.842 -0.4407  0.3592  0.2398
  738MPD2    H210963   1.714   2.307  15.025  1.6194  0.5305  0.2289
  738MPD2    H310964   1.866   2.464  14.941 -2.3537 -0.6925  4.0876
  738MPD2     N10965   2.163   2.157  14.806  0.3320 -0.0409 -0.7855
  738MPD2    H510966   2.220   2.236  14.778  3.2853 -2.5278 -1.8032
  738MPD2    N110967   1.732   2.037  15.004 -0.1652  0.8605  0.2221
  738MPD2    H710968   1.763   1.942  14.986  0.2598  1.2394 -1.0831
  739TMC3    C110969   2.357   2.047  14.757  0.1887 -0.3205  1.0973
  739TMC3    C210970   2.379   2.139  14.656  0.2751 -0.2825  0.3167
  739TMC3    C310971   2.499   2.203  14.647  0.1906  0.0383 -0.5552
  739TMC3    C410972   2.453   2.020  14.853  0.4110 -0.1438 -0.2029
  739TMC3    C510973   2.574   2.097  14.848  0.3771 -0.4433  0.1685
  739TMC3    C610974   2.595   2.183  14.739  0.1587 -1.1528 -0.6014
  739TMC3     C10975   2.223   2.031  14.800 -0.0503 -0.8845 -0.3195
  739TMC3     O10976   2.191   1.925  14.851 -0.6343  0.0042 -0.0035
  739TMC3     H10977   2.295   2.142  14.587  0.2531  1.2188  0.4029
  739TMC3    H110978   2.427   1.980  14.950  0.0547  1.3219  0.2986
  739TMC3    H210979   2.688   2.239  14.734  1.2095 -2.6887  1.4903
  739TMC3    C710980   2.675   2.052  14.931 -0.6660  0.7218 -0.5898
  739TMC3    C810981   2.526   2.279  14.520 -0.4357 -0.3197  0.1259
  739TMC3    O110982   2.650   1.963  15.007 -0.3802  0.2638 -0.1732
  739TMC3    O210983   2.424   2.320  14.466 -0.0664 -0.0948 -0.2264
  740TMC3    C110984   2.908   3.421  14.417 -0.2232  0.2887  0.1381
  740TMC3    C210985   2.974   3.370  14.521  0.4063  0.2695  0.4904
  740TMC3    C310986   3.103   3.332  14.500 -0.4285 -0.5916 -0.0373
  740TMC3    C410987   2.962   3.448  14.296  0.3813  0.1835  0.1524
  740TMC3    C510988   3.087   3.393  14.276 -0.6465  0.7633  0.1471
  740TMC3    C610989   3.164   3.345  14.380  0.1889 -0.4200  0.0427
  740TMC3     C10990   2.785   3.494  14.450 -0.0150 -0.2362  0.2589
  740TMC3     O10991   2.735   3.563  14.361 -0.6370 -0.2498  0.3129
  740TMC3     H10992   2.932   3.357  14.620 -1.1168  3.2498  0.2449
  740TMC3    H110993   2.899   3.482  14.214  0.0410  2.0652  1.1863
  740TMC3    H210994   3.257   3.291  14.364 -0.3285 -0.5111 -2.6596
  740TMC3    C710995   3.162   3.433  14.158 -0.1864  0.2466  0.8569
  740TMC3    C810996   3.167   3.279  14.618 -0.1558 -0.0089  0.7519
  740TMC3    O110997   3.282   3.450  14.172 -0.3099 -0.7287 -0.0311
  740TMC3    O210998   3.120   3.306  14.729  0.1219 -0.2001 -0.9102
  741TMC3    C110999   2.311   2.938  14.305  0.6011  0.3873  0.3780
  741TMC3    C211000   2.181   2.893  14.292 -0.0460  0.0989  0.0475
  741TMC3    C311001   2.144   2.791  14.375  0.1536 -0.2387 -0.4816
  741TMC3    C411002   2.401   2.879  14.397  0.6888  0.4347  0.3911
  741TMC3    C511003   2.350   2.779  14.476  0.0456  0.5615 -0.1015
  741TMC3    C611004   2.222   2.735  14.473  1.1978 -0.4531 -0.0410
  741TMC3     C11005   2.371   3.008  14.198 -0.2062 -0.4878  0.2533
  741TMC3     O11006   2.497   3.008  14.181 -0.2126  0.3084 -0.1255
  741TMC3     H11007   2.111   2.916  14.212 -0.4942 -3.3894 -0.5948
  741TMC3    H111008   2.503   2.909  14.379  0.3788  0.6283 -1.0315
  741TMC3    H211009   2.190   2.661  14.544 -0.1574 -0.2365 -0.4237
  741TMC3    C711010   2.446   2.707  14.549 -0.2678  0.1739 -0.2950
  741TMC3    C811011   2.008   2.741  14.353 -0.1427  0.1153  0.3802
  741TMC3    O111012   2.404   2.644  14.643  0.4380  0.0521  0.4706
  741TMC3    O211013   1.950   2.759  14.250 -0.1428  0.4458 -0.5997
  742TMC3    C111014   1.990   1.173  15.776 -0.9996  0.8134 -0.1464
  742TMC3    C211015   1.940   1.168  15.646 -0.7116 -0.4348 -0.8700
  742TMC3    C311016   2.035   1.162  15.547  0.1577  0.3345  0.3952
  742TMC3    C411017   2.127   1.159  15.799  0.6496 -0.4034  0.1924
  742TMC3    C511018   2.211   1.152  15.696 -0.0604 -0.4145 -0.1149
  742TMC3    C611019   2.166   1.160  15.569 -0.1162  0.3308  0.0527
  742TMC3     C11020   1.888   1.184  15.881 -0.0115  0.4394  0.4394
  742TMC3     O11021   1.781   1.234  15.848 -0.0016  0.1734 -0.1037
  742TMC3     H11022   1.834   1.151  15.633 -0.6147 -1.8851  0.2311
  742TMC3    H111023   2.155   1.167  15.904 -0.7943  0.9605  0.4811
  742TMC3    H211024   2.236   1.139  15.489 -0.2138 -0.2292  0.1159
  742TMC3    C711025   2.354   1.145  15.716 -0.5542 -0.0360  0.6084
  742TMC3    C811026   1.982   1.128  15.413  0.0802 -0.0073  0.5008
  742TMC3    O111027   2.425   1.172  15.619  0.2983  0.3848 -0.2039
  742TMC3    O211028   2.056   1.065  15.335 -0.0691  0.5612  0.0088
  743MPD2     C11029   0.476   3.195   1.482  0.7388  0.3835 -0.1609
  743MPD2    C111030   0.492   3.065   1.436  0.0500 -0.5706 -0.5330
  743MPD2    C211031   0.614   3.008   1.408  0.1977 -0.0780 -0.7743
  743MPD2    C311032   0.730   3.076   1.441 -0.7579 -0.3793 -0.4437
  743MPD2    C411033   0.720   3.203   1.479 -0.0236  0.4814 -0.1702
  743MPD2    C511034   0.593   3.266   1.501  0.4545  0.1623 -0.7672
  743MPD2     H11035   0.627   2.904   1.380 -0.6473 -0.8760  1.7547
  743MPD2    H111036   0.808   3.263   1.496  1.8348 -1.3035 -3.2980
  743MPD2    H211037   0.383   3.244   1.510  0.2647 -1.2808  1.1797
  743MPD2    H311038   0.588   3.371   1.525  3.4775 -0.1406  1.0841
  743MPD2     N11039   0.857   3.007   1.429  0.6611  0.2787 -0.6952
  743MPD2    H511040   0.861   2.909   1.404  1.5905 -0.2979  1.6751
  743MPD2    N111041   0.380   2.980   1.428 -0.1929  0.3467  0.7809
  743MPD2    H711042   0.392   2.891   1.381  1.3820 -0.9865  3.6973
  744TMC3    C111043   0.153   2.908   1.443 -0.5318 -0.0715  0.3661
  744TMC3    C211044   0.048   2.909   1.535  0.5109  0.3661 -0.1198
  744TMC3    C311045   4.670   2.856   1.504  0.1476  0.5373 -0.6671
  744TMC3    C411046   0.137   2.846   1.327  0.5767  0.1133  0.0089
  744TMC3    C511047   0.016   2.786   1.300 -0.0721  0.5548 -0.2756
  744TMC3    C611048   4.651   2.800   1.382 -0.1649  0.4551 -0.5783
  744TMC3     C11049   0.250   3.010   1.459 -0.1124  0.0095 -0.7159
  744TMC3     O11050   0.201   3.113   1.500  0.2006  0.6982 -0.4496
  744TMC3     H11051   0.049   2.980   1.616 -1.8712  0.1257  0.1152
  744TMC3    H111052   0.217   2.837   1.255  1.4571  2.0619  0.7472
  744TMC3    H211053   4.551   2.762   1.361 -0.0830  0.6170 -1.2452
  744TMC3    C711054   4.742   2.738   1.162  0.4202  0.1249  0.7581
  744TMC3    C811055   4.556   2.919   1.568  0.6985  0.0923 -0.2025
  744TMC3    O111056   0.090   2.742   1.084 -0.4105 -0.9077 -0.6174
  744TMC3    O211057   4.460   2.942   1.497 -0.0677 -0.2585 -0.2002
  745TMC3    C111058   2.419   0.937  13.769 -0.1887  0.4180  0.6856
  745TMC3    C211059   2.312   0.873  13.838 -0.9997 -0.4069 -0.1077
  745TMC3    C311060   2.200   0.847  13.765 -0.0399 -0.0741  1.0119
  745TMC3    C411061   2.421   0.949  13.638  0.2500  0.0510  0.3412
  745TMC3    C511062   2.308   0.909  13.566  0.0987  0.1882 -0.0054
  745TMC3    C611063   2.194   0.866  13.628 -0.6408 -0.0564  0.5892
  745TMC3     C11064   2.511   1.014  13.849  0.1271  0.4859 -0.2060
  745TMC3     O11065   2.556   0.956  13.945  0.1781 -0.5494 -0.2844
  745TMC3     H11066   2.325   0.879  13.946 -2.2190  0.5428 -0.0146
  745TMC3    H111067   2.508   0.996  13.593 -0.7138 -0.0694 -1.6269
  745TMC3    H211068   2.101   0.841  13.577 -1.0675  0.5612  1.0729
  745TMC3    C711069   2.305   0.917  13.425  0.0571 -0.2782  0.4717
  745TMC3    C811070   2.084   0.923  13.814  1.2317  0.3836  0.8072
  745TMC3    O111071   2.202   0.882  13.369  0.3664 -0.8023 -0.1208
  745TMC3    O211072   1.971   0.898  13.773  0.3619  0.2651 -0.0174
  746TMC3    C111073   0.090   3.285  11.318  0.3478  0.2078 -0.0681
  746TMC3    C211074   0.188   3.198  11.272 -0.1122  0.1692 -0.4705
  746TMC3    C311075   0.171   3.060  11.290  0.4840 -0.4172 -0.0887
  746TMC3    C411076   4.716   3.236  11.376  0.4524 -0.8126 -0.4182
  746TMC3    C511077   4.718   3.100  11.414 -1.0318  0.3184  0.8736
  746TMC3    C611078   0.074   3.011  11.376 -0.6684 -0.3280 -0.0256
  746TMC3     C11079   0.116   3.432  11.327  0.0108 -0.2654 -0.2945
  746TMC3     O11080   0.036   3.496  11.396  0.4114  0.0950  0.2274
  746TMC3     H11081   0.276   3.241  11.226  0.6767  0.3614  1.2422
  746TMC3    H111082   4.644   3.309  11.411  1.3550 -0.7322  1.3014
  746TMC3    H211083   0.067   2.905  11.396  0.3105 -0.5413 -0.7912
  746TMC3    C711084   4.594   3.043  11.456 -0.1396 -0.4612 -0.7445
  746TMC3    C811085   0.199   2.979  11.174 -0.2084  0.3574  0.5836
  746TMC3    O111086   4.492   3.096  11.412 -0.1849 -0.5747 -0.3078
  746TMC3    O211087   0.171   2.857  11.184 -0.0064  0.6562  0.4409
  747TMC3    C111088   2.408   2.913  10.992 -0.6122  1.0546 -0.8199
  747TMC3    C211089   2.365   2.884  11.116  0.2269 -0.4125 -0.4669
  747TMC3    C311090   2.463   2.836  11.200  0.4981 -1.1756  0.6984
  747TMC3    C411091   2.531   2.899  10.946  0.2481  0.2574  0.5709
  747TMC3    C511092   2.627   2.872  11.041  0.3757  0.4171 -0.2030
  747TMC3    C611093   2.591   2.827  11.163  0.2123  0.4779 -0.0500
  747TMC3     C11094   2.314   2.982  10.907 -0.3399  0.2741  0.6100
  747TMC3     O11095   2.193   2.981  10.940  0.6012  0.2512  0.3791
  747TMC3     H11096   2.267   2.912  11.152  1.4413  3.1564  0.0442
  747TMC3    H111097   2.568   2.924  10.847  0.4028 -0.2966  0.4857
  747TMC3    H211098   2.653   2.774  11.233  0.9693  2.5272  0.8324
  747TMC3    C711099   2.765   2.862  10.995 -0.7591  0.4527 -0.0431
  747TMC3    C811100   2.431   2.769  11.324 -0.1029  0.0012 -0.1119
  747TMC3    O111101   2.784   2.871  10.876  0.3229 -0.6088  0.6969
  747TMC3    O211102   2.477   2.656  11.336 -0.0120  0.2941  0.1159
  748MPD2     C11103   3.901   3.792   1.066  0.7516  0.8107  0.1865
  748MPD2    C111104   3.984   3.716   0.989  0.2240  0.3285  0.1444
  748MPD2    C211105   4.119   3.705   1.021 -0.1287 -0.0565 -0.3820
  748MPD2    C311106   4.164   3.778   1.131  0.7611 -0.2995 -0.2734
  748MPD2    C411107   4.072   3.849   1.205 -0.6044  0.2058 -0.0241
  748MPD2    C511108   3.945   3.865   1.172 -0.5501  0.4543 -0.4953
  748MPD2     H11109   4.186   3.656   0.951  1.1858  0.2257  0.6821
  748MPD2    H111110   4.105   3.890   1.300 -0.0640 -0.8592  0.2380
  748MPD2    H211111   3.797   3.798   1.036 -0.1932 -0.4259  3.3104
  748MPD2    H311112   3.880   3.930   1.230 -0.3844  1.3628 -1.3323
  748MPD2     N11113   4.306   3.784   1.165  0.1283  0.1243  0.3644
  748MPD2    H511114   4.371   3.755   1.093 -0.0137 -0.2566  0.3922
  748MPD2    N111115   3.922   3.641   0.889 -0.2871  0.7772 -0.9011
  748MPD2    H711116   3.821   3.653   0.882 -0.5816 -1.3094 -0.1475
  749TMC3    C111117   4.493   3.895   1.257 -0.0446  0.1101 -0.4380
  749TMC3    C211118   4.578   3.890   1.361  0.4182 -0.0026 -0.7022
  749TMC3    C311119   4.689   3.963   1.350  0.0328  0.1678  0.4559
  749TMC3    C411120   4.514   3.966   1.143 -0.5098 -0.7977  0.0722
  749TMC3    C511121   4.626   4.041   1.136 -0.0894  0.0499  0.4375
  749TMC3    C611122   4.721   4.037   1.235 -0.0905 -0.1930  0.0483
  749TMC3     C11123   4.362   3.840   1.276 -0.0834  0.0289 -0.0408
  749TMC3     O11124   4.319   3.836   1.390 -0.2028  0.1402  0.2989
  749TMC3     H11125   4.555   3.843   1.456 -1.6655  2.3057 -0.0515
  749TMC3    H111126   4.436   3.975   1.069  0.0337  3.2673 -0.0283
  749TMC3    H211127   0.071   4.091   1.234  0.5853 -1.3737 -0.7121
  749TMC3    C711128   4.671   4.089   1.004  0.3144 -0.1869 -0.4796
  749TMC3    C811129   0.061   3.918   1.424 -0.8956 -0.1054 -0.0470
  749TMC3    O111130   0.013   4.174   1.008  0.4494  0.4292  0.2566
  749TMC3    O211131   0.069   3.930   1.545 -0.0639  0.0480 -0.7691
  750MPD2     C11132   0.581   0.574  11.902  0.2821  0.4595  0.3700
  750MPD2    C111133   0.496   0.493  11.981 -0.1186  0.0718 -0.2060
  750MPD2    C211134   0.413   0.399  11.914  0.3088 -0.0560  0.1796
  750MPD2    C311135   0.414   0.386  11.782  0.0599  0.2679 -0.8228
  750MPD2    C411136   0.497   0.464  11.702  0.1706 -1.0407 -0.0303
  750MPD2    C511137   0.582   0.557  11.766 -0.3797 -0.0949 -0.0201
  750MPD2     H11138   0.350   0.336  11.976  1.2215 -0.9277  0.2123
  750MPD2    H111139   0.488   0.461  11.594  0.5000 -0.1386 -0.0854
  750MPD2    H211140   0.639   0.657  11.940 -0.6961  1.1385  0.3729
  750MPD2    H311141   0.650   0.614  11.704  0.3517 -1.4709 -0.4956
  750MPD2     N11142   0.346   0.283  11.714 -0.2545 -0.2599  0.2917
  750MPD2    H511143   0.362   0.281  11.614 -1.9779 -1.8843  0.0405
  750MPD2    N111144   0.488   0.527  12.116  1.0681  0.0992  0.1543
  750MPD2    H711145   0.550   0.604  12.139 -1.9908  2.4648  0.3672
  751TMC3    C111146   0.226   0.091  11.679  0.9519  0.3688  0.3280
  751TMC3    C211147   0.142   4.741  11.728  0.2400  0.5508 -0.1583
  751TMC3    C311148   0.147   4.609  11.693 -0.8098  0.1585 -0.7615
  751TMC3    C411149   0.318   0.055  11.585  0.0516 -0.3487  0.9106
  751TMC3    C511150   0.312   4.663  11.541 -0.4932  0.7553  0.5644
  751TMC3    C611151   0.237   4.568  11.596  0.1914  0.1885 -0.1473
  751TMC3     C11152   0.251   0.203  11.762  0.2426  0.0096  0.6185
  751TMC3     O11153   0.202   0.200  11.876  0.0625  0.6072  0.4164
  751TMC3     H11154   0.065   0.034  11.795  0.2093  2.1332 -1.0725
  751TMC3    H111155   0.392   0.122  11.542 -0.8477  0.9647  1.4269
  751TMC3    H211156   0.235   4.466  11.558 -1.4249 -0.1035  0.7078
  751TMC3    C711157   0.374   4.641  11.412 -0.0139  0.0935  0.7316
  751TMC3    C811158   0.020   4.540  11.682 -0.6120  0.4858  0.4813
  751TMC3    O111159   0.466   4.709  11.369  0.1900 -0.6297 -0.5048
  751TMC3    O211160   4.736   4.487  11.573 -0.8169 -0.0241 -0.2436
  752TMC3    C111161   4.132   4.494  16.819  0.2378  0.1578 -0.0167
  752TMC3    C211162   4.166   4.364  16.825 -0.0442 -0.3637 -0.0315
  752TMC3    C311163   4.132   4.294  16.946  0.2916 -0.0255  0.3717
  752TMC3    C411164   4.063   4.561  16.918  0.7134 -0.3890  0.5727
  752TMC3    C511165   4.040   4.487  17.032  0.2209 -0.4490 -0.0638
  752TMC3    C611166   4.073   4.357  17.046  0.2963  0.4671  0.1264
  752TMC3     C11167   4.135   4.556  16.691  0.2359  0.7094 -0.5158
  752TMC3     O11168   4.182   4.488  16.597 -0.1027  0.4790  0.2402
  752TMC3     H11169   4.214   4.304  16.749  0.4177  0.9169 -0.7471
  752TMC3    H111170   4.038   4.666  16.914 -0.0473 -0.5229  1.7919
  752TMC3    H211171   4.047   4.296  17.132 -0.7835 -0.6908 -1.0236
  752TMC3    C711172   3.951   4.557  17.123 -0.1688  1.1452 -0.1837
  752TMC3    C811173   4.117   4.153  16.932 -0.0408  0.6312  0.1147
  752TMC3    O111174   3.913   4.670  17.096  0.4694 -0.7305 -0.2982
  752TMC3    O211175   4.101   4.120  16.814  0.4133  0.7946 -0.2134
  753TMC3    C111176   0.834   0.989  13.408  0.1261 -0.8640 -0.1265
  753TMC3    C211177   0.915   0.948  13.510  0.3225 -0.9575  0.5602
  753TMC3    C311178   0.978   0.827  13.514  0.0712 -0.0888 -0.2495
  753TMC3    C411179   0.794   0.898  13.310 -0.1681  0.0922 -0.2965
  753TMC3    C511180   0.852   0.773  13.317 -0.7009  0.3856  0.6584
  753TMC3    C611181   0.944   0.740  13.415  0.1289 -0.4069  1.1953
  753TMC3     C11182   0.791   1.126  13.401 -0.1635 -0.7992  0.4227
  753TMC3     O11183   0.802   1.188  13.508 -0.3345  0.3671 -0.3457
  753TMC3     H11184   0.927   1.021  13.589  0.2248 -1.0958  0.7026
  753TMC3    H111185   0.725   0.919  13.230 -1.4808 -0.1857  0.7566
  753TMC3    H211186   1.005   0.652  13.399 -0.8250 -0.9033  0.2943
  753TMC3    C711187   0.807   0.677  13.221  0.2468  0.1749 -0.2082
  753TMC3    C811188   1.065   0.796  13.631  0.0218  0.3194 -0.4548
  753TMC3    O111189   0.740   0.716  13.127  0.0147  0.4443 -0.3506
  753TMC3    O211190   1.087   0.676  13.640  0.6144  0.0817  0.2557
  754MPD2     C11191   0.245   4.080  13.684  0.4176 -0.4018 -0.1761
  754MPD2    C111192   0.234   4.194  13.616 -0.1141  0.6443 -0.1879
  754MPD2    C211193   0.123   4.213  13.533 -0.2333 -0.6413 -0.3143
  754MPD2    C311194   0.018   4.129  13.551  0.4645 -0.3227 -0.2922
  754MPD2    C411195   0.024   4.010  13.620  0.1900 -0.6798 -0.3154
  754MPD2    C511196   0.141   3.986  13.682 -0.6438  0.4276 -1.0225
  754MPD2     H11197   0.138   4.294  13.462 -1.5873 -0.2550 -0.1625
  754MPD2    H111198   4.688   3.937  13.617  1.6517 -2.2452 -0.7275
  754MPD2    H211199   0.330   4.048  13.743 -1.1310 -0.4707  2.0097
  754MPD2    H311200   0.162   3.896  13.739  2.6232  1.7738 -0.0795
  754MPD2     N11201   4.635   4.148  13.490 -0.6703  0.7969  0.1594
  754MPD2    H511202   4.568   4.073  13.490  0.4691 -0.2182 -1.1424
  754MPD2    N111203   0.344   4.282  13.633 -0.1291 -0.1942  0.4617
  754MPD2    H711204   0.428   4.239  13.671  0.3289  2.2050  2.1627
  755MPD2     C11205   4.091   0.131  13.672 -0.1205 -0.1153  0.4817
  755MPD2    C111206   4.015   0.013  13.667 -0.1108 -0.0713  0.8672
  755MPD2    C211207   4.064   4.647  13.602  0.7992  0.2381  0.1144
  755MPD2    C311208   4.179   4.663  13.528  0.1756 -0.1076  0.1510
  755MPD2    C411209   4.254   0.032  13.532  0.2756 -0.0013  0.1900
  755MPD2    C511210   4.202   0.138  13.598 -0.2144 -0.7567 -0.2118
  755MPD2     H11211   4.009   4.554  13.608  1.9037 -0.4999 -1.2826
  755MPD2    H111212   4.343   0.048  13.472 -1.7475  0.2888 -2.7517
  755MPD2    H211213   4.068   0.208  13.745  0.7753  2.7454 -2.2462
  755MPD2    H311214   4.256   0.232  13.599 -0.6385 -0.5055 -1.1695
  755MPD2     N11215   4.235   4.558  13.448  0.1134 -0.0825 -0.1618
  755MPD2    H511216   4.322   4.571  13.398  0.1953  1.2141  0.3400
  755MPD2    N111217   3.903   0.001  13.754 -0.1839  0.0094 -0.2460
  755MPD2    H711218   3.853   4.659  13.775  0.8067 -0.1600  1.4756
  756MPD2     C11219   0.485   0.589  10.336  0.6273  0.0415  0.3887
  756MPD2    C111220   0.394   0.618  10.430 -0.4261  0.5091  0.1537
  756MPD2    C211221   0.299   0.717  10.408  0.0997  0.0263  0.2676
  756MPD2    C311222   0.282   0.782  10.280  0.3077 -0.2964  0.2819
  756MPD2    C411223   0.365   0.739  10.182 -0.3306 -0.2876 -0.6259
  756MPD2    C511224   0.467   0.646  10.212  0.6769 -0.3401 -0.2855
  756MPD2     H11225   0.239   0.745  10.494  0.6421  0.0396  0.6405
  756MPD2    H111226   0.354   0.785  10.084 -0.7353  3.0647  0.9617
  756MPD2    H211227   0.565   0.517  10.347  1.7568  1.5689  2.1348
  756MPD2    H311228   0.535   0.621  10.131 -1.0598  0.2775 -1.9390
  756MPD2     N11229   0.187   0.888  10.266 -0.1107  0.3625  0.1964
  756MPD2    H511230   0.136   0.914  10.350  0.7089  2.7610 -0.0638
  756MPD2    N111231   0.398   0.561  10.564  0.7005 -0.0180  0.0416
  756MPD2    H711232   0.324   0.590  10.628 -0.6154 -0.8148 -1.1065
  757MPD2     C11233   4.224   0.829  10.663  0.0823 -0.4758 -0.1639
  757MPD2    C111234   4.336   0.754  10.641  0.3241  0.2059  0.7546
  757MPD2    C211235   4.428   0.804  10.554 -0.3979 -0.4043 -1.1388
  757MPD2    C311236   4.405   0.931  10.497  0.1434 -0.5404 -0.3540
  757MPD2    C411237   4.290   1.002  10.519  0.2120 -0.1642 -0.3462
  757MPD2    C511238   4.199   0.949  10.610  0.8810 -0.1138  0.6767
  757MPD2     H11239   4.515   0.743  10.533 -0.1270 -0.2276 -0.5472
  757MPD2    H111240   4.267   1.100  10.479 -0.8214  0.2716  1.3728
  757MPD2    H211241   4.137   0.795  10.718 -0.4086 -0.2070 -0.7740
  757MPD2    H311242   4.113   1.009  10.638  2.1777  3.2373 -2.4164
  757MPD2     N11243   4.508   0.979  10.413 -0.1814 -0.4209  0.5495
  757MPD2    H511244   4.597   0.931  10.422 -0.6149 -1.5760 -1.2523
  757MPD2    N111245   4.350   0.627  10.698 -0.1802  0.7426  0.4284
  757MPD2    H711246   4.279   0.598  10.765 -0.3192  0.0448 -0.0225
  758MPD2     C11247   0.099   4.680  15.759 -0.5849  0.4309  0.5313
  758MPD2    C111248   0.181   4.590  15.828 -0.5820 -0.4312  0.2136
  758MPD2    C211249   0.150   4.568  15.960 -0.0595  0.5428 -0.2795
  758MPD2    C311250   0.042   4.639  16.018  0.3076  0.2007 -0.0091
  758MPD2    C411251   4.719   4.731  15.946  0.3363 -0.3571  0.1735
  758MPD2    C511252   0.003   0.007  15.818  0.1622 -0.1232 -0.8149
  758MPD2     H11253   0.209   4.503  16.025 -0.5550  2.2227  1.8450
  758MPD2    H111254   4.641   0.043  15.995  0.5804 -0.9034  1.1795
  758MPD2    H211255   0.119   4.693  15.653 -1.2217  0.5453  0.4258
  758MPD2    H311256   4.673   0.062  15.762  1.0010 -0.9942 -2.7797
  758MPD2     N11257   0.004   4.614  16.152  0.0781 -0.5503  0.1639
  758MPD2    H511258   4.651   4.631  16.178  0.4057  1.2124  0.2322
  758MPD2    N111259   0.276   4.521  15.752  0.7947 -0.2511  0.0791
  758MPD2    H711260   0.282   4.534  15.652  1.4951 -1.6904 -0.0730
  759MPD2     C11261   3.247   2.811  10.427  0.1106  0.8855 -0.0292
  759MPD2    C111262   3.324   2.764  10.530  0.7129 -0.4918  0.8714
  759MPD2    C211263   3.438   2.835  10.558  0.3375  0.1633  0.1436
  759MPD2    C311264   3.477   2.948  10.491 -0.2948 -0.0019  0.2523
  759MPD2    C411265   3.396   2.989  10.390 -0.4643 -0.7951  0.0076
  759MPD2    C511266   3.280   2.926  10.361  0.9760  0.2648  0.1058
  759MPD2     H11267   3.510   2.791  10.626  0.2546  2.2273  1.5338
  759MPD2    H111268   3.407   3.078  10.330 -0.0013  0.3223  1.7665
  759MPD2    H211269   3.158   2.756  10.400  0.5104 -0.3383  1.1445
  759MPD2    H311270   3.217   2.967  10.282 -2.6642 -4.1426  0.7654
  759MPD2     N11271   3.586   3.024  10.534 -0.2203 -0.5037  0.5218
  759MPD2    H511272   3.610   3.001  10.630  1.2994 -0.7570  0.0834
  759MPD2    N111273   3.293   2.649  10.601 -0.0013  0.5313 -0.0238
  759MPD2    H711274   3.365   2.618  10.666  1.0525  0.4003 -1.2445
  760MPD2     C11275   2.998   4.318  11.926 -0.1186 -1.0193  0.2203
  760MPD2    C111276   3.122   4.365  11.973  0.5272  0.1235 -1.5161
  760MPD2    C211277   3.211   4.271  12.015  0.4831 -0.1299  0.1547
  760MPD2    C311278   3.192   4.133  12.013  0.3828 -0.1279 -0.0615
  760MPD2    C411279   3.073   4.085  11.967  0.0893 -0.0199 -0.0521
  760MPD2    C511280   2.987   4.179  11.911  0.1592  0.6537 -0.5039
  760MPD2     H11281   3.309   4.311  12.041  1.7172 -4.1850  1.6858
  760MPD2    H111282   3.047   3.980  11.965 -1.0885  0.2795 -0.5733
  760MPD2    H211283   2.926   4.387  11.882  0.0616 -1.0227 -0.0767
  760MPD2    H311284   2.901   4.133  11.865 -1.3491  1.8592  1.1115
  760MPD2     N11285   3.291   4.042  12.056 -0.2585  0.4442  0.3023
  760MPD2    H511286   3.261   3.947  12.075 -0.0360  0.6012  1.4372
  760MPD2    N111287   3.151   4.505  11.969  0.4523 -0.4323 -0.4056
  760MPD2    H711288   3.245   4.535  11.991  0.9445 -2.6921  0.5418
  761MPD2     C11289   4.325   4.370  11.854  0.9392  0.6559  0.2549
  761MPD2    C111290   4.388   4.315  11.748  0.5891  1.4292 -0.2775
  761MPD2    C211291   4.516   4.365  11.728  0.0892 -0.1765 -0.1240
  761MPD2    C311292   4.571   4.460  11.815 -0.3918  0.8467  0.4456
  761MPD2    C411293   4.498   4.507  11.918  0.0825 -0.2629  0.2115
  761MPD2    C511294   4.371   4.463  11.936  0.2814 -0.8695  0.3570
  761MPD2     H11295   4.581   4.324  11.652 -0.2918 -0.3339 -0.3650
  761MPD2    H111296   4.539   4.587  11.978  1.6588  0.1182 -1.3583
  761MPD2    H211297   4.222   4.346  11.879  0.8630  0.1545 -0.5492
  761MPD2    H311298   4.309   4.491  12.020  0.5476 -0.7137  0.5038
  761MPD2     N11299   4.692   4.535  11.801  0.0357  0.3942 -0.1253
  761MPD2    H511300   4.734   4.594  11.872 -0.5319  0.3204  0.2661
  761MPD2    N111301   4.333   4.211  11.672 -0.0962 -0.1399 -0.2008
  761MPD2    H711302   4.240   4.187  11.703 -0.7112  0.6306 -1.4377
  762MPD2     C11303   4.429   3.398  11.250  0.2897 -0.3987  0.1116
  762MPD2    C111304   4.500   3.521  11.264  0.9126 -0.2126  0.1842
  762MPD2    C211305   4.597   3.551  11.169 -0.5213 -0.0445  0.5029
  762MPD2    C311306   4.616   3.470  11.058  0.2083  0.1863 -0.2168
  762MPD2    C411307   4.551   3.348  11.055 -0.4544 -0.0047  0.7143
  762MPD2    C511308   4.457   3.315  11.148 -0.4939  0.2651  0.6528
  762MPD2     H11309   4.662   3.637  11.183 -2.5588  1.9206 -1.9862
  762MPD2    H111310   4.564   3.271  10.980 -1.7187  0.1537  0.3286
  762MPD2    H211311   4.363   3.363  11.328 -0.1859 -0.1980 -0.1985
  762MPD2    H311312   4.408   3.219  11.136  1.8396 -0.5687 -2.1583
  762MPD2     N11313   4.710   3.507  10.958 -0.8429 -0.7478  0.7672
  762MPD2    H511314   0.042   3.559  10.998  0.0169  0.7560 -2.8208
  762MPD2    N111315   4.473   3.606  11.374 -0.8232 -0.6613 -0.0880
  762MPD2    H711316   4.405   3.579  11.445 -1.5595  0.7702 -0.2373
  763MPD2     C11317   2.134   4.313  16.223 -0.0441  0.5591 -0.2858
  763MPD2    C111318   2.002   4.339  16.217 -0.3286  0.7558 -0.7177
  763MPD2    C211319   1.950   4.455  16.279  0.1554  0.7269 -0.4284
  763MPD2    C311320   2.034   4.546  16.342 -0.3427  0.3889  0.6189
  763MPD2    C411321   2.170   4.520  16.326  0.3231 -0.4184  0.0489
  763MPD2    C511322   2.217   4.408  16.272 -0.1048  1.0940 -0.8491
  763MPD2     H11323   1.843   4.463  16.296  0.2294  1.6251 -0.3720
  763MPD2    H111324   2.251   4.581  16.366 -0.2689  0.7208 -0.4789
  763MPD2    H211325   2.179   4.223  16.184 -1.0086 -1.6211  3.7225
  763MPD2    H311326   2.325   4.408  16.258  0.1852  1.0872  1.4584
  763MPD2     N11327   2.012   4.664  16.421 -0.2443  0.0351  0.5111
  763MPD2    H511328   2.099   4.710  16.445 -1.1480  1.3563  1.2464
  763MPD2    N111329   1.910   4.261  16.133  0.3989  0.3365 -0.3426
  763MPD2    H711330   1.816   4.298  16.121 -0.1449 -1.0728 -0.5082
  764MPD2     C11331   4.549   1.367  17.011 -0.4779 -0.5156  0.3689
  764MPD2    C111332   4.450   1.265  17.019  0.9037  0.3421  0.8055
  764MPD2    C211333   4.422   1.196  17.140  0.6534 -0.1709 -0.7759
  764MPD2    C311334   4.497   1.229  17.253 -0.4260  0.8590  0.7707
  764MPD2    C411335   4.603   1.321  17.253  0.0545  0.1681 -0.1788
  764MPD2    C511336   4.620   1.379  17.126 -0.5435 -0.7108 -0.3343
  764MPD2     H11337   4.336   1.130  17.142  0.3378  0.1239 -4.2139
  764MPD2    H111338   4.674   1.344  17.331 -0.1090 -1.3418  0.4220
  764MPD2    H211339   4.555   1.436  16.928  1.2129  0.0379  0.9491
  764MPD2    H311340   4.706   1.444  17.119 -1.2072  0.3188  1.0688
  764MPD2     N11341   4.461   1.159  17.370  0.1409  0.4923 -0.5291
  764MPD2    H511342   4.381   1.096  17.370 -0.5157  1.3405 -0.8166
  764MPD2    N111343   4.371   1.229  16.905 -0.2297 -0.1519  0.6020
  764MPD2    H711344   4.296   1.163  16.922 -0.2767 -0.3397 -0.3628
  765MPD2     C11345   4.651   4.266  15.694 -0.1788 -0.0710  0.7086
  765MPD2    C111346   4.573   4.175  15.746 -0.0978  0.4354 -0.0829
  765MPD2    C211347   4.630   4.067  15.814  0.6596  0.3327 -0.3449
  765MPD2    C311348   0.025   4.058  15.823 -0.1716  0.6333  0.0761
  765MPD2    C411349   0.105   4.155  15.766 -0.1328 -0.6727  0.3450
  765MPD2    C511350   0.044   4.263  15.703  0.2451  0.1157 -0.5017
  765MPD2     H11351   4.570   3.993  15.866  1.6839 -0.7647 -0.7182
  765MPD2    H111352   0.212   4.168  15.773 -0.0986 -1.1741  0.7414
  765MPD2    H211353   4.610   4.345  15.633  1.6536 -0.5007 -1.1163
  765MPD2    H311354   0.090   4.356  15.668  1.8209 -1.1819 -1.8879
  765MPD2     N11355   0.077   3.941  15.887 -0.2216 -0.4804 -0.0387
  765MPD2    H511356   0.015   3.879  15.939 -0.0750 -0.0563  0.6408
  765MPD2    N111357   4.431   4.206  15.751 -0.1149 -0.1298 -0.0670
  765MPD2    H711358   4.405   4.291  15.703  2.3734  1.5969  1.6145
  766MPD2     C11359   3.784   3.954  15.404 -0.9008 -0.0191  0.0348
  766MPD2    C111360   3.916   3.984  15.438 -0.0671  0.0858  0.0234
  766MPD2    C211361   4.007   3.959  15.335 -1.2136 -0.7231 -0.1176
  766MPD2    C311362   3.963   3.911  15.211  0.1349 -0.3728 -0.4697
  766MPD2    C411363   3.831   3.883  15.184 -0.4573  0.2822  0.2977
  766MPD2    C511364   3.738   3.911  15.281  0.6470 -0.2572  0.3460
  766MPD2     H11365   4.113   3.978  15.348 -1.1126 -1.3272 -0.0969
  766MPD2    H111366   3.799   3.859  15.084  1.3187 -0.0236 -0.2021
  766MPD2    H211367   3.712   3.970  15.484 -1.3269 -0.1107 -0.3299
  766MPD2    H311368   3.634   3.921  15.253  0.3513  1.3478  2.0190
  766MPD2     N11369   4.053   3.896  15.094  0.0219  0.2501 -0.3682
  766MPD2    H511370   4.008   3.878  15.005  0.2481  1.5555 -0.7431
  766MPD2    N111371   3.969   4.034  15.559 -0.0356  0.0840 -0.5612
  766MPD2    H711372   4.066   4.006  15.571 -0.6825 -2.3997 -1.2746
  767MPD2     C11373   3.602   4.112  15.073 -0.4131  0.0609 -0.4882
  767MPD2    C111374   3.734   4.131  15.032  0.5382 -0.1267 -0.0914
  767MPD2    C211375   3.776   4.073  14.911 -0.7300  0.7001  0.1233
  767MPD2    C311376   3.691   3.988  14.833  0.1064  0.7774 -0.4127
  767MPD2    C411377   3.568   3.960  14.885  0.3895 -0.0727  0.5478
  767MPD2    C511378   3.520   4.023  15.003  0.0742  0.0976  0.2185
  767MPD2     H11379   3.876   4.089  14.871 -0.2473 -0.7385  0.7396
  767MPD2    H111380   3.504   3.877  14.860 -0.9191  0.7097  1.2972
  767MPD2    H211381   3.560   4.154  15.164 -2.0213 -2.5450 -0.0215
  767MPD2    H311382   3.418   4.010  15.038  0.5822 -1.5924  1.0700
  767MPD2     N11383   3.738   3.926  14.715 -0.7361  0.1210  1.2331
  767MPD2    H511384   3.835   3.936  14.687 -0.4242 -0.7025  2.0279
  767MPD2    N111385   3.817   4.214  15.112  0.7102 -0.2067 -0.7851
  767MPD2    H711386   3.771   4.245  15.197  0.4276 -1.3231 -0.5278
  768MPD2     C11387   4.334   2.251  10.861 -0.0063  0.6593  0.1103
  768MPD2    C111388   4.334   2.332  10.977  0.5000 -0.5201 -0.6298
  768MPD2    C211389   4.437   2.322  11.063 -0.1571 -0.6583 -0.0269
  768MPD2    C311390   4.539   2.230  11.047  0.8579  0.2140 -0.4841
  768MPD2    C411391   4.534   2.150  10.938  0.7216  0.1251 -1.2601
  768MPD2    C511392   4.435   2.164  10.844  0.4766 -0.1802 -0.0128
  768MPD2     H11393   4.431   2.386  11.150 -2.3716 -0.1913 -0.5321
  768MPD2    H111394   4.612   2.078  10.919 -0.1708 -1.0736 -0.3836
  768MPD2    H211395   4.259   2.269  10.786  0.8914  0.7034 -0.7819
  768MPD2    H311396   4.442   2.108  10.751 -1.7681 -1.1507  0.4136
  768MPD2     N11397   4.638   2.222  11.149  0.7379 -0.1035 -0.3167
  768MPD2    H511398   4.644   2.308  11.202 -0.7434 -0.2431  0.0796
  768MPD2    N111399   4.232   2.418  11.019 -0.2482 -0.4480 -0.9783
  768MPD2    H711400   4.250   2.474  11.102  0.6200 -0.1426 -1.3748
  769MPD2     C11401   0.664   0.252  15.186 -0.1599  0.5417  0.3488
  769MPD2    C111402   0.617   0.385  15.206  0.8013  0.7494  0.6255
  769MPD2    C211403   0.633   0.440  15.332  0.0568  0.5828 -0.1123
  769MPD2    C311404   0.690   0.363  15.441  0.4631 -0.1149 -0.7277
  769MPD2    C411405   0.759   0.243  15.410  0.2018 -0.5890  0.0449
  769MPD2    C511406   0.748   0.194  15.278  0.7542 -0.7491 -0.6333
  769MPD2     H11407   0.602   0.543  15.344 -0.7894  0.0604  2.2254
  769MPD2    H111408   0.820   0.194  15.485  1.2698  1.0074  0.2020
  769MPD2    H211409   0.654   0.196  15.094  1.0439  2.3065 -0.8628
  769MPD2    H311410   0.795   0.099  15.256 -0.0573 -0.4008 -3.7675
  769MPD2     N11411   0.704   0.425  15.566 -0.1385  1.0986 -0.0170
  769MPD2    H511412   0.663   0.516  15.583  0.0069  1.5907 -2.2442
  769MPD2    N111413   0.541   0.446  15.100  0.0535 -0.1819 -0.1802
  769MPD2    H711414   0.526   0.398  15.013  2.0593  0.1443 -0.7114
  770MPD2     C11415   4.583   0.111  14.853 -0.3877  0.4416 -0.1161
  770MPD2    C111416   4.710   0.097  14.813  0.0665 -0.5531 -1.1301
  770MPD2    C211417   0.039   0.215  14.815 -0.4554 -0.6845 -0.0793
  770MPD2    C311418   4.733   0.334  14.864  0.3631 -0.1128  0.3748
  770MPD2    C411419   4.601   0.346  14.893 -0.4847 -0.3594  0.4721
  770MPD2    C511420   4.526   0.235  14.883 -0.4625 -0.4570 -0.0372
  770MPD2     H11421   0.135   0.214  14.764 -0.2443  0.4851  0.2889
  770MPD2    H111422   4.546   0.439  14.907  0.0533  0.0607 -0.2068
  770MPD2    H211423   4.520   0.024  14.846  0.1806  0.1278 -1.2758
  770MPD2    H311424   4.419   0.238  14.902 -0.1295  0.3208  1.6668
  770MPD2     N11425   0.085   0.438  14.870  0.0741  0.4183  0.2768
  770MPD2    H511426   0.182   0.415  14.852 -0.7482 -1.7439 -1.3221
  770MPD2    N111427   0.006   4.722  14.752 -0.1874 -0.0974 -0.5361
  770MPD2    H711428   4.680   4.659  14.716 -0.5846 -0.4300  0.8345
  771MPD2     C11429   1.495   2.666  13.747 -0.6055 -0.3075 -0.3127
  771MPD2    C111430   1.495   2.803  13.770 -0.1523 -0.0948 -0.0936
  771MPD2    C211431   1.391   2.887  13.739  1.2110 -0.4668 -0.2364
  771MPD2    C311432   1.283   2.831  13.668 -0.1534  0.0926 -0.4791
  771MPD2    C411433   1.282   2.692  13.649 -0.1237 -0.2030  0.1775
  771MPD2    C511434   1.383   2.608  13.696  0.5598  0.4761  0.2033
  771MPD2     H11435   1.392   2.994  13.758 -1.5561 -0.6060  0.7707
  771MPD2    H111436   1.207   2.637  13.593  1.0741 -0.5892 -1.0695
  771MPD2    H211437   1.569   2.601  13.792 -0.8217 -1.6581 -1.9295
  771MPD2    H311438   1.382   2.501  13.680  0.5018  0.2641  1.6122
  771MPD2     N11439   1.186   2.920  13.613 -0.0272  0.1455  0.0748
  771MPD2    H511440   1.208   3.019  13.615 -0.3930  0.2165  0.5365
  771MPD2    N111441   1.616   2.848  13.823  0.0648  0.0573  0.1055
  771MPD2    H711442   1.686   2.780  13.851  0.6619  1.2751  1.5682
  772MPD2     C11443   1.703   3.603  14.084  0.4442 -0.0122  0.1844
  772MPD2    C111444   1.645   3.491  14.017  0.1857 -1.2328  0.2916
  772MPD2    C211445   1.528   3.510  13.952  0.1176 -0.4183  0.4644
  772MPD2    C311446   1.460   3.632  13.951 -0.4566 -0.1846  0.1129
  772MPD2    C411447   1.521   3.739  14.012 -0.1999 -0.0080  0.5850
  772MPD2    C511448   1.641   3.727  14.077  0.2319 -0.1513  0.6882
  772MPD2     H11449   1.484   3.420  13.910 -2.0255 -0.5002  2.8776
  772MPD2    H111450   1.468   3.832  14.031  1.8113  1.1315  0.5287
  772MPD2    H211451   1.796   3.592  14.139  0.3220  0.6499  0.5213
  772MPD2    H311452   1.671   3.821  14.121  1.9253 -1.3419  2.0952
  772MPD2     N11453   1.338   3.650  13.891 -0.1702  0.2101  0.0757
  772MPD2    H511454   1.279   3.729  13.914 -0.9721  0.1928 -1.9023
  772MPD2    N111455   1.705   3.369  13.999  0.0444 -0.3007 -0.0323
  772MPD2    H711456   1.657   3.302  13.940  1.5750 -1.5003  0.0947
  773MPD2     C11457   0.656   4.533  17.505 -0.4065  0.2612 -0.0148
  773MPD2    C111458   0.593   4.409  17.532 -0.1564  0.2462  0.0574
  773MPD2    C211459   0.645   4.322  17.627 -0.3862 -0.1394 -0.3683
  773MPD2    C311460   0.761   4.359  17.687 -0.4013  0.2334 -0.2824
  773MPD2    C411461   0.826   4.479  17.660 -0.5660 -0.6673 -0.3335
  773MPD2    C511462   0.766   4.568  17.576 -0.5520  0.1604 -0.2534
  773MPD2     H11463   0.589   4.232  17.649 -1.5530  0.8055  0.4841
  773MPD2    H111464   0.924   4.503  17.700 -0.7711 -0.5981  0.1360
  773MPD2    H211465   0.624   4.604  17.430  0.0279  1.7755  1.2177
  773MPD2    H311466   0.820   4.658  17.548 -0.3991 -0.0493 -0.6285
  773MPD2     N11467   0.804   4.275   0.015  0.7681 -0.0954  0.2702
  773MPD2    H511468   0.760   4.184   0.029 -0.8569  0.6335 -0.0828
  773MPD2    N111469   0.477   4.365  17.458  0.1540 -0.9868 -0.0830
  773MPD2    H711470   0.443   4.278  17.498  0.1068 -0.2922  1.4065
  774MPD2     C11471   4.337   4.102  13.766 -0.0870 -0.3304 -0.2556
  774MPD2    C111472   4.464   4.073  13.813 -0.9826  0.2340  0.3320
  774MPD2    C211473   4.553   4.175  13.809  0.7166  0.2931  1.1519
  774MPD2    C311474   4.520   4.303  13.777  0.7860  0.1633 -0.0997
  774MPD2    C411475   4.393   4.331  13.724  0.0190 -0.0046 -0.3597
  774MPD2    C511476   4.306   4.222  13.715  0.2955 -1.1054 -0.4768
  774MPD2     H11477   4.652   4.146  13.841  0.5441  0.8430  2.1959
  774MPD2    H111478   4.381   4.426  13.673  0.4198  0.3242  0.1505
  774MPD2    H211479   4.263   4.024  13.754 -2.3106  1.7201  0.0557
  774MPD2    H311480   4.210   4.241  13.669  0.3884  0.8604  0.1109
  774MPD2     N11481   4.629   4.387  13.771 -0.0704 -0.1747 -0.6569
  774MPD2    H511482   4.716   4.340  13.794  1.0441  1.4431 -1.5099
  774MPD2    N111483   4.493   3.941  13.850 -1.0708 -0.3332  0.0004
  774MPD2    H711484   4.427   3.866  13.835 -0.1661 -1.2276  0.4422
  775MPD2     C11485   1.035   0.327  16.125 -0.5897  0.5999 -0.2259
  775MPD2    C111486   1.010   0.452  16.173  0.1914 -1.0216 -0.1405
  775MPD2    C211487   1.075   0.562  16.119 -0.2335 -0.4050  0.0009
  775MPD2    C311488   1.161   0.553  16.011 -0.1817 -0.3615 -0.4082
  775MPD2    C411489   1.158   0.429  15.950 -0.6406  0.0382 -0.4514
  775MPD2    C511490   1.101   0.320  16.007  0.4231  1.0455  0.0769
  775MPD2     H11491   1.059   0.661  16.160  0.3271 -0.0712 -0.5856
  775MPD2    H111492   1.208   0.424  15.854 -1.2323 -1.8636 -0.6575
  775MPD2    H211493   0.997   0.234  16.165  3.6134 -0.4025  1.3995
  775MPD2    H311494   1.116   0.220  15.966  3.1805  1.1652  0.7810
  775MPD2     N11495   1.225   0.657  15.944  0.0376 -0.0286  0.4068
  775MPD2    H511496   1.274   0.651  15.855  2.5327 -0.2737  1.7830
  775MPD2    N111497   0.922   0.463  16.280 -0.4050  0.1604  0.6375
  775MPD2    H711498   0.889   0.379  16.325  1.0265 -0.6653  0.1576
  776MPD2     C11499   4.717   0.725  12.331 -0.8446 -0.3790 -0.5253
  776MPD2    C111500   0.081   0.809  12.350 -0.1617  0.6236 -0.1139
  776MPD2    C211501   0.092   0.921  12.270 -0.6945 -0.1419  0.0757
  776MPD2    C311502   4.732   0.957  12.191 -0.1678 -0.4848  0.7522
  776MPD2    C411503   4.623   0.877  12.190  0.4250  0.2287 -0.0342
  776MPD2    C511504   4.617   0.757  12.253 -0.7304  0.0802 -0.1373
  776MPD2     H11505   0.185   0.972  12.248 -0.4533 -1.0141 -0.8924
  776MPD2    H111506   4.537   0.907  12.130 -1.4853 -1.5698  1.8300
  776MPD2    H211507   4.697   0.641  12.396 -1.5972  1.6117  1.8072
  776MPD2    H311508   4.530   0.693  12.240  0.3063 -1.2775 -0.3721
  776MPD2     N11509   4.738   1.080  12.113 -0.1122 -0.1360 -0.3560
  776MPD2    H511510   4.662   1.085  12.045  0.4299 -0.1351 -0.9661
  776MPD2    N111511   0.178   0.761  12.441  0.0651 -0.0416  0.1497
  776MPD2    H711512   0.169   0.666  12.476  0.3830 -0.9725 -2.3156
  777MPD2     C11513   0.723   3.065   0.521  0.3355  0.3352 -0.3842
  777MPD2    C111514   0.612   3.114   0.587  0.3061  0.0169  0.4494
  777MPD2    C211515   0.487   3.086   0.536 -0.5011 -0.7119  0.3787
  777MPD2    C311516   0.466   3.015   0.421 -0.5958  0.6357 -0.3578
  777MPD2    C411517   0.580   2.980   0.353 -0.5066  0.1280 -0.3813
  777MPD2    C511518   0.704   2.982   0.411  0.1300 -0.4871  0.4515
  777MPD2     H11519   0.390   3.108   0.581 -0.2572 -1.4676  1.2872
  777MPD2    H111520   0.561   2.914   0.269 -2.6535  1.5493 -1.0200
  777MPD2    H211521   0.823   3.083   0.559 -0.7282 -0.3054  2.7840
  777MPD2    H311522   0.790   2.941   0.361  1.5503  0.8616  1.7907
  777MPD2     N11523   0.344   2.964   0.397  0.0381 -0.1773 -0.3788
  777MPD2    H511524   0.279   2.993   0.470 -0.0998 -1.1644 -0.1151
  777MPD2    N111525   0.633   3.184   0.710  0.2518  0.1516 -0.5047
  777MPD2    H711526   0.725   3.199   0.748 -0.0464  3.8131 -1.2609
  778MPD2     C11527   1.930   3.417  14.996  0.3272  0.5472 -0.6190
  778MPD2    C111528   1.905   3.299  14.930  0.2931 -0.0581  0.0822
  778MPD2    C211529   1.975   3.280  14.811 -0.3710  0.2553  0.5262
  778MPD2    C311530   2.049   3.384  14.754 -0.0365  0.3010  0.2313
  778MPD2    C411531   2.057   3.513  14.820  0.3420  0.1549 -0.2039
  778MPD2    C511532   1.999   3.516  14.938  0.2560  0.0391 -0.4889
  778MPD2     H11533   1.959   3.182  14.766 -0.9193  0.6305 -0.0926
  778MPD2    H111534   2.131   3.590  14.803 -0.2611  0.3180 -2.0111
  778MPD2    H211535   1.880   3.423  15.092  0.4955  1.2102 -0.5741
  778MPD2    H311536   2.018   3.604  14.999 -1.9076 -0.1236  0.3913
  778MPD2     N11537   2.122   3.364  14.641 -0.3984 -0.0611  0.6207
  778MPD2    H511538   2.136   3.270  14.604 -0.4568 -0.1306  0.7759
  778MPD2    N111539   1.810   3.206  14.984  0.1007 -0.2732 -0.4016
  778MPD2    H711540   1.777   3.124  14.935  0.5765  0.1524 -1.4287
  779MPD2     C11541   0.765   1.856  14.317 -0.5479  0.1874 -0.2468
  779MPD2    C111542   0.886   1.805  14.291  0.1781  0.8707  0.1450
  779MPD2    C211543   0.975   1.898  14.239  0.7398 -0.5510 -0.9125
  779MPD2    C311544   0.953   2.036  14.232  0.0425  0.0904 -0.2433
  779MPD2    C411545   0.836   2.084  14.274 -0.1054  0.6219 -0.4497
  779MPD2    C511546   0.743   1.988  14.309 -0.2787 -0.1278 -0.3824
  779MPD2     H11547   1.078   1.878  14.209  0.2886 -0.9760 -2.1522
  779MPD2    H111548   0.806   2.188  14.270 -1.9758  0.1920  2.0369
  779MPD2    H211549   0.686   1.788  14.351 -0.5868 -0.4950 -1.7051
  779MPD2    H311550   0.643   2.021  14.333  0.0380  0.4645  0.1484
  779MPD2     N11551   1.051   2.121  14.176  0.2692  0.7062 -0.0069
  779MPD2    H511552   1.143   2.081  14.162 -0.4273 -1.1088  0.6206
  779MPD2    N111553   0.934   1.676  14.313  0.1382 -0.4934  0.2540
  779MPD2    H711554   1.026   1.648  14.279 -0.3956  1.2452 -2.5389
  780MPD2     C11555   0.114   2.341   0.379  0.2879  0.9221 -0.0439
  780MPD2    C111556   0.180   2.246   0.449  0.3129  0.1654  0.7275
  780MPD2    C211557   0.309   2.226   0.412 -0.1317  0.8458  0.0844
  780MPD2    C311558   0.369   2.301   0.314 -0.1288 -0.5364  0.5849
  780MPD2    C411559   0.301   2.399   0.241  0.5375 -0.0071  0.0785
  780MPD2    C511560   0.173   2.418   0.282 -0.1308 -0.4528  0.1309
  780MPD2     H11561   0.367   2.147   0.459  0.2042 -0.6796 -2.9306
  780MPD2    H111562   0.355   2.471   0.180 -2.6975 -0.3893 -3.1757
  780MPD2    H211563   0.016   2.375   0.409  0.1034 -0.8465  1.3843
  780MPD2    H311564   0.114   2.497   0.236  0.5597 -0.4336 -0.7281
  780MPD2     N11565   0.507   2.275   0.295  0.5552  0.3495 -0.6389
  780MPD2    H511566   0.553   2.217   0.365  0.5740  0.2134 -0.7652
  780MPD2    N111567   0.112   2.176   0.547 -0.4952  0.4732  0.7735
  780MPD2    H711568   0.013   2.195   0.562 -0.2021  0.4806  2.6396
  781MPD2     C11569   3.359   3.581  12.051  0.2282  0.0151 -0.1028
  781MPD2    C111570   3.250   3.518  12.003 -0.1663  0.1421  0.2052
  781MPD2    C211571   3.270   3.395  11.939  0.1733  0.5001 -0.3333
  781MPD2    C311572   3.394   3.351  11.909 -0.1424 -0.1297 -0.2221
  781MPD2    C411573   3.505   3.415  11.964 -0.7852  0.4111 -0.7223
  781MPD2    C511574   3.481   3.526  12.040 -0.4560 -0.0531 -0.2518
  781MPD2     H11575   3.182   3.344  11.900  0.5760 -1.1172  0.8663
  781MPD2    H111576   3.604   3.378  11.939 -0.9992  0.4633 -1.6443
  781MPD2    H211577   3.354   3.673  12.109  0.5386  0.9098 -1.4987
  781MPD2    H311578   3.569   3.580  12.074 -0.6939 -0.7399  1.4846
  781MPD2     N11579   3.431   3.231  11.841  0.4516  0.0500 -1.0472
  781MPD2    H511580   3.527   3.199  11.836 -0.9716 -3.7366 -4.3271
  781MPD2    N111581   3.110   3.566  12.026 -0.4522 -0.3250 -0.0981
  781MPD2    H711582   3.027   3.510  12.012 -1.9029  1.5487  1.0070
  782MPD2     C11583   0.594   0.100  10.715  0.3453 -0.6697  0.1539
  782MPD2    C111584   0.722   0.080  10.682 -0.3857  0.4669  0.7322
  782MPD2    C211585   0.825   0.111  10.769  0.4094  0.3214  0.4493
  782MPD2    C311586   0.795   0.130  10.905  0.3081  0.4786 -0.0036
  782MPD2    C411587   0.667   0.112  10.943 -0.4969 -0.2075  0.4012
  782MPD2    C511588   0.568   0.093  10.850  0.7096 -0.4597  0.1128
  782MPD2     H11589   0.930   0.113  10.744  0.0051  0.6230 -1.2640
  782MPD2    H111590   0.631   0.137  11.042 -0.0801 -0.4774  0.6233
  782MPD2    H211591   0.509   0.086  10.649  0.6887  0.6440 -0.5568
  782MPD2    H311592   0.464   0.108  10.876  0.6086  0.3281 -0.7638
  782MPD2     N11593   0.903   0.150  10.994  0.1325  0.5714  0.2707
  782MPD2    H511594   0.981   0.194  10.945 -0.4989  1.3313 -0.0603
  782MPD2    N111595   0.759   0.043  10.553 -0.3174  0.2273 -0.9121
  782MPD2    H711596   0.675   0.023  10.498 -0.2221 -3.1821  0.1786
  783MPD2     C11597   0.199   4.480  11.139 -0.3778  0.1286 -0.5722
  783MPD2    C111598   0.308   4.536  11.201  0.1180  0.1553  0.3363
  783MPD2    C211599   0.428   4.530  11.129  0.0164  0.4356  0.2154
  783MPD2    C311600   0.433   4.493  10.999  0.2863 -0.7479 -0.0889
  783MPD2    C411601   0.326   4.439  10.940  0.2294 -0.3273  0.3545
  783MPD2    C511602   0.210   4.435  11.014 -0.2871  0.0807  0.1415
  783MPD2     H11603   0.513   4.561  11.188  0.9962  0.2860 -1.1079
  783MPD2    H111604   0.318   4.401  10.839 -1.2359  0.1814  0.2710
  783MPD2    H211605   0.107   4.481  11.195 -0.9346  0.6655 -1.4819
  783MPD2    H311606   0.118   4.409  10.963 -0.3854 -0.5692  0.6489
  783MPD2     N11607   0.566   4.494  10.930 -0.2574 -0.6593 -0.1559
  783MPD2    H511608   0.648   4.519  10.986 -0.1216  1.3732 -1.2815
  783MPD2    N111609   0.289   4.564  11.337  0.1029  0.5370 -0.2413
  783MPD2    H711610   0.203   4.543  11.387 -0.4691  0.4284 -1.2635
  784MPD2     C11611   3.372   0.286   0.451 -0.1739 -0.3662 -0.7498
  784MPD2    C111612   3.341   0.402   0.521  0.0913  0.3055 -0.2144
  784MPD2    C211613   3.243   0.484   0.469 -0.0400  0.0888 -0.3222
  784MPD2    C311614   3.165   0.436   0.363  0.4748 -0.2429  0.0139
  784MPD2    C411615   3.204   0.325   0.295 -0.2579 -1.1873  0.1250
  784MPD2    C511616   3.310   0.250   0.335  0.0108 -0.0526  0.4235
  784MPD2     H11617   3.218   0.574   0.523 -0.5979  0.1967 -0.7614
  784MPD2    H111618   3.150   0.294   0.207  3.3698 -0.3061 -2.4206
  784MPD2    H211619   3.449   0.216   0.481 -1.2960 -0.2302  2.4459
  784MPD2    H311620   3.336   0.162   0.276  1.8198  0.9478 -0.3061
  784MPD2     N11621   3.037   0.490   0.351  0.0310 -0.0428 -0.0482
  784MPD2    H511622   3.024   0.580   0.396  0.8436  0.2779 -0.4499
  784MPD2    N111623   3.418   0.449   0.630  0.7159  0.5906  0.2489
  784MPD2    H711624   3.411   0.548   0.654  0.4658  0.9483 -1.3108
  785MPD2     C11625   3.667   3.456  11.641  0.2166 -0.1646  0.1973
  785MPD2    C111626   3.552   3.517  11.618 -0.2236 -0.3744 -0.8779
  785MPD2    C211627   3.463   3.468  11.527 -0.2040 -0.1451 -0.6155
  785MPD2    C311628   3.496   3.356  11.452  0.8901  0.0859  0.0902
  785MPD2    C411629   3.621   3.303  11.475 -0.0533 -0.5213 -0.7691
  785MPD2    C511630   3.706   3.350  11.573 -0.7047  0.4265  0.4734
  785MPD2     H11631   3.373   3.516  11.493  0.5399  1.6507 -0.0409
  785MPD2    H111632   3.654   3.208  11.433  1.5703  0.0483 -0.7916
  785MPD2    H211633   3.730   3.482  11.725 -2.2152 -0.2309  2.0354
  785MPD2    H311634   3.797   3.295  11.593 -0.4668  0.6474  0.0070
  785MPD2     N11635   3.411   3.297  11.354 -0.0261 -0.0870  0.1908
  785MPD2    H511636   3.318   3.337  11.343 -0.8132 -2.4565 -1.7941
  785MPD2    N111637   3.505   3.633  11.674  0.3641 -0.1411 -0.1431
  785MPD2    H711638   3.413   3.661  11.641  1.0695  0.3930 -1.6429
  786MPD2     C11639   1.575   1.010  15.122 -0.2468  0.8047 -0.1416
  786MPD2    C111640   1.710   1.020  15.092  0.7021 -0.3506  0.2689
  786MPD2    C211641   1.802   1.063  15.179  0.2616 -0.7018  0.6190
  786MPD2    C311642   1.757   1.112  15.297 -0.1804  0.3910 -0.5085
  786MPD2    C411643   1.619   1.125  15.324 -0.1415  0.7048  0.6049
  786MPD2    C511644   1.532   1.065  15.239  0.4015  0.1024 -0.6839
  786MPD2     H11645   1.909   1.060  15.164 -0.0726  0.1775 -1.9105
  786MPD2    H111646   1.591   1.175  15.416 -1.0218  0.1152  0.6587
  786MPD2    H211647   1.497   0.973  15.056  1.7079  0.7420 -2.4250
  786MPD2    H311648   1.427   1.066  15.265  0.7748  1.3924  0.7655
  786MPD2     N11649   1.846   1.159  15.396  0.3482  0.1432  0.8450
  786MPD2    H511650   1.809   1.212  15.475 -0.8159 -1.6685  1.5123
  786MPD2    N111651   1.761   0.957  14.974 -0.2591 -0.5379  0.1276
  786MPD2    H711652   1.861   0.962  14.959 -0.1640 -0.3933  0.7854
  787MPD2     C11653   2.185   0.468  14.930 -0.3422 -0.3643  0.1028
  787MPD2    C111654   2.165   0.524  14.803  0.1053 -0.2145  0.7941
  787MPD2    C211655   2.236   0.471  14.700 -0.4842  0.0745 -0.1335
  787MPD2    C311656   2.298   0.352  14.714  0.4728  0.2409 -0.0031
  787MPD2    C411657   2.306   0.292  14.835  0.8420 -0.1467  0.7729
  787MPD2    C511658   2.253   0.348  14.945 -0.0185 -0.2441 -0.1904
  787MPD2     H11659   2.249   0.524  14.606  1.9497 -0.5186 -0.1350
  787MPD2    H111660   2.348   0.192  14.844 -0.2404 -0.7813 -1.1933
  787MPD2    H211661   2.130   0.510  15.013  1.6928 -0.5495  1.5575
  787MPD2    H311662   2.251   0.294  15.039  0.4038  1.7913  0.9902
  787MPD2     N11663   2.369   0.307  14.598  0.2264 -0.4196  0.3814
  787MPD2    H511664   2.350   0.352  14.509 -0.2840 -1.0762  0.1597
  787MPD2    N111665   2.082   0.642  14.781  0.7318  0.4234 -0.2824
  787MPD2    H711666   2.057   0.686  14.869  2.0710 -1.5477  1.0567
  788MPD2     C11667   3.999   4.479   0.978 -0.2220 -0.2870 -0.2389
  788MPD2    C111668   3.956   4.463   0.851 -0.2169  0.7530 -0.3885
  788MPD2    C211669   3.916   4.573   0.774 -0.5448  0.6395  0.6744
  788MPD2    C311670   3.934   4.702   0.826  0.6230  0.3783 -0.6903
  788MPD2    C411671   3.982   4.716   0.954  0.4565 -0.0388 -0.3757
  788MPD2    C511672   4.005   4.603   1.031  0.1561 -0.0692  0.1198
  788MPD2     H11673   3.877   4.548   0.677  2.1037  1.5407 -0.6277
  788MPD2    H111674   3.986   0.068   1.004 -3.1305  0.5412 -1.1957
  788MPD2    H211675   4.012   4.393   1.044 -1.0356 -0.9639 -0.9583
  788MPD2    H311676   4.019   4.616   1.138  0.2978 -2.9299  0.4324
  788MPD2     N11677   3.919   0.079   0.750  0.6541 -0.7591 -0.2992
  788MPD2    H511678   3.947   0.167   0.792  2.3048 -0.1155 -2.7734
  788MPD2    N111679   3.939   4.335   0.800 -0.0696 -0.1212  0.1508
  788MPD2    H711680   3.870   4.327   0.726 -1.2352  1.8947  1.0527
  789MPD2     C11681   4.206   3.933  16.374  0.1635  0.3728  0.6299
  789MPD2    C111682   4.136   3.984  16.272  0.5968  0.5252 -0.0073
  789MPD2    C211683   4.080   4.106  16.281 -0.3635  0.2233 -0.2682
  789MPD2    C311684   4.114   4.195  16.387  0.5265  0.2268 -0.4248
  789MPD2    C411685   4.201   4.146  16.477 -0.2549 -0.0467 -0.5685
  789MPD2    C511686   4.243   4.020  16.475  0.1448  0.4031  0.0919
  789MPD2     H11687   4.016   4.144  16.201 -1.4856  0.7251  0.8547
  789MPD2    H111688   4.218   4.204  16.567  0.8701 -0.7106 -0.3537
  789MPD2    H211689   4.255   3.837  16.371 -0.5079  0.0746 -1.0784
  789MPD2    H311690   4.304   3.981  16.556 -0.6024  0.0891  0.5014
  789MPD2     N11691   4.059   4.323  16.401  0.2989  0.2632 -0.6557
  789MPD2    H511692   4.094   4.383  16.474  3.3689  0.8845 -2.6566
  789MPD2    N111693   4.105   3.917  16.151 -0.3423  0.1017 -0.2215
  789MPD2    H711694   4.024   3.949  16.099 -1.6120 -2.1067  0.4002
  790MPD2     C11695   0.748   0.680  13.821  0.3076  0.0022  0.1375
  790MPD2    C111696   0.757   0.560  13.748  0.0305  0.2060 -0.0015
  790MPD2    C211697   0.678   0.542  13.633  0.5242  0.0344  0.3202
  790MPD2    C311698   0.602   0.650  13.586  0.1659 -0.1930  0.3537
  790MPD2    C411699   0.606   0.771  13.654 -0.3440 -0.7611 -0.4758
  790MPD2    C511700   0.669   0.781  13.775 -0.3005 -1.0879 -0.1387
  790MPD2     H11701   0.666   0.440  13.599  1.5550 -0.3068  1.0052
  790MPD2    H111702   0.541   0.850  13.618  0.1422 -0.2505 -0.2299
  790MPD2    H211703   0.813   0.694  13.907 -0.8044 -0.5827  1.0666
  790MPD2    H311704   0.664   0.868  13.839  3.5298 -0.1242 -1.1316
  790MPD2     N11705   0.523   0.631  13.477  0.2741  0.1840 -0.3466
  790MPD2    H511706   0.513   0.534  13.449  0.8066 -0.2400  0.9490
  790MPD2    N111707   0.840   0.456  13.799 -0.1857  0.6294  0.1088
  790MPD2    H711708   0.875   0.474  13.893 -5.1909 -0.0867  2.0952
  791MPD2     C11709   4.598   0.510  13.534  0.1343  0.2052 -0.7701
  791MPD2    C111710   4.657   0.429  13.435 -0.2318  0.5685 -0.3853
  791MPD2    C211711   4.580   0.352  13.352 -0.2654  0.6524 -0.4065
  791MPD2    C311712   4.443   0.371  13.352 -0.1543 -0.1585 -0.4494
  791MPD2    C411713   4.389   0.462  13.443  0.2752 -0.6164  0.0323
  791MPD2    C511714   4.463   0.528  13.534  0.1065 -0.4214 -0.0887
  791MPD2     H11715   4.624   0.283  13.281  0.5889 -0.8159  1.5381
  791MPD2    H111716   4.281   0.468  13.452  0.4787  1.4661  1.2356
  791MPD2    H211717   4.652   0.577  13.600 -0.0713  1.7821 -2.2106
  791MPD2    H311718   4.416   0.599  13.601 -0.1177 -0.4128 -0.2538
  791MPD2     N11719   4.362   0.281  13.273  0.0766 -0.8211  0.1166
  791MPD2    H511720   4.417   0.201  13.244  1.4062 -0.6737  2.1694
  791MPD2    N111721   0.054   0.445  13.413 -0.9877 -0.1207  0.1152
  791MPD2    H711722   0.107   0.512  13.467 -0.6486 -0.9516  0.8218
  792MPD2     C11723   1.009   0.895  11.760 -0.0864  0.3171 -0.1441
  792MPD2    C111724   0.926   0.981  11.688  0.4289  0.5177  0.1880
  792MPD2    C211725   0.790   0.992  11.718  0.3879 -0.2165  0.3698
  792MPD2    C311726   0.737   0.916  11.817  0.9502  0.0134  0.0046
  792MPD2    C411727   0.822   0.846  11.890 -0.6328 -0.3083 -0.3494
  792MPD2    C511728   0.952   0.831  11.870  0.5920 -0.2097  0.1027
  792MPD2     H11729   0.721   1.062  11.672  0.2270 -1.4527 -1.2623
  792MPD2    H111730   0.776   0.786  11.968 -2.2883  1.0850 -0.2554
  792MPD2    H211731   1.116   0.880  11.755  0.3251  3.3175 -0.2176
  792MPD2    H311732   0.999   0.767  11.944  1.2847 -1.6314 -1.5689
  792MPD2     N11733   0.599   0.913  11.850 -0.0394 -0.4880  0.0161
  792MPD2    H511734   0.575   0.869  11.938  0.9154 -0.3774  0.3323
  792MPD2    N111735   0.987   1.059  11.585  0.0511  0.0319 -0.3333
  792MPD2    H711736   1.088   1.055  11.582  0.0246 -0.5524 -0.3388
  793MPD2     C11737   0.020   0.712  11.151  0.5701  0.3703  0.3851
  793MPD2    C111738   0.152   0.708  11.187  0.1952 -0.5489 -0.1537
  793MPD2    C211739   0.198   0.775  11.299  0.3776 -0.1542 -0.2107
  793MPD2    C311740   0.102   0.843  11.376 -0.0812 -0.0814  0.2983
  793MPD2    C411741   4.711   0.831  11.343 -0.2473  0.3434 -0.2589
  793MPD2    C511742   4.672   0.774  11.229 -0.7272 -0.5631  0.1012
  793MPD2     H11743   0.300   0.780  11.333  0.8413 -0.2453 -1.5730
  793MPD2    H111744   4.631   0.865  11.407  0.2782  3.8789 -1.4942
  793MPD2    H211745   4.724   0.665  11.061 -2.3348 -0.4386  2.0821
  793MPD2    H311746   4.572   0.770  11.188 -1.0778  1.1374  0.7789
  793MPD2     N11747   0.149   0.898  11.499  0.0784  0.0038  0.4458
  793MPD2    H511748   0.249   0.904  11.514  0.1368 -0.1599  0.1208
  793MPD2    N111749   0.252   0.640  11.107 -0.1689 -0.0175  0.1403
  793MPD2    H711750   0.344   0.661  11.143  0.9886 -1.6044 -1.8549
  794MPD2     C11751   4.703   0.033  17.040  0.6341  0.1563 -0.7081
  794MPD2    C111752   0.051   4.710  16.961  0.0441 -0.2619 -0.2081
  794MPD2    C211753   0.087   0.022  16.833  0.6274  0.4626  0.4191
  794MPD2    C311754   0.036   0.148  16.792 -0.4308  0.1149 -0.5265
  794MPD2    C411755   4.699   0.213  16.884 -0.6150  0.3948 -0.2747
  794MPD2    C511756   4.653   0.151  16.997 -0.3206 -0.4278  0.1672
  794MPD2     H11757   0.159   4.717  16.768 -0.6400 -0.0411 -0.5921
  794MPD2    H111758   4.648   0.306  16.864 -2.0602 -0.4596 -0.5392
  794MPD2    H211759   4.669   0.004  17.139  0.6908 -1.4357 -1.1669
  794MPD2    H311760   4.576   0.188  17.064  0.2244 -1.2644  1.2591
  794MPD2     N11761   0.069   0.206  16.669  0.0275 -0.4670  0.2426
  794MPD2    H511762   0.037   0.302  16.659 -0.4929 -0.8497 -1.8098
  794MPD2    N111763   0.100   4.586  16.999  0.0070 -0.9758  0.2779
  794MPD2    H711764   0.184   4.547  16.956  1.3805  1.1541  1.0205
  795MPD2     C11765   2.536   2.478  13.648  0.8731  0.2979 -0.7939
  795MPD2    C111766   2.474   2.371  13.589 -0.3516  0.9517  0.2814
  795MPD2    C211767   2.527   2.245  13.601  0.5517 -0.1706 -0.6616
  795MPD2    C311768   2.646   2.229  13.669  0.1725 -0.7984 -0.8187
  795MPD2    C411769   2.697   2.329  13.746  0.4295  0.0343 -0.0263
  795MPD2    C511770   2.645   2.453  13.729  0.0605 -0.5801 -0.6378
  795MPD2     H11771   2.473   2.163  13.556  0.6566 -1.2378  1.1408
  795MPD2    H111772   2.787   2.320  13.805  1.0948 -2.5913 -1.4245
  795MPD2    H211773   2.503   2.581  13.649  1.3840  0.4240  2.1709
  795MPD2    H311774   2.693   2.539  13.775 -0.3196 -1.8560  2.1396
  795MPD2     N11775   2.693   2.099  13.677  0.8504 -1.1375 -0.0241
  795MPD2    H511776   2.633   2.032  13.630  0.6345 -0.1543 -1.1433
  795MPD2    N111777   2.345   2.381  13.530 -0.0221  0.3041 -0.0555
  795MPD2    H711778   2.307   2.298  13.485  0.2623 -0.0237  0.3125
  796MPD2     C11779   2.167   4.093  15.763  0.6241  0.0402  0.4565
  796MPD2    C111780   2.246   4.126  15.870 -0.4284  0.0007  0.5083
  796MPD2    C211781   2.243   4.254  15.915  0.2764 -0.1930 -0.5254
  796MPD2    C311782   2.159   4.348  15.858 -0.0428  0.1687 -0.1289
  796MPD2    C411783   2.072   4.306  15.762 -0.0115  0.1089 -0.6902
  796MPD2    C511784   2.085   4.183  15.707  0.5231  0.5206  0.3606
  796MPD2     H11785   2.304   4.298  15.993 -0.4557  1.6209 -0.9644
  796MPD2    H111786   1.997   4.373  15.721  0.8607  1.7710  0.4493
  796MPD2    H211787   2.190   4.001  15.713  3.1698 -0.0136  1.7016
  796MPD2    H311788   2.019   4.158  15.624  0.4742 -1.1556  0.9066
  796MPD2     N11789   2.168   4.484  15.906  0.1465  0.9810  0.5576
  796MPD2    H511790   2.255   4.497  15.956  0.7324 -1.0510  0.0198
  796MPD2    N111791   2.315   4.026  15.937  0.5731  0.0952  0.9169
  796MPD2    H711792   2.321   3.931  15.903  1.2778  0.3413  0.3708
  797MPD2     C11793   3.198   3.242  17.502  0.3839 -0.0567  0.0125
  797MPD2    C111794   3.225   3.370  17.546 -0.0756 -0.2251  1.2392
  797MPD2    C211795   3.151   3.480  17.503  0.1081  0.5621  0.7842
  797MPD2    C311796   3.054   3.469  17.413 -1.0495  0.4585 -0.2122
  797MPD2    C411797   3.027   3.349  17.351 -0.2870 -0.1457  0.1490
  797MPD2    C511798   3.098   3.238  17.400  0.0546  0.1076 -0.2722
  797MPD2     H11799   3.187   3.576  17.537 -2.2572  1.3224  1.1105
  797MPD2    H111800   2.944   3.342  17.281 -0.7154  1.8686  0.4771
  797MPD2    H211801   3.240   3.153  17.548  0.0588 -1.2443 -1.9780
  797MPD2    H311802   3.081   3.144  17.349 -1.1518  0.9272 -1.3467
  797MPD2     N11803   3.000   3.592  17.373  0.4107  0.2348 -0.2301
  797MPD2    H511804   3.040   3.672  17.420  1.2388  1.3183 -2.7750
  797MPD2    N111805   3.335   3.404  17.624 -0.0412 -0.1965 -0.2270
  797MPD2    H711806   3.335   3.500  17.655 -3.4096 -0.5610  0.9200
  798MPD2     C11807   3.412   4.153  17.452 -0.3571 -0.0558  0.6375
  798MPD2    C111808   3.328   4.047  17.481 -0.0802  0.0333 -0.4557
  798MPD2    C211809   3.379   3.944  17.563  0.1792 -0.4688  0.5348
  798MPD2    C311810   3.506   3.947  17.609  0.6255 -0.2520  0.3502
  798MPD2    C411811   3.587   4.054  17.576 -0.9767 -0.0428 -0.0400
  798MPD2    C511812   3.537   4.162  17.507 -0.0037 -0.6105  0.0582
  798MPD2     H11813   3.316   3.858  17.582  0.9682 -1.3687 -0.9437
  798MPD2    H111814   3.682   4.052  17.628 -0.9760  2.0209  0.0407
  798MPD2    H211815   3.388   4.230  17.380  0.6064 -0.0818  0.2837
  798MPD2    H311816   3.610   4.240  17.489 -0.3491 -0.8572 -2.4471
  798MPD2     N11817   3.544   3.827  17.674 -0.0755  0.1934 -0.3150
  798MPD2    H511818   3.471   3.761  17.697 -0.5847  1.2279  1.0909
  798MPD2    N111819   3.198   4.044  17.431  0.3069  0.2990  0.0036
  798MPD2    H711820   3.155   4.129  17.395 -4.7414 -1.8070  1.1311
  799MPD2     C11821   1.901   0.166  14.642 -0.5067  0.1459 -0.5810
  799MPD2    C111822   1.876   0.121  14.512  0.1898 -0.5804  0.2020
  799MPD2    C211823   1.831   0.210  14.411  1.2368  0.3690 -0.6160
  799MPD2    C311824   1.828   0.343  14.444 -0.2982 -1.0012  0.0315
  799MPD2    C411825   1.858   0.387  14.569  0.3043 -0.2532 -0.3119
  799MPD2    C511826   1.877   0.294  14.671  0.2500 -0.3415  0.3838
  799MPD2     H11827   1.816   0.169  14.312  0.2361 -1.3130  0.2124
  799MPD2    H111828   1.855   0.493  14.593  0.9625 -0.4838  0.7940
  799MPD2    H211829   1.948   0.097  14.711 -0.2320  0.2782 -0.6365
  799MPD2    H311830   1.876   0.322  14.776  0.1267  0.6896  0.1024
  799MPD2     N11831   1.803   0.448  14.350 -0.6177  0.9744  0.0970
  799MPD2    H511832   1.822   0.542  14.383  1.1093  0.6262  0.1108
  799MPD2    N111833   1.893   4.732  14.463  0.0158  0.2916 -0.0886
  799MPD2    H711834   1.853   4.709  14.373  0.0219  1.0341 -0.2840
  800MPD2     C11835   1.954   1.337  14.083 -0.2429 -0.8165  0.0647
  800MPD2    C111836   2.092   1.333  14.070 -0.8641  0.4925 -0.4397
  800MPD2    C211837   2.149   1.234  13.996 -0.3656 -0.3030  0.8100
  800MPD2    C311838   2.070   1.136  13.944 -0.0032 -0.5150  0.1127
  800MPD2    C411839   1.931   1.140  13.949 -0.2901 -0.2282 -0.5361
  800MPD2    C511840   1.877   1.245  14.015  0.1205  0.6410  0.4827
  800MPD2     H11841   2.255   1.214  13.992  0.1609  2.2085  1.8233
  800MPD2    H111842   1.868   1.058  13.917  0.2778 -0.8390 -0.1009
  800MPD2    H211843   1.909   1.413  14.146 -0.5770  0.1993 -1.3878
  800MPD2    H311844   1.768   1.248  14.012 -0.0036 -2.8389  1.6616
  800MPD2     N11845   2.137   1.030  13.880 -0.0070  0.1617  0.2812
  800MPD2    H511846   2.235   1.049  13.861 -0.4733 -0.7476 -3.1592
  800MPD2    N111847   2.166   1.430  14.138 -0.8584  0.3055  0.4381
  800MPD2    H711848   2.117   1.496  14.197  0.1180  1.4702 -0.0465
  801MPD2     C11849   2.086   2.067  14.446  0.0048 -0.1758 -0.2105
  801MPD2    C111850   2.090   1.929  14.462  0.7575 -0.1531 -0.1113
  801MPD2    C211851   1.987   1.866  14.522 -0.7292 -0.6323  0.4041
  801MPD2    C311852   1.873   1.933  14.565 -0.0855 -0.0341  1.1997
  801MPD2    C411853   1.855   2.070  14.535 -0.1915 -0.1526 -0.4117
  801MPD2    C511854   1.968   2.130  14.478  0.0270  0.7724 -0.0239
  801MPD2     H11855   2.002   1.760  14.537  0.0479 -0.4420  0.9787
  801MPD2    H111856   1.774   2.135  14.566 -0.1375 -0.0342 -0.5175
  801MPD2    H211857   2.168   2.116  14.395  0.2455  0.4039  0.7229
  801MPD2    H311858   1.975   2.235  14.452  0.6427  0.2693 -1.8881
  801MPD2     N11859   1.769   1.869  14.636 -0.4787 -0.0425  0.0072
  801MPD2    H511860   1.687   1.922  14.665 -1.0900 -1.4272  0.7819
  801MPD2    N111861   2.186   1.844  14.408  0.2041 -0.0946  0.3853
  801MPD2    H711862   2.169   1.745  14.422  2.2551 -0.5648 -0.5461
  802MPD2     C11863   2.052   1.808  17.111  0.4043 -0.7930 -0.2710
  802MPD2    C111864   2.044   1.943  17.126 -0.6312  0.3511 -0.2586
  802MPD2    C211865   2.114   2.021  17.045 -0.3303  0.0312  0.3297
  802MPD2    C311866   2.207   1.975  16.951 -0.3371 -0.1212 -0.3723
  802MPD2    C411867   2.229   1.841  16.952 -0.0580 -0.6157  0.4384
  802MPD2    C511868   2.148   1.764  17.023 -0.3033 -0.4246  0.0170
  802MPD2     H11869   2.116   2.128  17.063  1.6246  0.4554 -2.3179
  802MPD2    H111870   2.309   1.788  16.901  0.4382 -0.3498  0.9316
  802MPD2    H211871   2.008   1.738  17.181 -1.0318  0.9471  0.5791
  802MPD2    H311872   2.155   1.657  17.006 -0.0413 -0.4735  0.4283
  802MPD2     N11873   2.294   2.062  16.886 -0.1227 -0.4056 -0.6289
  802MPD2    H511874   2.284   2.161  16.906 -0.4323 -0.7964  1.1200
  802MPD2    N111875   2.005   2.007  17.246 -0.3701 -0.0434  0.2371
  802MPD2    H711876   2.002   2.108  17.243 -1.6931 -0.0965 -0.1712
  803MPD2     C11877   2.389   4.429  13.102  0.3650 -0.1158 -0.0265
  803MPD2    C111878   2.396   4.570  13.104  0.0309 -0.5214 -0.6386
  803MPD2    C211879   2.509   4.629  13.159 -0.1421 -0.1860  0.0383
  803MPD2    C311880   2.614   4.555  13.213 -0.8276 -0.7149  0.2854
  803MPD2    C411881   2.597   4.416  13.215 -0.4942 -0.2208 -0.5542
  803MPD2    C511882   2.492   4.354  13.154 -0.2267 -0.1345 -0.0366
  803MPD2     H11883   2.526   4.735  13.145  4.2519 -0.4800  3.2804
  803MPD2    H111884   2.681   4.353  13.242 -1.6928 -1.2239  0.7380
  803MPD2    H211885   2.302   4.369  13.081  2.3042 -2.2166 -2.0179
  803MPD2    H311886   2.484   4.246  13.162  1.5516 -0.2506  0.2235
  803MPD2     N11887   2.740   4.607  13.247  0.3255  0.4082  0.4790
  803MPD2    H511888   2.814   4.542  13.270 -0.9613 -0.7761  1.2511
  803MPD2    N111889   2.299   4.644  13.035  1.2841  0.0134 -0.2264
  803MPD2    H711890   2.301   0.002  13.043 -0.2695  0.0078  0.4196
  804MPD2     C11891   3.046   2.055  17.007  0.1634 -0.9672  0.5270
  804MPD2    C111892   2.970   1.998  17.105  0.2198 -1.0203 -0.7564
  804MPD2    C211893   3.006   2.011  17.237 -0.2889  0.1152  0.1538
  804MPD2    C311894   3.127   2.067  17.271 -0.6694  1.0925  0.2139
  804MPD2    C411895   3.212   2.110  17.172 -0.7402  0.6451 -0.1940
  804MPD2    C511896   3.169   2.106  17.047 -0.3063  0.0868 -0.2984
  804MPD2     H11897   2.942   1.973  17.316 -0.7034  0.9012  0.1998
  804MPD2    H111898   3.307   2.159  17.186  1.0421 -2.5124 -1.4863
  804MPD2    H211899   3.017   2.061  16.903  2.3342 -2.8296 -0.1982
  804MPD2    H311900   3.240   2.148  16.976  0.6686  0.5727  0.9769
  804MPD2     N11901   3.155   2.085  17.411  0.2231 -0.1280  0.1831
  804MPD2    H511902   3.083   2.055  17.475  0.3761  0.7593  0.7793
  804MPD2    N111903   2.850   1.933  17.077  0.3847  0.3181  0.0175
  804MPD2    H711904   2.794   1.909  17.159 -0.2337  0.6260 -0.3113
  805MPD2     C11905   1.482   0.269  15.369 -0.4057 -0.7620 -0.6250
  805MPD2    C111906   1.577   0.249  15.278 -0.0579 -0.2860 -0.5429
  805MPD2    C211907   1.706   0.283  15.316  1.0239 -0.3531  0.1459
  805MPD2    C311908   1.728   0.346  15.436  0.3085  0.7346 -0.5265
  805MPD2    C411909   1.626   0.370  15.523 -0.2110 -0.4891  0.0671
  805MPD2    C511910   1.501   0.324  15.494  0.4215 -0.4853  0.0085
  805MPD2     H11911   1.789   0.268  15.249  0.6063 -0.7696 -0.2773
  805MPD2    H111912   1.628   0.441  15.606 -1.0252  0.1324 -0.4414
  805MPD2    H211913   1.377   0.248  15.351  0.1643 -2.3515 -2.1406
  805MPD2    H311914   1.419   0.356  15.557  0.3438  1.1485 -0.9173
  805MPD2     N11915   1.863   0.390  15.452 -0.8018  0.4126 -0.0833
  805MPD2    H511916   1.926   0.382  15.372 -1.6692  1.0615 -0.8312
  805MPD2    N111917   1.552   0.189  15.147 -0.4889 -0.7311 -0.3017
  805MPD2    H711918   1.636   0.172  15.092 -0.6201 -0.3334 -0.6214
  806MPD2     C11919   2.402   4.694   0.240  0.6174  0.4458 -0.3926
  806MPD2    C111920   2.374   0.083   0.256 -0.2384  0.2789 -0.1961
  806MPD2    C211921   2.400   0.167   0.145 -0.0954  0.2077 -0.1989
  806MPD2    C311922   2.432   0.110   0.026 -0.0736 -0.1550 -0.9273
  806MPD2    C411923   2.455   4.721   0.018 -0.0362  0.2511 -0.2875
  806MPD2    C511924   2.449   4.641   0.126 -0.0441  0.7894 -0.8243
  806MPD2     H11925   2.375   0.272   0.149  0.3589  0.3443 -1.0003
  806MPD2    H111926   2.504   4.673  17.706 -1.0081 -3.5092  1.2939
  806MPD2    H211927   2.382   4.628   0.324 -1.1729 -1.0485 -2.0028
  806MPD2    H311928   2.472   4.535   0.128 -1.5198  0.4863  0.4747
  806MPD2     N11929   2.465   0.194  17.689 -0.4018  0.0538 -0.2834
  806MPD2    H511930   2.496   0.288  17.710 -0.9010  0.1639 -0.0588
  806MPD2    N111931   2.330   0.136   0.380 -0.6317  1.0396  0.5758
  806MPD2    H711932   2.308   0.067   0.452 -0.2218  0.4606  0.1410
  807MPD2     C11933   2.098   4.660   1.033  0.2356 -0.1224 -0.0640
  807MPD2    C111934   2.154   4.638   0.903  0.7725  0.3116 -0.4487
  807MPD2    C211935   2.198   4.506   0.881 -0.4317  0.1601 -0.7457
  807MPD2    C311936   2.197   4.404   0.976 -0.2779  0.8635 -0.3390
  807MPD2    C411937   2.150   4.427   1.099  0.0838  0.4646 -0.3092
  807MPD2    C511938   2.091   4.549   1.121 -0.3716 -0.5414  0.5919
  807MPD2     H11939   2.257   4.497   0.791  0.4362 -0.9855 -0.0549
  807MPD2    H111940   2.152   4.351   1.176  1.9932 -1.3351 -2.1626
  807MPD2    H211941   2.049   0.009   1.062  0.2624 -0.1971  0.2232
  807MPD2    H311942   2.029   4.560   1.209 -0.7801  1.6021  0.0346
  807MPD2     N11943   2.258   4.282   0.939  0.1229  0.2709  0.6222
  807MPD2    H511944   2.279   4.263   0.842 -2.8172 -1.0383  0.2309
  807MPD2    N111945   2.179   0.002   0.814  0.8958 -0.0533  0.1518
  807MPD2    H711946   2.216   4.721   0.722  1.8048  2.1041 -0.0709
  808MPD2     C11947   2.066   1.574   9.703 -0.3760 -0.0102 -0.5198
  808MPD2    C111948   2.100   1.628   9.825  0.0747  0.1124 -0.9563
  808MPD2    C211949   2.173   1.749   9.830 -0.0709  0.1098 -0.1337
  808MPD2    C311950   2.213   1.814   9.714  0.0477 -0.4604 -0.1033
  808MPD2    C411951   2.196   1.749   9.595 -0.6395  0.7322 -0.4295
  808MPD2    C511952   2.116   1.637   9.590 -0.3782  0.8555  1.1137
  808MPD2     H11953   2.193   1.781   9.932 -1.0856  2.8202 -0.7676
  808MPD2    H111954   2.239   1.778   9.499 -1.3525  0.7119 -0.7498
  808MPD2    H211955   2.007   1.485   9.691 -1.6321  0.6456  0.7308
  808MPD2    H311956   2.096   1.589   9.495 -1.4778  1.0811  1.2323
  808MPD2     N11957   2.292   1.931   9.727 -0.5288  0.0319 -0.0661
  808MPD2    H511958   2.330   1.968   9.640  2.4022 -2.2661  0.2398
  808MPD2    N111959   2.062   1.567   9.949 -0.5453  0.4836 -0.0417
  808MPD2    H711960   2.115   1.603  10.028 -1.0936  1.0642  0.0614
  809MPD2     C11961   2.896   1.899   9.153 -0.0175  0.1562 -0.1733
  809MPD2    C111962   2.969   1.970   9.246 -0.6511 -0.5831 -0.3142
  809MPD2    C211963   2.899   2.022   9.357  0.6334  0.0062 -0.4384
  809MPD2    C311964   2.763   2.006   9.378 -0.6063 -0.2052 -0.6311
  809MPD2    C411965   2.693   1.939   9.280 -0.7172  0.7734  0.8416
  809MPD2    C511966   2.759   1.900   9.166 -0.3413  0.1345  0.3451
  809MPD2     H11967   2.960   2.082   9.424  0.6081  1.7497 -1.9701
  809MPD2    H111968   2.591   1.902   9.286 -1.9362  3.7838 -0.9097
  809MPD2    H211969   2.941   1.857   9.064 -1.2534  0.0925 -0.7679
  809MPD2    H311970   2.704   1.836   9.097  0.1968 -0.4665  0.4742
  809MPD2     N11971   2.686   2.045   9.493  0.6405 -0.3624  0.2293
  809MPD2    H511972   2.585   2.030   9.489  0.9642 -2.4565 -0.0844
  809MPD2    N111973   3.111   1.978   9.244 -0.3982 -0.0082  0.5102
  809MPD2    H711974   3.159   2.038   9.310  0.8967  2.3649 -2.5574
  810MPD2     C11975   2.361   1.482  10.970  0.0856  0.1552 -0.7063
  810MPD2    C111976   2.274   1.453  10.870  0.4906 -0.1278  0.1811
  810MPD2    C211977   2.226   1.558  10.794  0.0461 -0.8820  0.1421
  810MPD2    C311978   2.276   1.689  10.810  0.2425  0.1414 -0.4377
  810MPD2    C411979   2.381   1.708  10.899  0.0533 -0.1845  0.9196
  810MPD2    C511980   2.400   1.612  10.992  0.7506  0.5430  0.4937
  810MPD2     H11981   2.152   1.534  10.719  0.0966  1.8230 -0.7588
  810MPD2    H111982   2.421   1.808  10.910 -1.5324  0.4813  0.6638
  810MPD2    H211983   2.390   1.407  11.042 -0.5347  0.2458 -0.3720
  810MPD2    H311984   2.471   1.626  11.073 -0.7281 -0.3501  1.9474
  810MPD2     N11985   2.229   1.801  10.741  1.2729  0.5129 -0.2741
  810MPD2    H511986   2.283   1.886  10.756 -1.7806  2.6016 -0.9964
  810MPD2    N111987   2.220   1.325  10.846  0.4413  0.0394 -0.4190
  810MPD2    H711988   2.139   1.319  10.785 -0.5074  1.9139  0.6586
  811MPD2     C11989   1.570   1.029  10.473 -0.0061  0.0269 -0.4326
  811MPD2    C111990   1.674   1.109  10.520 -0.4806  1.2352  0.5332
  811MPD2    C211991   1.678   1.234  10.467  0.1835 -0.6604 -0.2035
  811MPD2    C311992   1.585   1.285  10.385  0.9873  0.6596 -0.0423
  811MPD2    C411993   1.479   1.213  10.345  0.2874  0.7052 -0.8150
  811MPD2    C511994   1.480   1.084  10.388 -0.2776  0.1073  0.1824
  811MPD2     H11995   1.763   1.296  10.493  0.0602 -0.7442  0.3877
  811MPD2    H111996   1.398   1.245  10.280  1.5534  1.4195 -2.0451
  811MPD2    H211997   1.552   0.923  10.488 -1.1119 -0.0362 -2.1543
  811MPD2    H311998   1.392   1.027  10.361 -1.1598  1.9098 -0.7511
  811MPD2     N11999   1.602   1.423  10.345 -0.0582  0.0521 -0.2766
  811MPD2    H512000   1.678   1.476  10.388  0.1447 -0.0169 -0.5508
  811MPD2    N112001   1.772   1.056  10.602 -0.0141 -0.6480 -0.2006
  811MPD2    H712002   1.769   0.957  10.625  0.7738 -0.2382  1.6580
  812MPD2     C12003   1.391   0.726  12.103 -0.3919  0.4116 -0.2939
  812MPD2    C112004   1.281   0.800  12.140 -1.3737  0.6923 -0.2547
  812MPD2    C212005   1.212   0.765  12.262  0.0011  0.1641 -0.3283
  812MPD2    C312006   1.242   0.656  12.335  0.1747 -0.4116  0.3848
  812MPD2    C412007   1.364   0.584  12.303 -0.1683 -0.0369 -0.6645
  812MPD2    C512008   1.430   0.627  12.191 -0.0672  0.5187  0.5784
  812MPD2     H12009   1.140   0.838  12.297 -1.5554 -0.5364 -2.0813
  812MPD2    H112010   1.413   0.508  12.362 -0.7393  1.7078  2.0599
  812MPD2    H212011   1.442   0.742  12.008  1.1951 -2.4166  0.0799
  812MPD2    H312012   1.517   0.564  12.174  0.3457  1.3324 -0.3502
  812MPD2     N12013   1.166   0.625  12.448  0.0325  0.1527  0.2717
  812MPD2    H512014   1.093   0.693  12.468 -1.3367 -0.9067 -1.1437
  812MPD2    N112015   1.254   0.922  12.073 -0.2515  0.1615 -0.5974
  812MPD2    H712016   1.316   0.947  11.997 -0.8643  1.1644 -0.7699
  813MPD2     C12017   0.319   2.015  13.403  0.1644 -0.7145  0.0197
  813MPD2    C112018   0.299   2.149  13.399  0.4303  0.2452 -0.2569
  813MPD2    C212019   0.179   2.202  13.457  0.1294  0.0871  0.1048
  813MPD2    C312020   0.102   2.120  13.543  0.5497  0.0193  0.2254
  813MPD2    C412021   0.139   1.983  13.546 -0.0421 -0.6817 -0.3976
  813MPD2    C512022   0.245   1.927  13.480 -0.8237  0.4887 -0.3914
  813MPD2     H12023   0.158   2.308  13.447  1.3109  0.0854 -2.4849
  813MPD2    H112024   0.085   1.913  13.609  0.1152 -0.3456  0.1103
  813MPD2    H212025   0.404   1.974  13.350  1.5996 -0.6713  2.2915
  813MPD2    H312026   0.274   1.825  13.499 -1.2484  0.2351 -1.1161
  813MPD2     N12027   4.738   2.175  13.617  0.5355  1.0961 -0.5117
  813MPD2    H512028   4.723   2.270  13.586  0.9789  1.1682 -0.5034
  813MPD2    N112029   0.395   2.230  13.337 -0.4891 -0.4719 -0.0225
  813MPD2    H712030   0.491   2.197  13.334  0.0459  1.2982 -3.2502
  814MPD2     C12031   0.641   3.343  12.512  0.0410 -0.4964  0.0739
  814MPD2    C112032   0.611   3.449  12.428 -0.0395 -0.3786  0.3323
  814MPD2    C212033   0.646   3.575  12.464  0.0169 -0.0294 -0.2025
  814MPD2    C312034   0.715   3.598  12.585 -0.3324  0.3004  0.1820
  814MPD2    C412035   0.751   3.493  12.668  0.5954  0.2739 -0.5852
  814MPD2    C512036   0.713   3.365  12.630  0.0494  0.0119 -0.0870
  814MPD2     H12037   0.626   3.658  12.396 -1.2737 -1.1977 -1.2402
  814MPD2    H112038   0.797   3.517  12.764  0.2141  0.1015 -0.3587
  814MPD2    H212039   0.633   3.239  12.480  1.5209 -0.2009 -1.2735
  814MPD2    H312040   0.755   3.285  12.690 -0.3761 -1.7063 -2.1000
  814MPD2     N12041   0.746   3.723  12.633 -0.1343  1.0312  0.4217
  814MPD2    H512042   0.795   3.717  12.722  0.1040 -3.3650  0.0150
  814MPD2    N112043   0.547   3.420  12.303 -0.6946  0.6581  0.2815
  814MPD2    H712044   0.538   3.498  12.240  1.0206  0.0865 -0.6777
  815MPD2     C12045   1.215   2.787  11.850  0.5973 -0.1480  1.0138
  815MPD2    C112046   1.257   2.657  11.827 -0.5903  0.7135 -0.2132
  815MPD2    C212047   1.173   2.555  11.873 -0.4208  0.4532 -0.1694
  815MPD2    C312048   1.052   2.585  11.933 -0.1009 -0.4317  0.6435
  815MPD2    C412049   1.011   2.713  11.946 -0.6859 -0.4592 -0.2512
  815MPD2    C512050   1.093   2.817  11.906 -0.3369  0.4538 -0.3462
  815MPD2     H12051   1.213   2.454  11.874  1.6347  1.2658 -0.0074
  815MPD2    H112052   0.918   2.743  11.991 -0.5545  0.4051 -0.5472
  815MPD2    H212053   1.271   2.873  11.816  0.3031  0.0760  1.0899
  815MPD2    H312054   1.059   2.920  11.910  1.1308  0.9665 -0.9182
  815MPD2     N12055   0.979   2.471  11.976 -0.1477  0.6551  0.0410
  815MPD2    H512056   0.989   2.380  11.933 -2.6217 -0.2205  1.3324
  815MPD2    N112057   1.385   2.640  11.752  0.2902  0.2969 -0.4096
  815MPD2    H712058   1.435   2.722  11.719 -1.6235  1.2431 -1.0246
  816MPD2     C12059   0.540   1.486  17.417 -0.1191 -0.8779 -0.4680
  816MPD2    C112060   0.636   1.574  17.383  0.0898 -0.1422 -0.0663
  816MPD2    C212061   0.743   1.551  17.298 -0.0309  0.2623  0.3916
  816MPD2    C312062   0.744   1.424  17.236  1.1519 -0.4269 -0.2678
  816MPD2    C412063   0.653   1.333  17.271  0.4683 -0.3517 -0.6689
  816MPD2    C512064   0.548   1.369  17.349  0.3027  0.2129  0.4627
  816MPD2     H12065   0.818   1.625  17.273 -0.1791  0.0711 -0.6541
  816MPD2    H112066   0.648   1.236  17.223 -0.4975 -1.3529  1.4444
  816MPD2    H212067   0.451   1.511  17.474  0.8071  1.1364  0.1008
  816MPD2    H312068   0.462   1.303  17.347  0.8637 -0.3983 -2.3812
  816MPD2     N12069   0.845   1.394  17.143  0.5198  0.3766  0.3936
  816MPD2    H512070   0.896   1.478  17.117 -1.0361  1.1387 -0.2273
  816MPD2    N112071   0.630   1.693  17.459  0.2954  0.0898  0.4756
  816MPD2    H712072   0.545   1.693  17.514  0.6794 -2.3679  1.0852
  817MPD2     C12073   0.785   3.698  10.141  0.4158  0.6009  0.2635
  817MPD2    C112074   0.830   3.704  10.016  0.2001  0.4961  0.2367
  817MPD2    C212075   0.844   3.825   9.959  0.1633  0.6086  0.5852
  817MPD2    C312076   0.797   3.942  10.015 -0.2477  0.5744  0.7480
  817MPD2    C412077   0.749   3.934  10.139  0.4156 -0.0173  0.4254
  817MPD2    C512078   0.748   3.812  10.205  0.0366  0.2324 -0.2929
  817MPD2     H12079   0.878   3.823   9.856 -0.2711  1.2614  0.4272
  817MPD2    H112080   0.710   4.020  10.192  1.4448 -0.2853  1.6167
  817MPD2    H212081   0.771   3.602  10.191 -1.5379  1.4456  1.3264
  817MPD2    H312082   0.694   3.799  10.298  0.8551 -1.5904 -0.0514
  817MPD2     N12083   0.799   4.060   9.941 -0.2533  1.1028  0.1182
  817MPD2    H512084   0.829   4.051   9.844  0.9653  1.8110  0.4372
  817MPD2    N112085   0.879   3.593   9.939 -0.3133 -0.4302  0.1526
  817MPD2    H712086   0.904   3.608   9.842 -1.5714 -0.1415 -0.1213
  818MPD2     C12087   4.734   3.786  10.599 -0.0610 -0.2375 -0.2862
  818MPD2    C112088   4.651   3.679  10.605 -0.2580 -0.5299 -0.2884
  818MPD2    C212089   4.681   3.570  10.528  0.1760  0.0354  0.2918
  818MPD2    C312090   0.039   3.565  10.436 -0.7047  0.6369 -0.0889
  818MPD2    C412091   0.120   3.666  10.429  0.4028 -0.5476 -0.3032
  818MPD2    C512092   0.094   3.776  10.507  0.2631  0.8758 -0.1175
  818MPD2     H12093   4.616   3.484  10.534 -1.3651  1.1602 -0.4233
  818MPD2    H112094   0.202   3.672  10.359  0.7921  1.6040  0.3520
  818MPD2    H212095   4.724   3.871  10.665  1.4916  0.3083 -0.7420
  818MPD2    H312096   0.161   3.861  10.497  1.6125 -0.0730  0.7429
  818MPD2     N12097   0.045   3.451  10.346 -0.1703  0.3643 -0.6893
  818MPD2    H512098   4.714   3.383  10.351 -0.4482  0.8542  1.5781
  818MPD2    N112099   4.546   3.665  10.698 -0.4186  0.2029 -0.1171
  818MPD2    H712100   4.483   3.587  10.683 -2.6142  1.5960  1.9522
  819MPD2     C12101   2.652   4.606  15.177  0.2139 -0.1083  0.4582
  819MPD2    C112102   2.582   4.571  15.288  0.6594 -0.5379  0.0983
  819MPD2    C212103   2.650   4.580  15.409 -0.4946  0.2333  0.2403
  819MPD2    C312104   2.775   4.636  15.413  0.5194  0.6134  0.1817
  819MPD2    C412105   2.844   4.683  15.299 -0.4443  0.6688 -0.8031
  819MPD2    C512106   2.786   4.650  15.181 -0.1610 -0.3797  0.1170
  819MPD2     H12107   2.595   4.554  15.499 -0.0535  0.2610  0.5146
  819MPD2    H112108   2.944   4.724  15.307  0.1123 -0.7156 -0.8335
  819MPD2    H212109   2.599   4.588  15.084  1.0596 -0.0838 -0.0239
  819MPD2    H312110   2.835   4.669  15.086 -0.1077  2.5690  0.7433
  819MPD2     N12111   2.832   4.644  15.543 -0.3327 -0.0386 -0.6155
  819MPD2    H512112   2.779   4.600  15.618  1.5174  1.5746  1.6572
  819MPD2    N112113   2.455   4.505  15.276 -0.3862 -0.5009  0.3059
  819MPD2    H712114   2.419   4.502  15.181 -1.8782  1.6180  0.7934
  820MPD2     C12115   1.696   4.301  14.656  0.5972 -0.2657 -0.3889
  820MPD2    C112116   1.745   4.420  14.712 -0.2387  0.6581  0.7227
  820MPD2    C212117   1.860   4.416  14.787  0.4173  0.1081 -0.1032
  820MPD2    C312118   1.912   4.294  14.828  0.4366  0.0635  0.1432
  820MPD2    C412119   1.856   4.173  14.778  0.7607  0.1104 -0.2688
  820MPD2    C512120   1.761   4.181  14.682 -0.3427  0.1645  0.8979
  820MPD2     H12121   1.905   4.507  14.826  0.7037  0.4055 -1.1334
  820MPD2    H112122   1.897   4.076  14.804 -0.6177 -0.0112  1.4688
  820MPD2    H212123   1.606   4.299  14.596 -1.3032  2.6116  2.3588
  820MPD2    H312124   1.723   4.090  14.638  0.8969  0.3571 -0.5649
  820MPD2     N12125   2.005   4.284  14.934 -0.8302 -0.0767 -0.5514
  820MPD2    H512126   2.039   4.193  14.964 -0.3880  0.5609  0.8564
  820MPD2    N112127   1.661   4.535  14.709 -0.5345 -0.2069 -0.0798
  820MPD2    H712128   1.572   4.516  14.665 -1.1229  3.2963 -0.4055
  821MPD2     C12129   2.353   1.020  13.146  0.1832  0.1683  0.0847
  821MPD2    C112130   2.451   0.987  13.236 -0.5070 -0.1845  0.3315
  821MPD2    C212131   2.578   0.995  13.196 -0.6810  0.4353  0.4453
  821MPD2    C312132   2.609   1.024  13.060  0.0918  0.2049 -0.7979
  821MPD2    C412133   2.512   1.046  12.970 -0.3038 -0.2318 -0.0449
  821MPD2    C512134   2.386   1.047  13.016  0.1990  1.0643  0.8371
  821MPD2     H12135   2.657   0.978  13.269  0.1717  0.7694 -0.4071
  821MPD2    H112136   2.527   1.074  12.866 -0.2565 -3.5363 -0.9278
  821MPD2    H212137   2.247   1.015  13.170  0.2541  0.4425  0.4564
  821MPD2    H312138   2.301   1.074  12.955  0.6119 -1.2053 -0.7778
  821MPD2     N12139   2.744   1.040  13.014 -0.3364  0.3735 -0.4395
  821MPD2    H512140   2.762   1.081  12.923  2.5514  0.8202  0.3515
  821MPD2    N112141   2.430   0.936  13.364  0.8145 -0.8098 -0.1929
  821MPD2    H712142   2.520   0.920  13.409  0.7724 -0.8760 -0.1310
  822MPD2     C12143   3.602   1.555  15.757 -0.4025  0.3751  0.1508
  822MPD2    C112144   3.616   1.631  15.869  0.2935  0.7246  0.2686
  822MPD2    C212145   3.515   1.725  15.893  0.0001  0.7354  0.1570
  822MPD2    C312146   3.409   1.735  15.812 -0.2096  0.0308  0.3046
  822MPD2    C412147   3.391   1.654  15.704 -0.2293  0.2323 -0.3460
  822MPD2    C512148   3.485   1.558  15.680 -0.2696 -0.1340 -0.1694
  822MPD2     H12149   3.516   1.782  15.985 -2.4091 -0.1316  0.7181
  822MPD2    H112150   3.311   1.670  15.632 -0.9582 -0.2026  0.3629
  822MPD2    H212151   3.670   1.477  15.726  0.7374  0.5752  2.1930
  822MPD2    H312152   3.478   1.490  15.595  3.4175  0.0427 -0.6462
  822MPD2     N12153   3.304   1.824  15.851 -0.3253 -0.1368 -0.3339
  822MPD2    H512154   3.321   1.883  15.932  0.9674 -0.3949 -0.4270
  822MPD2    N112155   3.729   1.619  15.954  0.1753  0.2495  0.3521
  822MPD2    H712156   3.738   1.683  16.032  0.1036  1.0728 -0.3060
  823MPD2     C12157   2.689   1.984  16.306  0.8459  0.1522 -0.1867
  823MPD2    C112158   2.807   1.921  16.253  0.5186  0.4930  1.0588
  823MPD2    C212159   2.891   1.856  16.344  0.6275 -1.2359  0.4394
  823MPD2    C312160   2.876   1.868  16.481 -0.7892  0.4228 -0.1338
  823MPD2    C412161   2.765   1.934  16.534  0.4653  0.4870 -0.1320
  823MPD2    C512162   2.681   1.994  16.447  0.2718  0.9190  0.2929
  823MPD2     H12163   2.980   1.815  16.297  0.7357  0.4732 -0.8579
  823MPD2    H112164   2.753   1.932  16.642  0.3202 -0.0889 -0.1588
  823MPD2    H212165   2.616   2.031  16.242  0.6290  0.3729  0.2232
  823MPD2    H312166   2.602   2.056  16.488  0.8377  3.1545 -1.9771
  823MPD2     N12167   2.981   1.828  16.575 -0.0374  0.3103 -0.0753
  823MPD2    H512168   2.971   1.859  16.671 -2.0471 -0.5055 -0.0047
  823MPD2    N112169   2.838   1.930  16.113 -0.6142  0.1150 -0.2775
  823MPD2    H712170   2.908   1.868  16.074  1.1221  0.9110  1.5722
  824MPD2     C12171   4.340   1.065  16.075 -0.0032  0.0445 -0.0227
  824MPD2    C112172   4.230   1.126  16.020 -0.4354  0.4430  0.1681
  824MPD2    C212173   4.153   1.042  15.942 -0.4010 -0.0535  0.4336
  824MPD2    C312174   4.179   0.910  15.913 -0.6181 -0.3613  0.1499
  824MPD2    C412175   4.289   0.856  15.969 -0.2214 -0.3476  0.3914
  824MPD2    C512176   4.377   0.932  16.034 -0.2327  0.1965  0.0337
  824MPD2     H12177   4.067   1.084  15.891 -0.4756 -1.5140 -0.6471
  824MPD2    H112178   4.316   0.755  15.942 -0.6237 -0.3860  0.1248
  824MPD2    H212179   4.408   1.123  16.138 -0.8544  1.7782 -0.7134
  824MPD2    H312180   4.480   0.905  16.058 -1.1915 -1.6984  2.0231
  824MPD2     N12181   4.095   0.836  15.828 -0.0479  0.3668  0.7866
  824MPD2    H512182   4.014   0.884  15.789  1.6862  0.2403 -2.9633
  824MPD2    N112183   4.172   1.251  16.048 -0.4100 -0.4112  0.3165
  824MPD2    H712184   4.080   1.262  16.006 -0.6546 -0.2507  0.8963
  825MPD2     C12185   4.068   0.980  15.035 -0.1347  0.6896 -0.2119
  825MPD2    C112186   4.094   0.996  15.165  0.0007 -0.4613  0.2450
  825MPD2    C212187   4.129   1.125  15.209 -0.0875 -0.0204 -0.1308
  825MPD2    C312188   4.126   1.233  15.126  0.0696  0.3552  0.3192
  825MPD2    C412189   4.085   1.213  14.997  1.0610  0.2789  0.2342
  825MPD2    C512190   4.076   1.085  14.949  0.2050  0.2997  0.6187
  825MPD2     H12191   4.150   1.136  15.315 -1.8381  1.7017  0.0464
  825MPD2    H112192   4.079   1.301  14.934  1.1556  0.7743  0.9104
  825MPD2    H212193   4.046   0.880  14.997 -0.7488  0.7761 -0.0911
  825MPD2    H312194   4.043   1.076  14.847  1.5995 -0.4100  0.2306
  825MPD2     N12195   4.153   1.370  15.161 -0.1717  0.4252 -0.2912
  825MPD2    H512196   4.136   1.443  15.092 -1.4159  0.7093  0.3252
  825MPD2    N112197   4.084   0.876  15.243  0.0703 -0.0293 -0.0985
  825MPD2    H712198   4.065   0.793  15.187  0.9198 -0.7706  0.7257
  826MPD2     C12199   3.906   0.821  14.138 -1.1236  0.2976  0.3014
  826MPD2    C112200   3.971   0.830  14.019 -0.7325 -0.8555 -0.0116
  826MPD2    C212201   3.894   0.837  13.901  0.6119  0.0179  1.0095
  826MPD2    C312202   3.753   0.842  13.909 -0.3935  0.4214  0.0003
  826MPD2    C412203   3.690   0.835  14.035 -0.6727  0.0908  0.0878
  826MPD2    C512204   3.767   0.828  14.149  0.3287  0.1788  1.1234
  826MPD2     H12205   3.947   0.846  13.807  2.2343  1.9041  2.1058
  826MPD2    H112206   3.585   0.821  14.057 -0.5269  0.1087  0.7975
  826MPD2    H212207   3.959   0.811  14.231 -2.3697 -1.1974  0.8595
  826MPD2    H312208   3.715   0.812  14.243  1.2081  0.8208  1.7155
  826MPD2     N12209   3.667   0.850  13.792 -0.4654 -0.0140 -0.2174
  826MPD2    H512210   3.567   0.845  13.811 -0.6942  0.5023 -1.2706
  826MPD2    N112211   4.110   0.836  14.020 -0.5483  0.1003  0.3262
  826MPD2    H712212   4.148   0.839  14.114  1.8825 -3.6609 -0.5270
  827MPD2     C12213   0.160   2.563  10.186  0.1914 -0.1635 -0.0634
  827MPD2    C112214   0.185   2.431  10.177  0.2866 -0.9662  0.0448
  827MPD2    C212215   0.088   2.344  10.129  0.1988  0.5045  0.4145
  827MPD2    C312216   4.705   2.390  10.106 -0.0385  0.4290  0.2011
  827MPD2    C412217   4.684   2.529  10.115  0.6134 -0.4292  0.3226
  827MPD2    C512218   0.039   2.616  10.143 -0.3085  0.4735 -0.3248
  827MPD2     H12219   0.105   2.237  10.128  2.0531  0.7884  1.8052
  827MPD2    H112220   4.584   2.568  10.102  0.2515 -1.2899  0.4947
  827MPD2    H212221   0.235   2.623  10.237 -0.0585  0.8463 -0.8921
  827MPD2    H312222   0.016   2.716  10.178 -0.8771  0.4760 -0.6959
  827MPD2     N12223   4.597   2.297  10.086 -0.2514  0.0510  0.2093
  827MPD2    H512224   4.615   2.199  10.107 -1.5316 -0.4738 -1.2153
  827MPD2    N112225   0.313   2.388  10.209  1.2061 -0.4376  0.1460
  827MPD2    H712226   0.379   2.464  10.222  0.0909  0.9057 -1.9463
  828MPD2     C12227   3.126   1.078  12.307 -0.5245 -0.8406  0.1461
  828MPD2    C112228   3.117   1.191  12.238 -0.3839 -0.0314  0.7564
  828MPD2    C212229   3.162   1.198  12.106  0.2767 -0.5049 -0.6536
  828MPD2    C312230   3.193   1.084  12.035 -0.1240 -0.2083  0.2858
  828MPD2    C412231   3.185   0.965  12.106 -0.1934 -0.4712  0.1427
  828MPD2    C512232   3.154   0.961  12.239 -0.0006 -0.1868  0.5311
  828MPD2     H12233   3.164   1.296  12.059  0.4066  0.1989  0.8048
  828MPD2    H112234   3.204   0.879  12.043 -1.3969 -1.6041  1.3251
  828MPD2    H212235   3.113   1.064  12.413 -2.3665 -0.7391 -0.0600
  828MPD2    H312236   3.155   0.872  12.300 -1.1554 -0.9721 -0.6106
  828MPD2     N12237   3.212   1.080  11.898  0.0504  0.0284  0.2164
  828MPD2    H512238   3.252   0.994  11.862 -1.0728 -0.7265  0.7499
  828MPD2    N112239   3.071   1.314  12.290  0.3683 -0.8745 -0.0488
  828MPD2    H712240   3.093   1.404  12.249  0.7213 -0.2522  1.4708
  829MPD2     C12241   2.798   2.272  12.172 -0.5729 -0.1455 -0.2099
  829MPD2    C112242   2.833   2.158  12.099 -0.3304 -0.0696 -0.0667
  829MPD2    C212243   2.866   2.039  12.163  0.3900  0.2062  0.2947
  829MPD2    C312244   2.862   2.035  12.299 -0.6064 -0.0843  0.1614
  829MPD2    C412245   2.821   2.142  12.374 -0.3210 -0.9369 -1.0963
  829MPD2    C512246   2.800   2.260  12.311  0.6262 -0.3913 -0.1895
  829MPD2     H12247   2.889   1.951  12.104  1.7446  0.5803  0.2834
  829MPD2    H112248   2.797   2.118  12.477 -2.0321  0.1862 -1.2466
  829MPD2    H212249   2.762   2.364  12.129 -1.5319  0.7790  2.5450
  829MPD2    H312250   2.765   2.345  12.369 -0.5651 -0.5360 -0.6903
  829MPD2     N12251   2.886   1.916  12.368  0.0071  0.4513 -0.3496
  829MPD2    H512252   2.834   1.908  12.456  0.1132 -2.3356 -0.5280
  829MPD2    N112253   2.833   2.176  11.959  0.4245 -0.3994  0.6924
  829MPD2    H712254   2.807   2.268  11.927 -4.1488 -1.3000  1.8617
  830MPD2     C12255   3.497   4.388  15.972  0.3757  0.1652  0.1688
  830MPD2    C112256   3.428   4.409  15.857 -0.6109  0.3546  0.8180
  830MPD2    C212257   3.496   4.461  15.752 -0.2476 -0.4232  0.0308
  830MPD2    C312258   3.634   4.488  15.757  0.8248  0.4823  0.0457
  830MPD2    C412259   3.707   4.458  15.871 -0.3160 -0.9962  0.1114
  830MPD2    C512260   3.635   4.419  15.983 -0.1817 -0.1878 -0.6300
  830MPD2     H12261   3.441   4.492  15.665  0.8211 -1.7520 -1.1219
  830MPD2    H112262   3.813   4.471  15.886 -0.2945 -1.5163  0.4015
  830MPD2    H212263   3.446   4.346  16.057 -1.1350  1.1660 -0.2387
  830MPD2    H312264   3.697   4.406  16.071 -1.7002  1.3765  0.6715
  830MPD2     N12265   3.698   4.547  15.649 -0.1875  0.1540 -0.1475
  830MPD2    H512266   3.795   4.576  15.658 -0.1579 -0.6131  1.8576
  830MPD2    N112267   3.289   4.385  15.856  0.1170 -0.3770  0.4728
  830MPD2    H712268   3.244   4.342  15.936 -0.6279  3.5953  2.2061
  831MPD2     C12269   3.399   2.129  16.145  0.3538  0.5803  0.1889
  831MPD2    C112270   3.510   2.046  16.134 -0.3176 -0.1688  0.3767
  831MPD2    C212271   3.504   1.924  16.201  0.0687  0.1155  0.0749
  831MPD2    C312272   3.387   1.882  16.262 -0.4760  0.5197  0.1072
  831MPD2    C412273   3.288   1.969  16.294  0.1704 -0.3317 -0.5304
  831MPD2    C512274   3.296   2.086  16.222  0.3757 -0.4268 -0.7495
  831MPD2     H12275   3.590   1.859  16.210 -0.2684  0.3598  5.0979
  831MPD2    H112276   3.202   1.938  16.352 -0.0068 -0.4323 -0.8419
  831MPD2    H212277   3.384   2.222  16.093 -0.6297 -0.1995 -0.9263
  831MPD2    H312278   3.221   2.162  16.239  0.0592 -1.0579  0.6829
  831MPD2     N12279   3.365   1.746  16.292 -0.3544  0.5308  0.3916
  831MPD2    H512280   3.270   1.718  16.315 -0.1935  0.4128  0.8950
  831MPD2    N112281   3.610   2.084  16.046  0.0550  0.3927 -0.7931
  831MPD2    H712282   3.584   2.156  15.978 -0.0224 -0.8090 -2.0422
  832MPD2     C12283   1.689   2.391  16.862  0.6280  0.0670 -0.6525
  832MPD2    C112284   1.669   2.486  16.954 -0.5852  0.0983 -0.3658
  832MPD2    C212285   1.541   2.533  16.984 -0.0078 -0.1874  0.7421
  832MPD2    C312286   1.430   2.475  16.929 -0.2294 -0.0305  0.6042
  832MPD2    C412287   1.448   2.377  16.840 -0.6476 -0.5124 -0.2003
  832MPD2    C512288   1.577   2.338  16.806  0.8834  0.4666  0.7676
  832MPD2     H12289   1.527   2.614  17.056 -0.1030  1.1805 -0.8145
  832MPD2    H112290   1.371   2.309  16.806 -0.2176 -0.0406 -2.0982
  832MPD2    H212291   1.787   2.350  16.843  1.8993  2.2131  1.2757
  832MPD2    H312292   1.583   2.264  16.726  0.6686  1.0732  0.1858
  832MPD2     N12293   1.300   2.510  16.962 -0.2397  0.7136  0.1091
  832MPD2    H512294   1.221   2.465  16.917  0.5510 -2.4528  1.8827
  832MPD2    N112295   1.784   2.518  17.036  0.3737 -0.1118 -0.3012
  832MPD2    H712296   1.865   2.458  17.041  1.5528  1.5307  0.4601
  833MPD2     C12297   3.513   4.023  13.178 -0.4181 -0.6208 -0.0446
  833MPD2    C112298   3.606   4.120  13.166 -0.1702  0.1574 -0.7610
  833MPD2    C212299   3.737   4.087  13.148  0.5194 -0.1122  0.1782
  833MPD2    C312300   3.780   3.953  13.142  0.2652  0.1751  0.4699
  833MPD2    C412301   3.682   3.856  13.163 -0.0824  0.1014 -0.0429
  833MPD2    C512302   3.552   3.892  13.188 -0.0461 -0.4485 -0.2166
  833MPD2     H12303   3.811   4.163  13.125  1.1729 -0.5894  0.6781
  833MPD2    H112304   3.691   3.748  13.163 -0.9619  0.0279  0.9833
  833MPD2    H212305   3.410   4.052  13.196 -0.2704 -1.3866  1.9985
  833MPD2    H312306   3.481   3.816  13.216  0.7930 -1.7863 -1.7419
  833MPD2     N12307   3.907   3.911  13.099 -0.4387 -0.1957 -0.4988
  833MPD2    H512308   3.922   3.812  13.086 -0.3696 -0.3546  0.7442
  833MPD2    N112309   3.546   4.253  13.171 -0.2166  0.2591 -0.1627
  833MPD2    H712310   3.446   4.262  13.185 -0.4521 -0.2037 -1.4606
  834MPD2     C12311   3.743   3.263  12.446  0.7247 -0.0638 -0.1988
  834MPD2    C112312   3.789   3.371  12.372  0.7569 -0.2238  0.1771
  834MPD2    C212313   3.816   3.489  12.438  0.1539 -0.1389  0.1433
  834MPD2    C312314   3.810   3.505  12.573 -0.3532  0.1693  0.4449
  834MPD2    C412315   3.764   3.399  12.648 -0.1641  0.6067  0.1630
  834MPD2    C512316   3.733   3.283  12.582  0.2988 -0.4558  0.6570
  834MPD2     H12317   3.845   3.579  12.383 -0.3666 -0.5397 -0.7945
  834MPD2    H112318   3.746   3.403  12.755  0.6906  1.7357  0.2674
  834MPD2    H212319   3.730   3.163  12.407  0.7209  0.0062 -0.3784
  834MPD2    H312320   3.703   3.202  12.646 -0.8452  0.4267  1.2326
  834MPD2     N12321   3.857   3.628  12.628  0.1145  0.0272 -0.2256
  834MPD2    H512322   3.885   3.704  12.567 -2.1607  0.5227 -0.6776
  834MPD2    N112323   3.808   3.350  12.237  0.5470  0.3215  0.7979
  834MPD2    H712324   3.787   3.254  12.211  1.0284  0.3145  0.4430
  835MPD2     C12325   4.260   1.921  10.808  0.7307  0.1918 -0.4205
  835MPD2    C112326   4.127   1.921  10.843 -0.3416 -0.3388  0.1149
  835MPD2    C212327   4.070   1.850  10.947  0.1621 -0.0334 -0.5650
  835MPD2    C312328   4.147   1.774  11.030  0.6259 -0.2268  0.4794
  835MPD2    C412329   4.278   1.775  10.997  0.1889 -0.0721 -0.6910
  835MPD2    C512330   4.335   1.838  10.889 -0.5509  0.3283  0.2691
  835MPD2     H12331   3.962   1.843  10.947  0.0549  1.6440 -2.1468
  835MPD2    H112332   4.345   1.716  11.059  0.9518  0.3856 -1.0807
  835MPD2    H212333   4.304   1.972  10.723  0.7829  1.9826  0.6776
  835MPD2    H312334   4.442   1.831  10.876 -0.4543 -0.0240  1.1969
  835MPD2     N12335   4.091   1.704  11.142 -0.4589 -0.4418 -0.5846
  835MPD2    H512336   4.155   1.639  11.187 -0.5845 -0.2178 -0.0896
  835MPD2    N112337   4.027   1.991  10.769 -0.4808 -0.3048  0.5085
  835MPD2    H712338   3.932   1.976  10.802 -0.8062  0.8268  0.0831
  836MPD2     C12339   3.390   1.784  11.463 -0.7333 -0.3116 -0.4536
  836MPD2    C112340   3.471   1.725  11.551 -0.0305 -0.8931 -0.5382
  836MPD2    C212341   3.446   1.722  11.687 -0.0475 -0.3839  0.6928
  836MPD2    C312342   3.323   1.773  11.736  0.4059  0.2571  0.1835
  836MPD2    C412343   3.238   1.829  11.642 -0.0327 -0.5235  0.8397
  836MPD2    C512344   3.271   1.837  11.509 -0.0447  0.5018  0.6727
  836MPD2     H12345   3.517   1.692  11.763  0.8575 -0.4594 -0.1870
  836MPD2    H112346   3.144   1.877  11.666  1.0851  3.1069 -2.0474
  836MPD2    H212347   3.402   1.786  11.355 -3.1689 -0.6014 -0.7292
  836MPD2    H312348   3.196   1.875  11.440  0.0443  0.6504  0.6604
  836MPD2     N12349   3.295   1.781  11.875 -0.0207  0.5628  0.6251
  836MPD2    H512350   3.202   1.815  11.894  0.8680  1.4238  3.3357
  836MPD2    N112351   3.593   1.683  11.493 -0.4527 -0.4335  0.2578
  836MPD2    H712352   3.611   1.714  11.398 -0.8459  1.5995  0.8359
  837MPD2     C12353   2.064   2.038  10.366 -0.4319 -0.0494 -0.5173
  837MPD2    C112354   1.935   2.079  10.371  0.3859  0.7731 -0.3190
  837MPD2    C212355   1.901   2.205  10.348  0.1297  0.1702  0.5058
  837MPD2    C312356   2.001   2.298  10.329  0.0552  0.1000  0.6355
  837MPD2    C412357   2.133   2.258  10.335 -1.2486 -0.4227 -0.5107
  837MPD2    C512358   2.163   2.125  10.341  0.6183  0.4639 -0.0490
  837MPD2     H12359   1.797   2.236  10.349  0.1240  0.1943 -2.5047
  837MPD2    H112360   2.216   2.322  10.308 -0.0332 -1.6148  0.4275
  837MPD2    H212361   2.085   1.933  10.384 -1.1302 -0.0050  0.5466
  837MPD2    H312362   2.267   2.097  10.339  0.2841 -0.9132  1.9307
  837MPD2     N12363   1.953   2.421  10.287 -0.2660  0.2997 -0.1429
  837MPD2    H512364   1.853   2.437  10.278 -0.4576  0.3498  2.0222
  837MPD2    N112365   1.830   1.991  10.388  0.1116  0.0355 -0.5004
  837MPD2    H712366   1.744   2.045  10.389 -0.8903 -1.6025  2.1638
  838MPD2     C12367   0.587   4.699  11.938 -0.2369 -0.4588  0.0116
  838MPD2    C112368   0.584   4.683  12.076  0.2274  0.3461  0.3265
  838MPD2    C212369   0.477   4.614  12.130 -0.1332  0.2034  0.1391
  838MPD2    C312370   0.379   4.559  12.057  0.6937 -0.2512 -0.2558
  838MPD2    C412371   0.390   4.569  11.925  0.2256 -0.9278  1.1816
  838MPD2    C512372   0.490   4.641  11.861  0.5122  0.1708 -0.3092
  838MPD2     H12373   0.462   4.603  12.237 -1.2446 -3.3176 -0.3701
  838MPD2    H112374   0.317   4.521  11.861  0.4566 -1.1087  1.0559
  838MPD2    H212375   0.673   0.003  11.892 -0.3869  0.3212  0.5556
  838MPD2    H312376   0.486   4.661  11.754  2.1872  0.7218 -0.2618
  838MPD2     N12377   0.282   4.484  12.130 -0.4052 -0.3160 -0.6739
  838MPD2    H512378   0.287   4.492  12.231 -2.1887  1.2314 -0.7143
  838MPD2    N112379   0.688   4.728  12.155  0.0137 -0.3836  0.0827
  838MPD2    H712380   0.767   0.020  12.102 -0.5185 -2.5742 -2.2171
  839MPD2     C12381   0.478   4.036  12.115  0.3420  0.4790 -0.0102
  839MPD2    C112382   0.519   4.130  12.017  0.4150 -0.4841  0.2200
  839MPD2    C212383   0.623   4.221  12.044  0.0212  0.1207  0.6515
  839MPD2    C312384   0.679   4.220  12.174  0.0758 -0.6294 -1.2467
  839MPD2    C412385   0.630   4.129  12.265 -0.0345 -0.1148  0.0238
  839MPD2    C512386   0.535   4.038  12.233 -0.6599 -0.0182 -0.3000
  839MPD2     H12387   0.650   4.292  11.966 -0.9735  2.0490  2.0650
  839MPD2    H112388   0.671   4.120  12.365  0.4643 -3.5955 -0.5068
  839MPD2    H212389   0.414   3.953  12.084 -0.2091  0.9063 -0.0165
  839MPD2    H312390   0.502   3.966  12.307 -0.1857  0.2735  0.1974
  839MPD2     N12391   0.774   4.313  12.222  0.8046 -0.5442 -0.0770
  839MPD2    H512392   0.792   4.306  12.321 -0.4254 -2.2595  0.0168
  839MPD2    N112393   0.443   4.144  11.898  0.0375 -0.7644 -0.1233
  839MPD2    H712394   0.468   4.215  11.830  1.9660  0.4451  1.8443
  840MPD2     C12395   0.858   2.736  10.189 -0.6281 -0.3703  0.0077
  840MPD2    C112396   0.851   2.667  10.308  0.2438  0.0205  0.1214
  840MPD2    C212397   0.910   2.720  10.420 -0.1049 -0.4631 -0.5995
  840MPD2    C312398   0.968   2.845  10.415  0.9373  0.1510 -0.1733
  840MPD2    C412399   0.972   2.919  10.300 -0.0212 -0.4339 -0.4074
  840MPD2    C512400   0.912   2.869  10.192  0.2801  0.3447  0.1585
  840MPD2     H12401   0.907   2.660  10.509 -2.5453  1.3687  0.5601
  840MPD2    H112402   0.995   3.025  10.304 -1.9332 -0.0546  0.7336
  840MPD2    H212403   0.829   2.693  10.094  0.8979  4.5844 -2.7158
  840MPD2    H312404   0.890   2.936  10.110 -0.9865 -1.2173 -0.7737
  840MPD2     N12405   1.025   2.904  10.534  0.0818 -0.3325  0.4343
  840MPD2    H512406   1.049   3.003  10.527  1.8758 -0.8816 -1.3741
  840MPD2    N112407   0.782   2.544  10.298  0.4372  0.0453 -0.0174
  840MPD2    H712408   0.730   2.528  10.212  0.6384 -0.1422 -0.1048
  841MPD2     C12409   0.283   1.989  14.501  0.5672  0.3655 -0.7563
  841MPD2    C112410   0.268   1.938  14.631 -0.5940 -0.5055  0.2846
  841MPD2    C212411   0.365   1.963  14.722  0.0104  0.5237  0.1709
  841MPD2    C312412   0.471   2.051  14.695 -0.3192 -0.1637 -0.0732
  841MPD2    C412413   0.482   2.099  14.562 -0.1693  0.0351 -0.2915
  841MPD2    C512414   0.389   2.069  14.466  0.2688 -0.6057  0.3738
  841MPD2     H12415   0.352   1.929  14.824  0.4481 -0.4867 -0.1134
  841MPD2    H112416   0.568   2.153  14.524  0.1333  1.2232  2.0779
  841MPD2    H212417   0.214   1.973  14.419 -1.2676  0.8569  0.6839
  841MPD2    H312418   0.396   2.101  14.363 -1.3857  0.8213  0.6996
  841MPD2     N12419   0.572   2.080  14.791  0.2709 -0.3077 -0.5051
  841MPD2    H512420   0.559   2.035  14.880  2.4068 -0.5493 -0.2980
  841MPD2    N112421   0.169   1.849  14.669  0.1366  0.1428 -1.2186
  841MPD2    H712422   0.185   1.800  14.756 -0.4757  0.6221 -0.8387
  842MPD2     C12423   0.565   2.834  16.989 -0.3211  0.3630 -0.6215
  842MPD2    C112424   0.479   2.784  16.894 -0.4068 -0.4619 -0.6856
  842MPD2    C212425   0.344   2.810  16.914 -0.1453 -0.5209 -0.4228
  842MPD2    C312426   0.291   2.890  17.022  0.4968 -0.4369  0.4320
  842MPD2    C412427   0.383   2.933  17.116 -0.1293  0.5006  0.1878
  842MPD2    C512428   0.518   2.903  17.102 -0.1323 -0.4355  0.1718
  842MPD2     H12429   0.276   2.793  16.831  0.4159 -0.4138 -0.9000
  842MPD2    H112430   0.364   3.000  17.199  2.6206  1.2299  0.2316
  842MPD2    H212431   0.671   2.832  16.965 -0.1422 -2.3619  0.4022
  842MPD2    H312432   0.588   2.944  17.174 -0.0862 -0.7938  0.3310
  842MPD2     N12433   0.151   2.926  17.045 -0.6639  0.3522  0.0494
  842MPD2    H512434   0.128   2.970  17.133 -0.2473 -1.7920  1.2183
  842MPD2    N112435   0.530   2.715  16.781 -0.4298 -0.5040  0.1945
  842MPD2    H712436   0.623   2.741  16.751 -0.4389  0.0135  0.6231
  843MPD2     C12437   2.638   4.007  17.570  0.1821  0.2152  0.0168
  843MPD2    C112438   2.699   3.910  17.637 -0.1151  0.3175  0.0410
  843MPD2    C212439   2.827   3.928  17.689  0.1218 -0.6100  0.2024
  843MPD2    C312440   2.894   4.050  17.668 -0.6578  0.7702 -0.3000
  843MPD2    C412441   2.832   4.147  17.589  0.5455  0.1841  0.5086
  843MPD2    C512442   2.707   4.125  17.539  0.0152  0.2509  0.6790
  843MPD2     H12443   2.881   3.854  17.748  1.8115 -0.4410 -1.1371
  843MPD2    H112444   2.881   4.240  17.561  1.5021 -0.7581 -0.9866
  843MPD2    H212445   2.530   4.008  17.562  0.2734  3.5659 -0.5630
  843MPD2    H312446   2.662   4.201  17.476 -0.2200 -1.4527 -1.1812
  843MPD2     N12447   3.021   4.084  17.710 -0.0274 -0.0372  0.7359
  843MPD2    H512448   3.051   4.177  17.682  1.1805 -1.1005 -1.4572
  843MPD2    N112449   2.618   3.796  17.669 -0.1925  0.1942  0.2563
  843MPD2    H712450   2.529   3.788  17.623 -0.0378 -2.5010  0.4593
  844MPD2     C12451   1.200   2.512  16.516 -0.2541 -0.0775 -1.1342
  844MPD2    C112452   1.326   2.458  16.506  0.4247  0.2316  0.6451
  844MPD2    C212453   1.433   2.529  16.548 -0.2786  1.2422  0.3034
  844MPD2    C312454   1.417   2.659  16.593  0.1608  0.7837  0.1753
  844MPD2    C412455   1.288   2.707  16.609 -0.3788  0.1086 -0.1744
  844MPD2    C512456   1.177   2.638  16.557  1.1900 -0.3953  0.4748
  844MPD2     H12457   1.535   2.492  16.544 -0.5401  0.3195  2.7414
  844MPD2    H112458   1.260   2.800  16.657  1.9221  1.7947 -2.0790
  844MPD2    H212459   1.117   2.449  16.487  0.6457 -0.4994 -2.7632
  844MPD2    H312460   1.081   2.688  16.562  0.2679 -1.9737 -1.2706
  844MPD2     N12461   1.530   2.738  16.643  0.9744  0.0070  0.1187
  844MPD2    H512462   1.620   2.690  16.643  1.1947  0.4161  0.7389
  844MPD2    N112463   1.348   2.335  16.449 -0.1614 -0.6374  0.6078
  844MPD2    H712464   1.446   2.315  16.429 -0.7692 -0.6427 -2.3185
  845MPD2     C12465   1.761   3.691  17.048 -0.1176  0.0889  0.0443
  845MPD2    C112466   1.770   3.586  17.134  0.0007  0.3285  0.5463
  845MPD2    C212467   1.803   3.463  17.083 -0.4529  0.0545 -0.0014
  845MPD2    C312468   1.805   3.438  16.950  0.3141 -0.2093 -0.3210
  845MPD2    C412469   1.783   3.550  16.863  0.1690 -0.1445  0.3313
  845MPD2    C512470   1.764   3.672  16.912 -0.2246  0.3834 -0.0666
  845MPD2     H12471   1.812   3.382  17.154  0.8598 -0.4219 -0.6991
  845MPD2    H112472   1.787   3.543  16.755  0.1065 -1.1398  0.3851
  845MPD2    H212473   1.729   3.791  17.075  1.6205  0.5381  0.4537
  845MPD2    H312474   1.762   3.754  16.842  0.2389 -2.0431 -2.9158
  845MPD2     N12475   1.815   3.305  16.897 -0.3232  0.0167  0.8341
  845MPD2    H512476   1.830   3.225  16.958 -0.4050  0.7780  1.8553
  845MPD2    N112477   1.721   3.598  17.265  0.7088  0.4542 -0.1459
  845MPD2    H712478   1.673   3.684  17.291  1.5686  0.7583  0.4674
  846MPD2     C12479   3.244   3.544  13.666 -0.3439 -0.4613  0.0565
  846MPD2    C112480   3.109   3.556  13.695  0.1593  0.0791 -0.6738
  846MPD2    C212481   3.060   3.526  13.821  0.4831  0.5363  1.0294
  846MPD2    C312482   3.148   3.478  13.919  0.5496  0.5270 -0.4048
  846MPD2    C412483   3.284   3.472  13.892  1.0499  0.3035 -0.0590
  846MPD2    C512484   3.328   3.504  13.766  0.6314  0.1829 -0.1241
  846MPD2     H12485   2.953   3.536  13.837 -0.1178 -3.8949 -0.3568
  846MPD2    H112486   3.365   3.473  13.964  0.6718 -0.2209  0.3618
  846MPD2    H212487   3.296   3.562  13.573 -2.8941  1.5455 -0.9639
  846MPD2    H312488   3.434   3.503  13.741  0.3905 -1.8939 -1.0649
  846MPD2     N12489   3.087   3.453  14.039  0.3437  0.0325 -0.5159
  846MPD2    H512490   2.986   3.443  14.034  0.3175  0.4567 -0.7726
  846MPD2    N112491   3.017   3.615  13.604 -0.5482 -0.2030 -0.5106
  846MPD2    H712492   2.927   3.652  13.634 -0.1242  0.5461 -0.1505
  847MPD2     C12493   3.085   4.590  14.529 -0.1048 -0.0855  1.0773
  847MPD2    C112494   3.170   4.687  14.584  0.7120 -0.6210  0.4508
  847MPD2    C212495   3.297   4.662  14.606 -0.0309 -0.2738 -0.0561
  847MPD2    C312496   3.351   4.541  14.570  0.3787 -0.6040 -0.6602
  847MPD2    C412497   3.271   4.449  14.506 -0.5410 -0.0415 -0.2398
  847MPD2    C512498   3.142   4.475  14.482 -0.1962  0.0749  0.2296
  847MPD2     H12499   3.369   4.735  14.639  2.4011 -2.7229  0.0734
  847MPD2    H112500   3.317   4.358  14.471  0.5232  0.3390  0.1528
  847MPD2    H212501   2.982   4.602  14.499 -0.0969  0.0943  1.1256
  847MPD2    H312502   3.071   4.410  14.431  1.9082 -1.2772 -1.0383
  847MPD2     N12503   3.490   4.522  14.600 -0.9340 -0.3711 -0.1066
  847MPD2    H512504   3.547   4.604  14.621  2.2660 -2.3189 -1.2630
  847MPD2    N112505   3.124   0.063  14.636 -0.6748 -0.8294 -0.3230
  847MPD2    H712506   3.197   0.133  14.649 -0.2393 -1.1881 -0.8762
  848MPD2     C12507   0.853   2.933  16.486 -0.5447  0.2766  0.2655
  848MPD2    C112508   0.948   2.965  16.583 -0.5549 -0.0575 -0.0483
  848MPD2    C212509   1.013   3.086  16.586  0.0712  0.8247 -0.5901
  848MPD2    C312510   0.982   3.174  16.480 -0.6106 -0.5578 -0.3256
  848MPD2    C412511   0.896   3.142  16.375  0.0491 -0.3008  0.0481
  848MPD2    C512512   0.830   3.020  16.385  0.6990 -0.1743 -0.3975
  848MPD2     H12513   1.071   3.124  16.670 -1.1343  0.4046  0.4323
  848MPD2    H112514   0.860   3.208  16.297  1.2821 -0.6410 -0.8118
  848MPD2    H212515   0.795   2.842  16.489 -0.0088 -0.1711 -2.8945
  848MPD2    H312516   0.757   2.995  16.309 -0.3321  0.1353  0.5089
  848MPD2     N12517   1.032   3.307  16.474  0.2779 -0.1566 -0.3462
  848MPD2    H512518   1.002   3.368  16.398  0.1450  0.9764  0.6065
  848MPD2    N112519   0.969   2.879  16.696  0.0604  0.5817  0.1525
  848MPD2    H712520   1.039   2.912  16.762  1.6443  0.6989 -1.5597
  849MPD2     C12521   0.485   3.099  14.446  0.0770  0.2768  0.1004
  849MPD2    C112522   0.387   3.019  14.499  0.0537  0.8293  0.8722
  849MPD2    C212523   0.397   2.978  14.633  0.2475 -0.1505 -0.3133
  849MPD2    C312524   0.496   3.022  14.721  0.8604  0.5259 -0.8100
  849MPD2    C412525   0.595   3.105  14.665 -0.5347  0.0936  0.3594
  849MPD2    C512526   0.584   3.138  14.527  0.2209  0.9846  0.2115
  849MPD2     H12527   0.322   2.906  14.663  1.3960 -1.3496 -0.3198
  849MPD2    H112528   0.679   3.136  14.727 -1.7801  2.0660  1.0571
  849MPD2    H212529   0.478   3.152  14.351 -1.8451 -0.6538 -0.2720
  849MPD2    H312530   0.660   3.209  14.497 -0.4119  1.1827 -0.9118
  849MPD2     N12531   0.516   2.966  14.856 -0.0743 -0.0842 -0.7646
  849MPD2    H512532   0.601   3.001  14.901  0.6177 -1.6240 -0.8940
  849MPD2    N112533   0.274   2.966  14.426 -0.5174 -0.0022  0.3251
  849MPD2    H712534   0.223   2.897  14.479  0.3219  0.0903  1.2607
  850MPD2     C12535   3.061   0.832  14.962  0.1855 -0.2364  0.3464
  850MPD2    C112536   3.100   0.899  15.080  0.2610 -0.3419  0.0695
  850MPD2    C212537   3.193   0.994  15.072 -0.2872  0.0565 -0.1279
  850MPD2    C312538   3.253   1.018  14.948  0.2952 -0.1839 -0.8202
  850MPD2    C412539   3.206   0.968  14.829 -0.0034  0.0822  0.0468
  850MPD2    C512540   3.101   0.878  14.837 -1.0502  0.2559  0.1360
  850MPD2     H12541   3.216   1.039  15.169 -0.2193  2.2044 -1.1354
  850MPD2    H112542   3.254   0.994  14.735  1.3784  2.3003  1.4000
  850MPD2    H212543   2.975   0.767  14.954  0.0209  0.4069 -3.0364
  850MPD2    H312544   3.056   0.849  14.743 -0.3669  0.8510 -0.3675
  850MPD2     N12545   3.364   1.100  14.948  0.4939  0.4971  0.2301
  850MPD2    H512546   3.403   1.113  14.855 -0.4219  0.7430 -0.1160
  850MPD2    N112547   3.047   0.838  15.198 -0.5756 -0.2067 -0.3439
  850MPD2    H712548   3.008   0.745  15.183  1.7192 -1.0670 -1.0521
  851MPD2     C12549   3.544   0.605  15.781  0.0323  0.5031  0.1148
  851MPD2    C112550   3.474   0.549  15.679 -1.1455 -0.1621  0.3730
  851MPD2    C212551   3.534   0.452  15.593 -0.0616  0.0229  0.5688
  851MPD2    C312552   3.662   0.403  15.626  0.5007  0.1359  0.4479
  851MPD2    C412553   3.726   0.460  15.733 -0.3112  0.1245 -0.0416
  851MPD2    C512554   3.667   0.556  15.809 -0.6126  0.0098 -0.1247
  851MPD2     H12555   3.488   0.417  15.501 -0.5053  0.1887  0.7313
  851MPD2    H112556   3.824   0.432  15.769 -1.2371 -1.3423  1.3269
  851MPD2    H212557   3.507   0.686  15.842 -0.5599 -0.4781  1.0779
  851MPD2    H312558   3.739   0.576  15.887  2.4479  2.1691 -3.4990
  851MPD2     N12559   3.723   0.309  15.539  0.0521  0.6304 -0.1242
  851MPD2    H512560   3.671   0.293  15.453 -1.7093 -0.6400  1.1880
  851MPD2    N112561   3.347   0.597  15.653  0.3310 -0.5354 -0.2234
  851MPD2    H712562   3.315   0.664  15.722  2.9061  1.2937 -0.7845
  852MPD2     C12563   3.474   3.455  10.574 -0.0882  0.1603 -0.3778
  852MPD2    C112564   3.457   3.515  10.701  0.2009 -0.0605  0.4098
  852MPD2    C212565   3.503   3.643  10.720  0.8607 -0.5675  0.6168
  852MPD2    C312566   3.565   3.714  10.618  0.5502  0.1596 -0.5441
  852MPD2    C412567   3.580   3.653  10.495  0.0618  0.1946 -0.2048
  852MPD2    C512568   3.528   3.528  10.476  0.1596  0.0427 -0.1167
  852MPD2     H12569   3.484   3.700  10.810  1.6165 -0.0288  0.4385
  852MPD2    H112570   3.629   3.705  10.413  0.8505  0.3380  0.3596
  852MPD2    H212571   3.434   3.357  10.551 -3.0407  1.7361 -1.8320
  852MPD2    H312572   3.544   3.473  10.384 -0.8447  1.0193 -0.8655
  852MPD2     N12573   3.600   3.851  10.649  0.3244 -0.8217  0.4303
  852MPD2    H512574   3.575   3.879  10.743  0.4251  0.8832 -0.0527
  852MPD2    N112575   3.391   3.457  10.811 -0.3412 -0.1077 -0.2686
  852MPD2    H712576   3.355   3.515  10.887  1.0416  1.9886 -1.2102
  853MPD2     C12577   0.310   2.788  12.688  0.1508  0.3664  0.6679
  853MPD2    C112578   0.176   2.804  12.685 -0.8000  0.7938 -0.1360
  853MPD2    C212579   0.115   2.831  12.562  0.3949  0.1749  0.0868
  853MPD2    C312580   0.185   2.817  12.448 -0.8737  0.1209  0.7203
  853MPD2    C412581   0.316   2.786  12.453 -0.3709 -0.4307 -0.3430
  853MPD2    C512582   0.379   2.759  12.576  0.4122 -0.3043 -0.4545
  853MPD2     H12583   0.010   2.858  12.561 -0.2830 -2.3261  1.6339
  853MPD2    H112584   0.374   2.793  12.361 -1.1192  1.6301 -0.6478
  853MPD2    H212585   0.358   2.763  12.782  0.3650  0.5009  0.5944
  853MPD2    H312586   0.485   2.744  12.587  0.7154  0.2703 -2.6031
  853MPD2     N12587   0.130   2.842  12.322 -0.3845  0.4490  0.0840
  853MPD2    H512588   0.196   2.816  12.249 -1.0913 -1.8597  0.2601
  853MPD2    N112589   0.118   2.821  12.807 -0.5154  0.2864  0.0812
  853MPD2    H712590   0.174   2.815  12.892 -3.6039 -3.0910  1.8795
  854MPD2     C12591   2.483   3.500  12.588  0.4235  0.5194  0.1551
  854MPD2    C112592   2.357   3.450  12.610  0.4485 -0.2537 -0.5479
  854MPD2    C212593   2.346   3.322  12.650  0.3579  0.0095  0.9053
  854MPD2    C312594   2.459   3.243  12.676  0.2595  0.2032  0.2424
  854MPD2    C412595   2.587   3.291  12.648  0.0430  0.4067  0.0950
  854MPD2    C512596   2.598   3.424  12.610  0.2243 -0.1635  0.0125
  854MPD2     H12597   2.247   3.282  12.668 -0.6831  0.8127 -2.8867
  854MPD2    H112598   2.678   3.233  12.659 -1.6265 -2.1501  0.1321
  854MPD2    H212599   2.498   3.603  12.558  0.2232  0.5701  0.2275
  854MPD2    H312600   2.692   3.473  12.586  0.0095  0.7827  1.1019
  854MPD2     N12601   2.460   3.109  12.725 -0.0261  0.2245  0.1809
  854MPD2    H512602   2.546   3.067  12.758  2.3473  1.8726 -4.0308
  854MPD2    N112603   2.249   3.541  12.600 -0.0218 -0.3843 -0.4458
  854MPD2    H712604   2.270   3.630  12.556  1.7462 -1.0431 -0.9229
  855MPD2     C12605   2.614   3.019  13.481  0.0146  0.3262 -0.0755
  855MPD2    C112606   2.544   2.904  13.466 -0.4263  0.8449 -0.1942
  855MPD2    C212607   2.516   2.854  13.343  0.5746 -0.0913 -0.2575
  855MPD2    C312608   2.573   2.909  13.232  0.5516  0.3321 -0.5706
  855MPD2    C412609   2.646   3.023  13.249 -0.6540 -0.2718 -0.5793
  855MPD2    C512610   2.669   3.073  13.371 -0.4816 -0.1496  0.1359
  855MPD2     H12611   2.458   2.763  13.340  0.2069  0.0368  2.9307
  855MPD2    H112612   2.683   3.075  13.161 -0.9488 -2.7591 -2.1511
  855MPD2    H212613   2.627   3.061  13.580  1.9596 -0.4821 -0.0015
  855MPD2    H312614   2.716   3.171  13.377 -0.1795 -0.2519 -0.6243
  855MPD2     N12615   2.542   2.859  13.099 -0.0684  0.0010  0.4524
  855MPD2    H512616   2.580   2.909  13.019 -0.5583  1.1675  0.9450
  855MPD2    N112617   2.480   2.842  13.576  0.1200  0.2230  0.1378
  855MPD2    H712618   2.404   2.777  13.562  0.1888  0.8072 -2.9209
  856MPD2     C12619   3.895   4.062  13.922 -0.0884  0.1220 -0.0732
  856MPD2    C112620   3.914   4.161  14.015  0.4732  0.3050  0.8637
  856MPD2    C212621   3.803   4.240  14.046  0.1880  0.2323  0.2564
  856MPD2    C312622   3.673   4.221  13.987 -0.7620  0.1220  0.2730
  856MPD2    C412623   3.661   4.127  13.886 -0.6089 -0.0826  0.0379
  856MPD2    C512624   3.769   4.051  13.849  0.2874 -0.1583  0.4042
  856MPD2     H12625   3.825   4.321  14.114  2.3612  0.5770 -0.8451
  856MPD2    H112626   3.565   4.126  13.836 -0.1461 -1.9851 -0.8084
  856MPD2    H212627   3.985   4.009  13.893  1.2503  2.3133  0.0765
  856MPD2    H312628   3.769   3.982  13.765 -1.1751  1.3438 -0.8395
  856MPD2     N12629   3.559   4.299  14.022  0.5327 -0.3869 -0.4974
  856MPD2    H512630   3.480   4.308  13.958 -0.2961 -1.6009  0.3475
  856MPD2    N112631   4.043   4.187  14.066  0.4892 -0.2561  0.4407
  856MPD2    H712632   4.051   4.271  14.122  0.8117  1.0993 -1.6330
  857MPD2     C12633   0.671   1.524  12.682 -0.1984 -0.1523  0.0689
  857MPD2    C112634   0.805   1.516  12.689 -0.0218 -0.0900 -0.1913
  857MPD2    C212635   0.881   1.620  12.748  0.0044 -0.2076 -0.0381
  857MPD2    C312636   0.813   1.731  12.809  0.1400  0.3416  0.1622
  857MPD2    C412637   0.672   1.740  12.798  0.6713  0.1482  0.0992
  857MPD2    C512638   0.607   1.642  12.725  0.0463  0.1157  0.3634
  857MPD2     H12639   0.990   1.613  12.751 -0.0335 -0.4229  0.8577
  857MPD2    H112640   0.615   1.823  12.836  0.3565 -1.7627  3.7873
  857MPD2    H212641   0.608   1.456  12.626 -2.4536  2.1781 -0.2518
  857MPD2    H312642   0.498   1.645  12.725  0.0471  0.1153  1.1433
  857MPD2     N12643   0.895   1.836  12.858 -0.6920 -0.5657  0.1101
  857MPD2    H512644   0.995   1.820  12.866 -0.4522  0.4925 -0.7796
  857MPD2    N112645   0.859   1.401  12.634 -0.1377  0.0215  0.0599
  857MPD2    H712646   0.789   1.332  12.610  0.5500 -0.7187  0.1692
  858MPD2     C12647   1.426   0.289  16.698 -0.3676 -0.0268 -0.5638
  858MPD2    C112648   1.542   0.357  16.682 -0.0102 -0.8570  0.3349
  858MPD2    C212649   1.564   0.459  16.774  0.3818 -0.4413 -0.1175
  858MPD2    C312650   1.465   0.502  16.862  0.1999  0.5140  0.0290
  858MPD2    C412651   1.340   0.439  16.859  0.4412  0.2810 -0.2337
  858MPD2    C512652   1.328   0.329  16.782  0.8587  0.3638 -0.9148
  858MPD2     H12653   1.663   0.504  16.772 -0.3521  1.1895  0.7599
  858MPD2    H112654   1.265   0.468  16.931 -1.5006  0.2649 -2.2448
  858MPD2    H212655   1.402   0.202  16.639 -0.3459 -0.9614  0.7967
  858MPD2    H312656   1.239   0.268  16.793  1.6683 -0.5790  0.3251
  858MPD2     N12657   1.486   0.588  16.970  0.3892 -0.2865  0.2927
  858MPD2    H512658   1.406   0.597  17.033  0.2272 -1.7814  0.2988
  858MPD2    N112659   1.650   0.326  16.599  0.1407  0.3404 -0.0497
  858MPD2    H712660   1.639   0.237  16.553 -0.0267  0.5710 -0.4538
  859MPD2     C12661   0.341   3.136  15.742 -0.9604 -0.3268  0.3766
  859MPD2    C112662   0.403   3.023  15.688 -0.6687 -0.0072 -0.4345
  859MPD2    C212663   0.370   2.893  15.725  0.1669  0.2025  0.3280
  859MPD2    C312664   0.273   2.876  15.820  0.8316  0.5748 -0.6785
  859MPD2    C412665   0.227   2.985  15.894  1.2129  0.9554 -0.1207
  859MPD2    C512666   0.249   3.110  15.841 -0.1305  0.2380  0.4099
  859MPD2     H12667   0.420   2.808  15.678 -0.3082  0.5233 -0.7601
  859MPD2    H112668   0.152   2.977  15.972  1.2852 -1.4293 -0.2939
  859MPD2    H212669   0.375   3.236  15.721 -0.2748 -0.7552 -0.5490
  859MPD2    H312670   0.213   3.193  15.901  1.0785  1.8473 -1.0624
  859MPD2     N12671   0.234   2.749  15.853 -0.3202 -0.1476  0.5427
  859MPD2    H512672   0.171   2.741  15.932 -0.1582  0.0796  0.6955
  859MPD2    N112673   0.515   3.055  15.600  0.2388 -0.0418  0.6931
  859MPD2    H712674   0.523   3.154  15.577  1.6217  0.0555  1.5595
  860MPD2     C12675   3.212   2.590  11.493 -0.3955 -0.1420 -0.1515
  860MPD2    C112676   3.175   2.557  11.619 -0.0523 -0.7269  0.7523
  860MPD2    C212677   3.045   2.562  11.661 -0.5444 -0.1721  0.3216
  860MPD2    C312678   2.947   2.585  11.567  0.4561 -0.0320 -0.3482
  860MPD2    C412679   2.981   2.609  11.442  0.1362 -0.4616 -0.5567
  860MPD2    C512680   3.115   2.603  11.406 -0.8848 -0.0906 -0.9739
  860MPD2     H12681   3.021   2.537  11.764  0.6924 -1.0775  0.3905
  860MPD2    H112682   2.903   2.629  11.369  0.0500  1.0296 -0.0415
  860MPD2    H212683   3.316   2.589  11.463  0.1469  3.2414  1.6482
  860MPD2    H312684   3.143   2.631  11.306 -0.4158 -0.2807 -0.8924
  860MPD2     N12685   2.818   2.606  11.617  0.3280 -0.3292  0.4956
  860MPD2    H512686   2.796   2.561  11.705 -3.1313 -2.5309 -1.4992
  860MPD2    N112687   3.267   2.537  11.722  0.4642  0.2972 -0.1355
  860MPD2    H712688   3.221   2.520  11.811  0.6547 -1.6190 -0.4066
  861MPD2     C12689   2.022   1.330  11.137  0.5659  0.1005 -0.0269
  861MPD2    C112690   1.994   1.449  11.203  0.4454  0.5399  0.0818
  861MPD2    C212691   1.895   1.524  11.146  0.2819  0.2073 -0.0975
  861MPD2    C312692   1.836   1.485  11.027  0.1966 -0.0218  0.6025
  861MPD2    C412693   1.841   1.353  10.985  0.6269  0.5084 -0.4911
  861MPD2    C512694   1.937   1.278  11.038 -0.3599 -0.8063  0.1078
  861MPD2     H12695   1.865   1.615  11.196  1.3611 -0.4421  1.7438
  861MPD2    H112696   1.790   1.323  10.894  0.7222 -1.1330 -0.0173
  861MPD2    H212697   2.104   1.265  11.167  1.0417  0.2251 -1.0230
  861MPD2    H312698   1.952   1.179  10.998  0.7698 -0.7482  0.3654
  861MPD2     N12699   1.736   1.555  10.963  0.0147  0.1316  0.0054
  861MPD2    H512700   1.670   1.497  10.912 -0.5930  0.9422 -0.1460
  861MPD2    N112701   2.068   1.492  11.315 -0.3552 -0.0191  0.0682
  861MPD2    H712702   2.047   1.584  11.352  2.9031  1.0615 -0.8066
  862MPD2     C12703   1.092   1.267  10.980  0.1289  0.6378 -1.1203
  862MPD2    C112704   1.209   1.269  11.045 -0.0413 -0.0343  0.1840
  862MPD2    C212705   1.245   1.162  11.119 -0.4973 -0.2988 -0.2208
  862MPD2    C312706   1.164   1.046  11.131  0.4694 -0.3429  0.0198
  862MPD2    C412707   1.043   1.050  11.065  0.0740  0.2898  0.0520
  862MPD2    C512708   1.009   1.155  10.992 -0.2856  0.3693 -0.3084
  862MPD2     H12709   1.336   1.167  11.179  0.1447  0.4314 -1.2733
  862MPD2    H112710   0.983   0.960  11.077  2.7521 -1.8094 -2.1692
  862MPD2    H212711   1.050   1.341  10.912  2.5495  3.1183  0.1427
  862MPD2    H312712   0.922   1.145  10.927  0.6615 -3.8294 -0.9170
  862MPD2     N12713   1.188   0.937  11.221  0.3750  0.0643 -0.6196
  862MPD2    H512714   1.118   0.864  11.218  0.5615 -0.1710  0.7885
  862MPD2    N112715   1.295   1.381  11.046  0.4526  0.3467 -0.5851
  862MPD2    H712716   1.381   1.374  11.100 -1.0455 -1.0997  1.6596
  863MPD2     C12717   4.573   4.172  16.889  0.5189 -1.0970  0.2550
  863MPD2    C112718   4.697   4.223  16.837  0.1626  0.0168 -0.1709
  863MPD2    C212719   0.064   4.174  16.895  0.5592 -0.2389  0.0940
  863MPD2    C312720   0.066   4.068  16.990 -0.8561 -0.4886 -0.6287
  863MPD2    C412721   4.688   4.016  17.031 -0.3906 -0.4199 -0.3836
  863MPD2    C512722   4.574   4.074  16.985  0.2099 -0.6114 -0.0915
  863MPD2     H12723   0.156   4.222  16.863  0.2217  0.0204 -0.4888
  863MPD2    H112724   4.685   3.937  17.104  1.8054 -0.4894 -0.3614
  863MPD2    H212725   4.477   4.215  16.866  1.2200 -1.0670 -2.6417
  863MPD2    H312726   4.477   4.037  17.017  1.0446 -1.8940  0.9794
  863MPD2     N12727   0.185   4.017  17.056 -0.1891 -0.0897  0.2106
  863MPD2    H512728   0.159   3.958  17.134  0.0674 -1.8477 -1.0453
  863MPD2    N112729   4.692   4.330  16.744 -0.1104 -0.3369 -0.0252
  863MPD2    H712730   4.602   4.370  16.721  0.1353 -0.6820 -1.5810
  864MPD2     C12731   0.492   0.929  17.632 -0.1678 -0.1478  0.1333
  864MPD2    C112732   0.557   0.842  17.545 -0.2325 -0.1365 -0.2101
  864MPD2    C212733   0.561   0.876  17.411 -0.1836  0.1518 -0.0360
  864MPD2    C312734   0.479   0.972  17.359  0.2507 -0.2874 -0.3160
  864MPD2    C412735   0.419   1.052  17.447  0.2475 -0.5123  0.2537
  864MPD2    C512736   0.423   1.036  17.585  0.2597 -0.2137 -0.1730
  864MPD2     H12737   0.625   0.816  17.346  0.3265 -0.4897  1.0646
  864MPD2    H112738   0.358   1.137  17.417  0.2385 -0.6477 -0.1045
  864MPD2    H212739   0.493   0.912  17.739  1.6829  0.4513  0.2290
  864MPD2    H312740   0.350   1.084  17.649 -0.1198 -2.3584  1.0189
  864MPD2     N12741   0.481   1.005  17.227  0.2400  0.2795 -0.7747
  864MPD2    H512742   0.420   1.082  17.202 -0.1474  0.7152  1.5153
  864MPD2    N112743   0.614   0.714  17.585  0.2769  0.4513  0.3594
  864MPD2    H712744   0.658   0.660  17.511 -1.3613  1.5147 -1.3754
  865MPD2     C12745   0.312   0.973  16.389 -0.0924  0.7553  0.4649
  865MPD2    C112746   0.370   0.938  16.510 -0.5024 -1.2607 -0.0706
  865MPD2    C212747   0.353   1.024  16.620 -0.3923 -0.1825  0.5448
  865MPD2    C312748   0.292   1.151  16.606  0.0874  0.1957  0.2604
  865MPD2    C412749   0.248   1.185  16.483  0.7601 -0.0054 -0.4082
  865MPD2    C512750   0.254   1.097  16.378 -0.1560  0.5763  0.1423
  865MPD2     H12751   0.399   0.996  16.714  4.1408  2.0413 -0.9966
  865MPD2    H112752   0.195   1.277  16.463 -1.7025 -1.3371 -0.1335
  865MPD2    H212753   0.303   0.909  16.302  0.3703  1.5257 -0.1505
  865MPD2    H312754   0.203   1.134  16.289 -1.8826 -0.5621  0.6531
  865MPD2     N12755   0.258   1.246  16.703 -0.2737  0.7413  0.4269
  865MPD2    H512756   0.190   1.316  16.675 -1.0595 -0.0760  0.3175
  865MPD2    N112757   0.460   0.828  16.511 -0.0138 -0.1197  1.0514
  865MPD2    H712758   0.471   0.773  16.426  0.5378 -0.5816  1.4170
  866MPD2     C12759   2.661   2.053  11.037  0.4268  0.1899  0.1830
  866MPD2    C112760   2.567   2.041  10.942 -0.1098 -0.0156 -0.1564
  866MPD2    C212761   2.438   2.056  10.980 -0.4937 -0.7281 -0.1267
  866MPD2    C312762   2.401   2.088  11.106 -0.3230 -0.2690  0.2553
  866MPD2    C412763   2.495   2.070  11.201 -0.0669 -0.1337  0.0272
  866MPD2    C512764   2.625   2.058  11.164 -0.2860 -0.0106 -0.1812
  866MPD2     H12765   2.361   2.041  10.904 -1.7657  3.5640  0.3128
  866MPD2    H112766   2.469   2.073  11.306 -1.9008  0.1373 -0.4397
  866MPD2    H212767   2.763   2.024  11.015 -0.2935 -2.2066  0.1053
  866MPD2    H312768   2.704   2.049  11.237 -0.0501  1.2266 -0.2876
  866MPD2     N12769   2.267   2.110  11.146  0.0656 -0.1136  0.1970
  866MPD2    H512770   2.239   2.130  11.242  2.2351  1.2930  0.5275
  866MPD2    N112771   2.610   2.012  10.811 -0.4193 -0.5788  0.5217
  866MPD2    H712772   2.711   2.022  10.802 -0.0615 -2.0408  2.8561
  867MPD2     C12773   4.329   0.518  16.126  0.3281  1.0505 -1.0455
  867MPD2    C112774   4.423   0.571  16.209 -0.3609  0.2499  0.6062
  867MPD2    C212775   4.392   0.681  16.287  0.5150 -0.0706  0.3058
  867MPD2    C312776   4.266   0.735  16.286 -0.8919  0.7621 -0.6820
  867MPD2    C412777   4.172   0.679  16.202 -0.9451  0.1180  0.3272
  867MPD2    C512778   4.204   0.573  16.120 -0.0021 -0.5322 -0.0538
  867MPD2     H12779   4.474   0.730  16.339  0.3684 -0.8900  1.2902
  867MPD2    H112780   4.072   0.719  16.203  0.0520  2.5777  1.0747
  867MPD2    H212781   4.351   0.429  16.069 -3.9398 -0.2935 -0.5992
  867MPD2    H312782   4.142   0.522  16.047  2.4566 -0.3300 -2.2806
  867MPD2     N12783   4.235   0.847  16.361 -0.7362  0.6975  0.3970
  867MPD2    H512784   4.145   0.891  16.340 -1.0534 -0.2847 -0.3313
  867MPD2    N112785   4.543   0.495  16.221 -0.0088 -0.0984  0.6837
  867MPD2    H712786   4.558   0.430  16.145  1.1062 -0.2056  1.0030
  868MPD2     C12787   1.697   4.260  13.319 -0.3096  0.2258  0.4104
  868MPD2    C112788   1.737   4.175  13.426 -0.4254 -0.1553  0.5439
  868MPD2    C212789   1.663   4.168  13.540 -0.4615 -0.8060  0.9160
  868MPD2    C312790   1.547   4.243  13.551  0.6259  0.1457 -0.3027
  868MPD2    C412791   1.512   4.334  13.451  0.1458 -0.9798  0.0124
  868MPD2    C512792   1.584   4.342  13.337  0.0527  0.8424 -0.5526
  868MPD2     H12793   1.688   4.109  13.628  0.7971 -1.2280  0.2696
  868MPD2    H112794   1.425   4.398  13.461  0.1716 -0.9382 -0.0311
  868MPD2    H212795   1.763   4.277  13.235 -0.7707 -0.0852 -0.0119
  868MPD2    H312796   1.560   4.417  13.263  0.1628  0.0486 -1.3913
  868MPD2     N12797   1.462   4.217  13.660 -0.7490  0.1840  0.0240
  868MPD2    H512798   1.489   4.156  13.736 -0.2267  0.5583  0.1361
  868MPD2    N112799   1.858   4.099  13.407  0.3524  0.3491  0.2381
  868MPD2    H712800   1.901   4.098  13.315 -1.4053 -3.7304 -0.5416
  869MPD2     C12801   2.060   2.076   0.141  0.4799 -0.8408  0.7189
  869MPD2    C112802   1.978   2.139   0.231 -0.9297  0.1102 -0.4533
  869MPD2    C212803   2.032   2.242   0.307  0.1406  0.3466 -0.7654
  869MPD2    C312804   2.164   2.291   0.281  0.2083  0.0231  0.7897
  869MPD2    C412805   2.240   2.228   0.187  0.1082  0.0397 -0.0359
  869MPD2    C512806   2.189   2.115   0.123  0.0695  0.0566  0.2257
  869MPD2     H12807   1.974   2.305   0.373  0.4305 -0.6932  0.4787
  869MPD2    H112808   2.345   2.245   0.167  0.5259 -2.3584  0.1751
  869MPD2    H212809   2.024   1.991   0.085 -0.3282 -0.1018  0.1207
  869MPD2    H312810   2.253   2.062   0.054 -0.2186 -1.7976  1.3799
  869MPD2     N12811   2.219   2.403   0.357 -0.2541  0.2607  0.3174
  869MPD2    H512812   2.320   2.414   0.348 -0.2839 -1.7949 -2.3763
  869MPD2    N112813   1.846   2.091   0.240 -0.0389 -0.0218 -0.2605
  869MPD2    H712814   1.821   2.008   0.187  1.4797 -0.0787 -0.8702
  870MPD2     C12815   2.479   1.946   1.253 -0.1811 -0.9943  0.9123
  870MPD2    C112816   2.458   1.838   1.166 -0.2918  0.2902  0.9459
  870MPD2    C212817   2.344   1.844   1.087 -0.1790  0.0797  0.4083
  870MPD2    C312818   2.246   1.937   1.113  0.4914  0.2037 -0.5422
  870MPD2    C412819   2.248   2.032   1.213 -0.4716 -0.7435  0.1792
  870MPD2    C512820   2.375   2.039   1.274 -0.1181  0.3544 -0.5834
  870MPD2     H12821   2.321   1.770   1.012  0.7461  2.5040 -2.2629
  870MPD2    H112822   2.163   2.096   1.235  1.7529  1.5010  2.2879
  870MPD2    H212823   2.560   1.965   1.323  0.5285 -0.0170 -0.1685
  870MPD2    H312824   2.390   2.115   1.350  2.1369  1.0917 -1.7881
  870MPD2     N12825   2.127   1.931   1.029  0.5345 -0.2134  0.0021
  870MPD2    H512826   2.118   1.853   0.965 -4.5043 -1.5295  2.2562
  870MPD2    N112827   2.559   1.745   1.147  0.0834 -0.3074  0.3666
  870MPD2    H712828   2.641   1.751   1.206 -0.5071 -3.2580  1.4722
  871MPD2     C12829   3.700   1.411  16.522 -0.4978 -0.1111 -0.6544
  871MPD2    C112830   3.586   1.346  16.557 -0.2077  0.3243 -0.5183
  871MPD2    C212831   3.574   1.208  16.531  0.7884 -0.4088  1.0313
  871MPD2    C312832   3.678   1.130  16.480 -0.7274 -0.8118  0.4172
  871MPD2    C412833   3.790   1.198  16.442 -0.0531  0.5227  0.1380
  871MPD2    C512834   3.800   1.335  16.469  0.0943 -0.5939  0.3728
  871MPD2     H12835   3.481   1.156  16.550 -0.0170 -0.0616 -1.9780
  871MPD2    H112836   3.878   1.149  16.400  0.8149  2.5006 -0.3395
  871MPD2    H212837   3.718   1.512  16.556 -0.3335 -0.0381 -0.9613
  871MPD2    H312838   3.896   1.383  16.452 -0.7813  0.8730 -0.5073
  871MPD2     N12839   3.664   0.988  16.465  0.1113  0.0395 -0.1019
  871MPD2    H512840   3.582   0.940  16.501  1.0344 -1.7217 -0.3860
  871MPD2    N112841   3.486   1.427  16.613 -0.3520 -0.3384  0.5064
  871MPD2    H712842   3.520   1.521  16.627  1.9696 -1.2425  0.9565
  872MPD2     C12843   4.238   3.291  13.744  0.8462 -1.0520  0.3486
  872MPD2    C112844   4.243   3.388  13.845  0.7165  0.0774  0.3800
  872MPD2    C212845   4.138   3.396  13.932  0.4446  0.5090  0.1016
  872MPD2    C312846   4.027   3.311  13.926 -0.2830 -0.7855 -0.0983
  872MPD2    C412847   4.014   3.229  13.815  0.2954 -0.0289 -0.8260
  872MPD2    C512848   4.121   3.215  13.730 -0.3033 -0.2761 -0.0891
  872MPD2     H12849   4.151   3.472  14.008  0.7472  0.3463  0.2142
  872MPD2    H112850   3.921   3.174  13.804  0.7873 -1.1174  0.4259
  872MPD2    H212851   4.320   3.282  13.674  0.3390 -2.2003 -0.1010
  872MPD2    H312852   4.102   3.142  13.652 -2.0962 -0.6245  0.6794
  872MPD2     N12853   3.928   3.296  14.025  0.6360  1.0435  0.0847
  872MPD2    H512854   3.858   3.225  14.010  0.3035  1.1958  0.9337
  872MPD2    N112855   4.360   3.462  13.869 -0.4524  0.2814  0.3529
  872MPD2    H712856   4.351   3.537  13.937 -0.5278  0.2355  0.3939
  873MPD2     C12857   1.365   3.315   0.608 -0.2983 -0.5887  0.2570
  873MPD2    C112858   1.245   3.275   0.650 -1.1603 -0.1497 -0.0534
  873MPD2    C212859   1.193   3.148   0.609 -0.3063  0.7321  0.2671
  873MPD2    C312860   1.278   3.053   0.544  0.4148  0.3545 -0.3799
  873MPD2    C412861   1.411   3.098   0.521  0.6065 -0.3541 -0.1281
  873MPD2    C512862   1.449   3.225   0.555 -0.1170  0.2860  0.1006
  873MPD2     H12863   1.094   3.116   0.637  0.3052 -1.2964  0.1624
  873MPD2    H112864   1.479   3.042   0.459 -1.3120 -1.3604 -1.3036
  873MPD2    H212865   1.404   3.413   0.630  2.0032 -1.7109  1.1650
  873MPD2    H312866   1.542   3.269   0.521  0.9589 -2.6862 -0.8222
  873MPD2     N12867   1.249   2.922   0.494  0.4624  0.3379  0.6630
  873MPD2    H512868   1.327   2.863   0.467  1.6630  2.9456 -1.5173
  873MPD2    N112869   1.169   3.366   0.730  0.3835  0.6533 -0.3344
  873MPD2    H712870   1.212   3.455   0.755  2.0252 -0.1340 -0.3694
  874MPD2     C12871   0.346   3.254  16.288  0.4652 -0.4305 -0.3473
  874MPD2    C112872   0.417   3.180  16.384  0.3240  0.3879  0.1751
  874MPD2    C212873   0.508   3.250  16.467 -0.5378 -0.0750  0.0126
  874MPD2    C312874   0.547   3.374  16.440 -0.5119  0.1965 -0.5549
  874MPD2    C412875   0.467   3.447  16.348  0.6222  0.1091 -0.3273
  874MPD2    C512876   0.370   3.378  16.275  0.5419  0.5171  0.0958
  874MPD2     H12877   0.555   3.195  16.548 -1.2853  1.2067  1.3269
  874MPD2    H112878   0.484   3.553  16.331 -1.6200  0.9659  2.6852
  874MPD2    H212879   0.278   3.200  16.224  1.2495 -1.5955 -0.2070
  874MPD2    H312880   0.304   3.437  16.213  0.5051 -2.6225 -2.8332
  874MPD2     N12881   0.656   3.429  16.510 -0.0852  0.0022 -0.3784
  874MPD2    H512882   0.702   3.360  16.568  1.6222  0.9440 -0.6101
  874MPD2    N112883   0.389   3.043  16.401 -0.6313 -0.1340 -0.3202
  874MPD2    H712884   0.350   2.999  16.318 -1.4872 -1.7238  0.9483
  875MPD2     C12885   1.262   1.212  14.885  0.0322  0.0921  0.1115
  875MPD2    C112886   1.242   1.339  14.827  0.3939 -0.1839 -0.0180
  875MPD2    C212887   1.287   1.450  14.896 -0.0653  0.7972 -0.6692
  875MPD2    C312888   1.343   1.438  15.024 -0.4469  0.1175  0.0950
  875MPD2    C412889   1.354   1.317  15.085 -0.4550  0.0655  0.0594
  875MPD2    C512890   1.327   1.207  15.007 -0.4550 -0.5402 -0.1602
  875MPD2     H12891   1.263   1.550  14.860  2.6997  1.1506 -1.5859
  875MPD2    H112892   1.409   1.303  15.177 -1.1192  1.6589  0.7067
  875MPD2    H212893   1.252   1.120  14.829 -1.6490 -0.9313  2.0838
  875MPD2    H312894   1.331   1.112  15.058 -1.6032 -0.1107  0.7259
  875MPD2     N12895   1.414   1.540  15.095 -0.1406  0.7132 -0.5139
  875MPD2    H512896   1.451   1.528  15.189  0.1126  1.6406 -0.4929
  875MPD2    N112897   1.178   1.365  14.703 -0.2333  0.5919 -0.0944
  875MPD2    H712898   1.150   1.459  14.676 -1.3877  0.2695 -0.0366
  876MPD2     C12899   0.621   3.096  15.929  0.5756  0.3353  0.1645
  876MPD2    C112900   0.746   3.056  15.884  0.2587  0.5170 -0.5912
  876MPD2    C212901   0.803   2.939  15.944 -0.3678 -0.0496 -0.3832
  876MPD2    C312902   0.742   2.880  16.053  0.6179  0.6057 -0.2654
  876MPD2    C412903   0.621   2.929  16.096 -0.2956  1.4159  0.6599
  876MPD2    C512904   0.568   3.043  16.041 -0.0573  0.3717  0.4254
  876MPD2     H12905   0.885   2.890  15.891  0.0896 -0.8628  1.0905
  876MPD2    H112906   0.571   2.890  16.183  0.5790  0.9895  0.9738
  876MPD2    H212907   0.579   3.188  15.889 -0.3445  1.0323  2.7501
  876MPD2    H312908   0.472   3.080  16.076 -1.0548 -2.7078  0.9513
  876MPD2     N12909   0.799   2.758  16.098  0.4237  0.0856  0.2571
  876MPD2    H512910   0.867   2.713  16.036 -1.4018 -1.1677 -0.8272
  876MPD2    N112911   0.811   3.131  15.781  0.0285 -0.1007 -0.0608
  876MPD2    H712912   0.755   3.205  15.741 -0.8151  0.3844  2.0321
  877MPD2     C12913   0.840   3.569  15.156 -0.6693 -0.2919 -0.1103
  877MPD2    C112914   0.963   3.512  15.173 -0.2815  0.2832 -0.2437
  877MPD2    C212915   1.044   3.493  15.065 -0.4525  0.1615 -0.2272
  877MPD2    C312916   0.990   3.497  14.938  0.1523  0.1692  0.3514
  877MPD2    C412917   0.864   3.545  14.923 -0.0948 -0.0276  0.6695
  877MPD2    C512918   0.795   3.596  15.029 -0.3337 -0.1093  0.7713
  877MPD2     H12919   1.140   3.444  15.074 -0.3978  0.2918 -0.1030
  877MPD2    H112920   0.814   3.538  14.826 -1.7001 -2.2048  1.6445
  877MPD2    H212921   0.772   3.603  15.233 -0.2028  2.8855 -1.0696
  877MPD2    H312922   0.700   3.644  15.014 -0.6405 -0.4447  1.6210
  877MPD2     N12923   1.058   3.449  14.822 -0.5762  0.2618 -0.2734
  877MPD2    H512924   0.992   3.415  14.752  0.4207 -0.2489 -0.9719
  877MPD2    N112925   1.017   3.477  15.295  0.8710  0.2109  0.0052
  877MPD2    H712926   1.115   3.454  15.300  0.8460  0.1743  0.3738
  878MPD2     C12927   0.349   2.312  13.728 -0.5785  0.0053 -0.3059
  878MPD2    C112928   0.397   2.439  13.708  0.1544 -0.1631 -0.3149
  878MPD2    C212929   0.345   2.540  13.792 -0.5723  0.3099 -0.0293
  878MPD2    C312930   0.244   2.513  13.877 -0.1823 -0.2718  0.2577
  878MPD2    C412931   0.183   2.394  13.871 -0.3188  0.0045  0.2827
  878MPD2    C512932   0.235   2.288  13.803 -0.0392  0.4693  0.3428
  878MPD2     H12933   0.407   2.629  13.790  1.9089 -1.3945  1.1414
  878MPD2    H112934   0.106   2.359  13.939 -1.4297 -0.5040 -1.2523
  878MPD2    H212935   0.386   2.222  13.681  2.5825  0.8675  0.5516
  878MPD2    H312936   0.197   2.187  13.807 -0.7368  0.5689 -3.3321
  878MPD2     N12937   0.200   2.617  13.959 -0.1704 -0.2017 -0.8879
  878MPD2    H512938   0.267   2.692  13.970 -2.2930  1.5091  0.3432
  878MPD2    N112939   0.505   2.455  13.612 -0.5420  0.0511  0.1324
  878MPD2    H712940   0.522   2.377  13.550  0.4113 -0.5898  1.2093
  879MPD2     C12941   0.721   3.705  17.224 -0.2913 -0.2909 -0.5991
  879MPD2    C112942   0.761   3.807  17.133  0.0333  0.1050 -0.5393
  879MPD2    C212943   0.685   3.824  17.025 -0.7880 -0.0620  0.3281
  879MPD2    C312944   0.566   3.755  17.000 -0.2192 -0.2796  0.2170
  879MPD2    C412945   0.517   3.663  17.093 -0.1678  0.2963 -0.4332
  879MPD2    C512946   0.601   3.644  17.206 -0.5157 -0.4946  0.5695
  879MPD2     H12947   0.721   3.894  16.950 -1.4273  0.8949  0.9119
  879MPD2    H112948   0.422   3.612  17.092  0.2152 -0.4271  0.1067
  879MPD2    H212949   0.786   3.691  17.309 -1.3420  0.2067  0.2933
  879MPD2    H312950   0.568   3.564  17.270  0.2162 -1.0371  0.2718
  879MPD2     N12951   0.479   3.773  16.884 -0.1388 -0.0893 -0.0324
  879MPD2    H512952   0.398   3.711  16.878  0.5680 -0.9197 -1.0930
  879MPD2    N112953   0.885   3.871  17.159  0.1632  0.3117 -0.2848
  879MPD2    H712954   0.933   3.850  17.246 -1.3350  2.3546  1.0479
  880MPD2     C12955   2.245   0.828  17.568 -0.3140  0.1334 -0.2905
  880MPD2    C112956   2.207   0.862  17.693 -0.1389 -0.0406  0.5852
  880MPD2    C212957   2.263   0.798   0.028 -0.7334 -0.3640  0.9347
  880MPD2    C312958   2.338   0.687   0.006  0.3124 -0.2080 -0.0296
  880MPD2    C412959   2.365   0.642  17.655 -0.5807 -0.0110 -0.0672
  880MPD2    C512960   2.318   0.709  17.544 -0.2511 -0.2465  0.1717
  880MPD2     H12961   2.251   0.825   0.132 -0.5041 -0.4496  0.9842
  880MPD2    H112962   2.421   0.552  17.631 -1.1774 -0.7039  1.1219
  880MPD2    H212963   2.195   0.861  17.478  3.9130  0.1479 -2.6068
  880MPD2    H312964   2.335   0.677  17.442 -0.8093  4.0681 -1.3111
  880MPD2     N12965   2.393   0.624   0.125 -0.6080 -0.3921  0.2690
  880MPD2    H512966   2.370   0.665   0.215 -2.8955 -3.8920  1.2784
  880MPD2    N112967   2.119   0.975  17.692 -0.3963 -0.2261  0.1645
  880MPD2    H712968   2.094   1.018  17.603  1.0697  0.9889  0.3211
  881MPD2     C12969   2.337   1.888  17.412  0.2674 -0.3926  0.3217
  881MPD2    C112970   2.333   1.762  17.355 -0.1254  0.0129  0.2025
  881MPD2    C212971   2.277   1.654  17.421  0.4272  0.3549 -0.2746
  881MPD2    C312972   2.202   1.673  17.538 -0.0916 -0.0831 -0.2283
  881MPD2    C412973   2.206   1.796  17.602 -0.3113 -0.2828 -0.3484
  881MPD2    C512974   2.278   1.900  17.543  0.0493 -0.1623 -0.3892
  881MPD2     H12975   2.277   1.556  17.374  0.4320  0.7172 -1.0385
  881MPD2    H112976   2.155   1.817  17.695 -0.5858 -2.3781 -0.0205
  881MPD2    H212977   2.401   1.964  17.370 -1.6989  1.4539  0.6733
  881MPD2    H312978   2.270   1.996  17.594  0.2762  0.7501 -2.0527
  881MPD2     N12979   2.131   1.574  17.608 -0.3094  0.0780 -0.1032
  881MPD2    H512980   2.088   1.614  17.690 -0.6169  0.9090 -0.6631
  881MPD2    N112981   2.437   1.746  17.260 -0.0509 -0.1078  0.6440
  881MPD2    H712982   2.476   1.832  17.222  0.5118 -2.2588 -3.7296
  882MPD2     C12983   0.879   2.998  14.206  0.3495 -0.1997 -0.2233
  882MPD2    C112984   0.884   3.134  14.237  0.1496  0.2966 -0.3888
  882MPD2    C212985   0.775   3.213  14.209 -0.6526 -0.2391  0.0251
  882MPD2    C312986   0.659   3.168  14.148  0.8005  0.8492  0.3881
  882MPD2    C412987   0.668   3.037  14.093 -0.3052  0.2780 -0.3937
  882MPD2    C512988   0.771   2.956  14.135 -0.4915  0.2216 -1.1842
  882MPD2     H12989   0.779   3.316  14.244  2.2399 -0.5312  0.5690
  882MPD2    H112990   0.583   2.991  14.044  0.3457 -0.3574 -0.9164
  882MPD2    H212991   0.957   2.927  14.230  0.6600 -0.0265 -0.7170
  882MPD2    H312992   0.772   2.853  14.103 -2.3609 -0.1200 -0.1293
  882MPD2     N12993   0.538   3.240  14.123 -0.2388 -0.2106 -0.5365
  882MPD2    H512994   0.464   3.178  14.091 -0.5766  0.6050 -1.3318
  882MPD2    N112995   0.997   3.168  14.313  0.3671  0.8977  0.4443
  882MPD2    H712996   1.062   3.095  14.340  1.9366  1.8990 -0.6596
  883MPD2     C12997   2.489   3.518  16.516  0.1197 -0.1650 -0.1818
  883MPD2    C112998   2.560   3.538  16.398  0.6946  0.0711 -0.4309
  883MPD2    C212999   2.686   3.581  16.416  0.4873  0.2453 -0.4250
  883MPD2    C313000   2.752   3.599  16.538 -0.2499 -0.3245  0.2193
  883MPD2    C413001   2.673   3.588  16.653  0.8643 -0.5136  0.2892
  883MPD2    C513002   2.544   3.545  16.639  0.9886  0.2776 -0.3812
  883MPD2     H13003   2.748   3.593  16.328  0.7864  0.7257 -0.1509
  883MPD2    H113004   2.720   3.591  16.751 -0.5676 -1.2156  0.9924
  883MPD2    H213005   2.390   3.474  16.510 -1.1536  2.2977  2.7224
  883MPD2    H313006   2.480   3.514  16.721  1.3681 -1.5499 -0.7830
  883MPD2     N13007   2.888   3.633  16.541  0.0647  0.4638 -0.4485
  883MPD2    H513008   2.944   3.642  16.457 -0.0196  1.7668 -0.3650
  883MPD2    N113009   2.503   3.518  16.271 -0.2749  0.6260  0.4782
  883MPD2    H713010   2.547   3.556  16.188 -1.8100  1.3359 -0.0155
  884MPD2     C13011   0.039   4.210  15.163 -0.5287 -0.4870 -0.2270
  884MPD2    C113012   4.698   4.249  15.058 -0.5555 -0.4914  0.8384
  884MPD2    C213013   4.563   4.267  15.087 -0.0558 -0.2526 -0.6000
  884MPD2    C313014   4.515   4.248  15.215  0.4336  0.6519  0.0594
  884MPD2    C413015   4.600   4.214  15.316  1.0653  0.2648 -0.0112
  884MPD2    C513016   4.732   4.189  15.292 -0.0551  0.0486  0.5203
  884MPD2     H13017   4.503   4.310  15.008 -1.1954  0.8798  0.8878
  884MPD2    H113018   4.562   4.189  15.415 -2.8983 -0.6591 -1.7554
  884MPD2    H213019   0.141   4.177  15.147 -1.7454 -3.8154 -1.0849
  884MPD2    H313020   0.049   4.156  15.375  0.4925 -2.7406 -0.9879
  884MPD2     N13021   4.378   4.274  15.241  0.0664 -0.2469 -0.4853
  884MPD2    H513022   4.321   4.290  15.158 -0.0729  2.7325  0.1757
  884MPD2    N113023   4.741   4.271  14.925  0.4785 -0.3033 -0.0494
  884MPD2    H713024   4.670   4.287  14.854 -1.0202  0.1814  1.5518
  885MPD2     C13025   2.678   4.471  17.656  0.1628  0.0388 -0.0493
  885MPD2    C113026   2.782   4.560  17.653 -0.0200  0.7262  0.4367
  885MPD2    C213027   2.820   4.631  17.536  0.0744  0.0990  1.0332
  885MPD2    C313028   2.746   4.611  17.428 -0.2868  1.0198  0.4422
  885MPD2    C413029   2.638   4.527  17.422 -0.6679 -0.4989  0.6060
  885MPD2    C513030   2.606   4.460  17.539 -0.0794 -0.4657  0.7536
  885MPD2     H13031   2.894   4.710  17.546  2.5915 -1.7883 -2.6719
  885MPD2    H113032   2.579   4.498  17.336 -0.2777 -3.4869  1.3357
  885MPD2    H213033   2.654   4.417  17.747 -0.7216  0.3147 -0.1139
  885MPD2    H313034   2.519   4.396  17.538 -1.5759  1.5877  3.4409
  885MPD2     N13035   2.802   4.661  17.311  0.3917  0.2535  0.1590
  885MPD2    H513036   2.893   4.704  17.328 -0.2737  1.8379 -0.2293
  885MPD2    N113037   2.842   4.579   0.012 -0.1959  0.1818 -0.5973
  885MPD2    H713038   2.802   4.531   0.092 -0.3206  1.0747 -0.1343
  886MPD2     C13039   4.031   3.170  15.567 -0.9179 -0.2187 -0.4120
  886MPD2    C113040   4.161   3.162  15.620  0.3831 -0.1635  0.0616
  886MPD2    C213041   4.250   3.258  15.579 -0.5059 -0.4089  0.6320
  886MPD2    C313042   4.222   3.353  15.485  0.2769  0.2002  0.1165
  886MPD2    C413043   4.088   3.372  15.451 -0.6830  0.0991 -0.7318
  886MPD2    C513044   4.000   3.280  15.490  0.1028 -0.6779  0.2983
  886MPD2     H13045   4.350   3.261  15.621  1.5760  1.3334 -4.4611
  886MPD2    H113046   4.054   3.458  15.395  0.5443  0.4214 -0.9863
  886MPD2    H213047   3.947   3.111  15.602 -1.7506 -0.0837 -2.1838
  886MPD2    H313048   3.897   3.288  15.455  0.7109  5.1422 -0.2352
  886MPD2     N13049   4.316   3.444  15.430 -0.6804 -0.0557 -0.1690
  886MPD2    H513050   4.279   3.512  15.364  0.8349  2.2716  1.3656
  886MPD2    N113051   4.201   3.057  15.708 -0.3561 -0.4189 -0.1102
  886MPD2    H713052   4.287   3.069  15.760 -0.0587 -2.2338 -0.1904
  887MPD2     C13053   4.477   3.150  16.289  0.4935  0.4690  0.4286
  887MPD2    C113054   4.510   3.130  16.149 -0.0244 -0.4069  0.1139
  887MPD2    C213055   4.590   3.220  16.089  0.7280 -0.5225 -0.8492
  887MPD2    C313056   4.643   3.331  16.156 -0.0726 -0.0545 -0.6106
  887MPD2    C413057   4.627   3.334  16.294  0.4931  0.0245 -1.3466
  887MPD2    C513058   4.537   3.254  16.358 -0.4208 -0.7598 -0.3899
  887MPD2     H13059   4.616   3.198  15.986  3.1865 -1.3496 -0.0472
  887MPD2    H113060   4.668   3.413  16.357  1.5409 -1.2020 -0.4754
  887MPD2    H213061   4.393   3.097  16.333  0.0717  1.8010  1.2023
  887MPD2    H313062   4.522   3.268  16.464 -2.0045 -3.0526 -0.3112
  887MPD2     N13063   4.732   3.408  16.087 -0.1936  0.0421  0.2633
  887MPD2    H513064   0.010   3.375  15.993 -0.3678  1.9012 -0.4309
  887MPD2    N113065   4.442   3.033  16.077  0.2295 -0.3972  0.5173
  887MPD2    H713066   4.455   3.038  15.977 -5.1227 -0.7163 -0.1971
  888MPD2     C13067   1.737   2.672  14.990 -0.2267 -0.0458  0.3418
  888MPD2    C113068   1.750   2.678  15.127  0.3070 -0.3115 -0.4802
  888MPD2    C213069   1.840   2.775  15.177  0.4338  0.3291  0.4986
  888MPD2    C313070   1.897   2.868  15.091  0.7486 -0.1447  0.2105
  888MPD2    C413071   1.877   2.873  14.952 -0.3838 -0.3550  0.2808
  888MPD2    C513072   1.799   2.768  14.909 -0.4298 -0.3689  0.5871
  888MPD2     H13073   1.860   2.791  15.283 -1.3069  2.0294  0.5745
  888MPD2    H113074   1.903   2.953  14.885  1.3372 -0.3970  0.9037
  888MPD2    H213075   1.658   2.618  14.939  0.7733 -0.2917 -0.9351
  888MPD2    H313076   1.768   2.773  14.805  1.1620  1.5414  0.2016
  888MPD2     N13077   1.987   2.968  15.140  0.3958  0.0154  0.6022
  888MPD2    H513078   1.994   2.978  15.241 -1.9821  4.9532  0.2883
  888MPD2    N113079   1.667   2.604  15.218 -0.3548 -0.3344 -0.2708
  888MPD2    H713080   1.687   2.619  15.317  0.0416 -4.2235  0.2568
  889MPD2     C13081   0.714   2.599  12.862  0.7544  0.1700 -1.1558
  889MPD2    C113082   0.822   2.570  12.940 -0.0755 -0.5363 -0.6961
  889MPD2    C213083   0.848   2.648  13.050 -0.4152 -0.0267  1.2626
  889MPD2    C313084   0.780   2.772  13.058  0.5583 -0.2136  0.2868
  889MPD2    C413085   0.686   2.803  12.971  0.4802 -0.5180 -0.2589
  889MPD2    C513086   0.649   2.719  12.872 -0.1636  0.0157 -0.5766
  889MPD2     H13087   0.927   2.630  13.122  0.3336  2.7997  1.1242
  889MPD2    H113088   0.631   2.896  12.963 -0.9904 -1.5548 -2.1086
  889MPD2    H213089   0.687   2.537  12.778  0.7564  0.0179 -1.0454
  889MPD2    H313090   0.569   2.752  12.806 -2.7907  0.9731  3.0608
  889MPD2     N13091   0.817   2.851  13.167 -0.3962 -0.6742  0.1460
  889MPD2    H513092   0.901   2.826  13.219 -0.9702  2.8106  2.7394
  889MPD2    N113093   0.887   2.442  12.929  0.2099 -0.6525  0.0802
  889MPD2    H713094   0.855   2.380  12.855 -1.1387 -0.3554  0.4151
  890MPD2     C13095   0.494   4.046  14.903  0.4983  0.3819 -0.2145
  890MPD2    C113096   0.623   4.040  14.849 -0.2575 -0.2419  0.8540
  890MPD2    C213097   0.727   4.020  14.938  0.0350 -0.2008  0.1715
  890MPD2    C313098   0.711   4.010  15.071  0.2475  0.2169  1.2130
  890MPD2    C413099   0.579   4.016  15.120 -0.0375  0.0799 -0.5484
  890MPD2    C513100   0.474   4.036  15.036  0.3666  0.3250 -0.0321
  890MPD2     H13101   0.832   4.017  14.910 -0.6819  0.8274 -2.6722
  890MPD2    H113102   0.554   3.994  15.223 -0.4168  0.3903 -0.5740
  890MPD2    H213103   0.405   4.070  14.846  1.5835 -0.8797 -2.4548
  890MPD2    H313104   0.370   4.043  15.068  0.3993 -0.8968  0.3451
  890MPD2     N13105   0.821   3.982  15.154 -0.2158  0.2433 -0.2719
  890MPD2    H513106   0.908   3.982  15.100 -0.1105  1.9544 -0.0980
  890MPD2    N113107   0.659   4.049  14.713 -0.2982  0.3694  0.2634
  890MPD2    H713108   0.759   4.032  14.704  0.0031  1.7473  1.0703
  891MPD2     C13109   3.664   3.092  16.632 -0.8538  0.3602  0.5290
  891MPD2    C113110   3.572   3.044  16.725 -0.4941 -0.1763 -0.0772
  891MPD2    C213111   3.624   2.973  16.836 -0.2711  0.1045 -0.3276
  891MPD2    C313112   3.756   2.944  16.842  0.1330  0.5295 -0.0835
  891MPD2    C413113   3.840   2.978  16.737 -0.0228 -0.5668 -0.2875
  891MPD2    C513114   3.791   3.052  16.637 -0.7343 -0.4641  0.2365
  891MPD2     H13115   3.560   2.947  16.920 -0.2736  0.8499 -0.0924
  891MPD2    H113116   3.946   2.957  16.741  0.1734  0.2600 -1.1608
  891MPD2    H213117   3.625   3.159  16.556 -0.9081 -1.1688 -0.7993
  891MPD2    H313118   3.853   3.076  16.551 -1.0614  1.7535  0.6149
  891MPD2     N13119   3.806   2.886  16.961  0.3468  0.6372 -0.1836
  891MPD2    H513120   3.748   2.876  17.044 -0.2333 -2.2987 -0.9353
  891MPD2    N113121   3.436   3.090  16.720 -0.1297  0.5824 -0.4852
  891MPD2    H713122   3.424   3.179  16.673 -0.6374  0.8557  0.1659
  892MPD2     C13123   0.120   3.899  14.745  0.2454  0.0794  0.5168
  892MPD2    C113124   0.014   3.854  14.671  0.1899  0.1564 -0.1827
  892MPD2    C213125   0.042   3.782  14.556 -0.4221 -0.0606 -0.4783
  892MPD2    C313126   0.174   3.742  14.532  0.5089  0.2888  0.0094
  892MPD2    C413127   0.280   3.774  14.616 -0.7107  0.1635 -0.4637
  892MPD2    C513128   0.248   3.845  14.721 -0.0259  0.3366  0.2497
  892MPD2     H13129   4.711   3.741  14.489  0.3392 -1.2951 -0.5713
  892MPD2    H113130   0.383   3.740  14.612 -0.2244  1.6789 -0.5341
  892MPD2    H213131   0.108   3.968  14.828 -0.0444  1.8888 -1.0278
  892MPD2    H313132   0.328   3.870  14.789  1.2400  1.2048 -1.5635
  892MPD2     N13133   0.216   3.673  14.412 -0.4013 -0.0779  0.1062
  892MPD2    H513134   0.315   3.654  14.410 -0.5193 -0.6272 -0.4094
  892MPD2    N113135   4.622   3.890  14.699  0.0519  0.0762  0.5563
  892MPD2    H713136   4.565   3.883  14.615 -1.4250 -0.6776  1.6227
  893MPD2     C13137   1.325   2.619   1.880  0.1377  0.1359 -0.7011
  893MPD2    C113138   1.259   2.603   1.761 -0.0203 -0.1211  0.2226
  893MPD2    C213139   1.143   2.672   1.746  0.3521 -0.3793  0.7962
  893MPD2    C313140   1.095   2.755   1.847 -0.7032 -0.5507 -0.2641
  893MPD2    C413141   1.158   2.752   1.967  0.5103  0.4000  0.4434
  893MPD2    C513142   1.275   2.684   1.983  0.3052  0.5853  0.1983
  893MPD2     H13143   1.099   2.669   1.647 -0.3215  0.4943  1.0638
  893MPD2    H113144   1.115   2.801   2.054  1.8888  2.5155 -0.0592
  893MPD2    H213145   1.420   2.567   1.890 -0.3442 -0.2366  2.0650
  893MPD2    H313146   1.319   2.694   2.081  1.9055 -1.5378 -0.3205
  893MPD2     N13147   0.974   2.839   1.838 -0.3043 -0.1562 -0.0286
  893MPD2    H513148   0.947   2.883   1.925 -0.0911  0.5798 -0.3391
  893MPD2    N113149   1.333   2.540   1.655 -0.4264 -0.2422  0.9975
  893MPD2    H713150   1.429   2.516   1.681 -0.2131 -0.4635  0.0167
  894MPD2     C13151   4.455   4.683   0.602  0.2837 -0.2362  0.1127
  894MPD2    C113152   4.533   4.693   0.716  0.2458  0.0488  0.5930
  894MPD2    C213153   4.631   0.045   0.728 -0.5742 -0.3199  0.1821
  894MPD2    C313154   4.670   0.119   0.622  0.2496  0.2590 -0.0039
  894MPD2    C413155   4.593   0.107   0.509 -0.1570 -0.2789 -0.3301
  894MPD2    C513156   4.486   0.026   0.504  0.1087  0.5854  0.3461
  894MPD2     H13157   4.698   0.046   0.813  0.6007  1.0613 -0.7756
  894MPD2    H113158   4.607   0.162   0.417 -0.2679 -0.8656 -0.7010
  894MPD2    H213159   4.373   4.613   0.587  0.5650 -0.2582 -1.2669
  894MPD2    H313160   4.421   0.029   0.418  1.0150  0.3756 -0.3469
  894MPD2     N13161   0.035   0.197   0.641  0.3989 -0.1952  0.0184
  894MPD2    H513162   0.076   0.205   0.734  0.5203 -1.7298  0.0888
  894MPD2    N113163   4.508   4.626   0.831  0.3658 -0.3022 -0.2435
  894MPD2    H713164   4.550   4.655   0.919 -1.5362  1.1832  0.1659
  895MPD2     C13165   3.953   1.993  13.702  0.2946 -0.1990  0.0956
  895MPD2    C113166   3.954   2.000  13.559 -0.0586  0.6778  0.0858
  895MPD2    C213167   4.015   1.892  13.492 -0.0909 -0.5926 -0.7146
  895MPD2    C313168   4.049   1.781  13.561 -0.9086 -0.4134 -0.0131
  895MPD2    C413169   4.058   1.789  13.703  1.1070 -0.4063  0.5823
  895MPD2    C513170   4.019   1.895  13.774 -0.8499  0.3477  0.9560
  895MPD2     H13171   4.007   1.883  13.384  0.9957  4.0402 -1.1666
  895MPD2    H113172   4.073   1.697  13.758  0.5927 -1.5504 -1.1928
  895MPD2    H213173   3.917   2.072  13.766  1.5529  0.3841  0.0795
  895MPD2    H313174   4.010   1.883  13.881  0.8330 -1.6340  0.8581
  895MPD2     N13175   4.066   1.657  13.494 -0.2277 -0.3225  0.8747
  895MPD2    H513176   4.030   1.573  13.538 -1.3853 -0.0313  0.4782
  895MPD2    N113177   3.877   2.082  13.481  0.1463 -0.2005 -0.1177
  895MPD2    H713178   3.861   2.057  13.384  3.4668 -0.4731 -0.5875
  896MPD2     C13179   1.459   0.564   1.475  0.3253 -0.4849  0.0416
  896MPD2    C113180   1.434   0.642   1.366  0.5583  0.6781  1.0361
  896MPD2    C213181   1.309   0.634   1.302  0.5128 -0.5028 -0.4841
  896MPD2    C313182   1.207   0.554   1.357  0.2314  0.4856 -0.1811
  896MPD2    C413183   1.239   0.475   1.469 -0.0621  0.0761 -0.6355
  896MPD2    C513184   1.363   0.476   1.523  0.3277  0.1870  0.1367
  896MPD2     H13185   1.287   0.709   1.227 -1.9743  0.3439  1.1178
  896MPD2    H113186   1.172   0.398   1.506 -0.7321  1.5942  1.2731
  896MPD2    H213187   1.559   0.573   1.517 -0.1900  0.6813  1.0121
  896MPD2    H313188   1.378   0.400   1.600  3.3093  1.2947  0.6408
  896MPD2     N13189   1.086   0.555   1.287 -0.6458  0.2479 -0.2366
  896MPD2    H513190   1.089   0.621   1.210 -1.0250 -0.7343 -1.0951
  896MPD2    N113191   1.545   0.714   1.315 -0.1504 -0.3705  0.1855
  896MPD2    H713192   1.625   0.710   1.377  0.1880 -0.1830 -0.2393
  897MPD2     C13193   2.713   2.725  10.361  0.4119  0.5120  0.3225
  897MPD2    C113194   2.588   2.792  10.347  0.0873  0.4937  0.0909
  897MPD2    C213195   2.492   2.786  10.452 -0.6227  0.2731  0.3764
  897MPD2    C313196   2.515   2.696  10.553  0.2934 -0.9440 -0.7751
  897MPD2    C413197   2.637   2.640  10.571  0.1337  0.6405  0.3184
  897MPD2    C513198   2.735   2.657  10.476  0.6510  0.7488  0.3419
  897MPD2     H13199   2.399   2.839  10.435 -0.4984 -0.3104 -2.1836
  897MPD2    H113200   2.661   2.570  10.650 -0.7778 -0.2580 -0.1996
  897MPD2    H213201   2.795   2.736  10.291 -0.5225 -0.4839 -0.9140
  897MPD2    H313202   2.827   2.602  10.487  0.0238 -0.3444  0.1221
  897MPD2     N13203   2.409   2.684  10.649  0.4024  0.0965 -0.2940
  897MPD2    H513204   2.326   2.733  10.617  0.3954  0.1174 -0.2437
  897MPD2    N113205   2.552   2.880  10.241  0.6628  0.2750 -0.4490
  897MPD2    H713206   2.460   2.920  10.258  1.0015  1.7536 -2.1622
  898MPD2     C13207   3.933   3.220  17.542 -0.5248  0.3975 -0.0680
  898MPD2    C113208   4.035   3.314  17.556 -0.0717  0.2885 -0.0418
  898MPD2    C213209   4.016   3.430  17.478 -0.0062 -0.3504 -0.0984
  898MPD2    C313210   3.889   3.459  17.419  0.2857  0.4611 -0.2890
  898MPD2    C413211   3.786   3.365  17.410  0.0751  0.2104  0.1690
  898MPD2    C513212   3.819   3.242  17.464 -0.6413  0.4519 -0.7195
  898MPD2     H13213   4.090   3.508  17.491  1.8375 -1.7511 -2.1566
  898MPD2    H113214   3.689   3.391  17.371  0.1510  0.7188  0.3071
  898MPD2    H213215   3.941   3.124  17.592 -1.1241  0.3421 -0.0734
  898MPD2    H313216   3.739   3.169  17.466  0.2064 -0.4931 -1.6563
  898MPD2     N13217   3.881   3.587  17.359 -0.0733 -0.2309  0.0327
  898MPD2    H513218   3.958   3.650  17.380 -2.9285  2.5359  2.2707
  898MPD2    N113219   4.163   3.297  17.608  0.2876 -0.4476 -0.0145
  898MPD2    H713220   4.228   3.375  17.613  0.5640 -0.5808 -1.4265
  899MPD2     C13221   0.295   3.537  17.465 -0.6263  0.1596  0.2488
  899MPD2    C113222   0.348   3.660  17.511 -0.2104 -0.1120 -0.2986
  899MPD2    C213223   0.357   3.670  17.653  0.3856 -0.5493  0.2357
  899MPD2    C313224   0.321   3.565  17.737 -0.0422  0.1688 -0.8028
  899MPD2    C413225   0.271   3.448  17.685  0.5676 -0.4284 -0.0802
  899MPD2    C513226   0.269   3.435  17.550 -0.3751 -1.0779  0.2126
  899MPD2     H13227   0.388   3.766  17.690  0.7631 -0.3767 -0.5281
  899MPD2    H113228   0.239   3.370  17.753  1.4105 -0.1008  0.6993
  899MPD2    H213229   0.273   3.524  17.360 -0.9881  1.7867  0.1224
  899MPD2    H313230   0.224   3.347  17.506 -1.2663 -0.9279  0.8098
  899MPD2     N13231   0.323   3.581   0.104  0.3262 -0.1868  0.0690
  899MPD2    H513232   0.296   3.502   0.162 -2.9764  2.0902  1.6411
  899MPD2    N113233   0.377   3.766  17.425 -0.0950 -0.1374  0.8481
  899MPD2    H713234   0.364   3.753  17.325  2.4482 -1.2667  0.6663
  900MPD2     C13235   4.535   0.225  12.959  0.1725  0.1973  0.0973
  900MPD2    C113236   4.457   0.161  12.869 -0.0632  0.3103  0.1168
  900MPD2    C213237   4.340   0.224  12.830 -0.0512  0.1450  0.4409
  900MPD2    C313238   4.306   0.349  12.870 -0.2545 -0.7805 -0.8658
  900MPD2    C413239   4.388   0.418  12.958  0.0051  0.0572  0.4939
  900MPD2    C513240   4.506   0.357  12.992 -0.3059 -0.2654  0.0002
  900MPD2     H13241   4.275   0.165  12.766 -1.7647  0.9770  1.4126
  900MPD2    H113242   4.370   0.518  12.997 -3.3235 -0.3104 -0.1376
  900MPD2    H213243   4.629   0.187  12.999 -1.0349 -1.5504  1.2620
  900MPD2    H313244   4.572   0.411  13.059  1.1324  0.1379 -1.7454
  900MPD2     N13245   4.178   0.398  12.837  0.1868 -0.2916 -0.0081
  900MPD2    H513246   4.118   0.337  12.782  0.2210  0.7318 -1.1935
  900MPD2    N113247   4.489   0.027  12.837 -0.0469  0.0605 -0.4714
  900MPD2    H713248   4.579   4.739  12.873 -0.7381  0.2052  1.3792
  901MPD2     C13249   4.273   3.705  12.601 -0.2188  0.2873 -0.3680
  901MPD2    C113250   4.374   3.714  12.685  0.3162 -0.1355  0.2826
  901MPD2    C213251   4.411   3.832  12.736  0.0878  0.1961 -0.1893
  901MPD2    C313252   4.352   3.949  12.694  0.2396  0.1170 -0.1304
  901MPD2    C413253   4.250   3.942  12.595 -0.6407  1.0424 -0.5070
  901MPD2    C513254   4.206   3.818  12.550 -0.5489  0.3527  0.5973
  901MPD2     H13255   4.491   3.836  12.808  2.4660 -0.6043 -2.7798
  901MPD2    H113256   4.189   4.026  12.564 -1.8769  1.1841  2.3051
  901MPD2    H213257   4.243   3.609  12.562  0.0487 -0.1377  0.4716
  901MPD2    H313258   4.128   3.824  12.474 -0.0911  1.0931  0.1883
  901MPD2     N13259   4.391   4.074  12.752 -0.0511  0.4046 -0.1824
  901MPD2    H513260   4.468   4.072  12.818 -0.9353 -0.9053  0.7882
  901MPD2    N113261   4.437   3.594  12.736 -0.0285  0.1936  0.0259
  901MPD2    H713262   4.399   3.512  12.691 -2.6074  0.4873  1.6355
  902MPD2     C13263   3.737   2.775  13.408 -0.3774 -0.2065  0.0950
  902MPD2    C113264   3.782   2.823  13.287  0.0348 -0.3587 -0.6205
  902MPD2    C213265   3.836   2.732  13.194  0.1131 -0.2036 -0.3476
  902MPD2    C313266   3.857   2.603  13.233 -0.0267 -0.5736  0.3945
  902MPD2    C413267   3.827   2.568  13.368  0.4561 -0.2862 -0.4702
  902MPD2    C513268   3.759   2.654  13.452 -1.2298 -0.6884 -0.1929
  902MPD2     H13269   3.855   2.764  13.092 -2.1727 -0.7083 -0.9545
  902MPD2    H113270   3.837   2.466  13.403  1.6109 -0.0933 -0.2657
  902MPD2    H213271   3.679   2.837  13.476  3.0528  3.2324 -0.1391
  902MPD2    H313272   3.719   2.626  13.549  2.0901  0.4379  1.5214
  902MPD2     N13273   3.904   2.505  13.149 -0.4439  0.1367  0.2868
  902MPD2    H513274   3.931   2.413  13.184 -1.0052 -0.4750 -0.8578
  902MPD2    N113275   3.771   2.957  13.260  0.4415  0.7856  0.0783
  902MPD2    H713276   3.783   2.982  13.162  0.4242  1.2177  0.1859
  903MPD2     C13277   3.955   2.052  12.337  0.1430 -0.8742 -0.2346
  903MPD2    C113278   3.915   2.167  12.400 -0.1664  0.3551 -0.0419
  903MPD2    C213279   3.864   2.280  12.331 -0.1387 -0.6062  0.5578
  903MPD2    C313280   3.856   2.278  12.192 -0.0333 -0.6114  0.5803
  903MPD2    C413281   3.896   2.160  12.130 -0.1298  0.5080  0.0824
  903MPD2    C513282   3.944   2.049  12.207 -0.2079  0.2835  0.3941
  903MPD2     H13283   3.837   2.370  12.384 -0.8499  0.4765 -1.6461
  903MPD2    H113284   3.898   2.147  12.023  1.0120  0.1073  0.1474
  903MPD2    H213285   3.999   1.967  12.386 -0.0175 -0.9013 -0.1358
  903MPD2    H313286   3.962   1.951  12.165  1.6761  0.5346  0.6269
  903MPD2     N13287   3.795   2.383  12.125  0.7718  0.0275  0.3625
  903MPD2    H513288   3.771   2.466  12.179  0.9320  0.0145  0.4554
  903MPD2    N113289   3.933   2.176  12.536 -0.1898 -0.0654 -0.4104
  903MPD2    H713290   3.998   2.107  12.574 -0.8182 -1.1132 -1.2675
  904MPD2     C13291   3.941   1.658  14.331 -0.3023  0.0415  0.5579
  904MPD2    C113292   3.910   1.792  14.324 -0.5590 -0.3828 -0.0613
  904MPD2    C213293   3.949   1.868  14.436 -0.3865  0.3739 -0.3678
  904MPD2    C313294   4.015   1.812  14.547  0.1711  0.5761  0.1699
  904MPD2    C413295   4.033   1.676  14.547 -0.2021 -0.4497  0.5165
  904MPD2    C513296   3.991   1.595  14.444  0.2248  0.0164 -0.3507
  904MPD2     H13297   3.936   1.975  14.430 -2.3405 -0.1129 -4.2737
  904MPD2    H113298   4.084   1.620  14.624  1.4258 -0.7432 -0.7947
  904MPD2    H213299   3.922   1.591  14.248 -0.9111  0.8751  0.0344
  904MPD2    H313300   4.001   1.488  14.451 -1.5774 -0.0888  0.5716
  904MPD2     N13301   4.070   1.902  14.643 -0.1023  0.4060 -0.4610
  904MPD2    H513302   4.056   2.000  14.622  0.6591  0.8426  1.1304
  904MPD2    N113303   3.838   1.849  14.211  0.0579 -0.1416 -0.0923
  904MPD2    H713304   3.813   1.946  14.228 -2.3057 -0.6442 -0.6992
  905MPD2     C13305   3.373   1.921  13.412  0.2252 -0.5554 -0.3681
  905MPD2    C113306   3.505   1.901  13.450 -0.0131 -0.5473 -1.2205
  905MPD2    C213307   3.591   1.849  13.354  0.0367 -0.1655  0.0535
  905MPD2    C313308   3.550   1.827  13.223 -0.5187  0.4788  0.1196
  905MPD2    C413309   3.415   1.833  13.191  0.9700  0.3796  0.1610
  905MPD2    C513310   3.334   1.890  13.284  0.3846  0.0958  0.5092
  905MPD2     H13311   3.694   1.844  13.390  0.6936 -1.5927 -2.0193
  905MPD2    H113312   3.375   1.814  13.092 -0.9748 -0.5481  1.1225
  905MPD2    H213313   3.291   1.964  13.469  1.1708 -1.2290  1.5068
  905MPD2    H313314   3.229   1.910  13.265  1.0237  0.8578 -2.2026
  905MPD2     N13315   3.638   1.763  13.128  0.1089 -0.0079 -0.5263
  905MPD2    H513316   3.595   1.695  13.066  0.3680 -1.1708  0.5696
  905MPD2    N113317   3.541   1.933  13.578  0.9951 -0.0072 -0.0601
  905MPD2    H713318   3.477   1.987  13.635 -1.9827 -3.2782 -0.3426
  906MPD2     C13319   1.145   2.820  11.377  0.3610  0.3316  0.0910
  906MPD2    C113320   1.115   2.761  11.254 -0.3066  0.1680  0.5151
  906MPD2    C213321   1.071   2.629  11.248  0.4157 -0.0519  0.3116
  906MPD2    C313322   1.079   2.544  11.356  0.7553  0.6019 -0.0031
  906MPD2    C413323   1.123   2.605  11.475 -0.3470 -0.0200  0.8554
  906MPD2    C513324   1.143   2.741  11.486  0.0712  0.4371  0.3850
  906MPD2     H13325   1.046   2.593  11.149  0.3201  1.7128 -0.3042
  906MPD2    H113326   1.148   2.544  11.561  1.5793 -0.3764  0.0410
  906MPD2    H213327   1.169   2.925  11.390  0.8834  0.4792 -2.0632
  906MPD2    H313328   1.178   2.788  11.577  1.7361  2.9671 -1.5679
  906MPD2     N13329   1.051   2.402  11.351  0.0327  0.1019  0.0444
  906MPD2    H513330   1.025   2.361  11.262  0.5124 -0.9736  0.3994
  906MPD2    N113331   1.116   2.833  11.127  0.2102  0.0116 -0.0471
  906MPD2    H713332   1.096   2.770  11.050  0.5555  0.2937 -0.3685
  907MPD2     C13333   4.651   1.796  15.711  0.5581  0.3118 -0.6683
  907MPD2    C113334   4.640   1.711  15.607  0.3257 -0.7996  0.0258
  907MPD2    C213335   0.010   1.642  15.566 -0.0211  0.0376  0.1350
  907MPD2    C313336   0.133   1.642  15.637 -0.4107 -0.4601 -0.2047
  907MPD2    C413337   0.138   1.711  15.757 -0.7500 -0.7629  0.6397
  907MPD2    C513338   0.030   1.791  15.783  0.1818  0.0151  0.3506
  907MPD2     H13339   4.737   1.591  15.472 -3.6513  2.1664 -0.4120
  907MPD2    H113340   0.230   1.718  15.814 -0.7069 -0.3280  0.5169
  907MPD2    H213341   4.567   1.850  15.753  1.7502  0.2765  1.7683
  907MPD2    H313342   0.042   1.859  15.867 -0.8098  1.3889 -0.6187
  907MPD2     N13343   0.245   1.569  15.582 -0.1406 -0.4954 -1.3129
  907MPD2    H513344   0.237   1.514  15.497  0.6003 -0.8173 -1.1773
  907MPD2    N113345   4.528   1.691  15.522  0.1349  0.1586 -0.1569
  907MPD2    H713346   4.532   1.623  15.446 -0.3621  1.8593 -1.7093
  908MPD2     C13347   2.054   2.921   9.490 -0.4541 -0.3481 -0.2555
  908MPD2    C113348   2.048   2.862   9.611 -0.6263  0.3724  0.2482
  908MPD2    C213349   2.125   2.911   9.714  0.1487  0.7557  0.5514
  908MPD2    C313350   2.201   3.031   9.699  0.2761  0.7754  0.0521
  908MPD2    C413351   2.202   3.093   9.577  0.3267  0.2593 -0.5293
  908MPD2    C513352   2.128   3.040   9.474  0.1212 -0.4481 -0.3071
  908MPD2     H13353   2.132   2.866   9.812  1.8811 -0.6898 -0.2319
  908MPD2    H113354   2.265   3.179   9.559  0.2651  0.2346 -0.8604
  908MPD2    H213355   1.995   2.887   9.406  1.0263 -2.4224 -0.4547
  908MPD2    H313356   2.128   3.088   9.377 -0.3527 -1.6801 -0.9167
  908MPD2     N13357   2.300   3.070   9.795  0.0957  0.4966  0.2740
  908MPD2    H513358   2.304   3.021   9.884  0.5360  1.4999  0.8058
  908MPD2    N113359   1.977   2.740   9.620  0.5341 -0.6762 -0.5516
  908MPD2    H713360   1.923   2.715   9.538 -1.3224  0.9216  0.1950
  909MPD2     C13361   2.851   0.494  12.072 -0.6283  0.7877 -0.5908
  909MPD2    C113362   2.771   0.557  11.981 -0.3763 -0.7132 -0.0708
  909MPD2    C213363   2.651   0.617  12.019 -0.3637 -0.0140  0.9593
  909MPD2    C313364   2.612   0.605  12.154  0.2618  0.1746  0.2481
  909MPD2    C413365   2.696   0.549  12.247 -0.2622  0.5537 -0.3261
  909MPD2    C513366   2.816   0.494  12.206 -0.1044 -0.3809 -0.0572
  909MPD2     H13367   2.587   0.673  11.951  0.6850 -2.2368 -1.8446
  909MPD2    H113368   2.677   0.550  12.353 -2.0869 -0.1343 -0.6458
  909MPD2    H213369   2.946   0.453  12.040 -1.7520 -2.9734  0.8202
  909MPD2    H313370   2.876   0.453  12.286 -1.1346  0.0034  0.9308
  909MPD2     N13371   2.485   0.650  12.186 -0.1139  0.1083  0.0984
  909MPD2    H513372   2.428   0.701  12.120  1.4277  0.7580 -0.7305
  909MPD2    N113373   2.805   0.539  11.842 -0.1917  0.1174  0.2997
  909MPD2    H713374   2.888   0.483  11.828  0.8391  1.3508  1.4034
  910MPD2     C13375   4.184   2.016  16.093  0.4620 -0.1014  0.1096
  910MPD2    C113376   4.249   1.984  15.971 -0.2821  0.5316 -0.3661
  910MPD2    C213377   4.206   2.056  15.858 -0.3772  0.4194 -0.2941
  910MPD2    C313378   4.120   2.165  15.879 -0.5478 -0.8241  0.3517
  910MPD2    C413379   4.064   2.193  15.999 -0.6253  1.0455  0.4474
  910MPD2    C513380   4.094   2.118  16.106  0.4732 -0.6239  0.2168
  910MPD2     H13381   4.227   2.023  15.757  0.7036  0.2075  0.0058
  910MPD2    H113382   3.982   2.263  16.010 -2.5729 -1.1924  0.2582
  910MPD2    H213383   4.208   1.970  16.188 -3.7036 -1.9418  0.2608
  910MPD2    H313384   4.046   2.140  16.201 -0.7020 -0.6835 -0.3749
  910MPD2     N13385   4.075   2.244  15.768 -0.3280  0.0556 -0.3592
  910MPD2    H513386   4.002   2.310  15.793  1.3040  1.1741  1.4493
  910MPD2    N113387   4.335   1.875  15.965  0.1273  0.6675 -0.3391
  910MPD2    H713388   4.369   1.846  15.873  2.5056 -0.2238  0.8171
  911MPD2     C13389   1.728   2.567  16.235  0.3324 -0.1600  0.5960
  911MPD2    C113390   1.778   2.664  16.314  0.0173  0.2249  0.0448
  911MPD2    C213391   1.703   2.776  16.348 -0.0960 -0.0687 -0.0364
  911MPD2    C313392   1.577   2.783  16.291 -0.3861  0.4758 -1.0048
  911MPD2    C413393   1.529   2.696  16.201 -0.6559 -0.0173 -0.4725
  911MPD2    C513394   1.604   2.583  16.182  0.4419 -0.4181 -0.1481
  911MPD2     H13395   1.751   2.851  16.410  2.4891 -0.5373 -1.4656
  911MPD2    H113396   1.441   2.721  16.143 -0.8352  1.8848  0.6158
  911MPD2    H213397   1.780   2.479  16.200 -1.2228 -0.9088  0.2008
  911MPD2    H313398   1.573   2.510  16.108  0.3344 -1.3149  0.7835
  911MPD2     N13399   1.480   2.883  16.317  0.3063  0.2441  0.0454
  911MPD2    H513400   1.383   2.860  16.299  0.6236 -1.3027  0.3151
  911MPD2    N113401   1.915   2.650  16.341  0.1436 -0.5166  0.1054
  911MPD2    H713402   1.974   2.583  16.291 -1.7139 -2.7272  0.8792
  912MPD2     C13403   1.087   2.699  15.855  0.4604 -0.4700 -0.1073
  912MPD2    C113404   1.152   2.714  15.976 -0.2565  0.7109  0.1549
  912MPD2    C213405   1.201   2.602  16.039 -0.0858 -0.1143 -0.0378
  912MPD2    C313406   1.187   2.479  15.982  0.1418  0.2934 -0.2982
  912MPD2    C413407   1.120   2.467  15.865 -0.4741  0.4844 -0.2730
  912MPD2    C513408   1.082   2.573  15.796 -0.6150 -0.0143  0.2094
  912MPD2     H13409   1.246   2.606  16.138 -1.4498 -1.5456  0.6573
  912MPD2    H113410   1.104   2.373  15.813  1.8059 -0.5888  0.9893
  912MPD2    H213411   1.059   2.784  15.794 -2.7962 -0.4860  1.3820
  912MPD2    H313412   1.050   2.571  15.692 -1.1997 -2.1333  0.4389
  912MPD2     N13413   1.252   2.372  16.048 -0.1512  0.3100 -0.0915
  912MPD2    H513414   1.292   2.400  16.137  0.5029 -1.3916  0.1346
  912MPD2    N113415   1.154   2.851  16.031 -0.0534  0.3005  0.1326
  912MPD2    H713416   1.115   2.921  15.969  0.6060 -0.1367 -0.7874
  913MPD2     C13417   2.577   4.245  10.724 -0.0874  0.2213  0.5078
  913MPD2    C113418   2.528   4.149  10.640 -0.4436 -1.1020 -0.2017
  913MPD2    C213419   2.450   4.188  10.532  0.4590  0.1207  0.3037
  913MPD2    C313420   2.407   4.315  10.525  0.0151  0.0345  0.1177
  913MPD2    C413421   2.449   4.405  10.612  0.2659  0.3793 -0.6025
  913MPD2    C513422   2.541   4.376  10.709  0.4191 -0.2594  0.1130
  913MPD2     H13423   2.422   4.115  10.457 -0.9419  0.3523  0.6168
  913MPD2    H113424   2.409   4.506  10.615 -2.8480 -0.9243  0.6038
  913MPD2    H213425   2.651   4.219  10.799  2.7845 -0.4038 -2.5153
  913MPD2    H313426   2.587   4.449  10.774 -1.7933  0.3766  0.9911
  913MPD2     N13427   2.318   4.355  10.425  0.1711 -0.2325 -0.2083
  913MPD2    H513428   2.296   4.454  10.434 -1.4563 -0.5060 -1.0784
  913MPD2    N113429   2.569   4.017  10.662  0.0791  0.3733 -0.0418
  913MPD2    H713430   2.605   3.981  10.750  0.4893  0.1396 -0.3038
  914MPD2     C13431   0.208   3.788  12.188  0.2986  0.4119  0.0112
  914MPD2    C113432   0.126   3.855  12.280 -0.6644 -0.2299 -0.0067
  914MPD2    C213433   0.088   3.781  12.393  0.4788  0.3750 -0.8133
  914MPD2    C313434   0.118   3.651  12.415  0.3447  0.1560 -0.4182
  914MPD2    C413435   0.196   3.592  12.321 -0.1339  0.5376 -0.0567
  914MPD2    C513436   0.241   3.662  12.213  0.2327 -0.2837 -0.2538
  914MPD2     H13437   0.028   3.828  12.470  2.8484 -0.5229  1.5538
  914MPD2    H113438   0.230   3.489  12.324  1.1700  0.9514 -0.8000
  914MPD2    H213439   0.235   3.835  12.093  1.3591  1.4306  0.8134
  914MPD2    H313440   0.311   3.609  12.149  0.3653 -2.2495  1.5070
  914MPD2     N13441   0.076   3.588  12.533  0.0348 -0.8428  0.2092
  914MPD2    H513442   4.739   3.626  12.581  0.9176 -1.2113  1.9646
  914MPD2    N113443   0.091   3.989  12.267  0.1553  0.3545 -0.4787
  914MPD2    H713444   0.131   4.028  12.182  1.8379 -2.3839 -0.9446
  915MPD2     C13445   3.089   4.120  15.378 -0.1709 -0.0182 -0.2019
  915MPD2    C113446   2.957   4.138  15.351  0.5627  0.1728 -0.0525
  915MPD2    C213447   2.872   4.166  15.454  0.6394 -0.1960 -0.0457
  915MPD2    C313448   2.907   4.165  15.588  0.7051  0.8748  0.4460
  915MPD2    C413449   3.043   4.141  15.609 -0.5133 -0.3603 -0.1416
  915MPD2    C513450   3.128   4.117  15.506 -0.2453  0.3875 -0.6885
  915MPD2     H13451   2.768   4.188  15.431  1.2845 -0.1265 -2.9805
  915MPD2    H113452   3.090   4.146  15.706 -0.5227  0.2324 -0.1706
  915MPD2    H213453   3.172   4.112  15.309  0.1102  2.3673 -0.1348
  915MPD2    H313454   3.231   4.105  15.539 -0.4649 -1.5292 -0.7012
  915MPD2     N13455   2.817   4.201  15.688 -0.1062  0.4191 -0.0058
  915MPD2    H513456   2.722   4.229  15.665 -0.5886 -1.9048 -0.7835
  915MPD2    N113457   2.924   4.108  15.220 -0.4664 -0.4154 -0.4098
  915MPD2    H713458   2.990   4.051  15.168 -1.3946 -2.9766  1.1971
  916MPD2     C13459   0.837   2.295  15.702 -0.0543  0.0154 -0.3281
  916MPD2    C113460   0.861   2.229  15.819  0.3912  0.2747 -0.2405
  916MPD2    C213461   0.858   2.092  15.817  0.1500  0.0836  0.7427
  916MPD2    C313462   0.830   2.029  15.701  1.3260 -0.2904  0.2237
  916MPD2    C413463   0.808   2.095  15.588 -0.6010 -0.2248 -0.5024
  916MPD2    C513464   0.808   2.231  15.585  0.2587  0.0486 -0.2772
  916MPD2     H13465   0.878   2.031  15.904  0.9612  1.4827  1.5389
  916MPD2    H113466   0.781   2.052  15.492  0.5259 -0.0645 -0.8960
  916MPD2    H213467   0.843   2.403  15.696 -3.0241  0.1554 -0.7125
  916MPD2    H313468   0.778   2.285  15.496  0.6380 -0.0116 -0.4411
  916MPD2     N13469   0.826   1.889  15.698 -0.0730 -0.0373  0.6168
  916MPD2    H513470   0.869   1.844  15.778 -0.3032  0.2511  0.8986
  916MPD2    N113471   0.862   2.309  15.947  0.0358  0.1998 -0.4849
  916MPD2    H713472   0.856   2.409  15.928  2.3784  0.0449 -1.9950
  917MPD2     C13473   1.296   4.222  11.560  0.0453  0.6165 -0.2886
  917MPD2    C113474   1.331   4.254  11.689  0.4047 -0.7076 -0.2424
  917MPD2    C213475   1.446   4.328  11.709 -0.8439 -0.3008 -0.0902
  917MPD2    C313476   1.520   4.365  11.598  0.0917  0.5321 -0.1205
  917MPD2    C413477   1.475   4.339  11.471  0.0875  0.8097  1.1353
  917MPD2    C513478   1.359   4.271  11.453  0.1474  0.0045  0.5310
  917MPD2     H13479   1.475   4.351  11.811 -0.5167 -1.5090  0.0982
  917MPD2    H113480   1.529   4.362  11.380 -0.0807  0.9178  1.0629
  917MPD2    H213481   1.215   4.151  11.549  0.6523 -0.1637  0.2992
  917MPD2    H313482   1.324   4.257  11.351  0.0966 -2.5224  0.9016
  917MPD2     N13483   1.645   4.445  11.600  0.1018  0.5734 -0.2628
  917MPD2    H513484   1.683   4.470  11.510 -0.7409 -1.0903 -1.0615
  917MPD2    N113485   1.248   4.199  11.793  0.0791  0.0122 -0.2801
  917MPD2    H713486   1.172   4.139  11.761  1.2861 -1.5566 -0.1833
  918MPD2     C13487   1.223   4.582  12.673 -0.0207 -1.0990 -0.2357
  918MPD2    C113488   1.331   4.513  12.627 -0.1789 -0.0152  0.4268
  918MPD2    C213489   1.309   4.406  12.546 -0.6806  0.0387 -0.0090
  918MPD2    C313490   1.185   4.362  12.508 -0.4379 -0.3315 -0.1741
  918MPD2    C413491   1.080   4.425  12.567  0.3720 -0.2245  0.0452
  918MPD2    C513492   1.098   4.530  12.653 -0.0039 -0.0450 -0.7862
  918MPD2     H13493   1.387   4.349  12.497 -0.5948  1.8651 -1.9890
  918MPD2    H113494   0.979   4.389  12.550  0.9573 -0.8995 -1.9455
  918MPD2    H213495   1.238   4.664  12.742 -3.3520 -0.8308  0.1870
  918MPD2    H313496   1.015   4.578  12.704 -0.4766 -0.0750 -1.5218
  918MPD2     N13497   1.175   4.264  12.408 -0.2639 -0.1120  0.0725
  918MPD2    H513498   1.259   4.229  12.364 -1.9604 -0.7231 -2.6281
  918MPD2    N113499   1.468   4.537  12.659  0.5511 -0.2535  0.3484
  918MPD2    H713500   1.532   4.465  12.628 -2.2040 -1.6538 -2.0303
  919MPD2     C13501   1.995   3.665  11.597  0.4305  0.1861 -0.2449
  919MPD2    C113502   1.881   3.620  11.669 -0.4423  0.2636 -0.1222
  919MPD2    C213503   1.755   3.642  11.619 -0.0615 -0.0753 -0.2934
  919MPD2    C313504   1.738   3.711  11.497  0.8679  0.0752 -0.1266
  919MPD2    C413505   1.846   3.763  11.439  0.1077 -1.0543  0.3975
  919MPD2    C513506   1.968   3.749  11.494  0.0226 -0.3458  0.5404
  919MPD2     H13507   1.676   3.600  11.681 -0.5348 -1.5650 -1.9160
  919MPD2    H113508   1.832   3.814  11.344  0.8124 -0.8519  0.4057
  919MPD2    H213509   2.096   3.657  11.635  0.1747  2.4658  0.9242
  919MPD2    H313510   2.051   3.795  11.442  1.4442 -1.7593  1.5740
  919MPD2     N13511   1.617   3.711  11.427 -0.4775 -0.3393 -0.4402
  919MPD2    H513512   1.597   3.766  11.343 -0.9177 -0.8182 -0.6476
  919MPD2    N113513   1.895   3.540  11.780 -0.2449 -0.4376 -0.1810
  919MPD2    H713514   1.807   3.520  11.827 -1.4715  3.0088 -1.0200
  920MPD2     C13515   1.306   3.906  10.520 -1.1948  0.0471  0.6668
  920MPD2    C113516   1.213   3.958  10.609  0.7413  0.4526  0.1907
  920MPD2    C213517   1.209   3.908  10.735  0.2814 -0.5314 -0.1585
  920MPD2    C313518   1.311   3.831  10.784  0.4158 -0.1104  0.3530
  920MPD2    C413519   1.408   3.780  10.702  0.6486 -0.3211  0.2689
  920MPD2    C513520   1.407   3.818  10.567  0.2702 -0.3004  0.1270
  920MPD2     H13521   1.137   3.948  10.805 -0.2953 -0.0726 -1.0131
  920MPD2    H113522   1.487   3.710  10.727 -1.3817 -3.0546 -0.9404
  920MPD2    H213523   1.320   3.943  10.419  1.3665 -1.1643  0.5592
  920MPD2    H313524   1.474   3.777  10.491 -1.5570 -1.1314 -1.0428
  920MPD2     N13525   1.289   3.778  10.913 -0.1663 -0.1035  0.6725
  920MPD2    H513526   1.198   3.807  10.949  0.4824  0.1813  2.0704
  920MPD2    N113527   1.112   4.053  10.575  0.5014  0.3417 -0.3173
  920MPD2    H713528   1.039   4.069  10.644  0.5478 -1.1893  0.0850
  921MPD2     C13529   2.549   3.246  16.887 -0.3121  0.2123  0.3450
  921MPD2    C113530   2.616   3.133  16.853 -0.1131  0.8119 -0.3578
  921MPD2    C213531   2.557   3.025  16.790 -0.4858  0.3177  0.0364
  921MPD2    C313532   2.418   3.033  16.759 -1.0738 -0.3367 -0.0958
  921MPD2    C413533   2.355   3.150  16.797 -0.0326  0.0092  0.0973
  921MPD2    C513534   2.416   3.258  16.851 -0.1696  0.4144 -0.4527
  921MPD2     H13535   2.617   2.938  16.766  1.8636  1.5614  1.3605
  921MPD2    H113536   2.250   3.158  16.773 -0.3986 -2.3852  0.9472
  921MPD2    H213537   2.602   3.332  16.927 -0.0724  0.0691  0.3396
  921MPD2    H313538   2.350   3.342  16.867 -0.6324 -0.1802  0.7678
  921MPD2     N13539   2.342   2.934  16.693  0.1160  1.4566  0.1655
  921MPD2    H513540   2.244   2.949  16.669 -0.9773 -3.3637  1.5603
  921MPD2    N113541   2.754   3.150  16.877  0.5323 -0.4283 -0.0337
  921MPD2    H713542   2.792   3.241  16.900  2.2418 -1.4436  1.2159
  922MPD2     C13543   3.091   0.380  17.542 -0.8284 -0.5011  0.5564
  922MPD2    C113544   3.126   0.507  17.506  0.0203 -0.1621 -0.3442
  922MPD2    C213545   3.055   0.562  17.395  0.7816 -0.0931 -0.3838
  922MPD2    C313546   2.986   0.474  17.314  0.3142 -0.0154  0.3339
  922MPD2    C413547   2.946   0.353  17.354  0.0287  0.0521  0.0599
  922MPD2    C513548   3.004   0.305  17.466 -0.1141 -0.1268  0.4773
  922MPD2     H13549   3.070   0.663  17.358 -1.6340  0.4868  0.2143
  922MPD2    H113550   2.875   0.297  17.294  1.3673 -1.7451  0.1495
  922MPD2    H213551   3.112   0.332  17.637  0.4612 -1.1251 -0.0447
  922MPD2    H313552   2.974   0.207  17.501 -1.4141  0.2814  0.4988
  922MPD2     N13553   2.945   0.525  17.191 -0.5180 -0.1839  0.3804
  922MPD2    H513554   2.945   0.627  17.186 -0.2784 -0.2714 -1.4089
  922MPD2    N113555   3.211   0.591  17.577 -0.4046 -0.1797  0.1988
  922MPD2    H713556   3.227   0.683  17.536  0.4657  0.6851  2.5285
  923MPD2     C13557   4.379   3.084   9.495 -0.2318  0.8689 -0.5454
  923MPD2    C113558   4.487   3.170   9.520  0.7626  0.6379  0.7428
  923MPD2    C213559   4.615   3.130   9.509 -1.2229  0.5999  0.0185
  923MPD2    C313560   4.639   3.008   9.451  0.1557  0.1858  0.0578
  923MPD2    C413561   4.538   2.916   9.424 -0.6749 -0.4747 -0.3479
  923MPD2    C513562   4.407   2.956   9.445 -0.3197  0.4779 -0.0094
  923MPD2     H13563   4.697   3.196   9.537 -2.4986  1.6867  1.2281
  923MPD2    H113564   4.566   2.819   9.385  0.0832 -1.2939  2.2395
  923MPD2    H213565   4.277   3.114   9.521 -0.7735 -0.7238 -0.8717
  923MPD2    H313566   4.321   2.899   9.414  0.9605 -0.1592 -2.3365
  923MPD2     N13567   0.023   2.955   9.434  0.0594  0.2341  0.0087
  923MPD2    H513568   0.033   2.854   9.424 -0.9404  0.2261 -0.8613
  923MPD2    N113569   4.449   3.300   9.577  0.4514 -0.4065 -0.4926
  923MPD2    H713570   4.350   3.322   9.588  0.4487 -0.2138 -0.8957
  924MPD2     C13571   0.056   0.890  15.207  0.5426 -0.2443  0.3398
  924MPD2    C113572   0.136   0.862  15.319 -0.0073  0.4927  0.6726
  924MPD2    C213573   0.240   0.946  15.344 -0.1439  0.1309 -0.4744
  924MPD2    C313574   0.271   1.064  15.276 -0.1088 -0.1116  0.4490
  924MPD2    C413575   0.173   1.099  15.180  0.0239  0.3127 -0.4508
  924MPD2    C513576   0.072   1.015  15.149 -0.0718 -0.2467  0.2361
  924MPD2     H13577   0.304   0.942  15.432 -2.4631  0.3139  1.2331
  924MPD2    H113578   0.184   1.186  15.116  1.5816 -0.1522 -0.8117
  924MPD2    H213579   4.719   0.832  15.164  3.6770 -3.3185 -1.4461
  924MPD2    H313580   0.011   1.023  15.061 -2.1780 -1.2472  1.6020
  924MPD2     N13581   0.377   1.146  15.324  1.0619  0.0349 -0.6050
  924MPD2    H513582   0.420   1.128  15.414 -0.4687  0.3568  0.1992
  924MPD2    N113583   0.109   0.744  15.388 -0.4638 -0.7056 -0.1465
  924MPD2    H713584   0.028   0.687  15.363  0.9348 -1.1655 -3.6896
  925MPD2     C13585   3.784   3.444  14.860 -0.3624  0.2687 -0.0509
  925MPD2    C113586   3.671   3.472  14.784 -0.6629 -0.0834  0.5662
  925MPD2    C213587   3.550   3.508  14.842  0.1897 -0.0105  0.0757
  925MPD2    C313588   3.548   3.530  14.978 -0.3607 -0.3643 -0.1277
  925MPD2    C413589   3.666   3.503  15.054 -0.8674  0.0383 -0.2862
  925MPD2    C513590   3.785   3.470  14.992  0.2864 -0.7641 -0.5127
  925MPD2     H13591   3.460   3.505  14.782 -3.5079 -0.8517  5.6450
  925MPD2    H113592   3.662   3.530  15.159 -1.6701 -1.9211  0.1795
  925MPD2    H213593   3.865   3.397  14.804  0.7375 -0.1387  1.8669
  925MPD2    H313594   3.877   3.452  15.046  1.7665 -1.0862 -3.1532
  925MPD2     N13595   3.427   3.548  15.055 -0.0718 -0.0386 -0.2734
  925MPD2    H513596   3.442   3.549  15.155 -2.4104 -0.3275  0.0885
  925MPD2    N113597   3.673   3.443  14.641  0.6941 -0.1589 -0.4605
  925MPD2    H713598   3.580   3.457  14.602 -0.4388 -1.6298  1.6853
  926MPD2     C13599   2.183   1.727  13.578 -0.9548  0.5589  0.3537
  926MPD2    C113600   2.136   1.853  13.547 -0.4282  0.1576  0.2328
  926MPD2    C213601   2.217   1.937  13.468 -0.3361  0.9085  0.8386
  926MPD2    C313602   2.336   1.886  13.410  0.1840  0.5373 -0.5311
  926MPD2    C413603   2.373   1.764  13.434 -0.2929  0.1940 -0.2416
  926MPD2    C513604   2.297   1.685  13.515 -0.0137  0.6309 -0.2742
  926MPD2     H13605   2.189   2.041  13.456  1.4607  1.5088  1.7493
  926MPD2    H113606   2.457   1.715  13.386 -0.4658  1.6912 -2.1023
  926MPD2    H213607   2.115   1.656  13.624  0.0049  0.7001  1.9897
  926MPD2    H313608   2.329   1.584  13.536  0.0319  0.6871 -0.0664
  926MPD2     N13609   2.421   1.958  13.328  0.6886 -0.1092 -0.3328
  926MPD2    H513610   2.503   1.907  13.296  1.0062 -0.6659  1.3507
  926MPD2    N113611   2.015   1.915  13.594  0.6129  0.1359 -0.4863
  926MPD2    H713612   1.996   2.008  13.557  1.6253  0.0857 -1.1343
  927MPD2     C13613   1.948   4.018  17.190 -0.3313 -0.0907  0.1721
  927MPD2    C113614   2.010   3.962  17.296 -0.0144 -0.4860 -0.5735
  927MPD2    C213615   2.103   3.860  17.265  0.0898  0.3247 -0.0784
  927MPD2    C313616   2.121   3.813  17.140  0.1414  0.3295 -0.4370
  927MPD2    C413617   2.061   3.875  17.033  0.3743 -0.4829 -0.4693
  927MPD2    C513618   1.978   3.981  17.062  1.0030  0.7831  0.4169
  927MPD2     H13619   2.163   3.804  17.336 -1.4653  0.4094  1.3012
  927MPD2    H113620   2.076   3.846  16.930 -0.5072 -0.7429 -0.5194
  927MPD2    H213621   1.873   4.092  17.214  0.0303  0.3283 -0.0004
  927MPD2    H313622   1.943   4.040  16.978 -0.3575  0.7513  0.9509
  927MPD2     N13623   2.199   3.697  17.116  0.4419 -0.2567 -0.2777
  927MPD2    H513624   2.228   3.651  17.202 -1.8765  1.4870  1.4413
  927MPD2    N113625   1.993   4.010  17.433 -0.3621  0.4857 -0.5126
  927MPD2    H713626   1.935   4.092  17.442  1.4247  1.6828  0.0805
  928MPD2     C13627   4.454   2.550   1.036  0.2732  0.5080  0.0781
  928MPD2    C113628   4.574   2.617   1.030  0.3227  0.3338  0.1247
  928MPD2    C213629   4.630   2.632   0.904  0.3059 -0.1880  1.1103
  928MPD2    C313630   4.577   2.576   0.786  0.5355 -0.2374 -0.1200
  928MPD2    C413631   4.462   2.501   0.802 -0.2423  0.3824  0.5400
  928MPD2    C513632   4.404   2.487   0.921  0.5928  0.1231 -0.2358
  928MPD2     H13633   4.717   2.697   0.893  0.2900 -0.2794  0.4056
  928MPD2    H113634   4.411   2.463   0.715 -2.0533  0.2564  1.6584
  928MPD2    H213635   4.400   2.537   1.129  0.3868 -0.0982  0.0600
  928MPD2    H313636   4.307   2.439   0.930  0.4624 -0.0588 -2.6543
  928MPD2     N13637   4.623   2.620   0.651 -0.1122  0.6631  0.0371
  928MPD2    H513638   4.565   2.602   0.570  0.4187  1.1790 -0.4613
  928MPD2    N113639   4.626   2.665   1.150  0.0943  0.9026  0.2257
  928MPD2    H713640   4.575   2.636   1.234  0.6035  0.6156  0.4399
  929MPD2     C13641   0.639   2.876  10.569 -0.4567 -0.3470 -0.3251
  929MPD2    C113642   0.555   2.788  10.501 -0.3238 -0.3735 -0.2221
  929MPD2    C213643   0.480   2.836  10.396  1.0409  0.0966  0.3143
  929MPD2    C313644   0.492   2.965  10.357  0.5591  0.0634  0.1266
  929MPD2    C413645   0.574   3.050  10.421 -0.6995 -0.0095  0.2280
  929MPD2    C513646   0.647   3.004  10.526  0.3290 -0.4105  0.1761
  929MPD2     H13647   0.390   2.786  10.362  0.8209 -1.2913  2.9860
  929MPD2    H113648   0.586   3.150  10.384  0.8785 -0.8845 -1.5859
  929MPD2    H213649   0.699   2.846  10.654  1.9565  2.1733 -1.1150
  929MPD2    H313650   0.716   3.070  10.578 -0.1163  0.4413 -0.3053
  929MPD2     N13651   0.413   3.026  10.261  0.0636 -0.0721  0.0117
  929MPD2    H513652   0.415   3.127  10.255  0.6751  0.0008  1.4580
  929MPD2    N113653   0.545   2.654  10.550 -0.4229 -0.2438  0.1107
  929MPD2    H713654   0.618   2.628  10.616  0.0924 -0.7018 -0.6442
  930MPD2     C13655   1.590   0.139  13.897  0.1655 -0.5241 -0.2157
  930MPD2    C113656   1.706   0.077  13.898  0.2398  0.5897 -0.5482
  930MPD2    C213657   1.738   4.740  13.792 -0.0825 -1.3447  0.8918
  930MPD2    C313658   1.653   4.718  13.691 -0.4710 -0.6457 -0.3865
  930MPD2    C413659   1.535   0.039  13.684 -0.5827 -0.0089  0.1232
  930MPD2    C513660   1.498   0.119  13.796  0.6803  0.2652  0.0254
  930MPD2     H13661   1.838   4.700  13.783 -0.0851 -0.8616 -1.3072
  930MPD2    H113662   1.457   0.016  13.613  0.7831 -0.6631 -1.1733
  930MPD2    H213663   1.573   0.204  13.982 -1.8672  0.0620 -1.0622
  930MPD2    H313664   1.402   0.169  13.797  0.2089 -0.6368 -0.9085
  930MPD2     N13665   1.711   4.648  13.579  0.3000 -0.3692  0.1428
  930MPD2    H513666   1.659   4.646  13.491 -0.8845  0.3572  0.8307
  930MPD2    N113667   1.808   0.111  13.996  0.0003 -0.0799  0.5199
  930MPD2    H713668   1.787   0.194  14.049 -1.1788  1.7163 -2.7437
  931MPD2     C13669   2.424   3.791   0.299 -0.0816 -0.7185  0.0357
  931MPD2    C113670   2.291   3.825   0.325  0.3159 -0.0351 -0.0482
  931MPD2    C213671   2.240   3.778   0.446 -0.2163  0.7553  0.4575
  931MPD2    C313672   2.321   3.727   0.548  0.4276  0.2623  0.3835
  931MPD2    C413673   2.455   3.699   0.519  0.4620 -0.5806 -0.2557
  931MPD2    C513674   2.500   3.724   0.390 -0.4382  0.2231  0.1919
  931MPD2     H13675   2.138   3.804   0.468 -0.0456  1.6756  0.1648
  931MPD2    H113676   2.524   3.648   0.585  0.5283 -0.8569 -0.5383
  931MPD2    H213677   2.470   3.826   0.207 -1.6210  1.1605 -0.0278
  931MPD2    H313678   2.603   3.697   0.369 -0.6714 -0.0733 -0.5784
  931MPD2     N13679   2.272   3.682   0.677  0.0399 -0.0397  0.0691
  931MPD2    H513680   2.331   3.621   0.732  0.4935 -0.2028 -0.5966
  931MPD2    N113681   2.218   3.898   0.228  0.3836  0.5967 -0.2538
  931MPD2    H713682   2.262   3.916   0.138 -1.4899 -2.4593 -1.8063
  932MPD2     C13683   4.013   2.765  11.892 -0.1269  0.6947 -0.1509
  932MPD2    C113684   4.124   2.843  11.933  0.2713  0.5117  0.2703
  932MPD2    C213685   4.240   2.774  11.958  0.2245  0.2661  0.0450
  932MPD2    C313686   4.251   2.636  11.944  0.0669 -1.3281 -0.6206
  932MPD2    C413687   4.150   2.570  11.888  0.0091 -0.1459 -0.6693
  932MPD2    C513688   4.035   2.635  11.867  0.4054  0.9702 -0.8867
  932MPD2     H13689   4.326   2.830  11.992  1.8316 -1.0075 -1.9139
  932MPD2    H113690   4.150   2.463  11.872 -0.4926  0.3838 -4.1624
  932MPD2    H213691   3.917   2.807  11.864 -1.6732 -0.9733  2.7021
  932MPD2    H313692   3.951   2.589  11.817  0.9220 -0.5606 -0.3499
  932MPD2     N13693   4.350   2.559  12.000 -0.1509  0.2008  0.1145
  932MPD2    H513694   4.342   2.457  12.002 -2.7616  0.4100  0.3072
  932MPD2    N113695   4.115   2.981  11.962  0.1688  0.0040 -0.5186
  932MPD2    H713696   4.182   3.012  12.033 -0.3024 -1.0661  0.3971
  933MPD2     C13697   4.504   3.033   1.914 -0.6512  0.1074  0.1831
  933MPD2    C113698   4.482   3.019   1.777  0.1774 -0.0341 -0.1706
  933MPD2    C213699   4.387   3.101   1.716 -0.1245  0.0744 -0.0754
  933MPD2    C313700   4.314   3.191   1.792  0.3812  0.1818  0.2267
  933MPD2    C413701   4.320   3.190   1.929  0.3944  0.5896 -0.1295
  933MPD2    C513702   4.417   3.115   1.990  0.4679  0.1689  0.3312
  933MPD2     H13703   4.377   3.106   1.608 -3.2383 -0.8510  0.1826
  933MPD2    H113704   4.258   3.256   1.989  0.4882  0.3701  0.2101
  933MPD2    H213705   4.578   2.977   1.969  0.6179  1.2033 -0.4306
  933MPD2    H313706   4.444   3.127   2.094  0.7746  0.0665  0.2610
  933MPD2     N13707   4.229   3.279   1.722 -0.2691 -0.3511  0.1279
  933MPD2    H513708   4.224   3.265   1.622  1.2373  1.7767 -0.2328
  933MPD2    N113709   4.570   2.940   1.702  0.5161  0.2561 -0.2595
  933MPD2    H713710   4.648   2.898   1.751 -0.0952 -1.3070 -0.6263
  934MPD2     C13711   1.153   0.459   1.906 -0.2574  0.3931  0.0764
  934MPD2    C113712   1.225   0.356   1.856 -0.1468 -0.0595 -0.0720
  934MPD2    C213713   1.153   0.248   1.806 -0.1446  0.3764 -0.0416
  934MPD2    C313714   1.020   0.265   1.773 -0.0932  0.1799 -0.4542
  934MPD2    C413715   0.954   0.371   1.819 -1.0620  0.2918 -0.0309
  934MPD2    C513716   1.016   0.469   1.886 -0.1237  1.2536  0.4380
  934MPD2     H13717   1.204   0.159   1.773  0.0726  0.7190 -0.6340
  934MPD2    H113718   0.847   0.384   1.811 -1.2371 -0.0947  1.7047
  934MPD2    H213719   1.202   0.535   1.967  1.9097  0.2803 -1.5503
  934MPD2    H313720   0.959   0.556   1.915 -0.2321  1.2529  0.2291
  934MPD2     N13721   0.941   0.168   1.694 -0.3034  0.4797 -0.3033
  934MPD2    H513722   0.841   0.180   1.706 -0.3208 -1.7843  1.8682
  934MPD2    N113723   1.367   0.337   1.863  0.2667 -0.2738  0.5437
  934MPD2    H713724   1.394   0.246   1.828 -0.4186 -0.1105 -0.4160
  935MPD2     C13725   1.434   4.361   1.128  0.1507  0.1511 -0.5677
  935MPD2    C113726   1.310   4.326   1.077 -0.4279  0.5739 -0.5184
  935MPD2    C213727   1.201   4.397   1.128  0.3726  0.1384 -0.2592
  935MPD2    C313728   1.214   4.505   1.218 -0.7627 -0.1811  0.3437
  935MPD2    C413729   1.343   4.533   1.265 -0.4364 -1.0332  0.1213
  935MPD2    C513730   1.445   4.460   1.220 -0.7573  0.1325 -0.5217
  935MPD2     H13731   1.104   4.367   1.090  1.0069 -2.4105  0.1537
  935MPD2    H113732   1.356   4.612   1.337  1.3425  1.2366 -2.7130
  935MPD2    H213733   1.528   4.320   1.092 -0.4409  0.1310 -2.0752
  935MPD2    H313734   1.545   4.496   1.244 -1.2935  1.3292 -0.0914
  935MPD2     N13735   1.100   4.572   1.282 -0.0800 -0.0781 -0.5078
  935MPD2    H513736   1.118   4.643   1.352  0.0379 -1.4292  0.8140
  935MPD2    N113737   1.281   4.217   0.986  0.7587 -0.0621  0.0030
  935MPD2    H713738   1.181   4.211   0.970  0.9061  0.8292 -1.2181
  936MPD2     C13739   4.497   1.218  12.948 -0.2521 -0.8571  0.4465
  936MPD2    C113740   4.436   1.252  12.835 -0.1228  0.0976  0.0296
  936MPD2    C213741   4.466   1.372  12.779  0.6644  0.4819 -0.2270
  936MPD2    C313742   4.551   1.464  12.843  0.4984 -0.1028  0.7339
  936MPD2    C413743   4.630   1.425  12.946  0.1199  0.6232  0.4384
  936MPD2    C513744   4.604   1.294  12.992 -0.2982  0.3771 -0.1387
  936MPD2     H13745   4.424   1.405  12.684  0.9210 -0.0734 -0.5298
  936MPD2    H113746   4.705   1.489  12.991  0.9065 -0.3783  0.5384
  936MPD2    H213747   4.479   1.121  12.995 -1.8669 -1.8602 -2.2337
  936MPD2    H313748   4.655   1.261  13.082  1.0700 -0.7681 -1.3529
  936MPD2     N13749   4.574   1.590  12.781 -0.5610 -0.1665  0.4806
  936MPD2    H513750   4.655   1.644  12.810 -1.0368  0.3321  0.8965
  936MPD2    N113751   4.336   1.174  12.767  0.0326 -0.2054 -0.2833
  936MPD2    H713752   4.331   1.193  12.668 -2.1806  0.1769 -0.0881
  937MPD2     C13753   2.209   2.774  11.780  0.4508 -0.4201 -0.0338
  937MPD2    C113754   2.209   2.906  11.730  0.4531  0.4365  0.3356
  937MPD2    C213755   2.255   2.928  11.601 -0.1815 -0.2223 -0.3123
  937MPD2    C313756   2.315   2.817  11.533  1.0346  0.3265 -0.4034
  937MPD2    C413757   2.320   2.691  11.583 -0.2934 -0.5643 -0.2003
  937MPD2    C513758   2.266   2.671  11.708 -0.7250  0.1874 -0.5063
  937MPD2     H13759   2.238   3.021  11.547 -0.8761  0.3698  0.9120
  937MPD2    H113760   2.365   2.609  11.526 -0.2732 -0.2305 -0.6689
  937MPD2    H213761   2.179   2.755  11.883  0.2171 -2.1811 -0.4453
  937MPD2    H313762   2.269   2.576  11.759 -0.4439  1.2867  1.5568
  937MPD2     N13763   2.354   2.848  11.398  0.3968 -0.2647 -0.0925
  937MPD2    H513764   2.340   2.943  11.364  0.9873  0.7416  2.4309
  937MPD2    N113765   2.135   3.011  11.790  0.2646 -0.1726 -0.1578
  937MPD2    H713766   2.140   3.093  11.730  2.7148  0.6515  1.2094
  938MPD2     C13767   4.644   4.156   0.494 -0.0173 -0.0362  0.6337
  938MPD2    C113768   4.689   4.248   0.588  0.1605 -0.2396 -0.1447
  938MPD2    C213769   4.688   4.203   0.719 -0.3479  0.1516  0.0755
  938MPD2    C313770   4.640   4.073   0.761 -0.0355  0.2100 -0.4793
  938MPD2    C413771   4.602   3.987   0.661  0.4168  0.2529 -0.3751
  938MPD2    C513772   4.605   4.030   0.528  0.1004 -0.5817 -0.4025
  938MPD2     H13773   4.711   4.275   0.796 -1.6248  0.8392 -0.1930
  938MPD2    H113774   4.576   3.887   0.692  1.3723 -0.2462 -1.1592
  938MPD2    H213775   4.626   4.175   0.389  0.6291 -0.8321  0.3817
  938MPD2    H313776   4.567   3.969   0.446  1.0455 -1.4422 -0.2045
  938MPD2     N13777   4.617   4.029   0.896  0.8216 -0.1993 -0.4271
  938MPD2    H513778   4.571   3.940   0.915 -0.3252  0.4047 -0.3420
  938MPD2    N113779   4.743   4.377   0.549 -0.1388 -0.5606 -0.6792
  938MPD2    H713780   0.040   4.431   0.624  0.1559 -0.4341 -0.9293
  939MPD2     C13781   0.763   1.026   0.638  0.3932 -0.1423 -0.8905
  939MPD2    C113782   0.828   0.982   0.755  0.1232 -0.1566  0.5607
  939MPD2    C213783   0.926   0.883   0.748  0.2785 -0.6375 -0.2874
  939MPD2    C313784   0.962   0.830   0.625 -0.3522 -0.0392  0.1771
  939MPD2    C413785   0.901   0.867   0.509  0.1613 -0.0824  0.3656
  939MPD2    C513786   0.808   0.975   0.515  0.0309 -0.0299  0.5266
  939MPD2     H13787   0.983   0.848   0.833  1.5232  0.3274 -0.7183
  939MPD2    H113788   0.930   0.835   0.409  1.0552 -0.0010  0.6026
  939MPD2    H213789   0.684   1.099   0.641 -1.7409 -2.4907  0.1432
  939MPD2    H313790   0.773   1.016   0.421  2.6030  0.9494 -0.0207
  939MPD2     N13791   1.066   0.732   0.627 -0.2127 -0.1656 -0.2617
  939MPD2    H513792   1.104   0.704   0.717  1.3092  3.1878  0.1421
  939MPD2    N113793   0.789   1.048   0.869  0.3505  0.2721  0.3716
  939MPD2    H713794   0.717   1.118   0.853 -0.2759 -0.6796 -0.9512
  940MPD2     C13795   4.698   0.749  13.320  0.6290  0.2110 -0.1079
  940MPD2    C113796   0.049   0.848  13.287 -0.2259  0.6529  0.2404
  940MPD2    C213797   0.055   0.883  13.155  0.6401 -0.0968 -0.6209
  940MPD2    C313798   4.721   0.812  13.059 -0.9235  0.4354  0.2449
  940MPD2    C413799   4.631   0.717  13.101  0.0091  0.4102  0.0705
  940MPD2    C513800   4.621   0.695  13.231 -0.2106  0.8270  0.5068
  940MPD2     H13801   0.128   0.954  13.117 -0.9086  1.5310 -0.5712
  940MPD2    H113802   4.546   0.685  13.042 -1.1695  0.9882  1.4619
  940MPD2    H213803   4.676   0.731  13.425 -1.6367 -1.3380 -0.8584
  940MPD2    H313804   4.533   0.643  13.268 -0.1306  0.2656 -0.1015
  940MPD2     N13805   4.704   0.848  12.923  0.5726  0.3201  1.0256
  940MPD2    H513806   4.644   0.787  12.870 -0.0808 -1.1814  3.4974
  940MPD2    N113807   0.129   0.912  13.382  0.4555 -0.2185  0.0256
  940MPD2    H713808   0.184   0.992  13.354 -0.7058  1.2870  1.9944
  941MPD2     C13809   3.918   1.184  10.127 -0.4032 -0.1896  0.1446
  941MPD2    C113810   4.049   1.154  10.172  0.3279 -0.0356 -0.4233
  941MPD2    C213811   4.083   1.029  10.213  0.5590  0.9388  0.0214
  941MPD2    C313812   3.986   0.934  10.219 -0.2078 -0.0588  0.2399
  941MPD2    C413813   3.856   0.953  10.181  0.2167 -0.6294 -0.0464
  941MPD2    C513814   3.828   1.074  10.125  0.4433 -0.8935 -0.4702
  941MPD2     H13815   4.185   1.007  10.245 -0.4233 -1.7447  1.2492
  941MPD2    H113816   3.786   0.871  10.192 -1.3828  0.6537 -0.7805
  941MPD2    H213817   3.881   1.278  10.089  3.0650  0.7816 -0.8437
  941MPD2    H313818   3.725   1.092  10.097  0.2291  0.9331  1.4401
  941MPD2     N13819   4.007   0.804  10.264 -0.7542 -0.3546 -0.4744
  941MPD2    H513820   3.929   0.745  10.292 -1.2022  0.4846  0.0538
  941MPD2    N113821   4.152   1.246  10.182  0.2443 -0.2483  0.3017
  941MPD2    H713822   4.235   1.221  10.235 -0.5720 -1.8362  0.8425
  942MPD2     C13823   3.662   2.585   9.775  0.3307  0.1108 -0.2859
  942MPD2    C113824   3.756   2.640   9.684 -0.6436 -0.4110 -0.2521
  942MPD2    C213825   3.867   2.705   9.731 -0.4731 -0.1245 -0.2043
  942MPD2    C313826   3.879   2.729   9.869  1.1798 -0.0239 -0.3587
  942MPD2    C413827   3.783   2.680   9.955  0.6886  0.3358  0.0961
  942MPD2    C513828   3.680   2.609   9.905 -0.6410 -0.3516 -0.0875
  942MPD2     H13829   3.945   2.731   9.660  0.8026 -0.1849  1.1770
  942MPD2    H113830   3.786   2.694  10.062 -0.8593 -0.4253  0.2306
  942MPD2    H213831   3.590   2.516   9.734  0.4484  1.9585 -3.6763
  942MPD2    H313832   3.609   2.558   9.970  1.3241  1.2361  3.2944
  942MPD2     N13833   3.977   2.821   9.925 -0.0884 -0.2481  0.0032
  942MPD2    H513834   3.965   2.856  10.019  0.0842  1.2641 -0.5379
  942MPD2    N113835   3.749   2.628   9.541  0.1946  0.5055 -0.5533
  942MPD2    H713836   3.827   2.660   9.486 -0.5768  1.2237 -1.2273
  943MPD2     C13837   2.302   1.323  10.014  0.1541 -0.2057 -0.1263
  943MPD2    C113838   2.320   1.197  10.078 -0.4527 -0.1347 -0.3472
  943MPD2    C213839   2.396   1.194  10.192 -0.2832  0.0302  0.3299
  943MPD2    C313840   2.450   1.308  10.252 -0.3350  0.1202 -0.7681
  943MPD2    C413841   2.430   1.430  10.191 -0.5885 -0.4638  0.2030
  943MPD2    C513842   2.358   1.432  10.074 -0.6048 -0.0948  0.7440
  943MPD2     H13843   2.416   1.095  10.232 -2.1911 -0.7310 -0.5895
  943MPD2    H113844   2.464   1.525  10.232 -0.0402 -0.6080  0.0814
  943MPD2    H213845   2.257   1.335   9.916 -0.6578 -5.2727 -0.4143
  943MPD2    H313846   2.341   1.527  10.024 -0.7119 -0.4345  0.1347
  943MPD2     N13847   2.535   1.307  10.365 -0.1345 -0.3656  0.5259
  943MPD2    H513848   2.548   1.394  10.416  2.1193 -1.0257  1.0550
  943MPD2    N113849   2.266   1.085  10.014 -0.4648  0.1209 -0.3533
  943MPD2    H713850   2.208   1.112   9.936  0.8608  1.4279 -0.8868
  944MPD2     C13851   2.745   0.256  11.298 -0.5629  0.4780 -0.5684
  944MPD2    C113852   2.796   0.163  11.392  0.8395  0.1523 -0.1677
  944MPD2    C213853   2.744   0.170  11.517 -0.0758 -0.2156 -0.0702
  944MPD2    C313854   2.643   0.263  11.556 -0.1993  1.4229  0.2741
  944MPD2    C413855   2.595   0.353  11.463 -0.1876 -0.7365 -0.2503
  944MPD2    C513856   2.648   0.344  11.333 -0.2383  0.4613  0.1759
  944MPD2     H13857   2.785   0.105  11.594  1.1507 -0.7549 -1.1773
  944MPD2    H113858   2.505   0.408  11.487  0.9456  1.0969 -0.1987
  944MPD2    H213859   2.791   0.258  11.201 -1.1338  1.0747 -0.8301
  944MPD2    H313860   2.619   0.412  11.254 -0.7643  0.5482  0.4485
  944MPD2     N13861   2.610   0.256  11.698 -0.4310  0.3019  0.1785
  944MPD2    H513862   2.661   0.184  11.749  0.6189  0.3915 -0.7581
  944MPD2    N113863   2.903   0.078  11.357 -0.4256 -0.3269 -0.1386
  944MPD2    H713864   2.935   0.090  11.262  2.2531  0.2285  0.8186
    1TMC1    C113865   0.918   0.571  14.888  0.0833 -0.8461 -0.3295
    1TMC1    C213866   0.911   0.448  14.949 -0.2082  0.2188 -0.6784
    1TMC1    C313867   0.915   0.334  14.869 -0.6001 -0.6050 -0.4791
    1TMC1    C413868   0.933   0.580  14.750 -0.1984 -0.2917  0.1372
    1TMC1    C513869   0.944   0.461  14.682 -0.1000  0.4139  0.1205
    1TMC1    C613870   0.943   0.336  14.741 -0.6185  0.5579 -0.5034
    1TMC1     C13871   0.823   0.663  14.952  0.4235 -0.5443  0.2864
    1TMC1     O13872   0.806   0.657  15.071  0.1057  0.2701  0.2835
    1TMC1     H13873   0.867   0.431  15.046 -0.5628  1.7743 -0.5569
    1TMC1    H113874   0.953   0.678  14.707  0.2873 -1.9221 -3.2758
    1TMC1    H213875   0.960   0.243  14.686 -0.6330 -0.1486  0.6878
    1TMC1    C713876   1.010   0.476  14.555  0.0292 -0.1047  0.1607
    1TMC1    C813877   0.903   0.208  14.939  0.4078 -0.5130  0.1642
    1TMC1    O113878   1.111   0.413  14.532 -0.0206 -0.2341  0.4197
    1TMC1    O213879   0.975   0.171  15.029  0.0182 -0.3876  0.9790
    1TMC1    O313880   0.963   0.582  14.484 -0.1205  0.0052  0.2897
    1TMC1    H313881   0.875   0.608  14.518 -0.6435 -0.8668 -0.3971
    1TMC1    O513882   0.837   0.124  14.857 -0.3543  0.1245  0.1916
    1TMC1    H513883   0.780   0.179  14.800  0.5112  0.3030 -0.4864
    2MPD2     C13884   0.446   1.012  14.874  0.9694  0.0066 -0.0950
    2MPD2    C113885   0.524   1.005  14.762 -0.0840 -1.0264  0.2162
    2MPD2    C213886   0.633   0.919  14.757  0.4120  0.1737  0.5397
    2MPD2    C313887   0.663   0.842  14.865  0.2954  0.2867 -0.1892
    2MPD2    C413888   0.584   0.848  14.979 -0.0293 -0.2034  0.4986
    2MPD2    C513889   0.484   0.940  14.987  0.1745 -0.0859 -0.1425
    2MPD2     H13890   0.693   0.899  14.669 -0.7422 -0.8749 -0.0158
    2MPD2    H113891   0.613   0.804  15.074 -1.7582 -0.2415  1.0000
    2MPD2    H213892   0.364   1.082  14.877  1.2953  0.3844 -0.0722
    2MPD2    H313893   0.424   0.947  15.077  0.8876 -2.0467  0.4824
    2MPD2     N13894   0.770   0.745  14.856  0.0680  0.2305 -0.0911
    2MPD2    H513895   0.807   0.735  14.762  0.5616 -0.3277  0.1646
    2MPD2    N113896   0.478   1.085  14.656  0.2842 -0.5144  0.5176
    2MPD2    H713897   0.393   1.136  14.681  0.1981  0.7994 -2.3793
    3TMC2    C113898   0.497   1.220  14.457  0.4671  0.1690 -0.6325
    3TMC2    C213899   0.436   1.319  14.516  0.6061  0.7363 -0.2892
    3TMC2    C313900   0.441   1.441  14.453 -0.2550 -0.0607  0.1449
    3TMC2    C413901   0.560   1.230  14.333  0.4528 -0.0178  0.6866
    3TMC2    C513902   0.549   1.350  14.267  0.8158 -0.2479  0.2774
    3TMC2    C613903   0.486   1.457  14.324 -0.8125 -0.0334  0.6828
    3TMC2     C13904   0.536   1.105  14.535  0.8056  0.4026  0.0329
    3TMC2     O13905   0.628   1.037  14.483  0.2718  0.3708 -0.4674
    3TMC2     H13906   0.381   1.311  14.609 -0.6997  1.7727 -0.9847
    3TMC2    H113907   0.612   1.145  14.290  0.7933  0.6582 -0.2182
    3TMC2    H213908   0.463   1.545  14.265 -0.5568 -0.0129  0.6161
    3TMC2    C713909   0.635   1.372  14.155 -1.3927 -0.4480 -0.3370
    3TMC2    C813910   0.392   1.554  14.523 -0.6259 -0.4650 -0.0313
    3TMC2    O113911   0.726   1.289  14.141  0.1594 -0.4078 -0.1919
    3TMC2    O213912   0.307   1.550  14.610  0.6394 -0.2233 -0.2473
    3TMC2    O513913   0.498   1.631  14.534 -0.3757  0.3662 -0.5198
    3TMC2    H513914   0.574   1.603  14.479  1.2250  3.1889  0.2639
    4TMC2    C113915   0.665   2.281  13.940 -0.3375  0.2292 -0.2628
    4TMC2    C213916   0.721   2.371  13.859  0.1455  0.1857  0.4301
    4TMC2    C313917   0.834   2.335  13.795  0.1602 -0.1007 -1.2253
    4TMC2    C413918   0.717   2.156  13.961 -0.0148 -0.0208 -0.6275
    4TMC2    C513919   0.838   2.129  13.901 -0.4088  0.6737  0.0451
    4TMC2    C613920   0.898   2.225  13.821  0.0289  0.1637  0.0583
    4TMC2     C13921   0.556   2.325  14.020  0.0015  0.2956 -0.3260
    4TMC2     O13922   0.545   2.439  14.046  0.3220  0.0599 -0.7124
    4TMC2     H13923   0.665   2.455  13.819  0.2841 -0.3927 -0.9655
    4TMC2    H113924   0.680   2.093  14.041  2.4667 -2.7970 -1.6827
    4TMC2    H213925   0.979   2.192  13.757 -1.2317 -1.5868 -0.6243
    4TMC2    C713926   0.877   1.990  13.892  0.4048 -0.5900  0.2767
    4TMC2    C813927   0.891   2.412  13.683  0.2000  1.0730 -0.3166
    4TMC2    O113928   0.977   1.979  13.825 -0.4086  0.1228 -0.1943
    4TMC2    O213929   1.008   2.448  13.678  0.1425  0.1598 -0.8597
    4TMC2    O513930   0.822   2.367  13.572  0.2571 -0.0846  0.0775
    4TMC2    H513931   0.750   2.305  13.594  0.9410 -0.9439 -0.1093
    5MPD2     C13932   0.105   2.254  14.268  0.7446 -1.1879  0.3960
    5MPD2    C113933   0.132   2.142  14.194  0.5141 -0.2914 -0.0364
    5MPD2    C213934   0.253   2.138  14.123  0.6725 -0.1409  0.1132
    5MPD2    C313935   0.350   2.236  14.132  0.3422  1.0110 -0.1923
    5MPD2    C413936   0.322   2.346  14.211 -0.2716 -0.2513 -0.5385
    5MPD2    C513937   0.206   2.344  14.279  0.1599 -0.2200  0.2098
    5MPD2     H13938   0.284   2.055  14.060  0.8428 -0.5421  0.7268
    5MPD2    H113939   0.392   2.429  14.223  0.4255 -0.7239 -1.3233
    5MPD2    H213940   0.012   2.267  14.324 -0.6818 -3.4309 -1.4747
    5MPD2    H313941   0.182   2.428  14.344 -1.6441 -0.2044 -0.4979
    5MPD2     N13942   0.468   2.225  14.057 -0.5720 -0.4533 -0.3189
    5MPD2    H513943   0.474   2.134  14.013 -0.2138  1.1225 -3.5542
    5MPD2    N113944   0.034   2.039  14.192  0.6177 -0.7809 -0.2074
    5MPD2    H713945   4.680   2.060  14.211  1.3321  1.6353  0.7573
    6MPD1     C13946   4.372   3.142  13.434 -0.0178 -0.0423  0.5782
    6MPD1    C113947   4.260   3.087  13.363 -0.2479 -1.1184 -0.6877
    6MPD1    C213948   4.216   2.963  13.413  0.1488  0.1859  0.3895
    6MPD1    C313949   4.278   2.896  13.515  0.0974 -0.1557 -0.0053
    6MPD1    C413950   4.384   2.951  13.575 -0.0559 -1.1622  0.3939
    6MPD1    C513951   4.426   3.078  13.542 -0.3607  0.4314  0.0488
    6MPD1     H13952   4.125   2.931  13.362 -0.8475  1.3636  1.4297
    6MPD1    H113953   4.448   2.912  13.653  1.0854  1.7449  0.9351
    6MPD1    H213954   4.406   3.242  13.409 -1.4378  0.0689 -0.8782
    6MPD1    H313955   4.519   3.111  13.587  0.6271 -0.2237 -1.5269
    6MPD1     N13956   4.245   2.763  13.545  0.0112  0.4810 -0.1613
    6MPD1    H513957   4.286   2.727  13.630 -1.0719 -0.2746  0.0305
    6MPD1    N113958   4.184   3.167  13.275  0.0209  0.2376  0.2584
    6MPD1    H613959   4.124   3.128  13.203  1.4579 -0.5490 -0.5261
    6MPD1    H713960   4.250   3.225  13.223  1.3540  0.1132  1.8138
    7MPD2     C13961   4.133   2.304  14.156 -0.1249  0.1717 -0.0644
    7MPD2    C113962   4.173   2.236  14.047  0.2089  0.5299  0.0140
    7MPD2    C213963   4.219   2.111  14.060  0.4775 -0.0572  0.2560
    7MPD2    C313964   4.244   2.053  14.179  0.0608 -0.4250 -0.2833
    7MPD2    C413965   4.220   2.126  14.294 -0.9183 -0.2357 -0.2409
    7MPD2    C513966   4.160   2.250  14.283 -0.0894  0.2997 -0.0903
    7MPD2     H13967   4.255   2.056  13.974  0.0279  0.2037 -0.0988
    7MPD2    H113968   4.253   2.079  14.386  4.0209  1.6673 -1.0496
    7MPD2    H213969   4.101   2.407  14.142 -1.7620 -0.3551 -0.1310
    7MPD2    H313970   4.139   2.309  14.371  3.1641  0.2423  0.7333
    7MPD2     N13971   4.310   1.925  14.192 -0.0005  0.1333 -0.2183
    7MPD2    H513972   4.345   1.904  14.285 -0.1816 -1.3358 -0.4766
    7MPD2    N113973   4.155   2.281  13.910 -0.1548  0.1651 -0.0772
    7MPD2    H713974   4.179   2.211  13.841  1.6951  0.1475  0.5911
    8TMC3    C113975   4.466   1.772  14.100  0.4735  0.1530  0.6123
    8TMC3    C213976   4.559   1.860  14.142 -0.5426  0.1743  0.4353
    8TMC3    C313977   4.690   1.836  14.098 -0.1255 -0.3060  0.0616
    8TMC3    C413978   4.489   1.702  13.989  0.0131 -0.3319 -0.0041
    8TMC3    C513979   4.613   1.693  13.935  0.7487 -0.4944  0.1592
    8TMC3    C613980   4.716   1.763  13.983  0.1495 -0.5856  0.5664
    8TMC3     C13981   4.334   1.835  14.087  0.0741  0.1117  0.1384
    8TMC3     O13982   4.297   1.831  13.970 -0.6573  0.1323  0.0513
    8TMC3     H13983   4.548   1.922  14.230  0.5301 -1.6035  1.8261
    8TMC3    H113984   4.416   1.631  13.951 -1.3747  2.9450 -3.5770
    8TMC3    H213985   0.065   1.757  13.928  0.0012  1.8329  0.0632
    8TMC3    C713986   4.611   1.701  13.792 -0.4502 -0.2448 -0.7851
    8TMC3    C813987   0.063   1.906  14.156 -0.5318 -0.0137  0.9388
    8TMC3    O113988   4.703   1.667  13.721  0.4100 -0.0469  0.2611
    8TMC3    O213989   0.167   1.849  14.156 -0.6903  0.4238  0.1381
    9TMC3    C113990   4.149   2.555  13.536 -0.4409 -0.4499  0.1847
    9TMC3    C213991   4.146   2.445  13.459  1.1506 -0.6105  0.3805
    9TMC3    C313992   4.139   2.316  13.512 -1.0788 -0.9608  0.3938
    9TMC3    C413993   4.139   2.542  13.671  0.5413  0.9817 -0.0955
    9TMC3    C513994   4.115   2.421  13.728  0.4585  0.1522 -0.6804
    9TMC3    C613995   4.110   2.309  13.646  0.5162  0.0812  0.5986
    9TMC3     C13996   4.173   2.680  13.470 -0.6862  0.2082 -0.8624
    9TMC3     O13997   4.133   2.696  13.356  0.0511  0.7622 -0.0009
    9TMC3     H13998   4.174   2.455  13.355 -0.8704 -0.4208 -0.1310
    9TMC3    H113999   4.147   2.634  13.727  1.8692  0.9455 -0.2293
    9TMC3    H214000   4.070   2.217  13.687  0.8426 -0.0410  0.6445
    9TMC3    C714001   4.119   2.408  13.872  0.2092 -1.0223  0.5316
    9TMC3    C814002   4.228   2.219  13.454  0.4917 -0.0626 -0.4941
    9TMC3    O114003   4.097   2.509  13.942  0.4206 -0.3663  0.2463
    9TMC3    O214004   4.270   2.246  13.344  0.1273 -0.0731  0.3507
   10MPD2     C14005   4.541   1.824  13.527  0.3454  0.1542 -0.0738
   10MPD2    C114006   4.482   1.853  13.646 -0.9733 -0.0853  0.4510
   10MPD2    C214007   4.381   1.948  13.644  0.0168 -0.5514 -0.0007
   10MPD2    C314008   4.346   2.022  13.530  0.1142  0.6881  0.7586
   10MPD2    C414009   4.412   1.994  13.413  0.2347  0.8249 -0.1255
   10MPD2    C514010   4.508   1.894  13.418  0.3335 -0.3320  0.1784
   10MPD2     H14011   4.337   1.963  13.742  1.5019 -1.8787  0.8708
   10MPD2    H114012   4.384   2.038  13.318 -1.7244 -0.4781 -0.1453
   10MPD2    H214013   4.617   1.748  13.515 -1.1954 -1.6589  1.7308
   10MPD2    H314014   4.555   1.876  13.322  1.5900  0.7583  0.5934
   10MPD2     N14015   4.254   2.123  13.546  0.2998  0.1612 -0.6207
   10MPD2    H514016   4.196   2.111  13.628  0.3573  1.2312 -0.4272
   10MPD2    N114017   4.507   1.786  13.767  0.6480  0.3994 -0.1701
   10MPD2    H714018   4.454   1.808  13.851  0.9486  0.3033  0.0498
   11MPD2     C14019   0.825   1.488  13.949 -0.1028 -0.3954 -0.7598
   11MPD2    C114020   0.720   1.554  14.016  0.5667  0.3481 -0.5510
   11MPD2    C214021   0.711   1.690  14.012  0.1269 -0.3354 -0.2649
   11MPD2    C314022   0.804   1.762  13.940 -0.3663 -0.2428  0.5341
   11MPD2    C414023   0.910   1.699  13.874  0.5987  0.5829  0.2314
   11MPD2    C514024   0.923   1.563  13.889  0.3988 -0.0771  0.4120
   11MPD2     H14025   0.629   1.736  14.066  0.3355  1.9957 -1.9019
   11MPD2    H114026   0.989   1.753  13.823 -0.6343  0.8986 -1.3611
   11MPD2    H214027   0.822   1.380  13.942  1.0036 -0.4826  0.1192
   11MPD2    H314028   1.002   1.509  13.837 -0.3461  0.8407 -1.6689
   11MPD2     N14029   0.789   1.900  13.947 -0.4091  0.1817  0.8238
   11MPD2    H514030   0.706   1.934  13.995  0.5607  0.0025  2.6575
   11MPD2    N114031   0.622   1.495  14.099  0.0097 -0.1095  0.2170
   11MPD2    H714032   0.556   1.562  14.137 -2.5635 -1.5966 -1.6053
    1MPD1     C14033   3.922   2.073  17.506 -0.8016 -0.2744 -0.0891
    1MPD1    C114034   3.965   2.194  17.460  0.1100 -0.1028  0.5102
    1MPD1    C214035   3.865   2.273  17.399  0.0777  0.0455 -0.0869
    1MPD1    C314036   3.736   2.230  17.392  0.4827 -0.3570 -0.1614
    1MPD1    C414037   3.700   2.105  17.440 -0.3993 -0.1607 -0.0079
    1MPD1    C514038   3.795   2.022  17.492  0.4374  0.2143 -0.3382
    1MPD1     H14039   3.894   2.372  17.366 -0.5733  0.5291  0.7802
    1MPD1    H114040   3.595   2.081  17.447 -0.4680  0.4513  1.1484
    1MPD1    H214041   3.993   2.002  17.548 -1.1024 -1.2191 -1.1615
    1MPD1    H314042   3.772   1.922  17.528  2.3540 -0.0715  0.1075
    1MPD1     N14043   3.621   2.305  17.340 -0.0896 -0.6121 -0.8842
    1MPD1    H514044   3.531   2.258  17.332 -0.1902 -0.3322 -1.3533
    1MPD1    N114045   4.100   2.232  17.470 -0.8934 -0.4319  0.1656
    1MPD1    H614046   4.121   2.332  17.474  2.4118 -1.0735 -2.1585
    1MPD1    H714047   4.136   2.193  17.557  1.8377  1.1946 -0.2291
    2MPD1     C14048   3.015   2.855   0.132 -0.1534 -0.6315 -0.7112
    2MPD1    C114049   3.118   2.937   0.076 -0.0841 -0.8144 -0.0618
    2MPD1    C214050   3.178   2.889  17.732  0.4009 -0.6160 -0.6506
    2MPD1    C314051   3.166   2.756  17.679 -0.5123 -0.6270 -0.2752
    2MPD1    C414052   3.066   2.680  17.740 -0.0468  0.3897 -0.3498
    2MPD1    C514053   2.987   2.730   0.071 -0.1094 -0.2767 -0.5788
    2MPD1     H14054   3.250   2.955  17.684 -0.1308 -0.5664 -1.3846
    2MPD1    H114055   3.045   2.582  17.700 -1.4097  0.8035 -0.6333
    2MPD1    H214056   2.950   2.889   0.212  0.3964 -1.7883  0.2197
    2MPD1    H314057   2.907   2.670   0.111 -1.3213  1.5186 -0.3421
    2MPD1     N14058   3.240   2.717  17.563  0.0825  0.1567 -0.8470
    2MPD1    H514059   3.298   2.794  17.532  1.6200 -1.3174 -1.6584
    2MPD1    N114060   3.139   3.068   0.126  0.3159  0.0073 -0.2254
    2MPD1    H614061   3.232   3.105   0.107  1.3232 -2.5282 -0.2499
    2MPD1    H714062   3.135   3.070   0.228  0.0280 -2.3961 -0.1773
    3TMC3    C114063   3.321   2.589  17.391  0.1686 -0.3387  0.3447
    3TMC3    C214064   3.322   2.700  17.311  1.0592  0.6033 -0.0462
    3TMC3    C314065   3.430   2.709  17.222  0.2898 -0.0378 -0.1877
    3TMC3    C414066   3.403   2.480  17.359  0.1886  0.8382  0.2882
    3TMC3    C514067   3.501   2.496  17.265  0.1381  0.2940  0.6310
    3TMC3    C614068   3.512   2.612  17.197 -0.5591 -0.3242 -0.0577
    3TMC3     C14069   3.248   2.590  17.510  0.3241 -0.4233 -0.1361
    3TMC3     O14070   3.213   2.485  17.559  0.2850 -0.6244 -0.0354
    3TMC3     H14071   3.258   2.782  17.343 -2.1763 -2.0185  0.1850
    3TMC3    H114072   3.409   2.405  17.437 -0.4685  0.1549 -0.3141
    3TMC3    H214073   3.593   2.615  17.125  1.6489 -2.3738  2.3372
    3TMC3    C714074   3.632   2.436  17.297  0.1408 -0.0592 -0.3073
    3TMC3    C814075   3.479   2.834  17.167  0.3472  0.4066 -0.5473
    3TMC3    O114076   3.729   2.515  17.277  0.3496 -0.0873  0.6715
    3TMC3    O214077   3.598   2.845  17.133 -0.2797  0.5797  0.5245
    4MPD1     C14078   3.423   3.336  17.086  0.5008  0.0746 -0.0693
    4MPD1    C114079   3.539   3.259  17.105  0.6917  0.0051 -0.4339
    4MPD1    C214080   3.525   3.123  17.127  0.3449  0.8561 -0.3215
    4MPD1    C314081   3.401   3.066  17.146  0.0814 -0.2592 -0.2226
    4MPD1    C414082   3.288   3.148  17.130 -0.8483  0.2021  0.1834
    4MPD1    C514083   3.301   3.281  17.089  0.3289 -0.1737  0.5088
    4MPD1     H14084   3.614   3.064  17.141  1.1189  1.8542 -1.0937
    4MPD1    H114085   3.191   3.111  17.160 -0.8330  2.7774  3.4567
    4MPD1    H214086   3.422   3.444  17.072 -0.7724  0.1750  0.8167
    4MPD1    H314087   3.218   3.349  17.070 -0.5522 -0.9405  1.6662
    4MPD1     N14088   3.380   2.926  17.159 -0.5505  0.2861  0.3349
    4MPD1    H514089   3.283   2.900  17.172 -0.5074 -0.0292  0.0093
    4MPD1    N114090   3.666   3.325  17.085  0.7068  0.2857  0.5053
    4MPD1    H614091   3.735   3.258  17.119  2.2039  1.3492 -0.4273
    4MPD1    H714092   3.685   3.411  17.137  2.4424 -0.2040  0.7050
    1TCq1    O114093   0.413   2.461  12.367 -0.7438 -0.0463 -0.5197
    1TCq1    C114094   0.297   2.403  12.404 -0.7293  0.7141 -0.3209
    1TCq1    O214095   0.201   2.374  12.329  0.1967  0.8792 -0.2890
    1TCq1    C214096   0.271   2.426  12.543  0.6182  0.0743  0.6875
    1TCq1    C314097   0.363   2.391  12.642  0.6087 -0.4266 -0.1930
    1TCq1    C414098   0.317   2.382  12.771 -0.7290 -0.0638  0.4652
    1TCq1    C514099   0.203   2.455  12.810 -0.1337  0.6345  0.0881
    1TCq1    C614100   0.113   2.490  12.710 -0.2673 -0.5006  0.0227
    1TCq1    C714101   0.144   2.467  12.575  0.0779 -0.5817 -0.0120
    1TCq1    C814102   4.713   2.505  12.728 -0.0356 -0.8168 -0.3195
    1TCq1    O414103   4.639   2.518  12.631  0.1924  0.5207  0.7137
    1TCq1    C914104   0.419   2.342  12.871  1.2067  0.6227  0.3431
    1TCq1    O514105   0.530   2.291  12.827  0.2170 -0.2461 -0.2658
    1TCq1    O614106   0.386   2.300  12.984 -0.6309 -0.3397 -0.2145
    1TCq1    H114107   0.467   2.488  12.444 -0.7781 -1.2740 -0.0644
    1TCq1    H214108   0.452   2.339  12.607  0.0224 -0.3485 -1.7962
    1TCq1    H314109   0.181   2.460  12.916  1.4119 -0.8380  0.4938
    1TCq1    H414110   0.070   2.497  12.503 -1.5781 -2.6231  0.8395
    2MPD1     C14111   4.340   2.622  13.042 -0.0326  0.5149 -0.9128
    2MPD1    C114112   4.450   2.621  13.119  0.4254  0.5078  0.2019
    2MPD1    C214113   4.561   2.587  13.040  0.8761 -0.3415  0.3076
    2MPD1    C314114   4.557   2.543  12.912  0.2760 -0.0536  0.4812
    2MPD1    C414115   4.444   2.548  12.837  0.0749 -0.4652  0.5737
    2MPD1    C514116   4.333   2.587  12.908 -0.6925 -0.0077  0.1425
    2MPD1     H14117   4.657   2.602  13.087  1.4466  0.8799 -1.2353
    2MPD1    H114118   4.439   2.524  12.732  0.0757  3.5880 -0.3251
    2MPD1    H214119   4.243   2.632  13.089  0.1978 -0.0914 -0.2965
    2MPD1    H314120   4.233   2.583  12.865 -1.1140  0.9727  1.0163
    2MPD1     N14121   4.680   2.509  12.862 -0.0773 -0.0536  0.1372
    2MPD1    H514122   0.004   2.512  12.937  0.7471  2.1001 -0.6854
    2MPD1    N114123   4.448   2.613  13.261  0.4851  0.1605 -0.5858
    2MPD1    H614124   4.516   2.677  13.302 -1.9042  2.6134 -0.3850
    2MPD1    H714125   4.360   2.648  13.300  0.5866 -0.2344 -0.0108
    1TMC1    C114126   2.992   1.406   9.776 -0.9727  0.3693 -0.3132
    1TMC1    C214127   2.879   1.401   9.698 -0.8155 -0.3651  0.5848
    1TMC1    C314128   2.766   1.407   9.769 -0.1014  0.0931 -0.1228
    1TMC1    C414129   2.993   1.440   9.910 -0.6251 -0.1159  1.0168
    1TMC1    C514130   2.869   1.440   9.972  0.1499  0.3482  0.4720
    1TMC1    C614131   2.751   1.432   9.903  0.7236  0.1294 -0.0330
    1TMC1     C14132   3.123   1.422   9.704  0.5820  0.1976  0.0586
    1TMC1     O14133   3.119   1.396   9.586  0.2567 -0.7597 -0.3905
    1TMC1     H14134   2.888   1.386   9.591 -1.5344 -0.1162  0.4857
    1TMC1    H114135   3.078   1.432   9.978  1.5920 -0.5146 -1.8079
    1TMC1    H214136   2.651   1.452   9.940  0.6518  0.5873 -0.4770
    1TMC1    C714137   2.850   1.484  10.105 -0.5153 -0.1681 -0.1185
    1TMC1    C814138   2.648   1.392   9.687 -0.9524  0.0448  0.8910
    1TMC1    O114139   2.923   1.566  10.155  0.5313  0.1975  0.7287
    1TMC1    O214140   2.533   1.385   9.735  0.6072  0.4630 -0.8024
    1TMC1    O314141   2.791   1.385  10.174  0.6563  0.2023 -0.1318
    1TMC1    H314142   2.757   1.311  10.118  2.7783 -1.9460  1.4275
    1TMC1    O514143   2.675   1.470   9.579 -0.2596  0.2154 -0.6720
    1TMC1    H514144   2.761   1.518   9.573 -0.4603  0.7114  0.5386
    2MPD1     C14145   3.598   1.590   9.692  0.2153 -0.3715  0.0840
    2MPD1    C114146   3.536   1.650   9.794 -0.2537 -0.1135 -0.3042
    2MPD1    C214147   3.407   1.618   9.828 -0.2425 -0.0917  0.1179
    2MPD1    C314148   3.345   1.519   9.749 -1.1317 -0.2461  0.9749
    2MPD1    C414149   3.410   1.453   9.642 -0.1261 -0.2497 -0.5743
    2MPD1    C514150   3.536   1.491   9.621 -1.0606  0.2471 -0.4216
    2MPD1     H14151   3.349   1.674   9.900 -0.4390 -0.1666  0.0170
    2MPD1    H114152   3.363   1.366   9.599  3.4979 -2.8768  0.7930
    2MPD1    H214153   3.701   1.616   9.670  0.3897 -0.6490  0.5693
    2MPD1    H314154   3.598   1.448   9.544 -3.0009  1.6838 -2.7963
    2MPD1     N14155   3.215   1.487   9.783  0.5471  0.0703  0.2946
    2MPD1    H514156   3.184   1.518   9.875  1.1841  1.9858 -0.1368
    2MPD1    N114157   3.614   1.739   9.876 -0.0326 -0.0847 -0.1673
    2MPD1    H614158   3.558   1.814   9.915  2.7174  1.7375  0.2374
    2MPD1    H714159   3.692   1.780   9.826  0.6649 -0.2259  0.7950
    1MPD1     C14160   1.022   2.182  12.278  0.0128  0.0919 -0.0659
    1MPD1    C114161   1.042   2.274  12.374  0.0235  0.1121  0.1119
    1MPD1    C214162   1.137   2.373  12.356  0.6021  0.0071 -0.0341
    1MPD1    C314163   1.216   2.382  12.245 -0.4873 -0.4406 -0.4087
    1MPD1    C414164   1.184   2.294  12.141 -0.6381 -0.7234 -0.0014
    1MPD1    C514165   1.092   2.194  12.162 -0.1053  0.5221  0.1547
    1MPD1     H14166   1.149   2.436  12.444  0.3231  0.3773 -0.2619
    1MPD1    H114167   1.243   2.294  12.050 -0.4273  0.2674  0.1312
    1MPD1    H214168   0.961   2.093  12.291  1.0708 -0.5243  0.7171
    1MPD1    H314169   1.081   2.124  12.081 -0.3486  0.0021  0.6412
    1MPD1     N14170   1.311   2.484  12.228 -0.1780 -0.1166  0.3077
    1MPD1    H514171   1.303   2.551  12.304 -1.8932  0.7849 -0.6788
    1MPD1    N114172   0.976   2.263  12.502 -0.0163  0.0053 -0.0846
    1MPD1    H614173   0.880   2.230  12.498  0.1713 -0.5549  0.0775
    1MPD1    H714174   0.984   2.354  12.547 -1.2125 -0.6086  1.3547
    2MPD1     C14175   0.676   4.174  11.050 -0.6022 -0.4023  0.2096
    2MPD1    C114176   0.809   4.131  11.075  0.4384  0.2479 -0.2737
    2MPD1    C214177   0.847   4.008  11.023 -0.0651 -0.6345  0.8547
    2MPD1    C314178   0.753   3.934  10.947 -0.6558 -0.2033  0.5308
    2MPD1    C414179   0.627   3.985  10.928  0.3383  0.1082 -0.5172
    2MPD1    C514180   0.595   4.105  10.980  0.8538 -0.2967  0.7033
    2MPD1     H14181   0.944   3.969  11.049  0.2501 -2.1775 -2.6688
    2MPD1    H114182   0.558   3.939  10.859 -0.9760 -0.9857  1.5201
    2MPD1    H214183   0.653   4.272  11.092 -0.6182 -0.3760  0.1405
    2MPD1    H314184   0.497   4.147  10.961  1.4195  1.3460  1.4485
    2MPD1     N14185   0.780   3.808  10.889 -0.1479 -0.3047 -0.4108
    2MPD1    H514186   0.699   3.758  10.854 -1.0873  0.1651  1.0968
    2MPD1    N114187   0.907   4.220  11.109  0.5504 -0.2023  0.0403
    2MPD1    H614188   0.982   4.170  11.155 -0.4245 -2.6384 -0.9950
    2MPD1    H714189   0.872   4.283  11.181  0.2790  0.2675 -0.4969
    3MPD1     C14190   0.613   2.815  11.031 -0.2639  0.0803  0.0628
    3MPD1    C114191   0.714   2.869  11.109 -0.0312 -0.0584 -0.3128
    3MPD1    C214192   0.758   2.998  11.088 -0.0649  0.4600 -0.1585
    3MPD1    C314193   0.690   3.071  10.994 -0.6656 -1.0446 -0.5203
    3MPD1    C414194   0.588   3.021  10.920 -0.1277 -0.1506  0.0974
    3MPD1    C514195   0.540   2.897  10.952  0.9376  1.2961  0.2257
    3MPD1     H14196   0.842   3.044  11.139 -0.9522  1.5601  0.2845
    3MPD1    H114197   0.544   3.074  10.837  0.9612 -0.0883 -0.4347
    3MPD1    H214198   0.577   2.713  11.042 -1.0135  0.4761  1.3889
    3MPD1    H314199   0.449   2.859  10.908  0.5707  1.4991  0.7990
    3MPD1     N14200   0.753   3.195  10.971 -0.1357 -0.8361  0.0470
    3MPD1    H514201   0.836   3.212  11.027  0.1355 -0.8446 -0.3531
    3MPD1    N114202   0.786   2.783  11.199 -0.1563 -0.1383  0.1083
    3MPD1    H614203   0.720   2.720  11.245  1.3512 -1.5895  0.2489
    3MPD1    H714204   0.840   2.834  11.268 -1.5122 -0.1582  1.2030
    4MPD2     C14205   1.286   3.191  11.976 -0.2834  0.5746  0.6391
    4MPD2    C114206   1.405   3.124  11.958 -0.1882 -0.0455  0.0105
    4MPD2    C214207   1.479   3.162  11.853  0.6710  0.1787 -0.0825
    4MPD2    C314208   1.444   3.263  11.764 -0.4237 -0.6448  0.3982
    4MPD2    C414209   1.318   3.317  11.775  0.0980 -0.2341 -0.0965
    4MPD2    C514210   1.243   3.279  11.880 -0.0924 -0.0950 -0.3065
    4MPD2     H14211   1.567   3.100  11.841  1.1910  1.4298 -2.6410
    4MPD2    H114212   1.281   3.401  11.718  0.7168  0.7353  0.9303
    4MPD2    H214213   1.211   3.164  12.049 -0.6970 -0.5156 -0.1901
    4MPD2    H314214   1.143   3.322  11.878 -0.0077  0.0989 -0.3128
    4MPD2     N14215   1.534   3.311  11.662  0.9980  0.2516  0.3454
    4MPD2    H514216   1.502   3.389  11.605 -0.3429 -1.6347 -1.4973
    4MPD2    N114217   1.456   3.024  12.032  0.1253 -0.1348  0.4461
    4MPD2    H714218   1.552   3.000  12.008 -0.2654  1.1657 -2.4916
    5TMC3    C114219   1.474   2.848  12.189  0.2441 -0.1877 -0.0876
    5TMC3    C214220   1.397   2.737  12.179 -0.0871  0.0093  0.2925
    5TMC3    C314221   1.454   2.630  12.099  0.4149  0.1284  0.0346
    5TMC3    C414222   1.606   2.849  12.143 -0.8563  0.5477 -1.4686
    5TMC3    C514223   1.653   2.746  12.070  0.5540 -0.3073 -0.0881
    5TMC3    C614224   1.578   2.645  12.044  0.2094 -0.6859 -0.3678
    5TMC3     C14225   1.398   2.960  12.136 -0.1505 -0.5773  0.0217
    5TMC3     O14226   1.277   2.971  12.165  0.0365 -0.3569 -0.1375
    5TMC3     H14227   1.293   2.742  12.209 -0.4526 -1.2039 -0.7538
    5TMC3    H114228   1.665   2.935  12.169 -0.3091 -0.3843  0.3888
    5TMC3    H214229   1.609   2.559  11.986  0.2789 -1.1356  0.3338
    5TMC3    C714230   1.729   2.801  11.956 -0.8064 -0.6516 -1.3421
    5TMC3    C814231   1.401   2.496  12.120 -0.4168  0.6211 -0.4048
    5TMC3    O114232   1.709   2.925  11.945  0.3780  0.4221 -0.0082
    5TMC3    O214233   1.453   2.406  12.053  0.2515  0.2818 -0.4199
    6TMC3    C114234   0.899   3.609  10.819  0.0372  0.2009  0.0198
    6TMC3    C214235   0.797   3.521  10.839  0.4059 -0.3791 -0.2258
    6TMC3    C314236   0.830   3.388  10.864  0.2336  0.1906 -0.2555
    6TMC3    C414237   1.030   3.560  10.812  0.2063 -0.0857  0.9597
    6TMC3    C514238   1.055   3.428  10.804 -0.0037  0.2381 -0.6793
    6TMC3    C614239   0.954   3.340  10.843 -0.3572 -1.3122 -0.6135
    6TMC3     C14240   0.901   3.742  10.884 -0.0927  0.7245  0.7975
    6TMC3     O14241   1.006   3.781  10.938 -0.4750  0.1875  0.4222
    6TMC3     H14242   0.696   3.556  10.858  0.8196  0.1967  0.9278
    6TMC3    H114243   1.109   3.634  10.807 -0.2633  0.4905  2.2240
    6TMC3    H214244   0.974   3.234  10.856  0.4305 -1.1374 -0.4329
    6TMC3    C714245   1.182   3.400  10.856 -0.4789 -0.3086  0.5702
    6TMC3    C814246   0.721   3.291  10.880  0.0109 -0.5974  0.2650
    6TMC3    O114247   1.185   3.386  10.979  0.2500  0.3369 -0.1501
    6TMC3    O214248   0.609   3.315  10.831 -0.4761  0.3923  0.2688
    7MPD2     C14249   1.967   2.794  11.497 -0.0390  0.8151 -0.6073
    7MPD2    C114250   1.900   2.893  11.569  0.8817  0.1525  0.6204
    7MPD2    C214251   1.844   2.874  11.691 -0.6023  0.0298  0.4798
    7MPD2    C314252   1.868   2.753  11.752  0.7112  0.3126  0.6148
    7MPD2    C414253   1.924   2.645  11.676 -0.3056 -0.0230 -0.2115
    7MPD2    C514254   1.978   2.665  11.547 -0.3388  0.3646 -0.4540
    7MPD2     H14255   1.801   2.955  11.749 -2.1853 -0.4626 -0.0296
    7MPD2    H114256   1.927   2.550  11.728  0.5153  0.2216  0.1885
    7MPD2    H214257   2.007   2.809  11.397 -0.0180  0.9626 -0.5769
    7MPD2    H314258   2.042   2.594  11.496 -0.4117  0.1188 -0.2045
    7MPD2     N14259   1.803   2.717  11.874  0.0361 -0.4345  1.6258
    7MPD2    H514260   1.818   2.623  11.910  0.8748 -0.9045  0.0357
    7MPD2    N114261   1.891   3.026  11.522  0.3759  0.7530  0.0055
    7MPD2    H714262   1.830   3.082  11.581  0.3445  0.5776  0.1396
    8TMC3    C114263   1.884   3.206  11.378  0.1532  0.0492  0.2796
    8TMC3    C214264   1.796   3.205  11.280  0.3293  0.8080 -0.6703
    8TMC3    C314265   1.669   3.256  11.302 -0.5124  0.1508  0.8732
    8TMC3    C414266   1.850   3.267  11.501  0.4716 -0.9661 -0.0520
    8TMC3    C514267   1.723   3.319  11.517 -0.1807  0.0110 -0.1851
    8TMC3    C614268   1.632   3.312  11.420  0.4209  0.3660 -0.1910
    8TMC3     C14269   1.927   3.071  11.401  0.0097 -0.5053  0.3440
    8TMC3     O14270   1.999   3.029  11.309 -0.3505  0.0037  0.1128
    8TMC3     H14271   1.813   3.156  11.185  1.8992  1.7845 -0.8816
    8TMC3    H114272   1.927   3.272  11.578 -0.9559 -0.3327  1.3314
    8TMC3    H214273   1.530   3.348  11.423 -0.5787 -2.6517  1.4344
    8TMC3    C714274   1.665   3.282  11.651 -0.1394  0.4488 -0.9456
    8TMC3    C814275   1.582   3.290  11.185  0.1401  0.5175 -0.5576
    8TMC3    O114276   1.735   3.203  11.712 -0.3614 -0.0675  0.0608
    8TMC3    O214277   1.471   3.339  11.218 -0.1255  0.1070 -0.1862
    9MPD2     C14278   1.689   3.365  10.844 -0.3274 -0.1758  0.4078
    9MPD2    C114279   1.594   3.336  10.941  0.1267  0.5915  0.4173
    9MPD2    C214280   1.465   3.357  10.918 -0.1893  1.2066  0.3024
    9MPD2    C314281   1.425   3.400  10.795 -0.4493  0.3329 -0.6833
    9MPD2    C414282   1.521   3.424  10.702 -0.7657 -0.2559 -0.1431
    9MPD2    C514283   1.650   3.412  10.726 -0.0756 -0.5544  0.5701
    9MPD2     H14284   1.403   3.353  11.007  1.2245  0.6649  1.2593
    9MPD2    H114285   1.486   3.435  10.600  1.1268 -0.3518 -0.7983
    9MPD2    H214286   1.795   3.343  10.853 -0.5454 -1.0568  0.7974
    9MPD2    H314287   1.717   3.405  10.642 -0.4685  2.4957 -0.0142
    9MPD2     N14288   1.285   3.428  10.765 -0.5596  0.3337 -0.2856
    9MPD2    H514289   1.258   3.462  10.674 -0.7271 -1.8345 -1.0378
    9MPD2    N114290   1.649   3.277  11.062  0.4155  0.2188  0.2329
    9MPD2    H714291   1.744   3.243  11.069  0.5730  0.1764 -1.8565
    1MPD1     C14292   0.456   1.589  16.994 -0.0200  0.4586  1.1208
    1MPD1    C114293   0.555   1.610  16.904 -0.1546  0.5767 -0.9336
    1MPD1    C214294   0.540   1.707  16.800  0.2163  0.1747  0.0001
    1MPD1    C314295   0.418   1.771  16.784  0.3833 -0.3814  0.1439
    1MPD1    C414296   0.321   1.741  16.875 -0.2840  0.1566  0.3448
    1MPD1    C514297   0.332   1.648  16.975  0.1187  0.1377  0.2801
    1MPD1     H14298   0.623   1.720  16.730  1.5371  0.2989  1.5900
    1MPD1    H114299   0.223   1.789  16.874 -0.9131 -1.1153  1.2620
    1MPD1    H214300   0.468   1.522  17.078  0.8594  0.5771  1.0868
    1MPD1    H314301   0.252   1.628  17.046  0.8717  1.8597  1.6077
    1MPD1     N14302   0.393   1.853  16.672  0.4115  0.2353  0.3124
    1MPD1    H514303   0.294   1.869  16.653  0.7804  0.5742 -1.3092
    1MPD1    N114304   0.681   1.550  16.924  0.4108 -0.2309  0.3281
    1MPD1    H614305   0.724   1.527  16.835  0.1441 -0.2091  0.1967
    1MPD1    H714306   0.665   1.466  16.979  1.0653  1.9651  3.8832
    2TMC2    C114307   0.493   2.028  16.241  0.2269 -0.2698 -0.3579
    2TMC2    C214308   0.373   1.988  16.193  0.4003  0.1682  0.3551
    2TMC2    C314309   0.286   1.924  16.276 -0.2253  0.3997  0.6978
    2TMC2    C414310   0.527   2.012  16.368 -0.4856 -0.1928 -0.1856
    2TMC2    C514311   0.435   1.961  16.459  0.3791  0.1229  0.7789
    2TMC2    C614312   0.308   1.915  16.407 -0.4012  0.3136 -0.8562
    2TMC2     C14313   0.524   2.170  16.215 -0.0191  0.2393  0.0974
    2TMC2     O14314   0.552   2.244  16.306  0.7619  0.7683  0.0575
    2TMC2     H14315   0.338   2.033  16.101  2.3988 -0.6128 -0.7639
    2TMC2    H114316   0.621   2.050  16.407  0.7423 -2.1208 -1.3037
    2TMC2    H214317   0.234   1.858  16.461  0.3121  1.7362  1.6462
    2TMC2    C714318   0.486   1.889  16.571 -0.3796 -1.1616 -0.2073
    2TMC2    C814319   0.152   1.918  16.223  0.0850  0.2685  0.0749
    2TMC2    O114320   0.608   1.868  16.575 -0.5987 -0.2819 -0.1351
    2TMC2    O214321   0.050   1.958  16.279 -0.2327  0.1729 -0.2248
    2TMC2    O514322   0.155   1.877  16.097  0.5492  0.0374  0.1781
    2TMC2    H514323   0.242   1.845  16.066  0.9723  2.4313 -1.1823
    3MPD1     C14324   0.532   2.558  15.885 -0.4984  0.0065  0.4065
    3MPD1    C114325   0.567   2.443  15.823 -0.4122 -0.6043 -0.4863
    3MPD1    C214326   0.562   2.330  15.895 -0.3723 -0.4525 -0.3782
    3MPD1    C314327   0.533   2.324  16.026 -0.1138  0.1047 -0.4245
    3MPD1    C414328   0.514   2.443  16.093 -0.2616  0.4622  0.1180
    3MPD1    C514329   0.507   2.557  16.018  0.0265  0.1132 -0.0097
    3MPD1     H14330   0.576   2.242  15.833  3.8580  0.3414 -0.5864
    3MPD1    H114331   0.503   2.453  16.201 -3.8062  1.0654 -0.3137
    3MPD1    H214332   0.546   2.655  15.839  0.7443 -1.0298 -1.3968
    3MPD1    H314333   0.497   2.650  16.073  2.1888 -0.2085  0.9314
    3MPD1     N14334   0.540   2.196  16.083  0.0623 -0.3095  1.0105
    3MPD1    H514335   0.546   2.116  16.020 -2.3661  2.1641 -2.3970
    3MPD1    N114336   0.589   2.448  15.683 -0.0213  0.9897  0.0285
    3MPD1    H614337   0.638   2.363  15.653  1.4452  2.1333 -0.8517
    3MPD1    H714338   0.611   2.538  15.640 -0.0586  0.0110 -2.0737
    1TMC1    C114339   3.927   0.564  13.620  0.5890  1.1007  0.0753
    1TMC1    C214340   4.000   0.555  13.733 -0.0623 -0.3457  0.0463
    1TMC1    C314341   3.930   0.509  13.844  0.3674 -0.3792  0.4684
    1TMC1    C414342   3.795   0.547  13.614 -0.4095 -0.6665  0.2244
    1TMC1    C514343   3.727   0.509  13.729 -0.0312  0.2966 -0.6195
    1TMC1    C614344   3.792   0.504  13.843  0.1453  0.3062  0.2553
    1TMC1     C14345   3.989   0.637  13.510 -0.1586 -0.3226 -0.8931
    1TMC1     O14346   3.948   0.604  13.401  0.4859 -0.1100 -0.2963
    1TMC1     H14347   4.108   0.560  13.730  0.0298 -1.2141  1.7862
    1TMC1    H114348   3.752   0.554  13.515  2.0750  0.1947 -0.7955
    1TMC1    H214349   3.750   0.473  13.938  1.0419 -1.9784 -0.0955
    1TMC1    C714350   3.585   0.524  13.727 -0.4497  0.0822  0.2982
    1TMC1    C814351   3.992   0.452  13.958  0.9864 -0.2216 -0.1360
    1TMC1    O114352   3.535   0.555  13.837 -0.3222 -0.1613 -0.0014
    1TMC1    O214353   3.934   0.424  14.063  0.3890  0.3924 -0.0595
    1TMC1    O314354   3.538   0.437  13.637  0.2142 -0.4723 -0.1686
    1TMC1    H314355   3.606   0.406  13.573 -0.6383 -1.7402 -0.4462
    1TMC1    O514356   4.126   0.463  13.952 -0.3133  0.2965 -0.1291
    1TMC1    H514357   4.162   0.459  13.861 -0.8069  0.8017 -0.3473
    2MPD2     C14358   4.164   0.780  13.312  0.3168 -0.7035  0.6735
    2MPD2    C114359   4.174   0.792  13.452 -0.1433  0.4467 -0.6020
    2MPD2    C214360   4.269   0.877  13.501 -0.1910  0.0720  0.1357
    2MPD2    C314361   4.353   0.945  13.419 -0.3292  0.5486 -0.0737
    2MPD2    C414362   4.344   0.923  13.287  0.0442 -0.0009  0.4736
    2MPD2    C514363   4.255   0.840  13.232 -0.0633 -0.3244 -0.0796
    2MPD2     H14364   4.270   0.892  13.608  1.0446  0.0702  0.1207
    2MPD2    H114365   4.419   0.967  13.222  1.1400 -0.6558  1.2920
    2MPD2    H214366   4.089   0.719  13.264  0.5078 -0.5781  0.2194
    2MPD2    H314367   4.249   0.816  13.126  0.6860  4.4036 -1.1594
    2MPD2     N14368   4.443   1.038  13.476  0.3510 -0.9361  0.1761
    2MPD2    H514369   4.462   1.027  13.575 -1.5442  2.0086  0.8842
    2MPD2    N114370   4.087   0.733  13.545 -0.3707 -0.6124  0.1242
    2MPD2    H714371   4.108   0.744  13.644  1.6714  0.5125 -0.4413
    3TCq1    O114372   0.014   1.555  13.346  0.1056 -0.2363  0.2957
    3TCq1    C114373   0.073   1.504  13.457  0.9508 -0.0305 -0.2990
    3TCq1    O214374   0.188   1.541  13.489  0.2538  0.6409  0.3247
    3TCq1    C214375   0.016   1.380  13.506  0.0891  0.4727 -0.2586
    3TCq1    C314376   0.045   1.338  13.637 -0.3294  0.0541  0.1356
    3TCq1    C414377   4.722   1.234  13.686 -1.0405  0.5683 -0.2748
    3TCq1    C514378   4.634   1.165  13.612 -0.4510 -0.2250 -0.7846
    3TCq1    C614379   4.613   1.208  13.482 -0.4474  0.3486  0.1204
    3TCq1    C714380   4.673   1.312  13.428  0.4655 -0.3215 -0.2477
    3TCq1    C814381   4.508   1.132  13.402 -0.4241  0.1018 -0.0770
    3TCq1    O414382   4.501   1.157  13.280 -0.1981 -0.3681  0.3587
    3TCq1    C914383   0.026   1.181  13.809  0.0661 -0.1663  0.3186
    3TCq1    O514384   0.098   1.259  13.881 -0.3245  0.2163 -0.0254
    3TCq1    O614385   4.708   1.073  13.852  0.2605 -0.3093 -0.5024
    3TCq1    H114386   4.663   1.537  13.329 -0.1434  1.6738 -0.2870
    3TCq1    H214387   0.112   1.396  13.700  0.5450  0.3849 -1.0972
    3TCq1    H314388   4.597   1.071  13.652  2.3201 -1.0253 -0.1302
    3TCq1    H414389   4.639   1.339  13.328 -1.2370  0.2002  0.4757
    1MPD2     C14390   3.490   1.822  15.069 -0.9675 -0.3191 -0.3875
    1MPD2    C114391   3.402   1.793  14.960  0.6585  0.1520  0.0149
    1MPD2    C214392   3.330   1.674  14.963 -0.6638  0.5309  0.2092
    1MPD2    C314393   3.363   1.582  15.057  0.0926 -0.0566  0.0815
    1MPD2    C414394   3.453   1.601  15.154  0.8055  0.6751 -0.0161
    1MPD2    C514395   3.520   1.725  15.164 -0.1448  0.0702  0.3210
    1MPD2     H14396   3.264   1.644  14.881  0.8635 -2.0857 -0.0660
    1MPD2    H114397   3.470   1.532  15.237  3.7313  1.2610 -0.1078
    1MPD2    H214398   3.534   1.922  15.074  0.1198 -0.8112 -0.0536
    1MPD2    H314399   3.591   1.744  15.244 -0.6845  0.6731  0.6596
    1MPD2     N14400   3.272   1.469  15.050 -0.9452  0.3795  0.7200
    1MPD2    H514401   3.210   1.470  14.970 -0.1005  2.6439  0.0857
    1MPD2    N114402   3.378   1.891  14.861  0.0059 -0.3586 -0.3976
    1MPD2    H714403   3.433   1.976  14.866  0.6176 -0.8425  1.1568
    2TMC3    C114404   3.259   2.004  14.682 -0.0148 -0.1409 -0.7437
    2TMC3    C214405   3.166   1.977  14.588 -0.1595 -0.9089 -0.2995
    2TMC3    C314406   3.076   2.069  14.558 -0.1617  0.2994  0.6977
    2TMC3    C414407   3.248   2.123  14.748 -0.4621 -0.2558  0.4419
    2TMC3    C514408   3.179   2.226  14.691 -0.7252 -0.1234 -0.0126
    2TMC3    C614409   3.083   2.199  14.598 -0.0049 -0.7947  0.1300
    2TMC3     C14410   3.271   1.886  14.773  0.3732  0.0316  0.3983
    2TMC3     O14411   3.191   1.798  14.753 -0.4490  0.0716 -0.4380
    2TMC3     H14412   3.169   1.884  14.532 -2.0519 -0.0600 -1.8002
    2TMC3    H114413   3.316   2.138  14.831  1.8402 -1.5610 -1.1959
    2TMC3    H214414   3.005   2.271  14.579 -1.1827 -2.3005 -0.7347
    2TMC3    C714415   3.217   2.363  14.715  0.0859 -0.2488  0.5728
    2TMC3    C814416   2.950   2.014  14.553  0.3572  0.7225  0.6961
    2TMC3    O114417   3.256   2.396  14.828  0.0298  0.1805 -0.2443
    2TMC3    O214418   2.858   2.086  14.530 -0.1622 -0.1293  0.4188
    3TCq1    O114419   3.475   2.680  13.676  0.0687  0.3064 -0.2653
    3TCq1    C114420   3.432   2.813  13.692 -0.0630 -0.6734 -0.2853
    3TCq1    O214421   3.455   2.902  13.612 -0.4647  0.3774 -0.1568
    3TCq1    C214422   3.457   2.827  13.835  0.4244 -0.9878  0.6341
    3TCq1    C314423   3.566   2.903  13.863 -0.4965  0.6589 -0.1855
    3TCq1    C414424   3.606   2.914  13.992 -0.0597  0.0389  0.1657
    3TCq1    C514425   3.548   2.845  14.090  0.0510  0.2198 -0.3337
    3TCq1    C614426   3.441   2.771  14.060  0.0998  0.0203  0.0283
    3TCq1    C714427   3.395   2.757  13.932 -0.1121 -0.4084  0.3760
    3TCq1    C814428   3.360   2.715  14.162  0.0131  0.0633  0.2110
    3TCq1    O414429   3.286   2.617  14.137 -0.7328 -0.3158 -0.8860
    3TCq1    C914430   3.713   3.000  14.034 -0.3989 -0.6849  0.0071
    3TCq1    O514431   3.763   2.975  14.150  0.1964 -0.0139  0.0685
    3TCq1    O614432   3.769   3.076  13.953 -0.0927  0.5152  0.2044
    3TCq1    H114433   3.440   2.609  13.733  1.6163 -0.5592 -0.4073
    3TCq1    H214434   3.621   2.961  13.790  0.2620 -0.9081 -0.8518
    3TCq1    H314435   3.586   2.848  14.192 -2.0325 -2.5984  0.5227
    3TCq1    H414436   3.305   2.701  13.907 -0.8592  2.9879 -4.4877
    4MPD2     C14437   3.351   2.818  14.521  0.7741  0.3971 -0.4538
    4MPD2    C114438   3.338   2.737  14.411 -0.6906  0.3126  0.1130
    4MPD2    C214439   3.286   2.608  14.436  0.5379 -0.1170  0.3548
    4MPD2    C314440   3.277   2.560  14.569  0.1191 -0.0763  0.6185
    4MPD2    C414441   3.306   2.649  14.671 -0.0468 -0.8718  0.1081
    4MPD2    C514442   3.336   2.774  14.651 -0.2029  0.7164  0.0220
    4MPD2     H14443   3.282   2.551  14.344  0.1918 -1.0372  0.9358
    4MPD2    H114444   3.297   2.611  14.772 -1.7447 -0.4932  0.0920
    4MPD2    H214445   3.380   2.922  14.512  0.6944  0.3586 -1.1652
    4MPD2    H314446   3.358   2.845  14.731  2.1324  0.1301 -0.1010
    4MPD2     N14447   3.224   2.429  14.594  0.2597  0.4948 -0.0822
    4MPD2    H514448   3.192   2.375  14.514 -0.3181  2.8151 -1.4208
    4MPD2    N114449   3.372   2.783  14.282 -0.4315 -0.2441  0.0294
    4MPD2    H714450   3.417   2.874  14.284 -0.0678 -0.4151 -0.4232
    5TMC2    C114451   2.911   1.387  15.006 -0.7553  0.5675 -0.4195
    5TMC2    C214452   2.835   1.371  15.121  0.1201 -0.7711  0.0861
    5TMC2    C314453   2.902   1.331  15.234  0.1494 -0.2122  0.2477
    5TMC2    C414454   3.047   1.352  15.012 -0.2377  0.5763 -1.0145
    5TMC2    C514455   3.116   1.316  15.125  0.8267 -0.2451 -0.2099
    5TMC2    C614456   3.036   1.300  15.235 -0.0710 -0.1080 -0.3551
    5TMC2     C14457   2.902   1.519  14.951 -0.0169 -0.6198 -0.7632
    5TMC2     O14458   2.996   1.589  14.978 -0.0350 -0.0504  0.0338
    5TMC2     H14459   2.738   1.417  15.129 -0.2511 -1.4347 -0.5952
    5TMC2    H114460   3.115   1.355  14.928  2.0354 -2.0493  0.7189
    5TMC2    H214461   3.083   1.298  15.333 -1.6024 -2.0619  0.3407
    5TMC2    C714462   3.237   1.388  15.156 -0.3933  0.3039 -0.4732
    5TMC2    C814463   2.834   1.337  15.358  0.1232 -0.4420  0.1060
    5TMC2    O114464   3.283   1.387  15.274 -0.5982 -0.7217  0.9794
    5TMC2    O214465   2.731   1.400  15.368 -0.5309 -0.8381  0.4594
    5TMC2    O514466   2.876   1.233  15.436 -0.3329  0.0968  0.1521
    5TMC2    H514467   2.947   1.188  15.386  0.9816  0.7003  1.4723
    6MPD2     C14468   2.716   1.835  14.608  0.2815 -0.0330 -0.7587
    6MPD2    C114469   2.842   1.823  14.658 -0.3441 -0.0031  0.3959
    6MPD2    C214470   2.869   1.724  14.752  0.3052  0.2457  0.0522
    6MPD2    C314471   2.759   1.651  14.800 -0.3466  0.2399 -0.1307
    6MPD2    C414472   2.633   1.663  14.751 -0.2645 -0.1388 -0.1261
    6MPD2    C514473   2.612   1.766  14.660 -0.1338  0.5517 -0.1901
    6MPD2     H14474   2.973   1.703  14.775  0.7543  0.6299 -1.6566
    6MPD2    H114475   2.555   1.595  14.781  0.4271 -0.6414  0.5450
    6MPD2    H214476   2.680   1.908  14.537 -0.2711 -1.4056 -1.8958
    6MPD2    H314477   2.513   1.779  14.617  0.1416 -1.2995 -1.3899
    6MPD2     N14478   2.781   1.543  14.892  0.2119  0.0769  0.3471
    6MPD2    H514479   2.711   1.471  14.908 -1.7037  1.8640  0.0567
    6MPD2    N114480   2.950   1.899  14.625  0.2152  0.1808 -0.7381
    6MPD2    H714481   3.037   1.865  14.667 -0.4741 -0.6707 -0.0074
  945NH4     N114482   4.507   2.068  15.429  0.3701  0.9397 -0.0297
  945NH4     H214483   4.470   2.047  15.334  1.2036 -1.2317  0.1193
  945NH4     H314484   4.530   2.169  15.425  2.4715  0.4642  0.4042
  945NH4     H414485   4.592   2.010  15.443  0.8249  1.6242 -0.0018
  945NH4     H514486   4.444   2.044  15.508 -0.2310 -1.0469 -1.0996
  946SOD     NA14487   0.545   2.163  12.997  0.1517  0.3702 -0.0830
  947SOD     NA14488   3.588   0.720  15.181 -0.4350  0.3032  0.7294
  948SOD     NA14489   2.278   0.039  12.424  0.0078  0.1965 -0.2791
  949SOD     NA14490   0.735   4.415  16.976 -0.2152  0.4265  0.2390
  950SOD     NA14491   1.178   4.291  13.394 -0.3957  0.6492 -0.0620
  951SOD     NA14492   3.848   2.987   4.872  0.1287 -0.1616 -0.0775
  952SOD     NA14493   2.745   1.801  15.418  0.6177  0.5461 -0.0106
  953SOL     OW14494   0.297   3.156  12.536 -0.2060  0.0163 -0.7043
  953SOL    HW114495   0.340   3.142  12.451  2.4333  1.3899  0.3839
  953SOL    HW214496   0.328   3.246  12.547  1.2049 -0.8037  2.0472
  954SOL     OW14497   3.248   0.026   3.848 -0.1575 -0.0410  0.2959
  954SOL    HW114498   3.343   0.037   3.854  0.3339 -4.1556 -0.0255
  954SOL    HW214499   3.240   4.680   3.817 -1.4591  0.1360  0.1083
  955SOL     OW14500   2.518   0.688  15.873  0.6238 -0.1041 -0.2323
  955SOL    HW114501   2.453   0.743  15.915 -0.4055 -0.5488 -1.2639
  955SOL    HW214502   2.584   0.665  15.939 -0.6579  0.8165  1.3682
  956SOL     OW14503   4.065   1.179   4.326  0.1306 -0.3198  0.2045
  956SOL    HW114504   4.046   1.164   4.419  1.2975  0.2884  0.5506
  956SOL    HW214505   4.153   1.213   4.341  0.9038 -0.9646 -3.0707
  957SOL     OW14506   3.290   2.654   7.720  0.1554  0.3914 -0.5041
  957SOL    HW114507   3.341   2.732   7.701 -0.2738  0.5562 -0.9655
  957SOL    HW214508   3.227   2.674   7.789  0.1023  0.7649 -0.6645
  958SOL     OW14509   2.755   2.411  17.580 -0.2486  0.2988 -0.1270
  958SOL    HW114510   2.839   2.415  17.535  1.0910 -0.6215  2.2784
  958SOL    HW214511   2.794   2.384  17.664  3.1877  1.9809 -1.2027
  959SOL     OW14512   0.986   1.808  15.911  0.1332  0.2641 -0.2520
  959SOL    HW114513   1.020   1.809  16.001 -0.6945  1.5038  0.0488
  959SOL    HW214514   1.052   1.848  15.855  1.2228 -3.2959 -1.4984
  960SOL     OW14515   0.726   1.803   0.595 -0.2792  0.6011  0.1187
  960SOL    HW114516   0.665   1.855   0.647 -0.7173  0.9708 -0.7698
  960SOL    HW214517   0.755   1.868   0.531  0.0780 -0.6111 -0.9571
  961SOL     OW14518   3.407   2.987   0.739 -0.3145  0.6153 -0.2910
  961SOL    HW114519   3.394   2.922   0.669  3.5754  1.1650 -1.5659
  961SOL    HW214520   3.485   3.032   0.704  0.6732 -0.5888  0.3595
  962SOL     OW14521   2.127   1.013   8.952  0.4097 -0.4879  0.3705
  962SOL    HW114522   2.194   0.994   9.017  0.6745 -1.9508 -0.3312
  962SOL    HW214523   2.185   1.019   8.876 -0.1036  0.6532  0.0565
  963SOL     OW14524   3.234   3.299   9.852  0.4131  0.1710  0.1725
  963SOL    HW114525   3.199   3.270   9.936  1.5470 -1.0542  0.2217
  963SOL    HW214526   3.263   3.388   9.869 -1.8530  0.8927  0.3100
  964SOL     OW14527   2.007   4.733   2.026 -0.0174 -0.2301 -0.7434
  964SOL    HW114528   1.980   0.027   1.943  1.1097 -0.6288 -1.2931
  964SOL    HW214529   2.082   4.679   2.001 -0.3897 -0.8284 -0.5562
  965SOL     OW14530   4.689   2.607   3.816 -0.1752  0.5472  0.2188
  965SOL    HW114531   4.626   2.631   3.749  1.5850  0.7026 -1.3840
  965SOL    HW214532   0.003   2.684   3.818  3.0522 -1.7907 -2.5626
  966SOL     OW14533   1.673   1.090  11.230  0.6122  0.0401 -0.2678
  966SOL    HW114534   1.667   1.083  11.135 -0.6281 -2.9737  0.0379
  966SOL    HW214535   1.598   1.035  11.251  2.9038 -3.1116 -0.3655
  967SOL     OW14536   1.364   0.986  12.935  0.1981 -0.0459  0.4439
  967SOL    HW114537   1.440   1.002  12.992 -0.1366 -0.3242  0.9668
  967SOL    HW214538   1.301   0.966  13.004  0.0297  0.1554  0.3458
  968SOL     OW14539   4.003   1.962  16.783 -0.1098  0.4141  0.3491
  968SOL    HW114540   4.089   1.931  16.753 -0.4180 -0.9677  0.8686
  968SOL    HW214541   3.992   1.924  16.871  0.7847  0.4281  0.4727
  969SOL     OW14542   3.511   3.489   7.797 -0.4449 -0.1804  0.2773
  969SOL    HW114543   3.438   3.429   7.784  0.3284 -0.7794 -1.3168
  969SOL    HW214544   3.554   3.449   7.872 -0.3343 -1.8945 -0.7017
  970SOL     OW14545   2.160   2.667   3.230 -0.4459  0.1868 -0.5948
  970SOL    HW114546   2.105   2.743   3.250 -0.0386  0.0595  1.0309
  970SOL    HW214547   2.118   2.590   3.269  0.0600 -0.0307 -0.4765
  971SOL     OW14548   0.684   0.312  10.331  1.1426 -0.0817 -0.1521
  971SOL    HW114549   0.661   0.347  10.417  0.0342  0.9060 -0.8481
  971SOL    HW214550   0.619   0.242  10.321  1.2682 -0.0795 -0.9818
  972SOL     OW14551   0.344   0.019   2.753  0.1359 -0.2843 -0.2653
  972SOL    HW114552   0.320   0.043   2.664  0.5864 -0.8064 -0.5260
  972SOL    HW214553   0.318   0.096   2.804  1.4424 -0.0491  0.0427
  973SOL     OW14554   1.288   2.509   8.024 -0.2095  0.2867 -0.2287
  973SOL    HW114555   1.271   2.499   7.930  2.1231 -0.1120 -0.5976
  973SOL    HW214556   1.342   2.432   8.037 -1.8004 -1.0178 -1.3113
  974SOL     OW14557   4.506   1.905   0.236  0.1491 -0.0380 -0.6431
  974SOL    HW114558   4.510   1.883   0.329  2.2137 -1.1900 -0.9854
  974SOL    HW214559   4.599   1.925   0.222  0.3866 -1.0081 -0.4550
  975SOL     OW14560   2.501   0.687   1.834  0.2174  0.5525  0.5346
  975SOL    HW114561   2.490   0.769   1.787  1.1123  0.7669  0.6984
  975SOL    HW214562   2.417   0.683   1.880 -0.2239  0.7710 -0.2574
  976SOL     OW14563   3.288   0.629   5.794  0.3522  0.3635 -0.8042
  976SOL    HW114564   3.333   0.634   5.710  0.6807  0.0063 -0.6512
  976SOL    HW214565   3.201   0.633   5.755  0.7022  3.9972 -1.1549
  977SOL     OW14566   3.490   0.539  15.254 -0.1410 -0.1776  0.4154
  977SOL    HW114567   3.496   0.444  15.264  0.5727 -0.2684 -0.9581
  977SOL    HW214568   3.407   0.552  15.300  0.0196  1.2509  0.3009
  978SOL     OW14569   1.166   3.900  13.108  0.6769 -0.5584 -0.4457
  978SOL    HW114570   1.250   3.944  13.104 -0.2186  1.0085 -1.6224
  978SOL    HW214571   1.178   3.806  13.093 -0.1856 -1.0378  1.7455
  979SOL     OW14572   3.096   0.798  10.663 -0.0472  0.0639  0.1611
  979SOL    HW114573   3.086   0.866  10.597  1.8321 -0.2080 -0.4006
  979SOL    HW214574   3.014   0.750  10.653 -1.2548  2.1300  0.3495
  980SOL     OW14575   2.960   4.610   9.804 -0.2172  0.2631  0.7327
  980SOL    HW114576   2.895   4.620   9.874 -1.6628  0.9627 -0.7050
  980SOL    HW214577   2.909   4.654   9.736  1.8223  0.2931 -0.7777
  981SOL     OW14578   0.188   0.926   2.452  0.3068  0.1960 -0.3827
  981SOL    HW114579   0.119   0.979   2.412 -0.3350 -0.6891 -0.4560
  981SOL    HW214580   0.262   0.984   2.434  1.4971 -0.9651  0.7594
  982SOL     OW14581   1.421   1.423   0.483  0.1543 -0.0152  0.0247
  982SOL    HW114582   1.506   1.401   0.446 -0.2951 -1.2154 -0.2769
  982SOL    HW214583   1.395   1.357   0.548 -1.4858  0.8169  0.2128
  983SOL     OW14584   2.229   4.606   4.529  0.1546 -0.2508  0.2891
  983SOL    HW114585   2.294   4.660   4.483  0.4174 -1.0587 -0.2933
  983SOL    HW214586   2.283   4.543   4.577 -0.0054  0.5779  1.5513
  984SOL     OW14587   1.654   1.787   2.676 -0.0595 -0.2084  0.2010
  984SOL    HW114588   1.718   1.720   2.698 -0.5930  0.1818  3.0107
  984SOL    HW214589   1.597   1.784   2.753  0.6081 -1.1632  0.6454
  985SOL     OW14590   0.726   0.053   2.986 -0.2842 -0.0168  0.0850
  985SOL    HW114591   0.714   0.043   2.892 -3.3490  1.8240  0.3052
  985SOL    HW214592   0.735   0.147   3.002 -2.5421  0.7219 -3.0992
  986SOL     OW14593   2.925   2.003  10.204  0.3131 -0.2607 -0.2701
  986SOL    HW114594   2.974   2.064  10.259  0.1647  0.5195 -1.0098
  986SOL    HW214595   2.867   2.062  10.155  1.3317 -0.4618 -1.6992
  987SOL     OW14596   1.575   2.953   9.786 -0.2878 -0.3443  0.3616
  987SOL    HW114597   1.577   2.930   9.693 -0.1423  1.0637  0.0102
  987SOL    HW214598   1.542   2.868   9.815  0.6396  0.0238  2.5194
  988SOL     OW14599   0.763   4.587   2.347  0.0285 -0.2879 -0.0621
  988SOL    HW114600   0.810   4.650   2.401 -0.9294  1.8886 -1.7541
  988SOL    HW214601   0.838   4.557   2.295  0.0997  0.8460 -0.6140
  989SOL     OW14602   2.371   2.765   5.847 -0.2497  0.2707  0.2962
  989SOL    HW114603   2.355   2.859   5.853  1.6117  0.5595  0.8242
  989SOL    HW214604   2.458   2.749   5.809 -0.2181  3.0674 -0.8539
  990SOL     OW14605   3.390   0.785   9.561 -0.1408 -0.0182  0.3984
  990SOL    HW114606   3.462   0.726   9.581 -1.3224 -1.4828  0.3377
  990SOL    HW214607   3.319   0.749   9.615 -0.6259  0.5000  0.1095
  991SOL     OW14608   1.689   2.674   8.314 -0.1435  0.3954 -0.0657
  991SOL    HW114609   1.621   2.683   8.248  0.6915 -0.7978 -1.1035
  991SOL    HW214610   1.664   2.588   8.348  0.2081 -0.4293 -1.8739
  992SOL     OW14611   1.121   1.182  13.615 -0.0466 -0.1329  0.1062
  992SOL    HW114612   1.170   1.249  13.663 -0.1337  1.3173 -1.8299
  992SOL    HW214613   1.048   1.234  13.581  0.0668 -0.9499 -1.3697
  993SOL     OW14614   2.803   3.386  13.994 -0.3172  0.6979  0.6625
  993SOL    HW114615   2.728   3.440  14.022  0.4769  1.4321  1.3580
  993SOL    HW214616   2.798   3.301  14.036 -1.1349 -0.5033 -1.8381
  994SOL     OW14617   3.196   0.440  10.702  0.7723 -0.0920  0.2533
  994SOL    HW114618   3.254   0.417  10.774  2.1976  1.5633 -0.3768
  994SOL    HW214619   3.235   0.511  10.652 -0.4824  0.8192  0.5629
  995SOL     OW14620   1.543   2.078   8.656  0.2159 -0.6832  0.3385
  995SOL    HW114621   1.622   2.036   8.690  2.2158  2.6908 -0.1938
  995SOL    HW214622   1.480   2.006   8.660  0.6710 -1.1466 -0.7789
  996SOL     OW14623   0.674   4.182   7.488  0.1718  0.3559  0.2457
  996SOL    HW114624   0.650   4.090   7.487  0.3871  0.3106 -0.4224
  996SOL    HW214625   0.760   4.174   7.447  0.2408 -1.0913  0.6780
  997SOL     OW14626   3.454   4.575   4.149 -0.3903 -0.2208  0.0329
  997SOL    HW114627   3.484   4.544   4.235 -1.1759  0.5342  0.5795
  997SOL    HW214628   3.367   4.607   4.172 -1.0851 -1.6584 -0.5779
  998SOL     OW14629   0.151   3.145   6.782 -0.0580  0.3463  0.2673
  998SOL    HW114630   0.136   3.234   6.751 -0.6911 -0.4755 -1.8561
  998SOL    HW214631   0.065   3.106   6.764  0.1315 -0.7968  1.8358
  999SOL     OW14632   2.720   4.725   7.976 -0.0787 -0.0113  0.4919
  999SOL    HW114633   2.756   0.014   7.893  0.2225  1.3964  1.1786
  999SOL    HW214634   2.798   4.711   8.029 -0.6290  2.8408  2.0657
 1000SOL     OW14635   3.687   1.298  16.943  0.2389  0.0856  0.5382
 1000SOL    HW114636   3.705   1.391  16.927 -0.9416  0.4703  1.4195
 1000SOL    HW214637   3.730   1.262  16.866  1.3608 -2.8336  2.5161
 1001SOL     OW14638   3.797   3.594   4.447 -0.2372  0.4727  0.4982
 1001SOL    HW114639   3.810   3.553   4.533 -0.0130  1.8434  1.1093
 1001SOL    HW214640   3.869   3.657   4.447  0.8520 -0.7421  0.3614
 1002SOL     OW14641   4.248   1.042   1.431 -0.2031  0.4485  0.1860
 1002SOL    HW114642   4.330   1.091   1.432 -0.2570  0.5558 -0.6665
 1002SOL    HW214643   4.193   1.109   1.391 -2.5113 -0.9783  0.9973
 1003SOL     OW14644   0.928   3.948   6.799  0.5349 -0.8110 -0.0232
 1003SOL    HW114645   0.899   4.015   6.737  0.7117 -0.4173  0.3171
 1003SOL    HW214646   0.891   3.862   6.780  0.7907 -0.7161 -0.9570
 1004SOL     OW14647   2.926   3.948  14.539  0.5362  0.3569  0.2039
 1004SOL    HW114648   3.007   3.975  14.496  0.2708 -0.3778 -0.7453
 1004SOL    HW214649   2.949   3.856  14.548 -0.0338  0.1739 -0.2699
 1005SOL     OW14650   3.017   1.746  13.903 -0.4530  0.2944  0.0138
 1005SOL    HW114651   3.108   1.772  13.919 -0.1654 -0.8284  0.2693
 1005SOL    HW214652   2.983   1.769  13.989 -1.8921 -0.8948 -0.2435
 1006SOL     OW14653   1.620   2.968   8.337 -0.2022 -0.0191 -0.3271
 1006SOL    HW114654   1.634   2.874   8.338  1.6799  0.2602 -0.2793
 1006SOL    HW214655   1.655   2.988   8.249  1.5259  1.3798  0.6745
 1007SOL     OW14656   2.476   0.701  10.106  0.3489 -0.0399 -0.4563
 1007SOL    HW114657   2.553   0.745  10.068 -0.4170 -1.7110 -3.9173
 1007SOL    HW214658   2.426   0.775  10.140 -0.7803 -2.1595  2.4135
 1008SOL     OW14659   0.107   3.540   4.220  0.0411  0.0768  0.0820
 1008SOL    HW114660   0.095   3.634   4.234 -0.1796  0.1845 -0.8547
 1008SOL    HW214661   0.200   3.542   4.197 -0.4066  0.7304 -1.6349
 1009SOL     OW14662   3.136   4.246   0.947 -0.2212  0.2779  0.2590
 1009SOL    HW114663   3.155   4.324   1.000  0.9447 -1.1530  1.9650
 1009SOL    HW214664   3.145   4.271   0.855  2.1100  3.5680  1.3682
 1010SOL     OW14665   3.376   3.983   5.498  0.6129  0.5794 -0.4850
 1010SOL    HW114666   3.355   3.956   5.408  0.8450 -2.1538  0.2923
 1010SOL    HW214667   3.365   4.077   5.484 -0.6550  0.6891  1.3668
 1011SOL     OW14668   0.781   3.378   7.312  0.3197  0.8221 -0.1036
 1011SOL    HW114669   0.861   3.427   7.328  1.2293 -1.7606  3.3714
 1011SOL    HW214670   0.771   3.387   7.218  0.3663 -2.0457 -0.3791
 1012SOL     OW14671   0.017   3.665   5.841 -0.8618 -0.2337 -0.0758
 1012SOL    HW114672   0.028   3.699   5.753 -1.1159  1.6973  0.6442
 1012SOL    HW214673   0.073   3.725   5.889  1.2344 -2.6066  0.4223
 1013SOL     OW14674   4.466   2.250   1.211  0.2956 -0.2009 -0.1733
 1013SOL    HW114675   4.463   2.332   1.261 -0.4714 -1.2736  1.5453
 1013SOL    HW214676   4.561   2.250   1.195  0.5534  0.4063  1.3532
 1014SOL     OW14677   4.535   0.452  14.245 -0.8143  0.2112  0.5087
 1014SOL    HW114678   4.605   0.515  14.264 -0.3971  0.3472 -1.4831
 1014SOL    HW214679   4.520   0.420  14.334  0.9410  2.9310  1.7999
 1015SOL     OW14680   0.212   2.395   1.928 -0.3561  0.0735  0.2065
 1015SOL    HW114681   0.247   2.456   1.993 -1.1867 -1.3690  2.0223
 1015SOL    HW214682   0.265   2.317   1.948  0.6255  0.6824 -0.0242
 1016SOL     OW14683   4.502   2.378  15.416  0.3103 -0.4542  0.1452
 1016SOL    HW114684   4.433   2.433  15.454  1.0933 -0.5314  1.6632
 1016SOL    HW214685   4.573   2.394  15.479  1.6408  0.5292 -1.6005
 1017SOL     OW14686   4.093   3.489   5.922 -0.0439  0.8223 -0.5111
 1017SOL    HW114687   4.045   3.494   6.005 -0.1217 -2.3406 -0.3486
 1017SOL    HW214688   4.068   3.403   5.888  0.2094  1.6204 -2.6767
 1018SOL     OW14689   4.715   3.216   5.937  0.4531 -0.1990  0.3667
 1018SOL    HW114690   4.678   3.179   6.017  1.8851  2.6441  2.3518
 1018SOL    HW214691   4.739   3.134   5.895  0.5728 -0.0712  0.1838
 1019SOL     OW14692   2.957   2.290   5.772  0.7622  0.4884 -0.0169
 1019SOL    HW114693   2.985   2.225   5.708 -0.1878 -0.4006  0.4596
 1019SOL    HW214694   2.970   2.243   5.855 -1.0298  1.4955  0.8342
 1020SOL     OW14695   2.900   3.353   5.084  0.0897 -0.1976  0.4647
 1020SOL    HW114696   2.897   3.272   5.136 -0.2003  0.0911  0.8926
 1020SOL    HW214697   2.990   3.371   5.110  0.5489  0.1445 -1.3894
 1021SOL     OW14698   2.550   1.630   6.257 -0.0927  0.3707  0.5381
 1021SOL    HW114699   2.616   1.623   6.326  1.6265  1.5927 -0.9983
 1021SOL    HW214700   2.469   1.645   6.305 -0.1992 -1.2195  0.8741
 1022SOL     OW14701   3.515   2.848  16.165 -0.3031 -0.1205  0.4684
 1022SOL    HW114702   3.479   2.853  16.254  0.7338  1.4300  0.8017
 1022SOL    HW214703   3.569   2.926  16.156 -1.7902  0.4967 -2.6674
 1023SOL     OW14704   3.414   0.767   6.549  0.3157 -0.2695 -0.2482
 1023SOL    HW114705   3.426   0.685   6.502  2.4232 -1.1041  1.7229
 1023SOL    HW214706   3.502   0.805   6.554 -0.5183  1.6412 -0.1648
 1024SOL     OW14707   1.922   1.896   6.106  0.0894 -0.2758 -0.0080
 1024SOL    HW114708   1.950   1.890   6.197 -2.0231  0.4610  0.6949
 1024SOL    HW214709   2.002   1.916   6.057  0.0495 -2.1508 -0.8253
 1025SOL     OW14710   2.504   2.416   5.565  0.3905  0.4801  0.6140
 1025SOL    HW114711   2.590   2.423   5.606  0.3538  1.5269  0.5231
 1025SOL    HW214712   2.517   2.348   5.498  1.1407 -0.4530  1.7260
 1026SOL     OW14713   2.084   3.545   5.145  0.6158  0.2394  0.4204
 1026SOL    HW114714   2.021   3.517   5.078  0.5903 -0.9391  0.9349
 1026SOL    HW214715   2.125   3.461   5.166 -3.5844 -1.7060  0.9099
 1027SOL     OW14716   0.526   0.679   6.832 -0.1112 -0.0533 -0.1237
 1027SOL    HW114717   0.600   0.739   6.838  0.0870 -0.4040  0.9468
 1027SOL    HW214718   0.471   0.710   6.904  0.2324 -0.5125  0.3387
 1028SOL     OW14719   2.611   0.948   2.218  0.4024  0.2660 -0.6134
 1028SOL    HW114720   2.555   0.983   2.149  0.0516 -1.1799 -1.0622
 1028SOL    HW214721   2.552   0.929   2.290  0.2416  0.6194 -0.6516
 1029SOL     OW14722   2.304   2.169   8.962 -0.3132  0.0010 -0.1368
 1029SOL    HW114723   2.284   2.240   8.902 -2.7871 -0.2398  0.3655
 1029SOL    HW214724   2.225   2.172   9.017  0.5068 -1.4838  1.1308
 1030SOL     OW14725   0.641   0.529   5.859  0.4443  0.2099 -0.1762
 1030SOL    HW114726   0.702   0.485   5.918 -2.1325 -2.7639  0.2763
 1030SOL    HW214727   0.597   0.450   5.827  0.8488 -1.1361  2.5713
 1031SOL     OW14728   1.713   0.568   3.192 -0.1269 -0.2399  0.4210
 1031SOL    HW114729   1.624   0.582   3.223  0.7333  1.0528  2.3471
 1031SOL    HW214730   1.712   0.638   3.126  0.4759 -0.2375  0.4142
 1032SOL     OW14731   0.890   1.703   9.761  0.3965 -0.1011 -0.0000
 1032SOL    HW114732   0.843   1.663   9.833 -2.6958  1.8151 -0.9492
 1032SOL    HW214733   0.900   1.628   9.703 -1.0277 -1.4204  1.4866
 1033SOL     OW14734   4.070   3.997   6.175 -0.0089 -0.0583  0.8455
 1033SOL    HW114735   4.035   3.984   6.264 -1.7851 -0.5938  0.0562
 1033SOL    HW214736   4.080   3.907   6.145  0.7744  0.6431 -0.9370
 1034SOL     OW14737   1.009   4.079   1.055  0.0518  0.3939 -0.1884
 1034SOL    HW114738   1.019   3.988   1.082 -1.6553  0.4337  0.5747
 1034SOL    HW214739   0.927   4.103   1.098 -0.4483 -1.1951 -0.2618
 1035SOL     OW14740   4.399   2.678  16.408  0.1237  0.3644  0.0386
 1035SOL    HW114741   4.329   2.646  16.352 -1.4022  1.6391  1.2159
 1035SOL    HW214742   4.404   2.771  16.384 -1.0345  0.2332 -0.6848
 1036SOL     OW14743   3.958   2.868   5.139 -0.9421  0.1845 -0.3325
 1036SOL    HW114744   3.883   2.820   5.175 -2.8802  2.7583 -0.8840
 1036SOL    HW214745   3.990   2.798   5.081 -0.0292 -1.5687  2.3024
 1037SOL     OW14746   4.577   3.170   7.080  0.0147 -0.1555 -0.0469
 1037SOL    HW114747   4.611   3.084   7.055  0.7295  0.0088  0.3864
 1037SOL    HW214748   4.656   3.210   7.115  0.5633  1.0960 -2.6917
 1038SOL     OW14749   2.429   3.717  12.102  0.0548  0.6987 -0.3853
 1038SOL    HW114750   2.422   3.643  12.042  0.5297  0.4905 -0.1866
 1038SOL    HW214751   2.471   3.664  12.171 -1.0776 -2.1793 -1.8923
 1039SOL     OW14752   2.225   0.539   4.875  1.1643 -0.1447  0.2597
 1039SOL    HW114753   2.279   0.618   4.869  0.6085  0.4207  2.8021
 1039SOL    HW214754   2.238   0.512   4.966  0.6242  0.8203  0.6206
 1040SOL     OW14755   1.126   1.591   2.401  0.8636  0.8989 -0.3609
 1040SOL    HW114756   1.216   1.614   2.381  0.8436 -0.4012 -1.9561
 1040SOL    HW214757   1.097   1.662   2.458 -1.9031 -1.5615  1.2992
 1041SOL     OW14758   2.983   3.806   5.951 -0.1300  0.6018  0.0755
 1041SOL    HW114759   2.994   3.719   5.913  0.4168  0.9890 -0.6382
 1041SOL    HW214760   3.069   3.833   5.983 -0.1572 -1.0364  1.5433
 1042SOL     OW14761   1.037   4.194   4.659  0.4100 -0.2380 -0.2027
 1042SOL    HW114762   1.017   4.114   4.610  1.6416 -0.1939 -0.7823
 1042SOL    HW214763   1.009   4.260   4.597  2.1900  0.1313 -0.6178
 1043SOL     OW14764   4.411   0.421  15.163  0.3914 -0.2398 -0.1329
 1043SOL    HW114765   4.351   0.395  15.233 -0.7474  1.4980 -0.4447
 1043SOL    HW214766   4.368   0.499  15.127  0.8176 -0.1035 -0.3570
 1044SOL     OW14767   1.342   1.130   8.465 -0.0024 -0.3972 -0.0034
 1044SOL    HW114768   1.257   1.093   8.487  0.4203 -0.8775  0.7895
 1044SOL    HW214769   1.303   1.214   8.438 -1.6086 -0.8315  0.9593
 1045SOL     OW14770   3.952   4.014   5.925  0.1641  0.1243 -0.3752
 1045SOL    HW114771   3.926   3.922   5.921  2.5654 -0.5218 -0.7299
 1045SOL    HW214772   3.990   4.016   6.012 -0.6507  0.7587 -0.0248
 1046SOL     OW14773   3.261   3.962   2.950  0.4815 -0.0538 -0.3749
 1046SOL    HW114774   3.256   3.938   2.857  0.5073 -1.6898  0.0480
 1046SOL    HW214775   3.194   3.899   2.976  0.4396  0.2600  0.2852
 1047SOL     OW14776   4.019   2.709   6.356  0.4218  0.6546  0.4662
 1047SOL    HW114777   4.008   2.791   6.309  1.2816 -0.3905 -1.5221
 1047SOL    HW214778   3.935   2.664   6.342  0.9712  0.1825 -1.1966
 1048SOL     OW14779   2.040   0.031   9.100  0.7260  0.1261  0.0024
 1048SOL    HW114780   2.083   0.041   9.015  0.2449 -2.4032 -0.5357
 1048SOL    HW214781   1.982   0.107   9.108  1.9450  0.9792  0.5839
 1049SOL     OW14782   2.334   1.744   2.182  0.9203 -0.0058 -0.0093
 1049SOL    HW114783   2.299   1.775   2.098  2.6493  0.3640 -0.5927
 1049SOL    HW214784   2.277   1.671   2.207  0.6046  0.3104  0.2018
 1050SOL     OW14785   1.378   4.180   6.554 -0.1385  0.4177  0.1431
 1050SOL    HW114786   1.423   4.251   6.599 -0.0700 -0.9702  2.2578
 1050SOL    HW214787   1.331   4.146   6.629  0.3691 -0.4312  0.0786
 1051SOL     OW14788   2.691   3.030   9.090 -0.5043  0.1349 -0.2503
 1051SOL    HW114789   2.766   3.066   9.043 -1.1924  2.1981  0.2370
 1051SOL    HW214790   2.730   3.032   9.178 -1.5613  1.6384  0.1933
 1052SOL     OW14791   1.144   1.792   8.920  0.2150 -0.0031 -0.3317
 1052SOL    HW114792   1.111   1.873   8.959  1.3512  0.5809 -0.5830
 1052SOL    HW214793   1.132   1.727   8.990  0.6290 -0.1993 -0.4410
 1053SOL     OW14794   1.117   4.265  16.759 -0.2340 -0.0827 -0.0290
 1053SOL    HW114795   1.123   4.361  16.758 -1.8917  0.0863  4.4288
 1053SOL    HW214796   1.022   4.252  16.758  0.0520 -2.0011 -0.9300
 1054SOL     OW14797   0.418   1.751  14.201 -0.4379 -0.9454  0.3574
 1054SOL    HW114798   0.342   1.807  14.217 -0.6081 -1.4674  1.4187
 1054SOL    HW214799   0.444   1.781  14.114 -3.6311 -2.2531 -1.0236
 1055SOL     OW14800   2.954   4.585   3.994  0.1470  0.0221  0.3557
 1055SOL    HW114801   2.973   4.491   3.987 -2.3694 -0.4078 -0.6811
 1055SOL    HW214802   2.895   4.587   4.069 -1.6448 -0.0782 -1.0399
 1056SOL     OW14803   3.098   3.776   9.150  0.2098 -0.8634  0.0058
 1056SOL    HW114804   3.067   3.855   9.196 -0.9487 -1.2687 -0.0953
 1056SOL    HW214805   3.046   3.783   9.070  1.0878 -1.6849 -0.6363
 1057SOL     OW14806   1.148   3.213   0.130 -0.0729  0.4957 -0.6065
 1057SOL    HW114807   1.124   3.128   0.165  1.1890  0.6328  0.5572
 1057SOL    HW214808   1.113   3.274   0.195 -0.4960  0.1295 -0.4935
 1058SOL     OW14809   1.032   2.513   0.834 -0.1760 -0.2746  0.0646
 1058SOL    HW114810   0.987   2.501   0.918 -0.1577 -1.7374 -0.1236
 1058SOL    HW214811   1.006   2.435   0.785 -2.1532  0.5335 -0.1509
 1059SOL     OW14812   4.048   0.465   9.989 -0.1169  0.3943  0.0559
 1059SOL    HW114813   4.054   0.371  10.008 -1.6335  0.3768  0.4201
 1059SOL    HW214814   3.953   0.476   9.992  0.0382  2.1122 -1.1538
 1060SOL     OW14815   2.503   3.488   1.899 -0.5138 -0.2750  0.0524
 1060SOL    HW114816   2.497   3.506   1.992 -1.5953  0.6167 -0.1876
 1060SOL    HW214817   2.484   3.394   1.896 -1.6874 -0.0721  1.0997
 1061SOL     OW14818   1.811   1.030   6.645  0.4593  0.2548  0.6190
 1061SOL    HW114819   1.837   0.940   6.663 -0.0367  0.2422  1.2496
 1061SOL    HW214820   1.838   1.033   6.553  1.4828  2.0947  0.9757
 1062SOL     OW14821   4.188   0.002   6.874 -0.0627 -0.6153  0.0684
 1062SOL    HW114822   4.256   0.017   6.939  1.6514  2.6400 -2.5036
 1062SOL    HW214823   4.116   0.058   6.905 -0.2082  0.4964 -2.3132
 1063SOL     OW14824   0.694   1.839   3.588  0.4149  0.5083 -0.1028
 1063SOL    HW114825   0.640   1.861   3.512 -1.7187 -0.2340  1.1898
 1063SOL    HW214826   0.725   1.752   3.563  1.2759  0.4371  1.1892
 1064SOL     OW14827   2.514   3.123   2.930 -0.0543 -0.3284  0.4046
 1064SOL    HW114828   2.447   3.130   2.997 -0.7576 -0.2475 -0.3047
 1064SOL    HW214829   2.469   3.080   2.856  0.5136  0.2155 -0.2599
 1065SOL     OW14830   0.587   2.304   5.300  0.2517 -0.3540 -0.0229
 1065SOL    HW114831   0.549   2.309   5.212 -0.5219  1.7701  0.4357
 1065SOL    HW214832   0.601   2.396   5.323  1.6032 -0.7432  0.6935
 1066SOL     OW14833   1.118   4.034   8.389  0.1087  0.3027  0.0185
 1066SOL    HW114834   1.155   4.111   8.344  0.2602  0.1621 -0.0976
 1066SOL    HW214835   1.201   3.986   8.394  1.4232  2.4004 -1.3272
 1067SOL     OW14836   1.050   1.902  13.586 -0.1096 -0.1174 -0.3274
 1067SOL    HW114837   1.026   1.948  13.667  4.8515  2.5247 -0.3610
 1067SOL    HW214838   1.133   1.859  13.607  0.7210  2.7137  2.3312
 1068SOL     OW14839   0.630   2.210   5.752 -0.1377 -0.4605  0.3249
 1068SOL    HW114840   0.703   2.160   5.716 -0.9255 -2.5755  1.6754
 1068SOL    HW214841   0.673   2.230   5.835  1.3246 -2.5386  0.0920
 1069SOL     OW14842   1.931   2.599   5.958  0.4087  0.1945 -0.5053
 1069SOL    HW114843   2.013   2.582   5.910  0.0324 -1.5233 -0.5508
 1069SOL    HW214844   1.937   2.538   6.031 -1.2186 -0.2210 -0.7169
 1070SOL     OW14845   4.659   4.672  15.140 -0.6964 -0.6305  0.1544
 1070SOL    HW114846   0.005   4.688  15.110 -1.6169 -0.1642 -2.3567
 1070SOL    HW214847   4.670   4.624  15.223  0.3704  1.1277  1.0363
 1071SOL     OW14848   0.790   3.545   1.431  0.6247  0.3696  0.0324
 1071SOL    HW114849   0.786   3.639   1.447  0.5603  0.4100 -0.2133
 1071SOL    HW214850   0.885   3.532   1.424  0.6074  0.9084 -1.2056
 1072SOL     OW14851   4.140   0.888   8.683 -0.6423 -0.0419  0.2746
 1072SOL    HW114852   4.136   0.984   8.673  1.3602 -0.1980 -1.8300
 1072SOL    HW214853   4.196   0.863   8.610 -1.7137 -0.3605 -0.4376
 1073SOL     OW14854   2.997   2.559  15.031  0.1361 -0.5483  0.5383
 1073SOL    HW114855   3.008   2.650  15.055 -1.0139  0.3428 -2.2780
 1073SOL    HW214856   3.054   2.521  15.098  1.1420  0.0742  0.0229
 1074SOL     OW14857   1.082   0.619  17.313  0.0299 -0.0939 -0.1414
 1074SOL    HW114858   1.101   0.705  17.351  0.5409 -0.0728 -0.4460
 1074SOL    HW214859   1.130   0.626  17.231  0.5094 -1.3846  0.0396
 1075SOL     OW14860   2.575   4.372   6.335 -0.0356 -0.0747 -0.4265
 1075SOL    HW114861   2.625   4.345   6.257 -1.5042 -1.6499 -0.8198
 1075SOL    HW214862   2.497   4.409   6.293  0.8617 -0.0955 -2.1282
 1076SOL     OW14863   2.621   4.451   4.123 -0.5267 -0.1903  0.4439
 1076SOL    HW114864   2.586   4.417   4.041 -1.6371 -1.4918  1.4484
 1076SOL    HW214865   2.652   4.365   4.152  0.8009  0.0045 -0.4164
 1077SOL     OW14866   1.557   2.833   3.288 -0.1667 -0.9901 -0.1387
 1077SOL    HW114867   1.512   2.768   3.342 -1.9479  1.4661  1.3265
 1077SOL    HW214868   1.563   2.899   3.356  0.6416  1.0425 -2.1706
 1078SOL     OW14869   1.369   3.710   0.432  0.7877 -0.4096  0.9531
 1078SOL    HW114870   1.361   3.804   0.414 -3.7828 -1.0234 -0.3168
 1078SOL    HW214871   1.289   3.678   0.390  1.2156  0.7213 -0.7305
 1079SOL     OW14872   1.269   3.327   2.634 -0.2338  0.4161  0.5837
 1079SOL    HW114873   1.285   3.385   2.708  2.2222 -0.3560  0.6607
 1079SOL    HW214874   1.276   3.393   2.565  0.3917  0.9985  1.2091
 1080SOL     OW14875   3.180   3.728   1.409  0.5572  0.1517  0.0820
 1080SOL    HW114876   3.200   3.652   1.354 -2.7904 -1.8829  1.6727
 1080SOL    HW214877   3.106   3.700   1.463  1.7687 -2.8447  0.1961
 1081SOL     OW14878   4.204   3.741   9.122  0.0234 -0.4177  0.0528
 1081SOL    HW114879   4.235   3.701   9.203 -1.0078 -2.8238 -0.7152
 1081SOL    HW214880   4.285   3.761   9.075 -0.7224  2.0880 -0.1566
 1082SOL     OW14881   2.668   1.852  13.279 -0.3432  0.2438 -0.0669
 1082SOL    HW114882   2.688   1.772  13.230 -0.4394 -0.1416  0.5264
 1082SOL    HW214883   2.735   1.910  13.242  0.6957 -0.3780  0.8439
 1083SOL     OW14884   2.540   0.967   3.518 -0.0096 -0.1413 -0.4678
 1083SOL    HW114885   2.461   0.945   3.567 -0.6964 -0.5950 -1.7557
 1083SOL    HW214886   2.509   0.962   3.427  1.1207 -0.3801 -0.8409
 1084SOL     OW14887   3.126   4.162  11.576 -0.3837  0.3174  0.2267
 1084SOL    HW114888   3.176   4.224  11.629 -1.4997 -0.4725  2.2198
 1084SOL    HW214889   3.047   4.215  11.569 -1.0990 -0.4964  1.9025
 1085SOL     OW14890   1.323   1.952  14.366  0.0528  0.3022 -0.5484
 1085SOL    HW114891   1.269   2.002  14.427  0.6056  2.5907 -1.9319
 1085SOL    HW214892   1.304   1.861  14.388 -0.3661  0.6125  0.3608
 1086SOL     OW14893   2.536   3.020   6.647  0.0919 -0.3268 -0.2453
 1086SOL    HW114894   2.607   3.082   6.635 -1.5816  1.8065  0.8314
 1086SOL    HW214895   2.490   3.031   6.564 -1.4881 -0.0947  0.6509
 1087SOL     OW14896   0.855   4.028   1.984 -0.4976 -0.4397 -0.0433
 1087SOL    HW114897   0.872   3.991   1.897  0.5815  1.4665 -0.6479
 1087SOL    HW214898   0.852   4.120   1.957  1.0070 -1.2928 -3.1450
 1088SOL     OW14899   4.233   2.683   5.371  0.0535 -0.3508  0.0273
 1088SOL    HW114900   4.289   2.669   5.294  1.6126  1.3001  0.8511
 1088SOL    HW214901   4.286   2.737   5.430  1.0892 -0.7616 -0.5211
 1089SOL     OW14902   1.723   0.170   9.609 -0.2171 -0.1576 -0.1235
 1089SOL    HW114903   1.679   0.255   9.621 -1.7852 -0.8759 -0.8163
 1089SOL    HW214904   1.712   0.150   9.516  0.1097  0.3419 -0.2720
 1090SOL     OW14905   2.946   2.923   5.813  0.3155 -0.1216 -0.5030
 1090SOL    HW114906   2.855   2.949   5.802  0.6124  1.0137 -0.2839
 1090SOL    HW214907   2.993   2.992   5.766 -0.1665  0.4731 -0.1194
 1091SOL     OW14908   3.547   1.460   4.969  0.1021  0.2780  0.0961
 1091SOL    HW114909   3.593   1.440   4.889  0.9623  1.0906  0.3840
 1091SOL    HW214910   3.569   1.553   4.978  0.0574  0.1543  1.4708
 1092SOL     OW14911   4.277   1.980   1.849 -0.8389 -0.1328 -0.4225
 1092SOL    HW114912   4.236   2.061   1.879 -0.6733 -0.0601 -0.3979
 1092SOL    HW214913   4.357   1.985   1.900 -0.0490 -0.4244 -1.6189
 1093SOL     OW14914   3.339   4.106   8.233 -0.2730 -0.1826 -0.1256
 1093SOL    HW114915   3.316   4.108   8.140 -1.0233  2.2888  0.1171
 1093SOL    HW214916   3.407   4.173   8.238 -0.8129  0.1209  3.1624
 1094SOL     OW14917   4.662   1.344  15.235  0.0841 -0.5798 -0.1697
 1094SOL    HW114918   4.612   1.270  15.269 -0.6343 -0.5450 -1.1594
 1094SOL    HW214919   4.687   1.316  15.147  1.0845  1.3482 -0.4962
 1095SOL     OW14920   3.825   3.864   8.290  0.1099  0.0380  0.2494
 1095SOL    HW114921   3.750   3.895   8.341  0.1689  1.2731 -0.4229
 1095SOL    HW214922   3.806   3.770   8.291 -1.0826  0.2732 -0.2715
 1096SOL     OW14923   4.694   1.002  16.442  0.1111 -0.1347 -0.2168
 1096SOL    HW114924   4.740   0.959  16.370  0.0226 -1.9664  0.8283
 1096SOL    HW214925   4.613   0.952  16.456 -0.1407 -0.0323 -1.3572
 1097SOL     OW14926   1.946   3.960   9.694  0.6642 -0.3868  0.0332
 1097SOL    HW114927   1.896   3.907   9.755 -0.6488 -1.5914 -2.0652
 1097SOL    HW214928   2.003   3.892   9.659 -0.7031 -1.0698 -0.8797
 1098SOL     OW14929   4.385   2.354   4.365 -0.2042  0.0696 -0.8075
 1098SOL    HW114930   4.335   2.278   4.337  0.2622 -0.8192  0.7399
 1098SOL    HW214931   4.336   2.420   4.317  3.0811  3.2033  0.1393
 1099SOL     OW14932   0.520   0.372   8.311  1.0032  0.4922 -0.4752
 1099SOL    HW114933   0.547   0.280   8.313 -1.0477 -0.1435 -1.5536
 1099SOL    HW214934   0.428   0.356   8.333  1.7285 -2.7694  0.1055
 1100SOL     OW14935   4.407   3.630   2.783 -0.6769  0.0822 -0.2312
 1100SOL    HW114936   4.341   3.665   2.722  3.1023  3.3376 -2.4420
 1100SOL    HW214937   4.487   3.634   2.731  0.7132  0.4091  1.9784
 1101SOL     OW14938   0.724   0.306   6.808 -0.0577 -0.8925 -0.4645
 1101SOL    HW114939   0.767   0.370   6.864 -3.4053  2.4074 -1.6710
 1101SOL    HW214940   0.784   0.290   6.735 -0.9777  1.1812 -1.6939
 1102SOL     OW14941   0.237   2.601   2.095 -0.3213  0.1193  0.3135
 1102SOL    HW114942   0.300   2.667   2.069 -2.7804  1.4733 -2.2096
 1102SOL    HW214943   0.259   2.585   2.187  0.7763  1.1873  0.2383
 1103SOL     OW14944   3.553   0.340   7.147 -0.3938 -0.0883  0.0758
 1103SOL    HW114945   3.488   0.274   7.124  0.2763 -0.8205  0.3032
 1103SOL    HW214946   3.591   0.304   7.227  0.3831  1.8686  0.6017
 1104SOL     OW14947   2.758   0.232   3.998 -0.0690  0.4270 -0.6732
 1104SOL    HW114948   2.718   0.156   4.040 -2.3258  2.8757  1.5813
 1104SOL    HW214949   2.850   0.206   3.995 -0.1407  0.1836 -0.8155
 1105SOL     OW14950   0.260   1.506   1.466 -0.0771  0.3793 -0.2204
 1105SOL    HW114951   0.186   1.553   1.506  1.9032  1.5919  2.0193
 1105SOL    HW214952   0.325   1.575   1.455 -0.9156  0.7496 -3.0288
 1106SOL     OW14953   3.808   2.142   6.637  0.3243 -0.1839  0.3212
 1106SOL    HW114954   3.758   2.061   6.624  2.0270 -1.0812 -0.7266
 1106SOL    HW214955   3.863   2.154   6.560 -0.8084 -2.2669 -0.8294
 1107SOL     OW14956   4.143   4.263   8.143  0.2014  0.0870  0.3364
 1107SOL    HW114957   4.178   4.346   8.111  1.4009 -0.0989  1.1848
 1107SOL    HW214958   4.217   4.205   8.125  1.0744  0.2877  3.3452
 1108SOL     OW14959   3.981   0.385   5.240  0.8011  0.5064  0.4632
 1108SOL    HW114960   3.982   0.358   5.332  3.4689  3.4033  1.3043
 1108SOL    HW214961   3.892   0.361   5.216  1.5471  1.2682 -3.1142
 1109SOL     OW14962   2.128   3.100  14.541 -0.3644 -0.1917  0.5963
 1109SOL    HW114963   2.191   3.058  14.600  2.4488  0.9311 -1.5998
 1109SOL    HW214964   2.047   3.073  14.584 -0.2858 -1.3595  0.0082
 1110SOL     OW14965   1.159   1.529   0.850 -0.2934  0.2846 -0.2751
 1110SOL    HW114966   1.069   1.526   0.817 -0.4510  1.9510  0.0141
 1110SOL    HW214967   1.175   1.621   0.832  1.7245  0.0532  0.3675
 1111SOL     OW14968   3.177   2.882   9.183  0.0579 -0.1467 -0.4719
 1111SOL    HW114969   3.131   2.827   9.246 -1.5176  0.8291 -0.7890
 1111SOL    HW214970   3.108   2.907   9.122 -0.8692 -1.0974  0.2075
 1112SOL     OW14971   1.578   1.367   1.020 -0.7079 -0.0707  0.1334
 1112SOL    HW114972   1.568   1.382   1.114 -0.4669  2.8942 -0.3177
 1112SOL    HW214973   1.529   1.445   0.997  0.6096  0.4774 -0.8059
 1113SOL     OW14974   1.326   0.586   6.078 -0.0729 -0.0959 -0.0153
 1113SOL    HW114975   1.347   0.551   6.164 -0.1520  0.8402  0.3792
 1113SOL    HW214976   1.326   0.680   6.092  0.2560 -0.0571 -0.2550
 1114SOL     OW14977   1.585   3.704  12.538  0.2027  0.3350 -0.0895
 1114SOL    HW114978   1.555   3.657  12.460  1.8808 -1.9685  0.6408
 1114SOL    HW214979   1.535   3.785  12.529 -0.5305  0.1826  2.5468
 1115SOL     OW14980   3.673   3.625   2.560 -0.1621  0.1109 -1.2396
 1115SOL    HW114981   3.656   3.540   2.600  0.8829 -0.3012 -1.6811
 1115SOL    HW214982   3.720   3.668   2.631  0.2194 -1.0467 -0.8070
 1116SOL     OW14983   3.733   3.124   1.378 -0.0121  0.7351 -0.2215
 1116SOL    HW114984   3.655   3.179   1.370 -0.5225 -0.0474 -0.5799
 1116SOL    HW214985   3.698   3.038   1.357  0.5727  0.2624  0.7422
 1117SOL     OW14986   2.769   0.706   1.704  0.4207 -0.2931 -0.1077
 1117SOL    HW114987   2.675   0.719   1.720  0.3166  0.8160 -1.7006
 1117SOL    HW214988   2.808   0.695   1.791 -1.9044 -1.8512  0.7347
 1118SOL     OW14989   2.585   1.762   7.011 -0.5980 -0.4665  0.1466
 1118SOL    HW114990   2.584   1.816   7.090 -0.4536 -1.0290  0.5341
 1118SOL    HW214991   2.517   1.807   6.961 -0.4244  0.0138  0.3428
 1119SOL     OW14992   1.533   3.323   3.522  0.6355 -0.4057 -0.0049
 1119SOL    HW114993   1.438   3.328   3.510  0.9078  2.3226 -1.0736
 1119SOL    HW214994   1.541   3.263   3.448 -1.3465 -1.4976  0.6494
 1120SOL     OW14995   4.121   3.476   2.793 -0.0863  0.1810  0.3475
 1120SOL    HW114996   4.215   3.471   2.814  0.1168 -0.5762 -0.6926
 1120SOL    HW214997   4.088   3.455   2.880 -0.5985  0.8003  0.2979
 1121SOL     OW14998   3.727   4.711   2.747  0.3247  0.1800 -0.1812
 1121SOL    HW114999   3.714   4.621   2.778 -1.9074  1.2270  1.9203
 1121SOL    HW215000   3.755   4.697   2.656  2.3201 -1.4353  0.6693
 1122SOL     OW15001   1.958   4.534   2.527 -0.2097 -0.1244  0.1476
 1122SOL    HW115002   1.973   4.538   2.433 -1.9377 -0.1693 -0.1390
 1122SOL    HW215003   2.012   4.604   2.564 -2.4980  2.0725 -0.6290
 1123SOL     OW15004   3.282   4.650  10.364  0.0339 -0.0709 -0.2189
 1123SOL    HW115005   3.209   4.710  10.348 -1.2864 -1.3771  1.0278
 1123SOL    HW215006   3.342   4.680  10.295 -0.2087  2.1311  0.5149
 1124SOL     OW15007   3.915   4.435   4.947 -0.1020  0.0059  0.1472
 1124SOL    HW115008   3.920   4.500   4.876 -0.1773 -1.6707 -1.4052
 1124SOL    HW215009   3.821   4.425   4.961  0.0718  0.3484  1.5447
 1125SOL     OW15010   3.929   2.014   4.025 -0.1012  0.6735  0.5488
 1125SOL    HW115011   3.941   2.084   4.089  1.9907  2.4290 -1.7753
 1125SOL    HW215012   3.834   2.010   4.011  0.2710 -1.7873 -1.2501
 1126SOL     OW15013   1.804   0.038  12.074  0.3521  0.5851  0.6653
 1126SOL    HW115014   1.729   0.096  12.063 -0.0941 -0.7520 -3.2595
 1126SOL    HW215015   1.838   0.077  12.155  0.4340 -0.0129  0.9230
 1127SOL     OW15016   1.706   0.574   4.625 -0.1652  0.5579  0.2044
 1127SOL    HW115017   1.613   0.588   4.642 -0.0478  1.0897  0.3962
 1127SOL    HW215018   1.756   0.641   4.671  1.4338 -0.5217  0.0427
 1128SOL     OW15019   2.932   2.474  10.092 -0.2175 -0.3805 -0.0149
 1128SOL    HW115020   2.919   2.381  10.073  1.4565  0.0095 -3.0447
 1128SOL    HW215021   2.854   2.514  10.054 -2.0454 -1.1551  2.9029
 1129SOL     OW15022   4.562   0.233   4.359  0.1775 -0.0462 -0.2370
 1129SOL    HW115023   4.481   0.265   4.318  0.5850  0.8910 -0.3119
 1129SOL    HW215024   4.612   0.216   4.279 -0.9290  1.0515 -1.1603
 1130SOL     OW15025   2.554   1.165   5.336 -0.2825 -0.4636  0.4522
 1130SOL    HW115026   2.465   1.133   5.352 -0.3870 -1.3134 -1.8492
 1130SOL    HW215027   2.568   1.219   5.414  0.2379  2.0632 -1.4291
 1131SOL     OW15028   3.093   0.953   2.979 -0.1153  0.3493  0.5930
 1131SOL    HW115029   3.123   0.880   2.926 -1.1197  2.0094 -2.2262
 1131SOL    HW215030   3.137   0.941   3.063 -0.7015  0.4786  0.9207
 1132SOL     OW15031   2.448   0.004   3.516 -0.3526  0.0955 -0.1515
 1132SOL    HW115032   2.491   0.046   3.442 -1.1063  1.9894  0.4999
 1132SOL    HW215033   2.475   4.661   3.487 -0.5668  0.3637 -1.1687
 1133SOL     OW15034   1.964   4.525   8.438 -0.0081  0.2077 -0.4296
 1133SOL    HW115035   2.049   4.483   8.435 -0.8717 -1.4781 -1.3293
 1133SOL    HW215036   1.938   4.522   8.530  0.6728  1.4212 -0.2075
 1134SOL     OW15037   3.855   4.268   8.219 -0.4880 -0.3673  0.2553
 1134SOL    HW115038   3.949   4.250   8.208 -0.6359 -0.9568 -0.0778
 1134SOL    HW215039   3.819   4.189   8.178 -1.7070  0.5002 -0.3426
 1135SOL     OW15040   3.848   1.713   5.752 -0.4695  0.1463 -0.3990
 1135SOL    HW115041   3.819   1.791   5.705  0.6153 -0.2438 -1.7289
 1135SOL    HW215042   3.899   1.666   5.685 -1.0077 -3.7278  1.9221
 1136SOL     OW15043   1.737   4.376   3.725 -1.1003  0.6617  0.6101
 1136SOL    HW115044   1.761   4.388   3.633  2.1892  0.8960  1.5207
 1136SOL    HW215045   1.825   4.357   3.757 -0.5300 -0.8587 -1.9383
 1137SOL     OW15046   3.985   3.240   4.304  0.0592 -0.1513 -0.1409
 1137SOL    HW115047   4.035   3.161   4.326 -0.9049 -0.5951  0.4875
 1137SOL    HW215048   4.013   3.294   4.377  2.4157 -0.3035 -0.9426
 1138SOL     OW15049   1.629   2.133   1.705  0.0083 -0.2956 -0.4800
 1138SOL    HW115050   1.646   2.075   1.631  1.7699  0.3436 -0.5866
 1138SOL    HW215051   1.534   2.131   1.701 -0.1377  3.7634  1.1719
 1139SOL     OW15052   1.149   4.631  14.481 -0.0417  0.1424 -0.3115
 1139SOL    HW115053   1.123   4.642  14.573  3.3157 -0.2055  0.6863
 1139SOL    HW215054   1.141   4.717  14.442 -0.9782 -0.1444 -0.7416
 1140SOL     OW15055   2.946   1.620   3.791 -0.2794 -0.0529  0.1125
 1140SOL    HW115056   2.851   1.614   3.780 -0.4694  1.7488  0.6935
 1140SOL    HW215057   2.948   1.661   3.877  0.0900 -0.9974  0.5590
 1141SOL     OW15058   0.479   1.498   9.907  0.7328 -0.0424  0.5150
 1141SOL    HW115059   0.505   1.503   9.815 -0.6845 -1.4899  0.0193
 1141SOL    HW215060   0.387   1.525   9.912  0.0682 -2.1251 -0.3647
 1142SOL     OW15061   0.867   2.311   9.248  0.5649  0.0756 -0.0095
 1142SOL    HW115062   0.929   2.378   9.274 -0.7774  1.8921 -1.4231
 1142SOL    HW215063   0.840   2.268   9.329  0.7293 -0.1379 -0.0701
 1143SOL     OW15064   0.724   1.663   4.640  0.0161 -0.0057 -0.0381
 1143SOL    HW115065   0.779   1.627   4.570 -0.8396  1.6184 -1.5424
 1143SOL    HW215066   0.743   1.609   4.717  0.5798 -0.3256 -0.4038
 1144SOL     OW15067   1.153   1.602   9.132 -0.1727  0.5949  0.1954
 1144SOL    HW115068   1.188   1.629   9.216  1.0089  0.1458 -0.1582
 1144SOL    HW215069   1.103   1.523   9.154  1.8882 -0.0479  2.5003
 1145SOL     OW15070   2.440   4.078   5.377 -0.1259  0.0876  0.2241
 1145SOL    HW115071   2.409   4.033   5.298 -1.0244  0.9461  0.0905
 1145SOL    HW215072   2.473   4.156   5.333 -0.0068 -1.0384 -1.7298
 1146SOL     OW15073   1.233   1.034  15.448  0.2168 -0.6584  0.1743
 1146SOL    HW115074   1.161   1.017  15.509 -0.7922  0.2897 -0.7623
 1146SOL    HW215075   1.198   0.987  15.373 -1.7332 -1.0496  1.3208
 1147SOL     OW15076   4.490   1.626  12.255 -0.3348  0.1906 -0.3163
 1147SOL    HW115077   4.436   1.570  12.198 -2.8919 -0.7071  3.0221
 1147SOL    HW215078   4.447   1.712  12.253 -0.5886  0.0714  0.0784
 1148SOL     OW15079   3.872   2.302   4.083  0.1199 -0.4574 -0.0396
 1148SOL    HW115080   3.801   2.329   4.025 -2.1397 -2.2528  1.8768
 1148SOL    HW215081   3.943   2.363   4.062  2.6250 -3.8819 -1.3213
 1149SOL     OW15082   4.610   2.573  15.947 -0.9664 -0.4411 -0.5187
 1149SOL    HW115083   4.564   2.498  15.909 -0.0938 -0.2883 -1.9066
 1149SOL    HW215084   4.584   2.562  16.038 -4.7428 -0.0018 -1.5534
 1150SOL     OW15085   2.317   1.921   5.182 -0.2689  0.0153 -0.4194
 1150SOL    HW115086   2.256   1.906   5.110  0.8334  2.3108 -1.8150
 1150SOL    HW215087   2.262   1.972   5.241 -0.8281 -0.2012 -0.7479
 1151SOL     OW15088   4.193   0.891   9.723 -0.7182 -0.3590 -0.3999
 1151SOL    HW115089   4.176   0.825   9.790 -1.1735 -0.2286 -0.3861
 1151SOL    HW215090   4.122   0.954   9.736  1.8924  2.9305 -1.9981
 1152SOL     OW15091   4.577   3.283   7.721  0.2802  0.1022  0.2453
 1152SOL    HW115092   4.620   3.319   7.799 -0.3900 -0.3100  0.8047
 1152SOL    HW215093   4.630   3.204   7.726  0.0536  0.0412  1.6847
 1153SOL     OW15094   2.964   4.307   2.792 -0.0845 -0.0615  0.5110
 1153SOL    HW115095   2.959   4.250   2.868 -0.5830  1.1400  1.3813
 1153SOL    HW215096   2.935   4.245   2.726 -0.5264 -0.2513  0.8892
 1154SOL     OW15097   3.449   0.018   9.154 -0.4174 -0.5779  0.0239
 1154SOL    HW115098   3.536   4.730   9.131  0.3723  1.5732  0.0178
 1154SOL    HW215099   3.431   0.082   9.085  1.3494  0.4733  0.5358
 1155SOL     OW15100   0.508   2.979   3.381  0.3276 -1.0011 -0.2085
 1155SOL    HW115101   0.550   3.016   3.458 -1.5452 -0.1025  0.3945
 1155SOL    HW215102   0.574   2.993   3.313  1.0510 -1.1840  0.4566
 1156SOL     OW15103   3.064   2.554   5.038 -0.2073 -0.1550 -0.3145
 1156SOL    HW115104   3.093   2.527   4.951  0.8728 -0.7173  0.2125
 1156SOL    HW215105   3.109   2.487   5.089  0.8397  0.1780 -0.7914
 1157SOL     OW15106   4.209   4.536  11.152  0.0412  0.2554 -0.0441
 1157SOL    HW115107   4.263   4.614  11.156 -0.5984  0.5677  2.1453
 1157SOL    HW215108   4.246   4.472  11.213  0.4258  1.1083  0.6176
 1158SOL     OW15109   3.950   0.063   0.255  0.1695  0.1959 -0.0603
 1158SOL    HW115110   3.930   0.010   0.179 -1.2854 -0.2821  0.6511
 1158SOL    HW215111   3.944   4.744   0.327  1.0707  1.1324  0.8325
 1159SOL     OW15112   4.514   3.551   4.799 -0.6353 -0.3968 -0.3630
 1159SOL    HW115113   4.527   3.638   4.761 -0.3113 -0.8280 -1.2357
 1159SOL    HW215114   4.588   3.543   4.859 -1.5572 -3.8161  0.3021
 1160SOL     OW15115   1.634   2.893  12.865  0.1578 -0.0048 -0.3820
 1160SOL    HW115116   1.703   2.959  12.871 -1.7373  2.0821 -1.2901
 1160SOL    HW215117   1.666   2.836  12.934 -2.5096 -0.6116  0.3675
 1161SOL     OW15118   1.369   0.636   2.678  0.0664 -0.6984  0.2740
 1161SOL    HW115119   1.377   0.722   2.637  0.1622 -0.0658  1.6136
 1161SOL    HW215120   1.413   0.653   2.762 -1.9695  0.2086  1.1476
 1162SOL     OW15121   0.287   1.409  13.876  0.1204  0.1806  0.4446
 1162SOL    HW115122   0.275   1.462  13.955  0.7977 -2.3106  2.2039
 1162SOL    HW215123   0.212   1.350  13.882 -1.4045  1.9777 -1.0036
 1163SOL     OW15124   0.245   1.339   1.238 -0.1198  0.0014  0.3885
 1163SOL    HW115125   0.240   1.369   1.328 -1.2885 -0.1228  0.3713
 1163SOL    HW215126   0.316   1.388   1.198 -2.1820  0.6149 -2.5610
 1164SOL     OW15127   3.933   0.061   9.269  0.0477  0.5259 -0.8273
 1164SOL    HW115128   3.902   4.716   9.252 -0.2061  0.4877 -0.1597
 1164SOL    HW215129   3.995   0.080   9.198  2.2255 -2.9528  0.1126
 1165SOL     OW15130   0.279   0.847   5.680  0.0672 -0.2830 -0.1912
 1165SOL    HW115131   0.355   0.830   5.735 -0.2111  0.5507  0.4526
 1165SOL    HW215132   0.233   0.765   5.702 -1.1565  0.8258  1.4531
 1166SOL     OW15133   2.135   0.233   2.451 -0.4351  0.2796 -0.0989
 1166SOL    HW115134   2.066   0.220   2.386 -1.6903 -0.8345  1.4717
 1166SOL    HW215135   2.099   0.292   2.517  1.2656 -0.7096  1.6859
 1167SOL     OW15136   2.176   1.802   9.032  0.2436  0.3400  0.9280
 1167SOL    HW115137   2.183   1.710   9.007  0.3567  0.6453 -0.1817
 1167SOL    HW215138   2.089   1.809   9.071 -0.3421  4.3858 -1.0783
 1168SOL     OW15139   3.630   1.168  15.597  0.7905  0.2238  0.1360
 1168SOL    HW115140   3.597   1.161  15.686 -2.5191 -2.0693 -1.2741
 1168SOL    HW215141   3.551   1.192  15.549 -0.3657  0.5670  2.2246
 1169SOL     OW15142   3.955   1.059   8.437 -0.2588  0.1432 -0.2336
 1169SOL    HW115143   3.946   0.974   8.481  4.1099  1.4494  3.1339
 1169SOL    HW215144   3.874   1.108   8.445 -0.6287 -0.3705 -0.8080
 1170SOL     OW15145   0.768   0.789   6.178  0.0138  0.0044  0.1797
 1170SOL    HW115146   0.753   0.722   6.245 -1.1606 -1.3751 -1.4665
 1170SOL    HW215147   0.684   0.834   6.178 -0.2862 -0.5722 -0.9564
 1171SOL     OW15148   0.338   1.214   6.365  0.0537  0.2838 -0.2981
 1171SOL    HW115149   0.271   1.279   6.388  1.2527  1.2261  0.5577
 1171SOL    HW215150   0.290   1.136   6.337 -0.3672  0.6227 -0.5282
 1172SOL     OW15151   0.847   4.669   5.118  0.0453  0.0910 -0.0655
 1172SOL    HW115152   0.807   4.738   5.172 -1.2171  2.3808 -3.9274
 1172SOL    HW215153   0.840   4.716   5.035  1.8507  0.4532 -0.0013
 1173SOL     OW15154   1.041   2.316   8.282 -0.1213  0.2251 -0.3734
 1173SOL    HW115155   0.980   2.339   8.352 -0.9042  1.7933 -1.5508
 1173SOL    HW215156   1.085   2.398   8.262 -0.2282  0.1070 -1.0952
 1174SOL     OW15157   3.047   1.766   4.017 -0.0749 -0.2183  0.0577
 1174SOL    HW115158   3.008   1.740   4.100  0.7257 -3.2287 -0.5409
 1174SOL    HW215159   3.041   1.862   4.023 -2.0258 -0.3862  0.6803
 1175SOL     OW15160   1.652   0.902   8.558 -0.2405  0.1855 -0.1264
 1175SOL    HW115161   1.682   0.854   8.481 -2.7775  0.2379 -1.1381
 1175SOL    HW215162   1.728   0.952   8.588  1.4192 -1.3139 -1.8309
 1176SOL     OW15163   0.143   2.204   7.409  0.1691 -1.3333  0.0786
 1176SOL    HW115164   0.190   2.132   7.367 -0.9304 -0.8305 -1.9748
 1176SOL    HW215165   0.198   2.203   7.488  1.5208 -0.8715 -0.8583
 1177SOL     OW15166   4.219   3.725   4.778 -0.3457 -0.0809 -0.0653
 1177SOL    HW115167   4.260   3.801   4.819 -0.9883  1.0601 -1.5276
 1177SOL    HW215168   4.275   3.655   4.811  1.2896  2.0379  1.6314
 1178SOL     OW15169   2.151   3.361  11.324  0.2038 -0.2348 -0.7746
 1178SOL    HW115170   2.207   3.431  11.289  0.7358 -0.2622  0.0279
 1178SOL    HW215171   2.073   3.417  11.324  0.5346  0.2109  0.3741
 1179SOL     OW15172   0.492   3.452  14.465 -0.1556 -0.0265 -0.2164
 1179SOL    HW115173   0.520   3.437  14.375 -2.1335 -0.5564 -0.7333
 1179SOL    HW215174   0.582   3.460  14.497 -0.1474  2.2571 -0.7772
 1180SOL     OW15175   0.195   3.661   2.456  0.2828 -0.5151  0.0182
 1180SOL    HW115176   0.227   3.751   2.464  0.3013 -0.4572 -0.6881
 1180SOL    HW215177   0.114   3.670   2.406  0.3365 -0.8671 -0.1283
 1181SOL     OW15178   2.452   3.362   5.145 -0.1098  0.0220  0.3789
 1181SOL    HW115179   2.435   3.394   5.057  1.8357 -3.0745 -1.1020
 1181SOL    HW215180   2.521   3.423   5.173  1.6347 -2.3255  1.2101
 1182SOL     OW15181   0.417   0.892   1.926 -0.0840 -0.1652 -0.4922
 1182SOL    HW115182   0.368   0.897   2.008  1.3737 -2.2953  0.5076
 1182SOL    HW215183   0.344   0.900   1.865 -1.6770  0.2170  1.4690
 1183SOL     OW15184   4.354   0.847   5.142  0.2085 -0.2571 -1.0478
 1183SOL    HW115185   4.361   0.879   5.233 -0.6660  0.3049 -1.1809
 1183SOL    HW215186   4.396   0.763   5.160  1.4192  0.3489 -0.9816
 1184SOL     OW15187   3.185   4.656   6.203  0.2308 -0.1816 -0.7660
 1184SOL    HW115188   3.243   4.683   6.131 -0.2083  0.1261 -1.0076
 1184SOL    HW215189   3.198   4.562   6.199  1.6601  0.0115 -0.4029
 1185SOL     OW15190   4.109   1.429   1.592 -0.1677  0.0381  0.2711
 1185SOL    HW115191   4.094   1.502   1.652 -2.1620  0.4886 -0.7789
 1185SOL    HW215192   4.155   1.370   1.651  0.5035  1.2777  0.9897
 1186SOL     OW15193   3.403   4.234  10.057 -0.0169 -0.0850  0.5290
 1186SOL    HW115194   3.461   4.217   9.983  0.5550  2.1765  0.4667
 1186SOL    HW215195   3.373   4.322  10.032  1.6622  0.8890  1.9525
 1187SOL     OW15196   2.232   1.269   8.134 -0.1861 -0.5352 -0.2676
 1187SOL    HW115197   2.250   1.215   8.058  1.7209  1.7653 -1.4632
 1187SOL    HW215198   2.209   1.206   8.202 -0.6485  0.7637  0.7919
 1188SOL     OW15199   1.111   2.322   7.743  0.3005  0.4155  0.2196
 1188SOL    HW115200   1.188   2.378   7.751  0.9609 -0.2573 -1.7362
 1188SOL    HW215201   1.067   2.355   7.665 -0.2701  0.4210  0.5382
 1189SOL     OW15202   2.990   1.120  16.492  0.1354 -0.2056  0.5257
 1189SOL    HW115203   3.074   1.100  16.451 -1.0677 -2.3043 -0.9006
 1189SOL    HW215204   2.929   1.065  16.443  0.6109 -1.0163  0.8489
 1190SOL     OW15205   0.143   1.430  15.366 -0.0528 -0.1656  0.0569
 1190SOL    HW115206   0.194   1.379  15.303 -1.0366  0.6616 -1.4123
 1190SOL    HW215207   0.058   1.425  15.323  0.8012 -1.9313 -1.4211
 1191SOL     OW15208   1.700   1.345  17.196  0.0281 -0.4855 -0.0041
 1191SOL    HW115209   1.715   1.439  17.204 -1.3527 -0.2354 -0.4068
 1191SOL    HW215210   1.699   1.326  17.289  3.4998 -0.4342  0.0485
 1192SOL     OW15211   2.748   1.327   3.556 -0.0626  0.5456  0.1981
 1192SOL    HW115212   2.760   1.303   3.464  1.1883 -1.0670  0.7906
 1192SOL    HW215213   2.777   1.249   3.603 -0.4375  0.2233 -0.0956
 1193SOL     OW15214   2.974   0.215   4.642  0.2598 -0.1201  0.4886
 1193SOL    HW115215   3.031   0.283   4.605  0.0945  0.1679  0.7689
 1193SOL    HW215216   2.887   0.254   4.633  0.9395  1.0782 -0.8820
 1194SOL     OW15217   1.080   4.505   3.999 -0.4437  0.1934 -0.3436
 1194SOL    HW115218   1.047   4.587   3.964  0.5099 -0.0386 -1.8008
 1194SOL    HW215219   1.169   4.535   3.980  0.5801 -2.3442  0.4740
 1195SOL     OW15220   0.064   3.867   5.635  1.6043 -0.3817  0.9049
 1195SOL    HW115221   0.134   3.902   5.581  0.2959  0.9415  0.0874
 1195SOL    HW215222   0.068   3.931   5.706  0.4073  3.9942 -3.0626
 1196SOL     OW15223   2.396   2.306   7.987 -0.0522 -0.3462 -0.5976
 1196SOL    HW115224   2.409   2.400   8.001 -0.7635 -0.0758 -1.7779
 1196SOL    HW215225   2.486   2.275   7.982 -0.2043 -0.7596 -0.7723
 1197SOL     OW15226   3.943   1.803   8.540 -0.3025 -0.0984 -0.2998
 1197SOL    HW115227   3.951   1.719   8.585 -0.3190 -0.4139 -0.8781
 1197SOL    HW215228   3.849   1.803   8.527 -0.3920 -0.6852  0.3198
 1198SOL     OW15229   3.884   1.594   1.308 -0.1962  0.3000  0.1039
 1198SOL    HW115230   3.932   1.661   1.356  1.0318 -0.0033 -0.7217
 1198SOL    HW215231   3.841   1.554   1.384  0.6756  0.6168  0.7627
 1199SOL     OW15232   0.073   1.608   2.779 -0.5464 -0.3401 -0.3791
 1199SOL    HW115233   0.027   1.570   2.703 -1.6554 -0.1846  0.2102
 1199SOL    HW215234   0.086   1.700   2.754  0.2184 -0.4987 -0.5561
 1200SOL     OW15235   2.816   1.577   8.802 -0.6367 -0.1272  0.1347
 1200SOL    HW115236   2.750   1.645   8.817 -1.6328 -0.9893 -0.3805
 1200SOL    HW215237   2.864   1.584   8.884 -0.3334  0.1856 -0.0681
 1201SOL     OW15238   0.628   3.411  10.415  0.1168 -0.3979 -0.8004
 1201SOL    HW115239   0.569   3.393  10.488 -0.9265  0.2373 -1.4836
 1201SOL    HW215240   0.589   3.489  10.377 -0.2812 -0.4006 -0.3973
 1202SOL     OW15241   3.025   2.338   2.149  0.3873  0.3611  1.3054
 1202SOL    HW115242   2.947   2.390   2.169  0.8463  1.9536 -1.0369
 1202SOL    HW215243   3.087   2.377   2.209  1.9180  1.2911 -0.8807
 1203SOL     OW15244   3.723   1.257   9.835  0.1706  0.2048 -0.2883
 1203SOL    HW115245   3.783   1.332   9.830  1.4789 -0.7695  0.8922
 1203SOL    HW215246   3.698   1.247   9.743  0.0608  1.2145 -0.3782
 1204SOL     OW15247   0.511   0.546   6.179 -0.0933  0.1480  0.3434
 1204SOL    HW115248   0.512   0.463   6.227 -1.5941 -0.1137 -0.0770
 1204SOL    HW215249   0.550   0.504   6.101 -1.3456 -1.7924  0.7705
 1205SOL     OW15250   0.401   0.224  12.846 -0.0238  0.1415 -0.3209
 1205SOL    HW115251   0.391   0.316  12.869 -0.9120  0.2903 -1.3328
 1205SOL    HW215252   0.322   0.190  12.888 -0.6324  2.0470  0.0901
 1206SOL     OW15253   0.852   1.383   6.498 -0.6372  0.0302  0.3514
 1206SOL    HW115254   0.820   1.432   6.574 -3.7420 -2.7477  0.8312
 1206SOL    HW215255   0.902   1.451   6.453 -1.9001  0.2430 -0.7052
 1207SOL     OW15256   3.324   1.476   6.080  0.4250 -0.3127  0.0809
 1207SOL    HW115257   3.247   1.429   6.111  1.4070 -0.9991  1.4137
 1207SOL    HW215258   3.314   1.476   5.984 -3.9662 -2.6664  0.5267
 1208SOL     OW15259   4.324   2.375   3.940  0.1158 -0.1272  0.7053
 1208SOL    HW115260   4.338   2.388   3.846 -0.7596  0.4349  0.6479
 1208SOL    HW215261   4.414   2.379   3.973  0.1401 -3.6311  1.1040
 1209SOL     OW15262   1.788   2.852   4.489  0.0530  0.2220 -0.4797
 1209SOL    HW115263   1.765   2.796   4.563  0.9077 -1.4201 -1.4572
 1209SOL    HW215264   1.774   2.786   4.421  2.1138 -0.9322  0.2153
 1210SOL     OW15265   4.457   0.344   9.038  0.2592 -0.6852 -0.3192
 1210SOL    HW115266   4.451   0.248   9.035 -0.2381 -0.6103 -1.9346
 1210SOL    HW215267   4.537   0.352   8.987  0.0982 -1.0258 -0.6320
 1211SOL     OW15268   1.815   2.735   0.453 -0.6113 -0.5812  0.0434
 1211SOL    HW115269   1.764   2.655   0.447 -1.1195 -0.0310 -3.0381
 1211SOL    HW215270   1.903   2.697   0.460 -0.0101  0.7467 -0.2654
 1212SOL     OW15271   3.124   1.570  13.102  0.0786 -0.0722  0.5807
 1212SOL    HW115272   3.151   1.656  13.133 -1.9951  1.5815 -2.3090
 1212SOL    HW215273   3.134   1.513  13.179  0.1228 -0.6643  0.1305
 1213SOL     OW15274   0.459   4.342  11.402  0.1561  0.3849 -0.0456
 1213SOL    HW115275   0.419   4.387  11.327  0.2974 -0.8909 -0.8736
 1213SOL    HW215276   0.446   4.251  11.375  0.2071  0.1360  0.7591
 1214SOL     OW15277   2.017   1.024  17.442  0.0230 -0.1483  0.2794
 1214SOL    HW115278   1.937   1.020  17.495  1.3453 -0.6349  2.2623
 1214SOL    HW215279   1.986   0.993  17.358 -0.1064 -0.8253  0.5786
 1215SOL     OW15280   3.193   4.661   1.446  0.1034  0.5320  0.0585
 1215SOL    HW115281   3.271   4.612   1.417  0.7623  1.6649 -0.0634
 1215SOL    HW215282   3.120   4.599   1.444 -0.3515  0.9980  2.2786
 1216SOL     OW15283   0.595   1.611   3.117 -0.0772  0.6189  0.5916
 1216SOL    HW115284   0.585   1.539   3.179 -0.0997  1.3527  1.4488
 1216SOL    HW215285   0.536   1.580   3.049  3.3773  0.7114 -2.4671
 1217SOL     OW15286   1.908   0.147   2.339  0.0985 -0.1141 -0.2669
 1217SOL    HW115287   1.847   0.123   2.409 -0.1966  1.2105 -0.0584
 1217SOL    HW215288   1.836   0.145   2.276  0.3271 -2.7119 -0.4323
 1218SOL     OW15289   0.932   4.352   6.750 -0.2202  0.0148  0.6624
 1218SOL    HW115290   0.882   4.431   6.728  0.6924 -0.0247 -1.6117
 1218SOL    HW215291   0.864   4.308   6.799 -0.6543  0.6666  0.6439
 1219SOL     OW15292   0.771   1.954   4.688  0.2463 -0.0948  0.5735
 1219SOL    HW115293   0.755   1.995   4.602  1.0202  0.3285  0.6272
 1219SOL    HW215294   0.758   1.863   4.663 -0.7589 -0.0424  0.9230
 1220SOL     OW15295   1.711   4.411  13.885 -0.0570 -0.0755 -0.1739
 1220SOL    HW115296   1.743   4.430  13.796 -1.4722  1.7071 -0.3069
 1220SOL    HW215297   1.791   4.430  13.933  0.3724 -2.6639  0.0854
 1221SOL     OW15298   2.794   4.249   8.576  0.4843  0.1909  0.0980
 1221SOL    HW115299   2.824   4.205   8.655 -0.3255 -0.2492  0.1609
 1221SOL    HW215300   2.852   4.324   8.572  1.3831 -0.6229 -2.1960
 1222SOL     OW15301   3.267   3.833   6.027  0.2345 -0.2084  0.5409
 1222SOL    HW115302   3.286   3.856   5.936  1.5183 -2.2359  0.2809
 1222SOL    HW215303   3.330   3.878   6.084 -0.2218 -1.4934  2.0836
 1223SOL     OW15304   0.873   3.109  17.753 -0.1718  0.0656  0.1053
 1223SOL    HW115305   0.910   3.108   0.069  0.0140  2.6724  0.0683
 1223SOL    HW215306   0.948   3.094  17.696 -0.9280  0.6148 -1.0421
 1224SOL     OW15307   2.455   1.106  14.867  0.2648 -0.1336 -0.0661
 1224SOL    HW115308   2.474   1.023  14.911 -2.7916  0.3826  2.1931
 1224SOL    HW215309   2.484   1.076  14.780  1.0952 -2.8098  1.1211
 1225SOL     OW15310   1.837   1.961   5.471 -0.5221 -0.2820  0.0522
 1225SOL    HW115311   1.824   1.898   5.542  0.5302 -0.7072 -0.1237
 1225SOL    HW215312   1.750   1.986   5.442 -0.1790  1.7884  0.8188
 1226SOL     OW15313   3.484   0.787   3.759  0.4037  0.2049  0.5418
 1226SOL    HW115314   3.446   0.847   3.695 -0.5019 -2.0424 -1.0354
 1226SOL    HW215315   3.541   0.844   3.811 -2.3318  1.5067  2.1641
 1227SOL     OW15316   4.537   1.389   1.437 -0.0284 -0.0841 -0.2074
 1227SOL    HW115317   4.535   1.407   1.343  0.5976 -1.3934 -0.4753
 1227SOL    HW215318   4.609   1.450   1.456 -2.8118  2.6050  1.7576
 1228SOL     OW15319   3.573   3.164   8.804  0.6015  0.2724 -0.1970
 1228SOL    HW115320   3.503   3.142   8.866  2.3834  0.2993  1.8380
 1228SOL    HW215321   3.622   3.232   8.851  2.9855  0.5329 -3.0855
 1229SOL     OW15322   1.067   1.849  12.216  0.5345  0.6666  0.3407
 1229SOL    HW115323   1.092   1.884  12.302  0.2644 -0.7911  1.0082
 1229SOL    HW215324   1.090   1.758  12.234 -2.8395 -0.7934 -2.6346
 1230SOL     OW15325   3.755   1.908   4.954 -0.8225 -0.3665  0.1010
 1230SOL    HW115326   3.845   1.924   4.980 -0.7724  0.1185 -0.3741
 1230SOL    HW215327   3.740   1.980   4.892  0.6849 -1.6585 -1.7579
 1231SOL     OW15328   2.415   2.432   2.194 -0.2641  0.0357  0.3077
 1231SOL    HW115329   2.464   2.364   2.146 -1.9146 -2.0892  1.6520
 1231SOL    HW215330   2.376   2.374   2.259  1.3870  0.8670  2.0513
 1232SOL     OW15331   2.072   1.458  15.178 -0.1988  0.9412  0.6861
 1232SOL    HW115332   2.121   1.540  15.180 -0.4146  1.1718 -3.0986
 1232SOL    HW215333   2.147   1.399  15.189 -0.6010  0.0283 -1.3823
 1233SOL     OW15334   1.207   2.970   4.285 -0.1647  0.1217 -0.3267
 1233SOL    HW115335   1.224   3.041   4.346  2.9240 -3.4421  2.8774
 1233SOL    HW215336   1.297   2.941   4.277 -0.1074 -0.0760  1.1370
 1234SOL     OW15337   2.413   2.349   9.628 -0.1118 -0.1480 -0.0976
 1234SOL    HW115338   2.339   2.326   9.684 -1.0218  0.8098 -0.9033
 1234SOL    HW215339   2.377   2.320   9.544  2.2424 -0.9887 -0.8210
 1235SOL     OW15340   4.676   4.429   1.087  0.0253 -0.5614  0.0214
 1235SOL    HW115341   4.691   4.404   1.178 -0.7332  0.5090  0.4442
 1235SOL    HW215342   4.726   4.371   1.031  0.7694  1.9010 -1.8668
 1236SOL     OW15343   2.958   4.274   3.799  0.0600 -0.2087 -0.2020
 1236SOL    HW115344   2.984   4.271   3.892 -0.9460  1.8895  0.1365
 1236SOL    HW215345   3.023   4.213   3.764 -0.0552 -0.6360  0.3224
 1237SOL     OW15346   3.283   0.199  16.726 -0.5026  0.2270  0.1014
 1237SOL    HW115347   3.225   0.134  16.766  0.2196 -1.2683 -1.3233
 1237SOL    HW215348   3.247   0.201  16.638 -1.6051  0.3288  0.5572
 1238SOL     OW15349   3.478   4.526   0.399 -0.5936  0.2564 -0.6704
 1238SOL    HW115350   3.548   4.468   0.370  1.6755  0.8073  3.7442
 1238SOL    HW215351   3.502   4.556   0.486 -0.8437 -0.9422 -0.1838
 1239SOL     OW15352   1.523   0.224   8.581 -0.6047  0.1321  0.5125
 1239SOL    HW115353   1.435   0.239   8.547 -0.9100 -1.3161  0.6891
 1239SOL    HW215354   1.507   0.228   8.675  1.5820  0.7759  0.8745
 1240SOL     OW15355   3.849   0.707   6.252 -0.0048 -0.0202 -0.2071
 1240SOL    HW115356   3.837   0.675   6.163 -0.4327  1.0253 -0.5301
 1240SOL    HW215357   3.879   0.797   6.238  0.7930 -0.1257  0.7883
 1241SOL     OW15358   2.155   3.958   6.161 -0.2129 -0.6153 -0.3968
 1241SOL    HW115359   2.091   4.026   6.184 -0.3314 -1.1715  0.9068
 1241SOL    HW215360   2.158   3.895   6.233  0.6946 -0.1245  0.0019
 1242SOL     OW15361   0.209   3.877   6.912 -0.0905 -0.3393  0.2490
 1242SOL    HW115362   0.237   3.944   6.849  1.4081 -0.0445  1.2458
 1242SOL    HW215363   0.281   3.895   6.972 -0.5783  1.7552  0.1939
 1243SOL     OW15364   4.091   3.483  14.979 -0.0214  0.3719 -0.0549
 1243SOL    HW115365   4.153   3.556  14.992  1.7072 -1.2528  0.8089
 1243SOL    HW215366   4.155   3.412  14.977 -0.6419 -0.1416 -2.0611
 1244SOL     OW15367   1.721   3.031   8.093 -0.0184  0.4965  0.0437
 1244SOL    HW115368   1.699   2.951   8.046 -0.9422  0.5901  0.3219
 1244SOL    HW215369   1.808   3.008   8.125 -0.7350 -0.7100  1.1191
 1245SOL     OW15370   3.681   2.620   6.716 -0.3002 -0.0311 -0.1233
 1245SOL    HW115371   3.606   2.646   6.769  0.2620  1.3315  0.0035
 1245SOL    HW215372   3.751   2.620   6.782 -0.1440  1.4356 -0.2910
 1246SOL     OW15373   2.020   2.030   8.473  0.3388  0.6791  0.0230
 1246SOL    HW115374   2.101   2.018   8.523  0.6983  1.9179 -0.2668
 1246SOL    HW215375   2.041   1.972   8.400 -0.0200 -0.4088  0.7809
 1247SOL     OW15376   0.871   4.619   6.732  0.1756 -0.2702 -0.0261
 1247SOL    HW115377   0.809   4.678   6.775  1.4978  1.4754 -0.5183
 1247SOL    HW215378   0.936   4.618   6.803 -0.3656  0.9147  0.4900
 1248SOL     OW15379   2.091   1.153   1.844  0.3692  0.1877  0.7046
 1248SOL    HW115380   2.040   1.073   1.829 -3.3656  2.3274  1.8768
 1248SOL    HW215381   2.150   1.157   1.770 -0.3748 -0.5369  0.0733
 1249SOL     OW15382   1.917   3.512  13.716 -0.7587 -0.3837 -0.2974
 1249SOL    HW115383   1.973   3.511  13.794 -1.9789  1.8130  0.6069
 1249SOL    HW215384   1.854   3.581  13.735 -0.0382  0.3897 -0.7438
 1250SOL     OW15385   0.273   0.146   1.464 -0.3582 -0.2622 -0.2565
 1250SOL    HW115386   0.268   0.069   1.408  1.3242 -0.9948  0.6001
 1250SOL    HW215387   0.183   0.162   1.494 -0.7623  1.0967 -2.1274
 1251SOL     OW15388   4.389   0.036   9.025 -0.3029 -0.2758  0.3699
 1251SOL    HW115389   4.444   4.704   9.045 -0.9908 -0.6689  0.7704
 1251SOL    HW215390   4.372   0.021   8.932  0.3987 -1.9776  0.5150
 1252SOL     OW15391   3.311   3.303   5.898  0.2291  0.3603 -0.1846
 1252SOL    HW115392   3.268   3.266   5.975 -1.2121  1.5513 -0.4275
 1252SOL    HW215393   3.334   3.388   5.936  0.5516 -0.5314  1.6296
 1253SOL     OW15394   0.129   0.913   8.263  0.6068 -0.1532 -0.0663
 1253SOL    HW115395   0.061   0.877   8.320  0.3199  1.4929  0.6132
 1253SOL    HW215396   0.206   0.868   8.297 -0.0205 -1.4227 -0.2978
 1254SOL     OW15397   3.386   1.797   1.994  0.0678  0.2519  0.0633
 1254SOL    HW115398   3.302   1.813   2.036 -0.4689 -0.7691 -0.6075
 1254SOL    HW215399   3.440   1.802   2.073  1.8595  1.3721 -1.2409
 1255SOL     OW15400   2.428   2.290  13.970 -0.0088  0.3234 -0.1480
 1255SOL    HW115401   2.438   2.195  13.965  1.4507  0.5346 -1.4792
 1255SOL    HW215402   2.514   2.315  14.006  0.6909 -3.1328  0.6163
 1256SOL     OW15403   3.702   3.818   5.360  0.0519 -0.0563  0.4509
 1256SOL    HW115404   3.664   3.897   5.320 -0.2389 -0.7890 -0.7151
 1256SOL    HW215405   3.620   3.772   5.377 -0.2698  0.6372  0.7803
 1257SOL     OW15406   1.895   4.109   9.441 -0.1656 -0.3168 -0.6271
 1257SOL    HW115407   1.935   4.196   9.450 -0.1122 -0.5249  1.1783
 1257SOL    HW215408   1.905   4.077   9.530 -2.5349 -0.4597 -0.4332
 1258SOL     OW15409   4.701   4.636  14.302  0.0997  0.3336  0.2409
 1258SOL    HW115410   4.737   4.668  14.219  1.5113 -3.6315 -0.7254
 1258SOL    HW215411   4.682   4.545  14.279 -1.8257  0.3907  1.6077
 1259SOL     OW15412   1.676   1.960   8.388 -0.5756  0.1312  0.2570
 1259SOL    HW115413   1.615   1.909   8.334 -0.9785 -0.9846  1.7567
 1259SOL    HW215414   1.655   1.936   8.478  0.0829  0.1470  0.4171
 1260SOL     OW15415   4.498   0.122   3.254 -0.2963 -0.2120  0.5183
 1260SOL    HW115416   4.443   0.180   3.201  0.8593 -0.7471 -1.2531
 1260SOL    HW215417   4.452   0.113   3.338 -0.0218  0.0130  0.6935
 1261SOL     OW15418   3.131   4.097  14.427  0.4879 -0.0788 -0.4151
 1261SOL    HW115419   3.221   4.069  14.444  1.2862  1.6823 -1.7955
 1261SOL    HW215420   3.142   4.123  14.335  2.1712 -1.1925 -0.5146
 1262SOL     OW15421   3.074   1.311   8.949 -0.3423 -0.3971  0.2688
 1262SOL    HW115422   3.155   1.314   8.897  0.6472  0.9611  1.9074
 1262SOL    HW215423   3.075   1.403   8.974 -0.8809 -1.0066  2.4916
 1263SOL     OW15424   4.538   4.496   9.480  0.0764  0.3455 -0.1615
 1263SOL    HW115425   4.587   4.418   9.508  1.0420  1.1199  0.2967
 1263SOL    HW215426   4.494   4.527   9.559 -0.3068 -1.3751  0.3011
 1264SOL     OW15427   1.476   1.759   2.871  0.3106 -0.1074 -0.0185
 1264SOL    HW115428   1.393   1.721   2.845 -1.2254  2.8226  0.6459
 1264SOL    HW215429   1.478   1.737   2.964 -0.2113  0.0720  0.0297
 1265SOL     OW15430   2.537   4.676   8.174 -0.1715  0.0165  0.4390
 1265SOL    HW115431   2.606   4.630   8.222  0.1169 -0.6515 -0.6315
 1265SOL    HW215432   2.589   4.683   8.094 -0.1375 -3.1584  0.1651
 1266SOL     OW15433   2.278   2.770   8.713  0.0080  0.0138 -0.3125
 1266SOL    HW115434   2.264   2.687   8.667  1.0809  0.1740 -0.9409
 1266SOL    HW215435   2.344   2.803   8.651  2.4085  0.0186  2.2539
 1267SOL     OW15436   3.844   1.671   6.000  0.0896 -0.3148  0.9240
 1267SOL    HW115437   3.777   1.606   6.021  1.7133 -2.2375  0.1370
 1267SOL    HW215438   3.851   1.677   5.905 -0.0807  1.1059  0.9969
 1268SOL     OW15439   1.633   0.284   3.899 -0.1197 -0.1083  0.2761
 1268SOL    HW115440   1.669   0.217   3.841 -2.0519 -1.5895  0.7731
 1268SOL    HW215441   1.714   0.330   3.916 -0.5627  0.7093  0.1441
 1269SOL     OW15442   4.401   1.223   8.779 -0.3413  0.0681  0.1140
 1269SOL    HW115443   4.376   1.136   8.808 -0.4380  0.8708  2.4395
 1269SOL    HW215444   4.330   1.278   8.812 -0.2617  1.2463 -1.6946
 1270SOL     OW15445   3.526   0.693  10.042 -0.1440 -0.1363 -0.4865
 1270SOL    HW115446   3.504   0.710  10.133 -1.3016 -0.4014 -0.7184
 1270SOL    HW215447   3.458   0.631  10.015  0.2365 -0.9943  0.5413
 1271SOL     OW15448   3.828   2.618  12.297  0.3266  0.2303  0.2097
 1271SOL    HW115449   3.840   2.629  12.391 -1.2850  3.2286  0.0560
 1271SOL    HW215450   3.917   2.631  12.265 -0.2915  0.9281 -1.2344
 1272SOL     OW15451   2.891   0.621   3.276 -0.3866  0.2021 -0.1904
 1272SOL    HW115452   2.920   0.644   3.188 -1.7286  2.3939 -0.0645
 1272SOL    HW215453   2.857   0.702   3.313  2.1700  1.1420  0.0887
 1273SOL     OW15454   2.199   2.316   6.888 -0.8202  0.7394  0.4325
 1273SOL    HW115455   2.207   2.372   6.811 -2.1994  2.1990  1.3600
 1273SOL    HW215456   2.154   2.241   6.848  2.2072 -0.8409 -0.0502
 1274SOL     OW15457   0.111   3.244   3.492  0.0252 -0.1177 -0.4035
 1274SOL    HW115458   0.163   3.315   3.455  0.5319 -0.2808 -0.0024
 1274SOL    HW215459   0.060   3.225   3.413  0.2794  2.0107 -1.0862
 1275SOL     OW15460   2.836   0.317  12.802 -0.0351  0.2795  0.2521
 1275SOL    HW115461   2.811   0.408  12.819 -1.4667  0.2993 -2.0948
 1275SOL    HW215462   2.770   0.267  12.850 -0.3183  0.9572  0.5647
 1276SOL     OW15463   0.994   2.382   8.986  0.1844  0.8604 -0.3222
 1276SOL    HW115464   1.084   2.366   9.015  0.1947 -1.0987 -1.4738
 1276SOL    HW215465   0.950   2.349   9.064 -0.4690  0.6939 -0.7609
 1277SOL     OW15466   2.279   2.264  16.445  1.0353 -0.1771  0.4319
 1277SOL    HW115467   2.285   2.172  16.471  1.0394  0.7759  3.7511
 1277SOL    HW215468   2.371   2.290  16.448  0.4142  2.2189 -1.3392
 1278SOL     OW15469   4.301   3.007  12.193  0.0161 -0.3755 -0.5203
 1278SOL    HW115470   4.314   3.062  12.271  2.0028 -1.5822  0.0053
 1278SOL    HW215471   4.273   2.925  12.233  0.4787 -0.1734  0.2221
 1279SOL     OW15472   1.168   2.786   9.362  0.5723  0.0383 -0.6803
 1279SOL    HW115473   1.165   2.879   9.386 -0.3253  0.6016 -2.9564
 1279SOL    HW215474   1.135   2.743   9.441 -1.3760  2.0769 -0.3452
 1280SOL     OW15475   4.469   0.497  17.592 -0.0387 -0.5876  0.6238
 1280SOL    HW115476   4.535   0.551  17.549 -1.2091 -1.0116 -1.7121
 1280SOL    HW215477   4.529   0.429  17.621  1.0581 -0.0959 -0.5137
 1281SOL     OW15478   1.495   2.890   6.715  0.1563 -0.3397  0.0232
 1281SOL    HW115479   1.446   2.827   6.768  0.2206 -0.8788 -0.5523
 1281SOL    HW215480   1.462   2.973   6.748  0.8726 -0.0378 -0.0206
 1282SOL     OW15481   0.481   0.357   0.301  0.0053  0.0449  0.2151
 1282SOL    HW115482   0.477   0.293   0.230  0.4111  0.5937 -0.3034
 1282SOL    HW215483   0.467   0.298   0.375  0.1429  0.7687  0.8225
 1283SOL     OW15484   2.213   1.673   3.319 -0.0322 -0.0208 -0.8340
 1283SOL    HW115485   2.255   1.747   3.363 -2.0942  0.1206  0.9341
 1283SOL    HW215486   2.173   1.720   3.245 -2.1728  0.6509  0.7283
 1284SOL     OW15487   3.017   2.789   0.828 -0.6420 -0.1943  0.5567
 1284SOL    HW115488   2.928   2.803   0.796 -0.3700 -0.2937 -0.2603
 1284SOL    HW215489   3.053   2.725   0.766  1.9518  1.0532  0.7635
 1285SOL     OW15490   2.703   1.551   2.651  0.1011 -0.7210 -0.1945
 1285SOL    HW115491   2.763   1.478   2.666  0.8332 -0.3096 -1.1896
 1285SOL    HW215492   2.759   1.605   2.595  0.1866  0.3109  0.8635
 1286SOL     OW15493   0.649   1.147   2.294  0.2077  0.1134 -0.6311
 1286SOL    HW115494   0.631   1.213   2.227 -0.6186  1.5918  1.0377
 1286SOL    HW215495   0.744   1.146   2.297  0.2598  0.1080 -2.2460
 1287SOL     OW15496   0.271   2.758   5.008 -0.1168  0.4323  0.0486
 1287SOL    HW115497   0.267   2.720   5.095 -0.2183 -2.2837 -1.1596
 1287SOL    HW215498   0.286   2.677   4.959 -1.5148 -0.9131  1.8689
 1288SOL     OW15499   3.554   0.529   9.492 -0.8564 -0.1065 -0.0204
 1288SOL    HW115500   3.463   0.536   9.463 -1.4628 -1.3031  1.6045
 1288SOL    HW215501   3.566   0.437   9.514  0.9253  0.2400  0.3988
 1289SOL     OW15502   2.679   3.425   7.468 -0.4962 -0.2252  0.1005
 1289SOL    HW115503   2.738   3.360   7.506 -0.1738  0.8241  1.4164
 1289SOL    HW215504   2.590   3.395   7.483 -1.3739  2.4758  0.2695
 1290SOL     OW15505   1.214   2.871  12.871  0.0202  0.2301  0.1722
 1290SOL    HW115506   1.287   2.904  12.922  0.6862  3.1411 -2.6460
 1290SOL    HW215507   1.262   2.802  12.826  0.9384  1.5034 -0.7831
 1291SOL     OW15508   4.410   0.713   8.664  0.4531 -0.1414 -0.4584
 1291SOL    HW115509   4.477   0.764   8.710  1.8585 -1.7912 -0.6539
 1291SOL    HW215510   4.390   0.769   8.589 -0.9610 -2.1441 -1.5790
 1292SOL     OW15511   1.748   0.622   5.390  0.3539  0.1028 -0.4780
 1292SOL    HW115512   1.818   0.570   5.430  0.9702  0.6703 -0.8218
 1292SOL    HW215513   1.713   0.661   5.470 -0.1848  1.4258 -1.3529
 1293SOL     OW15514   3.911   0.983  10.768 -0.2981  0.4418 -0.1011
 1293SOL    HW115515   3.929   0.930  10.846  1.7851 -1.8627 -2.1661
 1293SOL    HW215516   3.867   0.925  10.706 -1.2491  0.4679  0.5532
 1294SOL     OW15517   3.445   0.631   7.617  0.1629 -0.1434  0.1267
 1294SOL    HW115518   3.349   0.627   7.622  0.0381  0.7708 -1.4053
 1294SOL    HW215519   3.466   0.548   7.575 -0.4120  0.5357 -1.5541
 1295SOL     OW15520   1.934   2.579   5.148  0.3012  0.0635 -0.2019
 1295SOL    HW115521   1.913   2.601   5.239 -0.7640  2.1317 -0.9601
 1295SOL    HW215522   2.023   2.611   5.131  0.2192 -0.4348 -1.5542
 1296SOL     OW15523   4.050   0.897  12.205  0.0677 -0.4145  0.3352
 1296SOL    HW115524   3.984   0.964  12.185  3.0902  2.6837  0.7072
 1296SOL    HW215525   4.021   0.863  12.290  1.0866 -0.7276  0.5496
 1297SOL     OW15526   2.653   0.814   2.968  0.4502 -0.5437  0.0457
 1297SOL    HW115527   2.732   0.760   2.963  2.1211  1.7511  1.5522
 1297SOL    HW215528   2.693   0.900   2.978 -1.0759  0.1893 -0.1126
 1298SOL     OW15529   0.402   3.125  17.622  0.2907  0.1236 -0.1245
 1298SOL    HW115530   0.375   3.216  17.631 -1.2389 -0.5776  2.3749
 1298SOL    HW215531   0.464   3.130  17.549 -0.5527  2.3017 -0.6864
 1299SOL     OW15532   2.712   0.199  14.937 -0.3879  0.2129 -0.3005
 1299SOL    HW115533   2.669   0.284  14.948  0.0964  0.1650  2.1079
 1299SOL    HW215534   2.785   0.213  14.998  0.7221  0.1089 -1.5947
 1300SOL     OW15535   3.450   3.525   3.319 -0.2761 -0.6923 -0.2646
 1300SOL    HW115536   3.531   3.490   3.356 -1.1969 -0.7299  1.7517
 1300SOL    HW215537   3.411   3.454   3.267  1.0938 -2.2024  0.7475
 1301SOL     OW15538   4.717   0.656   5.661  0.2706 -0.0724 -0.0849
 1301SOL    HW115539   4.717   0.562   5.674 -0.0186 -0.4243 -2.5852
 1301SOL    HW215540   0.023   0.664   5.580 -0.8230 -0.5513 -0.7994
 1302SOL     OW15541   2.703   0.606  16.270 -0.4117 -0.0698 -0.4874
 1302SOL    HW115542   2.795   0.591  16.294 -1.0956 -1.1283  1.4820
 1302SOL    HW215543   2.719   0.638  16.182 -2.7325  3.0341  0.2268
 1303SOL     OW15544   1.057   3.474   8.877  0.2747 -0.4058 -0.2639
 1303SOL    HW115545   1.033   3.422   8.800 -0.8416 -1.4446  0.7940
 1303SOL    HW215546   0.981   3.524   8.905 -2.1991 -4.2370 -0.1238
 1304SOL     OW15547   3.174   1.139   0.450 -0.2092 -0.6747  0.0953
 1304SOL    HW115548   3.157   1.090   0.531 -2.2187 -0.9030 -0.4833
 1304SOL    HW215549   3.085   1.149   0.417  0.0399  0.3297 -0.2606
 1305SOL     OW15550   1.274   1.021  11.638 -0.3795  0.6827  0.6402
 1305SOL    HW115551   1.332   1.089  11.604 -1.0117  1.1656  0.5266
 1305SOL    HW215552   1.330   0.992  11.710 -1.8816  0.5340  1.7688
 1306SOL     OW15553   4.286   4.137   2.669  0.1947  0.5026 -0.4065
 1306SOL    HW115554   4.197   4.120   2.700 -0.3533 -0.7875 -2.7390
 1306SOL    HW215555   4.269   4.144   2.575  1.9662 -0.6344 -0.8085
 1307SOL     OW15556   2.407   2.651  15.153  0.3259  0.0826 -0.7737
 1307SOL    HW115557   2.474   2.608  15.206 -0.7774  1.3363  1.6603
 1307SOL    HW215558   2.444   2.653  15.065 -0.1680  0.4244 -0.9708
 1308SOL     OW15559   2.997   1.532  10.975 -1.1615 -0.1999  0.1398
 1308SOL    HW115560   2.913   1.487  10.968 -0.7335 -0.6400 -2.1346
 1308SOL    HW215561   2.976   1.623  10.953  2.1822  0.2532 -1.1617
 1309SOL     OW15562   4.048   0.278   9.102 -0.1591 -0.5351 -0.1859
 1309SOL    HW115563   4.092   0.328   9.171 -0.9314 -0.3490  0.1708
 1309SOL    HW215564   4.095   0.307   9.024  1.9301  0.8499  1.5990
 1310SOL     OW15565   2.761   4.567   7.263 -0.0881 -0.5896 -0.7657
 1310SOL    HW115566   2.692   4.505   7.286 -0.2216 -1.0042 -2.2431
 1310SOL    HW215567   2.738   4.645   7.312 -0.5319 -1.7981  0.9367
 1311SOL     OW15568   3.321   4.250  13.818  0.3405 -0.0370  0.0253
 1311SOL    HW115569   3.312   4.159  13.847 -0.2734 -0.0983 -0.3598
 1311SOL    HW215570   3.326   4.229  13.725 -2.3690  1.1015 -0.3867
 1312SOL     OW15571   3.525   2.169   6.474 -0.7308  0.0633  0.2190
 1312SOL    HW115572   3.545   2.077   6.462 -1.1717  0.1830 -1.3753
 1312SOL    HW215573   3.485   2.170   6.561  0.7172  0.6413  0.8873
 1313SOL     OW15574   3.008   2.568  13.759  0.4806 -0.2380 -0.4303
 1313SOL    HW115575   2.948   2.614  13.701 -1.2728 -2.2560 -0.2294
 1313SOL    HW215576   3.087   2.558  13.706  0.0215  0.1785 -1.2011
 1314SOL     OW15577   4.436   3.763   1.710 -0.2448 -0.3711 -0.2653
 1314SOL    HW115578   4.399   3.851   1.705 -0.1881 -0.2887  0.8497
 1314SOL    HW215579   4.523   3.789   1.740 -0.0348 -1.4958  0.1112
 1315SOL     OW15580   0.508   3.354   2.623 -0.2312  0.0753 -0.4001
 1315SOL    HW115581   0.480   3.267   2.652 -1.5982  0.2655 -1.1341
 1315SOL    HW215582   0.434   3.394   2.578 -2.4821 -3.5419  0.1194
 1316SOL     OW15583   1.681   3.132  17.129 -0.1968  0.2610 -0.0148
 1316SOL    HW115584   1.606   3.189  17.146  0.3931  0.9667  0.2071
 1316SOL    HW215585   1.637   3.049  17.112  1.7773 -0.9514  0.8168
 1317SOL     OW15586   2.565   4.169   0.092  0.2108 -0.2170 -0.0059
 1317SOL    HW115587   2.515   4.207   0.165 -0.5631 -2.8739  0.8315
 1317SOL    HW215588   2.658   4.179   0.112  0.8803 -0.3658 -3.0782
 1318SOL     OW15589   3.438   4.070  15.648  0.1577  0.3191 -0.3320
 1318SOL    HW115590   3.427   3.997  15.587  0.5689 -0.6942  0.8250
 1318SOL    HW215591   3.457   4.135  15.580 -2.3599  0.3838 -1.0002
 1319SOL     OW15592   4.136   4.034   6.737 -0.5179  0.3728  0.2278
 1319SOL    HW115593   4.055   3.983   6.732 -0.3699  0.3176 -1.5243
 1319SOL    HW215594   4.190   3.965   6.775  0.6118  0.6014 -0.9665
 1320SOL     OW15595   0.291   2.621   6.950 -0.6639  0.7251 -0.7340
 1320SOL    HW115596   0.329   2.585   7.031  0.1755 -1.4956 -2.1182
 1320SOL    HW215597   0.363   2.612   6.887  0.0122  0.5263  0.0575
 1321SOL     OW15598   3.937   2.881   1.106 -0.0732 -0.8736 -0.3497
 1321SOL    HW115599   3.909   2.897   1.016 -1.2204  1.0062  0.3366
 1321SOL    HW215600   4.003   2.944   1.135  1.4531 -2.6062 -0.0365
 1322SOL     OW15601   3.390   2.904   7.669  0.3971  0.5822 -0.3002
 1322SOL    HW115602   3.345   2.948   7.597 -2.2131  1.4576  1.8525
 1322SOL    HW215603   3.480   2.904   7.636 -0.0328 -1.5273 -1.5126
 1323SOL     OW15604   1.109   0.129   2.770 -0.6202 -0.0847 -0.0180
 1323SOL    HW115605   1.058   0.053   2.742 -0.4674  0.5843 -2.1285
 1323SOL    HW215606   1.090   0.109   2.862  2.5260 -0.4968  0.5718
 1324SOL     OW15607   4.535   2.869   3.370 -0.3387  0.3127  0.6990
 1324SOL    HW115608   4.578   2.863   3.285 -0.0726  1.4660  0.7500
 1324SOL    HW215609   4.502   2.959   3.362  1.4678  1.0517  1.5562
 1325SOL     OW15610   3.952   4.256   7.304  0.4670  0.0113  0.9378
 1325SOL    HW115611   4.007   4.191   7.348 -0.6950 -0.7810  1.2273
 1325SOL    HW215612   3.868   4.210   7.316 -0.0896  1.3299  2.1354
 1326SOL     OW15613   0.483   2.500   3.932  0.0959 -0.1570  0.0400
 1326SOL    HW115614   0.426   2.574   3.909  1.7337  0.3838 -2.2614
 1326SOL    HW215615   0.453   2.432   3.872 -2.7896  0.4003  0.8517
 1327SOL     OW15616   0.983   3.602   8.593  0.3107  0.1148  0.1804
 1327SOL    HW115617   0.995   3.610   8.498  0.1081 -0.6851  0.0891
 1327SOL    HW215618   0.988   3.507   8.606 -0.0029 -0.0857 -1.1255
 1328SOL     OW15619   3.639   1.264   2.489  0.1809 -0.2470 -0.0485
 1328SOL    HW115620   3.602   1.258   2.401  0.6988 -2.9182 -0.0574
 1328SOL    HW215621   3.566   1.294   2.544  0.9501 -1.6680  1.7507
 1329SOL     OW15622   0.746   4.264   3.886  0.1805  0.1579 -0.0717
 1329SOL    HW115623   0.720   4.318   3.811 -1.1317  0.3259  0.5070
 1329SOL    HW215624   0.695   4.300   3.958 -0.1380  0.0908 -0.2670
 1330SOL     OW15625   1.665   1.170   9.496  0.3249  0.0734 -0.2900
 1330SOL    HW115626   1.601   1.137   9.560  2.2997 -1.8136  0.7272
 1330SOL    HW215627   1.740   1.188   9.553  0.5973 -0.7333 -0.3962
 1331SOL     OW15628   4.733   0.098   7.513  0.1216 -0.4129  0.3971
 1331SOL    HW115629   0.016   0.046   7.589  2.4929 -0.6393 -0.5969
 1331SOL    HW215630   4.701   0.178   7.555 -0.0986 -0.2645 -0.0529
 1332SOL     OW15631   0.227   3.892   2.048  0.5770 -0.1816  0.2908
 1332SOL    HW115632   0.231   3.818   2.108 -0.9771 -0.5031  0.0025
 1332SOL    HW215633   0.256   3.961   2.109 -0.7251 -0.6745  1.4662
 1333SOL     OW15634   1.714   4.485   4.535  0.0035 -0.0033 -0.4022
 1333SOL    HW115635   1.729   4.409   4.591 -2.6673 -2.1798 -2.6002
 1333SOL    HW215636   1.759   4.551   4.587  0.1209 -0.4929  0.1123
 1334SOL     OW15637   3.366   4.429   8.480 -0.8740  0.3279  0.1959
 1334SOL    HW115638   3.292   4.402   8.427  0.5199  0.1544 -1.6511
 1334SOL    HW215639   3.438   4.424   8.417 -2.1513  0.8712 -1.2866
 1335SOL     OW15640   0.683   0.921  14.105  0.5954  0.1081  0.2438
 1335SOL    HW115641   0.644   0.974  14.036  0.0624  0.0440  0.4935
 1335SOL    HW215642   0.762   0.970  14.130 -0.7367  1.4541  1.8474
 1336SOL     OW15643   0.273   3.384   2.462  0.6732 -0.0113  0.3643
 1336SOL    HW115644   0.236   3.470   2.480  0.8140 -0.0132  0.6587
 1336SOL    HW215645   0.197   3.330   2.484 -0.8935  0.8382 -2.9819
 1337SOL     OW15646   3.155   2.286   3.788  0.5193  0.8806 -0.6708
 1337SOL    HW115647   3.169   2.198   3.755  2.4770  0.4320  1.3480
 1337SOL    HW215648   3.076   2.269   3.838  1.1500  1.1362  0.4017
 1338SOL     OW15649   2.678   0.819   4.734  0.4474 -0.2221  0.0643
 1338SOL    HW115650   2.604   0.776   4.775  0.4833 -1.3440 -1.0648
 1338SOL    HW215651   2.734   0.743   4.718  2.2971  1.1729 -0.0786
 1339SOL     OW15652   2.424   4.058   3.907 -0.8609 -0.0156 -0.1993
 1339SOL    HW115653   2.450   3.975   3.946  1.6811  0.7828 -0.1961
 1339SOL    HW215654   2.338   4.035   3.870 -0.5339  0.5589 -1.3234
 1340SOL     OW15655   1.081   0.813   3.414 -0.0215 -0.0276 -0.6663
 1340SOL    HW115656   1.146   0.872   3.375 -0.5206 -0.9521 -2.9080
 1340SOL    HW215657   1.014   0.826   3.347  0.7389 -0.9453 -1.5959
 1341SOL     OW15658   3.021   0.668  13.691  0.2169  0.2320  0.0034
 1341SOL    HW115659   2.948   0.637  13.744  0.8544 -1.1399  0.0930
 1341SOL    HW215660   3.095   0.616  13.725 -0.9090 -0.3089  1.6360
 1342SOL     OW15661   2.116   0.686   8.319  0.5521 -0.5853 -0.4382
 1342SOL    HW115662   2.089   0.666   8.229  0.4361 -1.7859 -0.1353
 1342SOL    HW215663   2.028   0.713   8.346  0.9711  0.6341 -0.3153
 1343SOL     OW15664   0.041   0.551   4.917 -0.4263 -0.3334  0.3482
 1343SOL    HW115665   0.026   0.462   4.884  0.4759  0.4827 -2.2888
 1343SOL    HW215666   0.133   0.558   4.891 -0.4193 -0.1576  0.4236
 1344SOL     OW15667   4.620   3.822   4.745 -0.4939 -0.5578  0.0019
 1344SOL    HW115668   4.643   3.915   4.745  2.0010 -1.1454  0.7671
 1344SOL    HW215669   4.694   3.791   4.692  0.4397  0.8710  0.4464
 1345SOL     OW15670   1.521   0.807   4.786 -0.6038 -0.5337  0.0232
 1345SOL    HW115671   1.466   0.881   4.811  0.2768 -0.3361  1.3885
 1345SOL    HW215672   1.485   0.739   4.842  1.2362  0.4946  2.4630
 1346SOL     OW15673   2.921   0.086  13.598 -0.5255  1.3560 -0.1194
 1346SOL    HW115674   2.854   0.131  13.545  0.8751  2.6856 -0.7778
 1346SOL    HW215675   2.874   0.077  13.681  1.4658 -1.1819  0.7163
 1347SOL     OW15676   3.294   4.644  16.363  0.1946 -0.0591 -0.0722
 1347SOL    HW115677   3.388   4.661  16.355 -0.7130  3.7062 -3.3546
 1347SOL    HW215678   3.273   4.654  16.270  1.7466  0.9820 -0.3134
 1348SOL     OW15679   3.056   3.880   3.985 -0.3875  0.6078 -0.0548
 1348SOL    HW115680   3.098   3.845   4.064 -1.8619 -2.4432 -0.6372
 1348SOL    HW215681   3.096   3.965   3.963  2.3194  0.3272  3.7302
 1349SOL     OW15682   3.141   1.546  15.878  0.0616  0.2187 -0.2938
 1349SOL    HW115683   3.186   1.612  15.825  0.0916  0.2737 -0.1997
 1349SOL    HW215684   3.075   1.508  15.820  0.9030 -2.3048  0.3767
 1350SOL     OW15685   0.214   4.364   2.812  0.0072  0.0168 -0.5082
 1350SOL    HW115686   0.272   4.390   2.884  0.7808 -2.8304 -0.1092
 1350SOL    HW215687   0.202   4.444   2.761 -0.0850  1.6070  1.9984
 1351SOL     OW15688   0.239   0.650   9.652 -0.2086 -0.0555 -0.2497
 1351SOL    HW115689   0.261   0.611   9.737  0.1089  0.9926  0.1591
 1351SOL    HW215690   0.196   0.578   9.606 -1.8723  0.7567  0.0474
 1352SOL     OW15691   4.313   1.681   6.936 -0.5052  0.2271 -0.2303
 1352SOL    HW115692   4.299   1.745   6.866  1.9609  1.0621  0.0438
 1352SOL    HW215693   4.366   1.609   6.902  0.2599  0.5196  0.3602
 1353SOL     OW15694   4.717   3.355   7.944 -0.3263 -0.4058 -0.5706
 1353SOL    HW115695   0.014   3.269   7.953  1.1227  0.4545  1.1913
 1353SOL    HW215696   4.660   3.356   8.021 -0.9074 -1.5719 -0.9841
 1354SOL     OW15697   1.670   2.088  12.899 -0.2077  0.0929 -0.5473
 1354SOL    HW115698   1.751   2.046  12.927 -1.3282  0.9442  4.0095
 1354SOL    HW215699   1.604   2.026  12.930 -0.8066  0.6687 -0.6691
 1355SOL     OW15700   1.874   1.544   8.860 -0.2424 -0.8523  0.4065
 1355SOL    HW115701   1.889   1.471   8.800 -2.3645 -0.5884 -0.4523
 1355SOL    HW215702   1.953   1.557   8.912 -0.5575  2.1364  0.1172
 1356SOL     OW15703   4.421   1.435   9.806 -0.3183  0.2921  0.1481
 1356SOL    HW115704   4.493   1.431   9.869 -1.5849  1.1432  1.6510
 1356SOL    HW215705   4.464   1.382   9.739 -1.1143 -0.5309  0.2889
 1357SOL     OW15706   2.082   2.426   3.358  0.0400 -0.0634  0.8542
 1357SOL    HW115707   2.004   2.390   3.316 -0.3956 -1.3592  2.7498
 1357SOL    HW215708   2.080   2.384   3.444  1.2172  0.2417  1.0272
 1358SOL     OW15709   4.190   3.377   1.165 -0.6127 -0.3505  0.1220
 1358SOL    HW115710   4.191   3.412   1.076  2.7768 -0.6349  0.0124
 1358SOL    HW215711   4.275   3.399   1.204  0.2766 -3.1171 -0.2375
 1359SOL     OW15712   2.474   1.250   1.632 -0.0550  0.1949  0.0005
 1359SOL    HW115713   2.501   1.323   1.575  1.2023  0.1466  0.5212
 1359SOL    HW215714   2.558   1.212   1.657 -0.0797  0.0608 -0.1233
 1360SOL     OW15715   2.521   1.093   5.075  0.3865  0.4055 -0.5904
 1360SOL    HW115716   2.604   1.046   5.080 -1.2001 -2.1071  2.2084
 1360SOL    HW215717   2.521   1.135   5.161 -0.0830  0.6733 -0.7184
 1361SOL     OW15718   3.838   0.124   5.097  0.0705  0.2957 -0.1220
 1361SOL    HW115719   3.860   0.042   5.143  0.5517 -0.1322 -1.1273
 1361SOL    HW215720   3.921   0.132   5.051  0.1620  0.8448  0.1398
 1362SOL     OW15721   0.475   1.842   4.286  0.6248  0.0240 -0.1922
 1362SOL    HW115722   0.456   1.889   4.367  3.3372  2.2009 -0.8151
 1362SOL    HW215723   0.526   1.770   4.323 -0.2383  0.5393  2.0331
 1363SOL     OW15724   0.656   0.027   6.534 -0.1544  0.0073  0.4398
 1363SOL    HW115725   0.586   4.707   6.522 -0.3124  0.3590 -0.5364
 1363SOL    HW215726   0.604   0.107   6.543  0.9223  0.6234  1.2171
 1364SOL     OW15727   1.131   4.397  14.304 -0.5544  0.1199  0.3675
 1364SOL    HW115728   1.099   4.444  14.381  0.8371  1.5569  0.0599
 1364SOL    HW215729   1.185   4.469  14.271 -0.3024  0.9908  2.6653
 1365SOL     OW15730   1.808   1.859   7.099 -0.3081  0.3534  0.4636
 1365SOL    HW115731   1.831   1.948   7.073  0.4752  0.0718  0.1641
 1365SOL    HW215732   1.796   1.863   7.194  1.8494 -1.9747  0.8432
 1366SOL     OW15733   4.722   3.370   9.020  0.0527 -0.5033  0.5293
 1366SOL    HW115734   4.641   3.332   8.986  0.1079 -0.5216  0.4189
 1366SOL    HW215735   4.710   3.370   9.115  1.1686  0.6240  0.6678
 1367SOL     OW15736   1.539   2.081   7.542 -0.0433  0.1991 -0.0519
 1367SOL    HW115737   1.552   1.993   7.506 -1.9683 -0.3742  0.6254
 1367SOL    HW215738   1.510   2.070   7.632 -3.1469 -1.3931 -1.2355
 1368SOL     OW15739   1.489   3.340   5.809 -0.0363  0.1133 -0.6344
 1368SOL    HW115740   1.450   3.427   5.804 -0.8620 -0.1950  0.4966
 1368SOL    HW215741   1.569   3.353   5.758  1.6486 -0.5316  1.8477
 1369SOL     OW15742   2.004   3.738   8.525 -0.3536 -0.5351  0.0585
 1369SOL    HW115743   2.075   3.782   8.480  1.0439 -0.3204  2.4594
 1369SOL    HW215744   2.019   3.763   8.616  0.0225  2.1228 -0.7444
 1370SOL     OW15745   4.380   2.925  12.908 -0.0868 -0.1074  0.6383
 1370SOL    HW115746   4.448   2.859  12.898  1.7359  1.6932  1.0473
 1370SOL    HW215747   4.319   2.882  12.968  1.6244  0.0276  2.4819
 1371SOL     OW15748   0.057   1.615   7.475  0.3518  0.6662 -0.0610
 1371SOL    HW115749   4.720   1.632   7.427  0.5462  1.2560 -0.1896
 1371SOL    HW215750   0.052   1.533   7.523  0.8390  1.0579  0.6705
 1372SOL     OW15751   0.659   3.681   5.492 -0.0050 -0.2083  0.1406
 1372SOL    HW115752   0.584   3.677   5.553  0.2042 -1.8897  0.2812
 1372SOL    HW215753   0.608   3.660   5.414 -2.4076 -0.7122  1.8276
 1373SOL     OW15754   1.021   0.056   0.083  0.2753 -0.2024  0.0687
 1373SOL    HW115755   1.011   0.075  17.762  0.8907 -1.0785 -0.1880
 1373SOL    HW215756   0.930   0.065   0.111  0.6069 -0.1147  1.1062
 1374SOL     OW15757   1.614   4.313   0.815  0.1041 -0.2613  0.3887
 1374SOL    HW115758   1.583   4.231   0.853 -0.1885  0.8540  2.5175
 1374SOL    HW215759   1.686   4.321   0.878  0.7714  1.1182 -0.5401
 1375SOL     OW15760   3.102   1.093   9.123  0.0483  0.5763  0.2078
 1375SOL    HW115761   3.035   1.079   9.191 -0.7860  0.7213 -0.5903
 1375SOL    HW215762   3.078   1.172   9.073 -1.0682 -0.4667 -0.8991
 1376SOL     OW15763   3.199   1.750   3.150 -0.4453  0.1473 -0.5550
 1376SOL    HW115764   3.225   1.658   3.153 -2.0739 -0.2953 -0.1369
 1376SOL    HW215765   3.262   1.789   3.211 -0.4300  1.4740 -1.4214
 1377SOL     OW15766   3.114   0.004   8.729  0.4046  0.3727 -0.3753
 1377SOL    HW115767   3.138   0.073   8.791 -3.9082  2.6013 -1.1848
 1377SOL    HW215768   3.194   4.724   8.683  0.6551 -1.4455  1.0041
 1378SOL     OW15769   3.899   0.292   3.036 -0.3559  0.4971 -0.3120
 1378SOL    HW115770   3.814   0.274   3.075 -0.1855 -1.6609 -0.9681
 1378SOL    HW215771   3.921   0.210   2.993 -1.1918 -0.5256  1.1909
 1379SOL     OW15772   2.159   2.726  15.006  0.5216  0.0990  0.2983
 1379SOL    HW115773   2.129   2.795  15.064  0.6536  0.7475 -0.4096
 1379SOL    HW215774   2.226   2.682  15.059  1.2881  0.4776 -0.3585
 1380SOL     OW15775   1.166   4.585   0.026  0.1047 -0.4195 -0.3652
 1380SOL    HW115776   1.122   4.663   0.061  3.1357  0.1119  2.2433
 1380SOL    HW215777   1.108   4.512   0.047 -0.2156  0.7725  2.8411
 1381SOL     OW15778   4.142   3.093   4.490  0.7755  0.1564 -0.2664
 1381SOL    HW115779   4.209   3.152   4.522  0.0311 -0.6961  2.8252
 1381SOL    HW215780   4.182   3.007   4.476  2.4452  0.9918 -0.6213
 1382SOL     OW15781   3.315   2.159   5.083  0.1107  0.0032  0.4529
 1382SOL    HW115782   3.301   2.107   5.004 -0.1661 -1.7356  1.6324
 1382SOL    HW215783   3.228   2.196   5.092  0.7838  1.6296  0.3532
 1383SOL     OW15784   4.546   3.945   7.937 -0.0012  0.6416  0.2562
 1383SOL    HW115785   4.593   3.975   7.859  2.5000  0.4096  1.6705
 1383SOL    HW215786   4.619   3.956   7.998 -0.1634  0.9266  0.3968
 1384SOL     OW15787   0.040   3.003  16.321 -0.6301  0.0315  0.6025
 1384SOL    HW115788   0.025   3.004  16.416 -3.2913 -0.3315  0.1932
 1384SOL    HW215789   4.710   3.056  16.292 -1.0071 -0.9930 -0.3108
 1385SOL     OW15790   2.993   0.712   7.876 -0.3832  0.1135 -0.8475
 1385SOL    HW115791   2.985   0.645   7.809  1.2794 -1.5423  0.6019
 1385SOL    HW215792   2.900   0.725   7.898  0.4356 -0.7384  3.1772
 1386SOL     OW15793   0.691   1.515   5.922 -0.0725  0.1803  0.1324
 1386SOL    HW115794   0.758   1.458   5.883 -0.3925 -0.6934  0.8673
 1386SOL    HW215795   0.748   1.549   5.991 -1.6505  2.7097  0.1610
 1387SOL     OW15796   0.734   2.552   9.002 -0.4488 -0.0801 -1.0650
 1387SOL    HW115797   0.657   2.500   8.978 -1.5565 -0.3097  2.9254
 1387SOL    HW215798   0.798   2.489   8.971  1.2156  0.4504  1.2851
 1388SOL     OW15799   2.620   2.473   8.042  0.4267 -0.0585 -0.1121
 1388SOL    HW115800   2.673   2.415   7.988 -1.2335 -1.5834 -0.1149
 1388SOL    HW215801   2.677   2.522   8.101 -1.3955  2.8376 -0.7428
 1389SOL     OW15802   1.858   3.612   9.506  0.0409 -0.1075  0.0361
 1389SOL    HW115803   1.796   3.684   9.516  0.5008  0.3159 -0.1559
 1389SOL    HW215804   1.945   3.632   9.542 -1.4439  3.2670  1.7008
 1390SOL     OW15805   0.225   0.614  16.574 -0.2057  0.1183 -0.3113
 1390SOL    HW115806   0.289   0.545  16.556 -2.5864 -2.3775  0.5988
 1390SOL    HW215807   0.234   0.667  16.495  0.1482  0.7199  0.1409
 1391SOL     OW15808   2.357   3.374   4.533  0.4551 -0.1001 -0.5237
 1391SOL    HW115809   2.276   3.393   4.581  0.7081 -0.8008  0.1791
 1391SOL    HW215810   2.390   3.464   4.526 -0.4176  0.1327 -1.7999
 1392SOL     OW15811   4.223   1.812   8.893  0.2147 -0.3054 -0.0917
 1392SOL    HW115812   4.192   1.856   8.813  2.2232  0.2184 -0.5753
 1392SOL    HW215813   4.147   1.759   8.918 -0.6840  0.1133 -1.9019
 1393SOL     OW15814   4.091   4.414   5.797 -0.2320 -0.9083 -0.0706
 1393SOL    HW115815   4.087   4.466   5.878 -0.2788  0.5550 -1.0190
 1393SOL    HW215816   4.145   4.343   5.832 -0.2783 -1.4058 -1.0178
 1394SOL     OW15817   0.090   4.226   6.680  0.5306 -0.1803  0.0608
 1394SOL    HW115818   0.057   4.146   6.722  1.2188 -0.1168  0.7189
 1394SOL    HW215819   0.052   4.233   6.592 -2.6917 -0.2124  1.4417
 1395SOL     OW15820   3.006   2.575   9.624 -0.2012  0.5677  0.3290
 1395SOL    HW115821   2.957   2.614   9.696 -0.4024 -0.1380  0.5766
 1395SOL    HW215822   3.092   2.616   9.630  0.0863 -0.2873  1.8690
 1396SOL     OW15823   0.988   4.254   3.979  0.1546  1.1096  0.0468
 1396SOL    HW115824   0.896   4.248   3.954  0.3261 -0.1717 -0.3240
 1396SOL    HW215825   1.012   4.342   4.007  2.4633  0.8512 -1.0815
 1397SOL     OW15826   3.596   1.278  10.246 -0.1380  0.1607 -0.3201
 1397SOL    HW115827   3.685   1.283  10.213  0.7203  1.2444  2.1231
 1397SOL    HW215828   3.553   1.251  10.165 -4.1522 -0.2382  1.9406
 1398SOL     OW15829   0.700   3.951   4.283  0.1720 -0.0994 -0.2073
 1398SOL    HW115830   0.719   4.000   4.363  0.7223 -2.9345  1.4061
 1398SOL    HW215831   0.784   3.955   4.238  0.3736 -0.0029  0.1744
 1399SOL     OW15832   3.746   3.427  16.839 -0.3934  0.2128  0.1616
 1399SOL    HW115833   3.713   3.393  16.922 -3.1543  0.6493 -0.7429
 1399SOL    HW215834   3.667   3.424  16.785 -0.2308 -0.3558 -0.0459
 1400SOL     OW15835   2.690   2.805  14.872 -0.4798 -0.6500 -0.2456
 1400SOL    HW115836   2.636   2.877  14.841 -1.8557 -1.0485  1.2280
 1400SOL    HW215837   2.663   2.735  14.812 -0.9644  0.0276 -0.8038
 1401SOL     OW15838   3.409   1.242  14.543  0.0812  0.3870 -0.0310
 1401SOL    HW115839   3.499   1.246  14.574 -0.4818 -0.2451  1.7059
 1401SOL    HW215840   3.364   1.290  14.614 -1.1508 -1.0992  0.1964
 1402SOL     OW15841   2.556   3.007   4.554  0.0662 -0.8182  0.3704
 1402SOL    HW115842   2.602   2.950   4.493  0.5595 -0.2761  0.2395
 1402SOL    HW215843   2.573   2.955   4.633  2.2547 -1.0906 -0.2803
 1403SOL     OW15844   1.437   4.410   2.720  0.0485  0.4008  0.2164
 1403SOL    HW115845   1.499   4.401   2.792  0.8302 -1.2334 -0.6771
 1403SOL    HW215846   1.374   4.459   2.774 -1.7263 -1.4584 -0.1473
 1404SOL     OW15847   2.215   4.136  16.996 -0.2967 -0.3760 -0.4187
 1404SOL    HW115848   2.247   4.076  16.930  0.1486  0.3226 -0.8375
 1404SOL    HW215849   2.176   4.080  17.063  1.7848 -3.3395 -1.6941
 1405SOL     OW15850   2.253   3.664   7.245 -0.2895  0.1700 -0.0725
 1405SOL    HW115851   2.313   3.592   7.224  1.9304  1.2967  2.2929
 1405SOL    HW215852   2.293   3.735   7.194  1.8533 -0.8566  0.1434
 1406SOL     OW15853   1.703   2.922   5.648  0.3294  0.3923 -0.2741
 1406SOL    HW115854   1.729   2.917   5.556 -1.1928 -0.3920 -0.6617
 1406SOL    HW215855   1.781   2.971   5.675  0.0022  0.0333  1.3655
 1407SOL     OW15856   4.533   2.679   1.892  0.2372 -0.1311 -0.4629
 1407SOL    HW115857   4.458   2.723   1.933  1.0524 -0.2929  1.1790
 1407SOL    HW215858   4.609   2.733   1.912 -1.6595  3.4255 -2.6434
 1408SOL     OW15859   0.859   3.444   4.586 -0.9035  0.6141 -0.2630
 1408SOL    HW115860   0.837   3.358   4.623  0.4242  0.7155  0.7854
 1408SOL    HW215861   0.834   3.497   4.662 -0.6245 -1.8484  1.5573
 1409SOL     OW15862   2.726   1.132   1.701  0.3123  0.0516  0.3058
 1409SOL    HW115863   2.774   1.205   1.660 -3.1843  0.6140 -2.7118
 1409SOL    HW215864   2.764   1.054   1.661  2.5931  0.8002  0.9871
 1410SOL     OW15865   2.317   1.174   6.659  0.1551 -0.3230 -0.0087
 1410SOL    HW115866   2.263   1.150   6.735  3.1374 -0.2445  2.1300
 1410SOL    HW215867   2.306   1.269   6.649  1.1289 -0.2293 -0.1476
 1411SOL     OW15868   1.540   1.640  16.787 -0.1804 -0.3071 -0.9438
 1411SOL    HW115869   1.511   1.574  16.850 -1.1208  1.1953  0.2046
 1411SOL    HW215870   1.546   1.721  16.838 -4.0142 -0.4788 -0.1952
 1412SOL     OW15871   3.589   4.111  14.343  0.0744 -0.1472 -0.1669
 1412SOL    HW115872   3.543   4.165  14.407 -1.4287  0.1532 -1.4734
 1412SOL    HW215873   3.626   4.177  14.283 -0.2343  1.5101  1.4802
 1413SOL     OW15874   3.842   3.377   3.818 -0.4689  0.3190 -0.0180
 1413SOL    HW115875   3.829   3.423   3.900 -1.4767  1.2732 -0.7102
 1413SOL    HW215876   3.914   3.324   3.852  0.7952  0.7396 -1.9959
 1414SOL     OW15877   3.086   2.764   6.388  0.2031  0.3583  0.3654
 1414SOL    HW115878   3.024   2.730   6.452 -3.0795 -0.4832 -3.2736
 1414SOL    HW215879   3.028   2.794   6.318 -2.5549 -2.5114  1.3955
 1415SOL     OW15880   2.599   1.435   8.579 -0.5350 -0.5834 -0.4530
 1415SOL    HW115881   2.641   1.510   8.536  1.1821 -1.8067 -0.9173
 1415SOL    HW215882   2.671   1.378   8.605 -2.4141 -2.0123  1.6275
 1416SOL     OW15883   2.263   4.243   1.785 -0.2818  0.1648  0.0515
 1416SOL    HW115884   2.334   4.210   1.729  0.1991 -0.1829  0.8595
 1416SOL    HW215885   2.190   4.263   1.726 -1.3245  0.9049  1.6109
 1417SOL     OW15886   4.411   2.009   7.062  0.2956  0.5144 -0.0150
 1417SOL    HW115887   4.399   2.104   7.057 -0.8927  0.4409  1.3515
 1417SOL    HW215888   4.505   1.996   7.045  0.2350  0.6694 -0.4479
 1418SOL     OW15889   2.544   2.077  14.211  0.1165  0.0231 -0.2335
 1418SOL    HW115890   2.552   2.166  14.245  1.7726 -0.3950  0.4749
 1418SOL    HW215891   2.472   2.050  14.268  0.5982 -0.4332  0.1578
 1419SOL     OW15892   1.694   1.505  16.604 -0.1826  0.1727  0.1147
 1419SOL    HW115893   1.622   1.559  16.638  1.0996 -0.2610  3.4079
 1419SOL    HW215894   1.659   1.417  16.611 -1.9462  0.8802  0.3494
 1420SOL     OW15895   3.936   0.143  10.845  0.4148  0.0586 -0.2863
 1420SOL    HW115896   3.844   0.120  10.855 -0.2715  3.1606  0.4278
 1420SOL    HW215897   3.941   0.173  10.754 -0.9611  1.0125 -0.0376
 1421SOL     OW15898   2.261   4.254   4.013  0.0784 -0.5519  0.4953
 1421SOL    HW115899   2.337   4.281   3.962 -0.5300  1.6499  0.7636
 1421SOL    HW215900   2.271   4.159   4.021  0.1025 -0.6319 -0.5319
 1422SOL     OW15901   1.959   0.712   7.027  0.2139 -0.0064 -0.5949
 1422SOL    HW115902   1.984   0.658   6.952  0.0273 -0.0659 -0.6149
 1422SOL    HW215903   1.950   0.650   7.100  2.3931  0.3245 -0.0360
 1423SOL     OW15904   4.271   0.200   5.310 -0.1994  0.3956  0.4612
 1423SOL    HW115905   4.223   0.281   5.294  0.5953  0.4861 -1.5065
 1423SOL    HW215906   4.362   0.220   5.287  0.0426  0.2610  1.3270
 1424SOL     OW15907   0.097   1.190   9.412  0.2102 -0.1727  0.4312
 1424SOL    HW115908   0.022   1.247   9.394 -0.3953  0.2014  4.2242
 1424SOL    HW215909   0.152   1.254   9.459 -0.0564  0.3262  0.0707
 1425SOL     OW15910   4.398   2.020   1.549 -0.9118  0.3442  0.2117
 1425SOL    HW115911   4.438   1.969   1.620 -0.3267 -0.3187 -0.5971
 1425SOL    HW215912   4.438   2.107   1.552 -0.9543  0.3500  0.6842
 1426SOL     OW15913   2.979   4.334  14.708 -0.1817 -0.0211 -1.0457
 1426SOL    HW115914   3.010   4.320  14.798 -1.0435  1.5993 -0.4883
 1426SOL    HW215915   2.956   4.427  14.713  1.6056  0.3395  0.4480
 1427SOL     OW15916   2.704   0.697  10.584 -0.3890  0.1860  0.7805
 1427SOL    HW115917   2.756   0.775  10.562 -1.6734  0.6067 -0.7867
 1427SOL    HW215918   2.612   0.720  10.569  0.2745  0.4052 -2.9110
 1428SOL     OW15919   3.875   1.517   7.745  0.0791  0.1869  0.1769
 1428SOL    HW115920   3.896   1.607   7.770  1.1093  0.2803 -1.0315
 1428SOL    HW215921   3.847   1.533   7.655  1.0359  3.5709  0.4624
 1429SOL     OW15922   2.689   3.848  16.004  0.3681 -0.1683  0.0461
 1429SOL    HW115923   2.712   3.756  16.011  3.6329  0.6257 -0.1869
 1429SOL    HW215924   2.642   3.850  15.921  3.6202  1.5936 -1.7388
 1430SOL     OW15925   0.301   3.063   7.209 -0.4782  0.3577  0.2269
 1430SOL    HW115926   0.363   3.062   7.136 -0.4977  0.3071  0.2112
 1430SOL    HW215927   0.349   3.097   7.283 -0.7631  0.5915  0.3046
 1431SOL     OW15928   1.931   2.799   8.390  0.1122  0.5323 -0.0079
 1431SOL    HW115929   1.846   2.773   8.354  0.2898 -1.7279  1.1507
 1431SOL    HW215930   1.968   2.719   8.427 -0.5756  0.5055  0.6268
 1432SOL     OW15931   4.053   0.804   4.803  0.0461  0.4859  0.2090
 1432SOL    HW115932   4.008   0.889   4.804  0.9452  0.9734 -0.6548
 1432SOL    HW215933   4.057   0.790   4.898  2.6289  0.5033  0.1162
 1433SOL     OW15934   3.607   1.668   3.398 -0.0519 -0.4189 -0.1474
 1433SOL    HW115935   3.563   1.744   3.361  1.2822  0.1417 -0.5402
 1433SOL    HW215936   3.532   1.615   3.425 -0.4753  0.3100  0.1043
 1434SOL     OW15937   0.660   2.921   6.360  0.4998 -0.3408  0.2433
 1434SOL    HW115938   0.607   2.931   6.439  0.8591  2.8889  0.0729
 1434SOL    HW215939   0.731   2.984   6.374  0.0086  0.5108 -1.0932
 1435SOL     OW15940   4.631   1.188   4.697  0.0162  0.6684  0.3166
 1435SOL    HW115941   4.723   1.203   4.717  0.0568 -0.6926  1.1516
 1435SOL    HW215942   4.628   1.092   4.691 -2.5028  0.8927 -2.0660
 1436SOL     OW15943   4.016   3.874   2.572 -0.1202  0.4378  0.1616
 1436SOL    HW115944   4.004   3.863   2.666  0.2645  1.3856  0.3217
 1436SOL    HW215945   3.944   3.930   2.543  0.0577  0.2803 -0.5747
 1437SOL     OW15946   4.123   2.207   2.675  0.1429 -0.1724  0.1055
 1437SOL    HW115947   4.044   2.181   2.627  2.1184  1.2816 -3.9060
 1437SOL    HW215948   4.152   2.118   2.698  0.1306 -0.7405 -2.0832
 1438SOL     OW15949   3.070   3.556   5.885 -0.0372  0.1202 -0.2385
 1438SOL    HW115950   3.065   3.463   5.860  0.0165 -0.2440  1.1214
 1438SOL    HW215951   3.144   3.560   5.945 -0.0905 -2.4248  0.0056
 1439SOL     OW15952   3.788   0.476   2.776 -0.3618  0.5567 -0.2362
 1439SOL    HW115953   3.824   0.564   2.788  2.2776 -0.8122  1.9591
 1439SOL    HW215954   3.693   0.485   2.777 -0.5278 -1.0309 -1.2115
 1440SOL     OW15955   1.269   2.837   6.522 -0.0192 -0.2525  0.2958
 1440SOL    HW115956   1.346   2.867   6.570 -0.2247  3.2373 -1.5159
 1440SOL    HW215957   1.213   2.911   6.544 -1.2510 -0.3057 -2.6849
 1441SOL     OW15958   0.167   0.538   4.522 -0.1949 -0.1229  0.1980
 1441SOL    HW115959   0.111   0.613   4.539 -1.0669 -0.6276 -0.4415
 1441SOL    HW215960   0.138   0.515   4.433 -1.9910  3.1097 -0.0483
 1442SOL     OW15961   4.317   3.800   7.199 -0.2881 -0.3429 -0.0802
 1442SOL    HW115962   4.285   3.713   7.222 -1.0392 -0.2833 -0.9012
 1442SOL    HW215963   4.412   3.787   7.194 -0.4609 -1.9647  1.1837
 1443SOL     OW15964   0.042   1.543  11.432 -0.3952 -0.6820 -0.3702
 1443SOL    HW115965   0.108   1.487  11.474 -0.1917  0.0613  0.3192
 1443SOL    HW215966   0.008   1.593  11.506  0.0749 -0.5197 -0.2615
 1444SOL     OW15967   0.259   2.777   4.377  0.2225  0.4295 -0.3658
 1444SOL    HW115968   0.306   2.737   4.451 -0.2125 -2.2939 -1.5601
 1444SOL    HW215969   0.179   2.725   4.375  1.3252 -1.3368  0.9378
 1445SOL     OW15970   3.498   4.213   7.897  0.0456  0.1255 -0.1751
 1445SOL    HW115971   3.531   4.147   7.958 -0.6226  0.4985  0.6031
 1445SOL    HW215972   3.439   4.155   7.849  1.4509 -0.4652 -1.1789
 1446SOL     OW15973   3.406   4.547   4.680  0.0383  0.6022  0.1517
 1446SOL    HW115974   3.350   4.509   4.748 -1.8797 -1.4412 -2.5587
 1446SOL    HW215975   3.437   4.632   4.709  1.6858 -0.5790  1.8797
 1447SOL     OW15976   3.922   2.876  13.652 -0.0596  0.4958 -0.4750
 1447SOL    HW115977   3.892   2.951  13.600  0.1979 -0.1496 -1.5466
 1447SOL    HW215978   3.924   2.805  13.588  0.3949  1.4640 -1.5409
 1448SOL     OW15979   4.553   4.692   2.937  0.2481  0.5702  0.1822
 1448SOL    HW115980   4.466   4.710   2.901 -0.7513 -3.8242  0.2951
 1448SOL    HW215981   4.536   4.648   3.021  2.4491 -0.8563 -0.1271
 1449SOL     OW15982   4.325   4.154   4.758  0.5221 -0.3839 -0.7734
 1449SOL    HW115983   4.321   4.077   4.815  0.4266  1.7425  2.0837
 1449SOL    HW215984   4.419   4.170   4.766  0.9033 -2.3779 -1.1353
 1450SOL     OW15985   4.713   4.164   4.323 -0.0495  0.4801 -0.5658
 1450SOL    HW115986   4.698   4.254   4.352 -0.8065  0.0471  0.3726
 1450SOL    HW215987   0.039   4.147   4.260  1.3044 -0.0807  1.0906
 1451SOL     OW15988   0.208   0.036   9.653  0.6222 -0.1100  0.0100
 1451SOL    HW115989   0.124   0.005   9.686  0.4395  3.1909  2.5627
 1451SOL    HW215990   0.243   0.089   9.725  3.0682 -1.9802  0.1765
 1452SOL     OW15991   2.668   2.692   2.329  0.3054 -0.1672  0.4310
 1452SOL    HW115992   2.620   2.733   2.257  2.2929  0.3129 -0.6319
 1452SOL    HW215993   2.719   2.761   2.372  0.4940  0.1409 -0.2767
 1453SOL     OW15994   2.751   2.895   8.716 -0.2184 -0.8676 -0.0221
 1453SOL    HW115995   2.701   2.816   8.738 -2.3797  0.8431  1.1181
 1453SOL    HW215996   2.682   2.960   8.724  0.6750 -0.2350  2.2912
 1454SOL     OW15997   2.534   4.325   7.914  0.1127 -0.1235 -0.6719
 1454SOL    HW115998   2.597   4.255   7.928  0.7302  0.5980  0.1854
 1454SOL    HW215999   2.459   4.295   7.966 -1.5090  2.2494 -1.6375
 1455SOL     OW16000   2.624   2.240   8.754 -0.1552  0.3116 -0.2224
 1455SOL    HW116001   2.567   2.285   8.816 -0.0700 -3.0230  2.2588
 1455SOL    HW216002   2.564   2.186   8.703 -0.0250  0.4734 -0.5469
 1456SOL     OW16003   3.895   1.247   2.618  0.2676  0.6224 -0.1575
 1456SOL    HW116004   3.811   1.228   2.577  0.7790 -1.2794 -0.3500
 1456SOL    HW216005   3.959   1.229   2.549  1.0696  2.6025  0.0845
 1457SOL     OW16006   3.382   0.987  10.182 -0.6631  0.5495 -0.1051
 1457SOL    HW116007   3.435   0.936  10.244 -0.2308 -0.1570 -1.0690
 1457SOL    HW216008   3.447   1.033  10.129 -2.0852  3.5288  0.7549
 1458SOL     OW16009   0.535   4.336  11.685  0.4873 -0.3650 -0.7112
 1458SOL    HW116010   0.508   4.324  11.594 -2.6131  3.2703 -0.2857
 1458SOL    HW216011   0.620   4.378  11.678  0.7495 -0.9162 -0.7820
 1459SOL     OW16012   1.198   0.669  17.055 -0.0349 -0.6031  0.2515
 1459SOL    HW116013   1.183   0.740  16.993  0.8951 -0.6919 -0.0750
 1459SOL    HW216014   1.125   0.610  17.040  0.0223 -0.3582 -0.9605
 1460SOL     OW16015   1.670   0.548   9.283  0.1873  0.2053 -0.8567
 1460SOL    HW116016   1.655   0.614   9.215  0.1868 -1.2125 -2.2482
 1460SOL    HW216017   1.602   0.486   9.259 -0.5456 -0.0060  1.7797
 1461SOL     OW16018   2.353   1.559   1.650 -0.2662  0.1470  0.0362
 1461SOL    HW116019   2.394   1.533   1.733 -1.4141  1.2853  0.9554
 1461SOL    HW216020   2.269   1.599   1.673 -0.0110  1.0548 -0.6262
 1462SOL     OW16021   3.254   4.054   7.969 -0.0446 -0.1819 -0.2806
 1462SOL    HW116022   3.219   3.981   7.919  0.6273 -0.9632  0.3853
 1462SOL    HW216023   3.209   4.121   7.917 -2.2869 -1.5232 -0.0504
 1463SOL     OW16024   3.202   4.737   6.505  0.1073  0.8197 -1.0789
 1463SOL    HW116025   3.201   4.642   6.490  0.5937  0.7178 -0.4555
 1463SOL    HW216026   3.189   0.032   6.418 -0.6748 -0.4539 -1.5338
 1464SOL     OW16027   0.790   0.794   2.403 -0.1930 -0.0851  0.2730
 1464SOL    HW116028   0.864   0.751   2.447 -0.4153 -1.7626 -0.9783
 1464SOL    HW216029   0.736   0.786   2.482  0.0680 -0.2458  0.4355
 1465SOL     OW16030   2.596   1.625   2.231  0.2667 -0.6963  0.7191
 1465SOL    HW116031   2.630   1.597   2.146  0.4577  0.6909  0.3491
 1465SOL    HW216032   2.510   1.658   2.207  0.8516 -0.6426 -1.2954
 1466SOL     OW16033   4.331   0.784   7.555  0.1120  0.1135 -0.0170
 1466SOL    HW116034   4.301   0.851   7.616 -0.5430 -0.4011  0.2177
 1466SOL    HW216035   4.250   0.737   7.533  1.1318 -1.0507 -1.3085
 1467SOL     OW16036   0.570   2.171   8.380 -0.4563 -0.5388 -0.3526
 1467SOL    HW116037   0.544   2.095   8.432  1.3846 -0.2538  0.9458
 1467SOL    HW216038   0.612   2.231   8.441 -1.4145 -2.6519  2.4199
 1468SOL     OW16039   4.055   4.716   2.724  0.1268  0.4404  0.0162
 1468SOL    HW116040   4.008   0.012   2.651  2.2198  2.3408 -0.2925
 1468SOL    HW216041   4.069   4.629   2.685 -1.6903  0.2347 -0.1891
 1469SOL     OW16042   2.610   4.559  11.100 -0.1173  0.5649 -0.1350
 1469SOL    HW116043   2.666   4.608  11.040 -0.3363  0.0178 -0.7895
 1469SOL    HW216044   2.587   4.625  11.166  2.8124  0.8562  0.5815
 1470SOL     OW16045   1.920   2.145   4.722 -0.0626  0.0078 -0.3123
 1470SOL    HW116046   1.836   2.188   4.702  0.9568  0.9600 -2.6261
 1470SOL    HW216047   1.925   2.083   4.650  1.1999 -1.1013  0.7374
 1471SOL     OW16048   0.849   1.487   1.147  0.5796 -0.0765  0.4792
 1471SOL    HW116049   0.849   1.574   1.188 -0.1316 -0.2330  0.8253
 1471SOL    HW216050   0.872   1.426   1.218 -0.1518 -0.4823  0.3675
 1472SOL     OW16051   1.745   3.340   5.170  0.4369  0.0286  0.0127
 1472SOL    HW116052   1.704   3.425   5.188 -0.5008 -0.3967 -0.1130
 1472SOL    HW216053   1.815   3.363   5.109 -1.9464 -1.1618 -3.1771
 1473SOL     OW16054   0.523   4.291  13.307 -0.2308 -0.0855  0.0637
 1473SOL    HW116055   0.526   4.322  13.397  0.9748  3.4638 -1.1650
 1473SOL    HW216056   0.458   4.351  13.269  0.9604  1.0220 -0.2172
 1474SOL     OW16057   3.342   3.912   5.244  0.7673 -0.5706 -0.1351
 1474SOL    HW116058   3.329   3.844   5.178  0.0904  0.5340 -1.1372
 1474SOL    HW216059   3.320   3.987   5.189 -1.5327 -0.2536  1.2552
 1475SOL     OW16060   3.126   4.675   2.657 -0.5592 -0.2844  0.3111
 1475SOL    HW116061   3.172   4.708   2.580  0.6287  0.0282  1.1687
 1475SOL    HW216062   3.141   0.004   2.716 -1.5446  0.0777  0.1128
 1476SOL     OW16063   4.162   0.820   9.433  0.3472  0.4138 -0.2181
 1476SOL    HW116064   4.251   0.855   9.426  0.4878 -0.3125 -2.0900
 1476SOL    HW216065   4.169   0.773   9.516  0.9254 -1.0808 -1.1125
 1477SOL     OW16066   2.768   4.218   4.969  0.1235  0.2119  0.3485
 1477SOL    HW116067   2.685   4.220   5.016 -0.3872 -0.6649 -0.5375
 1477SOL    HW216068   2.815   4.150   5.019  0.5253  0.9810  1.0352
 1478SOL     OW16069   0.096   0.186   2.469 -0.4215  0.1761 -0.6120
 1478SOL    HW116070   0.110   0.273   2.433 -2.7900  0.2563 -1.3551
 1478SOL    HW216071   0.031   0.205   2.537  0.0985 -0.9494  0.1940
 1479SOL     OW16072   0.950   4.725   3.957  0.0250 -0.0028 -0.0287
 1479SOL    HW116073   0.913   0.018   4.037  0.9099  0.3979  0.1874
 1479SOL    HW216074   0.988   0.060   3.919  1.1200 -0.6653 -0.3153
 1480SOL     OW16075   1.718   2.321   4.392  0.5351 -0.4247 -0.1324
 1480SOL    HW116076   1.630   2.354   4.413  2.4812  3.2956  2.2186
 1480SOL    HW216077   1.771   2.354   4.465 -1.4867 -1.8724  1.9857
 1481SOL     OW16078   1.560   2.250  12.261  0.3669  0.3950  0.2269
 1481SOL    HW116079   1.642   2.202  12.249  0.3843  0.1565  1.3059
 1481SOL    HW216080   1.551   2.299  12.179  1.5189 -0.1244 -0.2021
 1482SOL     OW16081   1.519   2.447   6.251 -0.0835 -0.3026  0.2934
 1482SOL    HW116082   1.426   2.461   6.266  0.2605  1.7274  0.5199
 1482SOL    HW216083   1.558   2.499   6.321  0.5049  0.2305 -0.4140
 1483SOL     OW16084   3.808   4.571   9.147 -0.1919  0.3548  0.3320
 1483SOL    HW116085   3.845   4.489   9.181  0.2924  0.5842  0.3556
 1483SOL    HW216086   3.807   4.554   9.053  0.0459 -0.0653  0.4048
 1484SOL     OW16087   1.054   3.309   8.071  0.0977 -0.2426  0.3063
 1484SOL    HW116088   0.971   3.335   8.030  0.5754  0.6835 -0.0607
 1484SOL    HW216089   1.106   3.389   8.063 -0.8308  0.0360 -3.1224
 1485SOL     OW16090   2.605   1.039  14.626  0.0221 -0.0810 -0.0099
 1485SOL    HW116091   2.614   1.038  14.531 -0.5437 -1.8469 -0.0377
 1485SOL    HW216092   2.686   1.001  14.661 -0.7633 -1.3108  0.4886
 1486SOL     OW16093   3.164   4.176   9.467 -0.1216  0.8602 -0.5835
 1486SOL    HW116094   3.213   4.231   9.406  3.2685 -0.1343  1.2283
 1486SOL    HW216095   3.132   4.243   9.526  0.4744  0.2374  0.4391
 1487SOL     OW16096   1.010   0.499   7.136 -0.6645 -0.0870  0.4255
 1487SOL    HW116097   1.066   0.566   7.176 -0.6803  1.7594 -2.6516
 1487SOL    HW216098   1.004   0.532   7.046 -1.9523  1.9095  1.2370
 1488SOL     OW16099   2.408   0.649   5.496  0.7923  0.1542  0.2750
 1488SOL    HW116100   2.392   0.574   5.439 -1.2486  2.4272 -2.1775
 1488SOL    HW216101   2.418   0.727   5.441  1.1320 -1.0471 -1.3601
 1489SOL     OW16102   2.720   3.968   7.713 -0.4162 -0.3281 -0.5501
 1489SOL    HW116103   2.748   4.043   7.767 -2.2316 -0.3077  0.3515
 1489SOL    HW216104   2.768   3.890   7.740  1.5976  0.4983 -1.7247
 1490SOL     OW16105   0.073   2.036   7.673  0.4285 -0.1638  0.1700
 1490SOL    HW116106   0.166   2.028   7.651  0.2116 -3.2029  0.4887
 1490SOL    HW216107   0.045   1.945   7.678 -1.1908  0.3106 -0.3566
 1491SOL     OW16108   2.309   2.149   1.634 -0.2948 -0.3483 -0.3677
 1491SOL    HW116109   2.268   2.229   1.667 -2.3985 -1.2107 -0.8771
 1491SOL    HW216110   2.268   2.138   1.548 -0.7221 -1.5160 -0.0113
 1492SOL     OW16111   2.011   0.228   4.578 -0.4164 -0.1132  0.2054
 1492SOL    HW116112   2.023   0.200   4.669  2.9193  1.2153  0.1680
 1492SOL    HW216113   1.929   0.277   4.575 -1.0471 -0.9913  3.1064
 1493SOL     OW16114   4.321   2.797   2.028  0.0882  0.2367  0.1130
 1493SOL    HW116115   4.324   2.869   1.966 -1.9784  0.4999  0.3250
 1493SOL    HW216116   4.243   2.749   2.000 -0.8342  0.8188  1.6635
 1494SOL     OW16117   0.317   4.329   8.211 -0.9292 -0.0845  0.5709
 1494SOL    HW116118   0.370   4.338   8.290 -1.5880 -0.7180  1.0867
 1494SOL    HW216119   0.374   4.375   8.150  1.3331 -0.7019  2.2306
 1495SOL     OW16120   2.791   0.088   5.138 -0.1423 -0.0204  0.1861
 1495SOL    HW116121   2.836   0.058   5.217  0.8579  0.0633 -0.3652
 1495SOL    HW216122   2.831   0.037   5.068  1.7546  1.3787  0.2493
 1496SOL     OW16123   3.328   2.944   3.151 -0.6027  0.5022 -0.3541
 1496SOL    HW116124   3.311   3.010   3.084  0.2131 -0.2544 -1.3012
 1496SOL    HW216125   3.237   2.939   3.181  0.3955 -0.7054  2.4827
 1497SOL     OW16126   2.054   3.595  15.956  0.0203  0.0233 -0.3062
 1497SOL    HW116127   1.959   3.604  15.955 -0.0067 -0.1291  0.7264
 1497SOL    HW216128   2.062   3.581  16.050  0.7737  0.4039 -0.3153
 1498SOL     OW16129   3.881   2.865  15.015  0.5968 -0.2661  0.2505
 1498SOL    HW116130   3.933   2.806  14.960 -0.8509 -0.6849 -0.6778
 1498SOL    HW216131   3.925   2.949  15.001 -0.1133 -0.2181 -1.7100
 1499SOL     OW16132   4.495   2.559  10.405 -0.3284  0.2309  0.0613
 1499SOL    HW116133   4.507   2.511  10.487 -0.8800 -0.8791 -0.5075
 1499SOL    HW216134   4.576   2.607  10.389 -0.7148  0.6253 -0.7438
 1500SOL     OW16135   3.150   4.301   5.592 -0.1747 -0.5361 -0.2865
 1500SOL    HW116136   3.198   4.322   5.672  1.0975 -1.5587 -0.7910
 1500SOL    HW216137   3.212   4.280   5.522 -0.2224  1.0156 -0.7947
 1501SOL     OW16138   0.975   0.925   9.582 -0.6193 -0.1653 -0.0734
 1501SOL    HW116139   0.883   0.913   9.606 -0.8432  0.8341 -0.4580
 1501SOL    HW216140   1.007   0.840   9.613 -0.1548 -0.2318 -0.7282
 1502SOL     OW16141   2.725   0.994   8.073 -0.0295 -0.4367 -0.0272
 1502SOL    HW116142   2.803   1.015   8.123 -0.6954 -1.0576  1.2843
 1502SOL    HW216143   2.707   1.064   8.010 -1.7687 -0.5207  0.3842
 1503SOL     OW16144   1.369   0.594  12.854  0.1330 -0.2661 -0.4636
 1503SOL    HW116145   1.410   0.626  12.935  1.0222  0.8980 -1.3580
 1503SOL    HW216146   1.385   0.501  12.866 -0.0005 -0.3737 -1.1243
 1504SOL     OW16147   4.228   2.516   4.210  0.2496 -0.2638  0.2339
 1504SOL    HW116148   4.252   2.605   4.186  0.7568 -1.1736 -2.6564
 1504SOL    HW216149   4.205   2.478   4.125  0.4093  0.0134  0.0676
 1505SOL     OW16150   1.535   1.342   3.804 -0.0154  0.3205  0.1170
 1505SOL    HW116151   1.630   1.351   3.812  0.0298 -1.2097  1.4234
 1505SOL    HW216152   1.511   1.405   3.872  2.5812  0.3908  0.9514
 1506SOL     OW16153   1.522   0.009   2.377  0.2164  0.0786 -0.1583
 1506SOL    HW116154   1.533   4.671   2.426  0.6129  0.3411  0.1906
 1506SOL    HW216155   1.553   0.072   2.442 -0.0917  0.8195 -0.7213
 1507SOL     OW16156   2.877   4.262   5.611 -0.4454 -0.5678  0.2885
 1507SOL    HW116157   2.971   4.267   5.624 -0.8600  1.2314  2.7872
 1507SOL    HW216158   2.860   4.339   5.666  2.3913 -0.2622  0.7364
 1508SOL     OW16159   1.347   0.725   3.073 -0.2550  0.7682  0.2163
 1508SOL    HW116160   1.317   0.668   3.143  1.3893 -1.0123 -0.5498
 1508SOL    HW216161   1.268   0.774   3.050  0.4573  2.3808  1.1773
 1509SOL     OW16162   1.153   3.141   4.507  0.5970 -0.6486 -0.0350
 1509SOL    HW116163   1.084   3.184   4.457 -0.0636  0.3148  1.7133
 1509SOL    HW216164   1.098   3.093   4.568  0.1358 -0.2405 -0.1360
 1510SOL     OW16165   4.204   0.386   1.957 -0.2142  0.0734 -0.1767
 1510SOL    HW116166   4.294   0.356   1.972  0.0550  0.9932  0.0374
 1510SOL    HW216167   4.205   0.468   2.008 -0.3613  0.7682 -1.3054
 1511SOL     OW16168   0.821   4.727   3.343  0.0887  0.1207 -0.3562
 1511SOL    HW116169   0.761   0.042   3.297  0.5719 -0.5534 -1.8596
 1511SOL    HW216170   0.840   4.666   3.272  1.3556 -0.2932  0.3478
 1512SOL     OW16171   4.500   1.587   7.885  0.2684 -0.4374  0.5870
 1512SOL    HW116172   4.456   1.667   7.915  1.6625  0.3009  0.6900
 1512SOL    HW216173   4.427   1.526   7.888  2.5469 -3.2413 -0.6779
 1513SOL     OW16174   4.329   3.076  11.704  0.3501 -0.0595 -0.2699
 1513SOL    HW116175   4.380   3.141  11.753 -1.6502 -0.4221  2.2884
 1513SOL    HW216176   4.404   3.033  11.663 -0.1027 -1.2009  0.0927
 1514SOL     OW16177   1.900   0.235  17.385 -0.1691 -0.5371  0.1957
 1514SOL    HW116178   1.836   0.306  17.388  1.0856  0.5687  0.8219
 1514SOL    HW216179   1.952   0.265  17.311 -0.5145 -2.0059 -0.6335
 1515SOL     OW16180   4.730   3.199   2.356 -0.1210 -0.4654  0.0569
 1515SOL    HW116181   4.635   3.209   2.364 -0.1174  0.3348 -0.7562
 1515SOL    HW216182   0.005   3.137   2.426 -0.4668  0.4574  0.9621
 1516SOL     OW16183   4.178   4.256   5.553  0.2475  0.0443  0.5370
 1516SOL    HW116184   4.141   4.214   5.630  0.3832  3.4277  2.4624
 1516SOL    HW216185   4.268   4.275   5.580  1.2484 -0.2248 -2.6101
 1517SOL     OW16186   3.495   0.911   3.361 -0.0618  0.3060  0.7748
 1517SOL    HW116187   3.463   0.821   3.371  2.4110 -0.6145  0.3038
 1517SOL    HW216188   3.588   0.898   3.345 -0.1378  0.9442 -0.1885
 1518SOL     OW16189   0.207   4.024   7.918  0.6460 -0.2028 -1.0006
 1518SOL    HW116190   0.284   4.030   7.974 -1.4795 -0.4152  1.9606
 1518SOL    HW216191   0.154   4.096   7.953 -0.8394 -1.8445  0.1317
 1519SOL     OW16192   1.240   3.245   5.730 -0.0383  0.0347 -0.1971
 1519SOL    HW116193   1.327   3.265   5.765  0.6547  0.1137 -1.9407
 1519SOL    HW216194   1.257   3.153   5.713 -2.4452 -0.4552  0.1561
 1520SOL     OW16195   3.366   1.543   3.025 -0.1651 -0.6290 -0.0343
 1520SOL    HW116196   3.278   1.522   2.993  0.8633  0.7654 -3.7686
 1520SOL    HW216197   3.388   1.453   3.046  0.8284 -0.5300 -0.6733
 1521SOL     OW16198   3.158   0.715   6.291 -0.3664  0.3727 -0.3137
 1521SOL    HW116199   3.167   0.789   6.351  1.9234  0.2132 -0.4596
 1521SOL    HW216200   3.073   0.685   6.325  0.0921  2.1427  2.3647
 1522SOL     OW16201   0.393   1.185   4.877 -0.0644 -0.7706 -0.1246
 1522SOL    HW116202   0.472   1.173   4.824 -0.8310 -0.1049 -1.4217
 1522SOL    HW216203   0.403   1.281   4.874  0.0670 -0.8579 -2.2070
 1523SOL     OW16204   1.562   4.523  16.343 -0.6340 -0.2940 -0.3301
 1523SOL    HW116205   1.557   4.467  16.420 -1.4064 -1.5642 -1.3029
 1523SOL    HW216206   1.643   4.571  16.360 -1.5586  1.1385  0.0644
 1524SOL     OW16207   3.379   2.954   8.125  0.3120 -0.1475 -0.5910
 1524SOL    HW116208   3.446   2.891   8.151 -1.3966 -1.7127 -0.0052
 1524SOL    HW216209   3.394   3.026   8.186 -0.0466 -0.0165 -0.6579
 1525SOL     OW16210   1.840   1.367   5.288  0.2603 -0.9127 -0.0333
 1525SOL    HW116211   1.755   1.405   5.312 -0.7594 -2.5484 -1.0220
 1525SOL    HW216212   1.898   1.423   5.340 -0.6230 -0.4957  0.5275
 1526SOL     OW16213   4.567   3.929   3.106 -0.6907  0.0710 -0.1310
 1526SOL    HW116214   4.554   3.988   3.032  0.0076  1.1370  0.6132
 1526SOL    HW216215   4.614   3.848   3.084 -1.4686  0.1131 -1.9916
 1527SOL     OW16216   2.605   2.508   3.417 -0.1879  0.7488  0.3426
 1527SOL    HW116217   2.683   2.529   3.366 -1.0917 -2.4674 -2.3117
 1527SOL    HW216218   2.547   2.584   3.421 -1.1490 -0.1071  2.7180
 1528SOL     OW16219   0.591   2.658   2.729 -0.4671 -0.4095 -0.2000
 1528SOL    HW116220   0.523   2.684   2.791 -0.1748  0.6550 -0.3288
 1528SOL    HW216221   0.554   2.573   2.704  0.5483 -0.1020 -2.7305
 1529SOL     OW16222   3.230   2.492   3.299  0.0252 -0.0419 -0.0537
 1529SOL    HW116223   3.264   2.413   3.340 -0.6830 -1.5844 -2.4441
 1529SOL    HW216224   3.137   2.477   3.287  0.1017 -1.2567  0.9283
 1530SOL     OW16225   3.236   2.376  14.077  0.3085  0.5175 -0.6165
 1530SOL    HW116226   3.202   2.408  13.994 -0.6735  1.3051  0.0901
 1530SOL    HW216227   3.268   2.459  14.112  1.1723 -0.3636  0.6958
 1531SOL     OW16228   1.908   2.959  14.634  0.6440  0.1138  0.6441
 1531SOL    HW116229   1.938   2.875  14.667 -0.1839  0.4671  2.2926
 1531SOL    HW216230   1.824   2.938  14.592  1.7400 -0.2462 -1.3507
 1532SOL     OW16231   0.037   0.217  17.341 -0.0239  0.7988  0.0887
 1532SOL    HW116232   0.035   0.304  17.301 -1.2325 -0.1543 -1.8971
 1532SOL    HW216233   0.099   0.182  17.277  2.0042  2.8621  0.9391
 1533SOL     OW16234   1.940   4.545   7.027  0.5303  0.4591 -0.5167
 1533SOL    HW116235   1.957   4.638   7.039 -0.2536  0.7502 -1.6611
 1533SOL    HW216236   2.020   4.540   6.975  0.8037  0.1315 -0.0727
 1534SOL     OW16237   3.761   1.510   2.900 -0.6537 -0.3094  0.5068
 1534SOL    HW116238   3.679   1.467   2.878  0.8423 -0.5447 -4.5572
 1534SOL    HW216239   3.821   1.449   2.858 -1.1396  0.4637 -1.2937
 1535SOL     OW16240   3.480   2.382   5.057  0.3365 -0.2982  0.5306
 1535SOL    HW116241   3.406   2.323   5.072  1.5851 -1.5532  1.6929
 1535SOL    HW216242   3.543   2.332   5.109 -0.0578  0.3890  1.6560
 1536SOL     OW16243   0.037   0.876  16.216  0.2039  0.1389 -0.0993
 1536SOL    HW116244   0.049   0.890  16.122  0.5881 -2.4204 -0.4226
 1536SOL    HW216245   0.057   0.782  16.216 -2.3677 -0.4317  0.7640
 1537SOL     OW16246   0.942   3.516   3.392 -0.6602  0.1874  0.4257
 1537SOL    HW116247   0.982   3.430   3.402  0.4388  0.5052 -1.1488
 1537SOL    HW216248   1.008   3.580   3.418 -1.5457  0.5597  1.7466
 1538SOL     OW16249   4.711   2.376   6.652  0.5673  0.0879 -0.0579
 1538SOL    HW116250   4.717   2.433   6.728  3.3112 -2.0960  1.3525
 1538SOL    HW216251   0.009   2.294   6.681  0.9205  1.1698  2.5226
 1539SOL     OW16252   4.551   3.914   2.299 -0.3846  0.1011 -0.0902
 1539SOL    HW116253   4.536   3.938   2.208  2.1905 -0.1231 -0.5702
 1539SOL    HW216254   4.640   3.950   2.309 -0.7953  1.3800 -1.0284
 1540SOL     OW16255   2.388   2.361  15.815 -0.2559 -0.7480  0.0595
 1540SOL    HW116256   2.337   2.292  15.856  0.7164 -1.2963  0.3551
 1540SOL    HW216257   2.356   2.441  15.858 -0.4266 -0.2911 -0.9331
 1541SOL     OW16258   0.600   1.118   9.126  0.0955  0.1742  0.4296
 1541SOL    HW116259   0.598   1.023   9.118  1.2394  0.3106 -1.3866
 1541SOL    HW216260   0.686   1.130   9.165 -0.1609 -2.0180  1.6203
 1542SOL     OW16261   2.660   0.124   8.929 -0.3429  0.5418 -0.5024
 1542SOL    HW116262   2.649   0.174   9.010 -1.4997  1.4448 -1.2208
 1542SOL    HW216263   2.570   0.094   8.919  0.7766 -1.8939 -3.1316
 1543SOL     OW16264   1.578   1.491   2.013 -0.2679 -0.2240  0.5514
 1543SOL    HW116265   1.636   1.552   2.057  0.7767  0.7307 -2.1675
 1543SOL    HW216266   1.531   1.451   2.087 -1.1605  1.8910  1.1410
 1544SOL     OW16267   1.663   2.868  14.577 -0.2440 -0.1699  0.6045
 1544SOL    HW116268   1.598   2.879  14.647 -0.9508 -0.2112 -0.0396
 1544SOL    HW216269   1.606   2.831  14.509 -1.2198  0.2721  1.1811
 1545SOL     OW16270   2.934   0.384   5.143 -0.1894  0.6271  0.4477
 1545SOL    HW116271   2.946   0.399   5.049 -0.0708  3.2946  0.8960
 1545SOL    HW216272   2.943   0.288   5.143  0.3073  0.6736 -2.6318
 1546SOL     OW16273   0.383   2.507   2.640  0.4284  0.1955 -0.3330
 1546SOL    HW116274   0.300   2.463   2.625 -0.6416  1.7547  0.9739
 1546SOL    HW216275   0.385   2.494   2.734  1.9431 -0.3732 -0.4418
 1547SOL     OW16276   3.847   3.465  11.220  1.1873  0.1163  0.5299
 1547SOL    HW116277   3.841   3.449  11.126 -0.4632 -0.6149  0.7577
 1547SOL    HW216278   3.936   3.440  11.243 -0.0845 -3.9223  1.2002
 1548SOL     OW16279   4.360   1.512  14.524 -0.2371  0.0758 -0.0157
 1548SOL    HW116280   4.372   1.443  14.459  0.6416  0.4387 -0.2438
 1548SOL    HW216281   4.367   1.587  14.464 -0.9121  0.2499  0.1279
 1549SOL     OW16282   4.588   3.812   9.387 -0.0145 -0.6242  0.6710
 1549SOL    HW116283   4.655   3.808   9.319  0.2676 -0.3595  0.9282
 1549SOL    HW216284   4.640   3.870   9.444  1.7999 -1.1878 -0.4006
 1550SOL     OW16285   0.592   2.572  11.268 -0.0346  0.2020 -0.1995
 1550SOL    HW116286   0.596   2.523  11.186  0.4353 -2.1625  1.2369
 1550SOL    HW216287   0.654   2.522  11.321 -0.3021  0.8420  0.7218
 1551SOL     OW16288   2.740   1.580   7.333  0.3564 -0.2959  0.2559
 1551SOL    HW116289   2.738   1.488   7.357 -1.7343 -0.3433 -0.0761
 1551SOL    HW216290   2.748   1.572   7.238  0.2181  2.6534 -0.0153
 1552SOL     OW16291   1.524   2.040   3.490  0.3736 -0.1618  0.1948
 1552SOL    HW116292   1.490   1.951   3.482  2.5881 -0.9579 -0.5521
 1552SOL    HW216293   1.500   2.073   3.576  0.6974  0.0576  0.2036
 1553SOL     OW16294   1.168   0.680   7.272 -0.0421 -0.4961 -0.2572
 1553SOL    HW116295   1.248   0.705   7.227  0.5580  0.6841  1.4475
 1553SOL    HW216296   1.197   0.630   7.348  1.3856  1.0745  0.2257
 1554SOL     OW16297   4.559   2.435   6.266  0.1291  0.0198  0.0143
 1554SOL    HW116298   4.611   2.380   6.324 -0.3725 -0.9201 -0.4283
 1554SOL    HW216299   4.582   2.402   6.178 -0.7214 -2.0547  0.5742
 1555SOL     OW16300   1.711   4.344   1.937  0.2790  0.0289  0.0106
 1555SOL    HW116301   1.749   4.294   1.864  0.1329 -0.1355  0.0481
 1555SOL    HW216302   1.661   4.279   1.986  2.0904 -0.2577  1.4889
 1556SOL     OW16303   3.580   1.140   6.918 -0.3119  0.1000 -0.4370
 1556SOL    HW116304   3.491   1.108   6.909 -0.6314  0.4785  1.3555
 1556SOL    HW216305   3.628   1.083   6.857 -1.3313 -1.6890  0.4392
 1557SOL     OW16306   3.610   3.506  13.960  0.7798  0.0483  0.4005
 1557SOL    HW116307   3.611   3.440  13.891 -0.3756  2.1533 -1.6185
 1557SOL    HW216308   3.666   3.574  13.923  0.9498  0.4607  1.4083
 1558SOL     OW16309   2.767   1.886   8.216 -0.0948 -0.1506 -0.4832
 1558SOL    HW116310   2.839   1.925   8.265 -0.0460 -3.4450  2.0730
 1558SOL    HW216311   2.806   1.808   8.178 -1.2958 -1.7012  1.4475
 1559SOL     OW16312   1.111   2.352   6.127 -0.2981 -0.0640 -0.0801
 1559SOL    HW116313   1.159   2.402   6.061 -0.9223  0.7055  0.0543
 1559SOL    HW216314   1.035   2.410   6.133  1.9518  2.6435  1.8634
 1560SOL     OW16315   2.307   0.317   3.003  0.0304 -0.0619 -0.1653
 1560SOL    HW116316   2.255   0.363   3.069  1.3695  1.3738 -0.1002
 1560SOL    HW216317   2.320   0.381   2.933 -0.2818  0.9166  0.6759
 1561SOL     OW16318   1.145   1.444   1.806 -0.0320 -0.4809 -0.4018
 1561SOL    HW116319   1.197   1.461   1.884 -0.5102 -0.8480 -0.0054
 1561SOL    HW216320   1.217   1.458   1.744  0.1127  1.5541  0.2372
 1562SOL     OW16321   1.228   1.591   7.858 -0.2404 -0.1281 -0.1122
 1562SOL    HW116322   1.169   1.665   7.872  0.6123  0.2597  1.5141
 1562SOL    HW216323   1.176   1.514   7.879 -2.3079  1.3882  0.2476
 1563SOL     OW16324   1.457   4.126   2.965 -0.0289  0.3657  0.5944
 1563SOL    HW116325   1.372   4.159   2.995 -0.7192  0.0772 -1.0270
 1563SOL    HW216326   1.523   4.193   2.980 -0.1089  0.3302  1.1079
 1564SOL     OW16327   2.633   1.988   1.898 -0.3840  0.4480  0.0511
 1564SOL    HW116328   2.580   2.020   1.826 -2.2846 -0.5261  1.0147
 1564SOL    HW216329   2.696   1.941   1.844 -0.3748  0.2398  0.2399
 1565SOL     OW16330   2.540   4.657  11.618  0.0816 -0.0969  0.5626
 1565SOL    HW116331   2.489   4.704  11.553  1.2687 -1.4816 -1.3721
 1565SOL    HW216332   2.570   4.584  11.563  0.7807  0.4919  0.1681
 1566SOL     OW16333   1.231   0.356  11.930  0.0654 -0.0821 -0.3393
 1566SOL    HW116334   1.142   0.387  11.913  0.5073  0.1135 -2.3082
 1566SOL    HW216335   1.231   0.265  11.899 -0.7248 -0.6652  1.3414
 1567SOL     OW16336   0.107   3.791   2.968 -0.2753 -0.4685 -0.1150
 1567SOL    HW116337   0.082   3.838   2.889 -1.7483  1.8925  1.7425
 1567SOL    HW216338   0.148   3.859   3.021 -0.2765 -1.0040  0.5804
 1568SOL     OW16339   4.617   4.325  16.022 -0.2417 -0.0206 -1.0623
 1568SOL    HW116340   4.572   4.240  16.023  1.3038 -0.8258  0.9316
 1568SOL    HW216341   4.709   4.302  16.037  0.4036  3.0785 -0.4063
 1569SOL     OW16342   1.253   1.945   1.137 -0.1741 -0.1758 -0.3803
 1569SOL    HW116343   1.311   1.945   1.213  2.4321 -0.5720 -2.3761
 1569SOL    HW216344   1.180   1.994   1.175 -0.2764 -0.2003 -0.5423
 1570SOL     OW16345   3.042   2.577   4.114 -0.3019  0.4044  0.2032
 1570SOL    HW116346   3.012   2.652   4.063  0.5468  0.6078 -0.0072
 1570SOL    HW216347   3.014   2.614   4.198  0.5757  0.3283  0.5326
 1571SOL     OW16348   1.398   2.221   8.948 -0.3754  0.6911  0.1833
 1571SOL    HW116349   1.455   2.146   8.967 -0.0165  0.6860 -0.9202
 1571SOL    HW216350   1.366   2.196   8.861  0.7067  0.9008 -0.2758
 1572SOL     OW16351   0.649   0.168   1.781  0.2668  0.3768 -0.3302
 1572SOL    HW116352   0.629   0.078   1.806 -0.1040  0.5263 -0.0744
 1572SOL    HW216353   0.564   0.189   1.742  0.4046 -1.8658 -1.8593
 1573SOL     OW16354   0.097   4.430   3.735 -0.7745 -0.1326 -0.0529
 1573SOL    HW116355   0.084   4.441   3.829 -0.5691 -0.6965  0.0375
 1573SOL    HW216356   0.023   4.476   3.693  0.9217  1.7583 -0.9784
 1574SOL     OW16357   3.400   4.404   6.669  0.2800  0.0624 -0.0862
 1574SOL    HW116358   3.427   4.320   6.630  0.1086 -0.6014  1.2108
 1574SOL    HW216359   3.331   4.420   6.605 -1.8174  0.7840  2.3771
 1575SOL     OW16360   2.492   3.933   7.995 -0.0796  0.7525  0.2837
 1575SOL    HW116361   2.573   3.969   8.031  0.5011 -0.1778 -0.1042
 1575SOL    HW216362   2.528   3.863   7.940  0.6220  1.2753  0.0730
 1576SOL     OW16363   0.244   3.177  11.641  0.4025 -0.3184 -0.1683
 1576SOL    HW116364   0.171   3.238  11.649 -1.0090 -1.9491 -0.6866
 1576SOL    HW216365   0.312   3.227  11.596  2.0259 -1.0209  1.4964
 1577SOL     OW16366   1.697   0.444   6.333 -0.5012  0.6033 -0.4046
 1577SOL    HW116367   1.779   0.460   6.380  0.2778 -0.1114 -1.5284
 1577SOL    HW216368   1.724   0.370   6.278 -0.9018 -1.7642  2.5334
 1578SOL     OW16369   4.632   2.240  15.237 -0.5256  0.3003  0.2421
 1578SOL    HW116370   4.574   2.299  15.285  0.3730  0.0413  1.6490
 1578SOL    HW216371   4.688   2.300  15.190 -2.4173  1.2605 -0.7702
 1579SOL     OW16372   3.808   0.054  12.969  0.1660  0.2007 -0.1481
 1579SOL    HW116373   3.891   0.040  12.924  0.6277  0.9523  0.4654
 1579SOL    HW216374   3.773   0.135  12.931  2.0617  0.4884 -1.2499
 1580SOL     OW16375   4.239   0.715   3.271 -0.2198  1.1714  0.1721
 1580SOL    HW116376   4.165   0.655   3.263  0.0653  0.8145  0.1839
 1580SOL    HW216377   4.313   0.667   3.232 -1.6562 -1.2163  0.4008
 1581SOL     OW16378   2.145   1.038  11.260  0.5047 -0.2039  0.0466
 1581SOL    HW116379   2.175   1.123  11.291 -0.3935 -0.9304  2.8882
 1581SOL    HW216380   2.106   1.016  11.345  0.2517 -2.6565 -0.6853
 1582SOL     OW16381   2.438   2.679   6.285 -0.8118 -0.4909  0.1286
 1582SOL    HW116382   2.428   2.599   6.233 -1.8220 -0.4100  0.1883
 1582SOL    HW216383   2.383   2.655   6.360  2.1755 -0.4661  2.2980
 1583SOL     OW16384   1.167   3.173  12.968 -0.0158 -0.4339  0.6061
 1583SOL    HW116385   1.098   3.131  12.917 -0.1979  1.3899 -0.6431
 1583SOL    HW216386   1.248   3.132  12.937 -0.4708 -0.1407 -0.9401
 1584SOL     OW16387   0.308   4.283   9.010  0.1045 -0.1510  0.3755
 1584SOL    HW116388   0.235   4.250   9.062 -2.3200  2.0733 -1.6497
 1584SOL    HW216389   0.379   4.286   9.074  0.3620 -0.8790  0.1238
 1585SOL     OW16390   3.076   4.041   7.589  0.5907 -0.3144  0.1105
 1585SOL    HW116391   3.084   4.097   7.511 -1.8206 -1.6318 -1.0995
 1585SOL    HW216392   3.017   3.973   7.557 -1.0969  1.3158 -0.2823
 1586SOL     OW16393   3.971   2.783   4.258 -0.5883  0.2067  0.2389
 1586SOL    HW116394   4.052   2.822   4.226  0.0938 -1.3155  0.1029
 1586SOL    HW216395   3.930   2.749   4.178  0.2320  0.8255 -0.4392
 1587SOL     OW16396   3.407   4.560   2.855  0.1994 -0.2284 -0.1433
 1587SOL    HW116397   3.315   4.546   2.878 -0.0731  0.2628 -0.9346
 1587SOL    HW216398   3.421   4.528   2.765  0.2953  3.2971 -1.3912
 1588SOL     OW16399   0.904   2.165   4.787  0.3621  0.0806 -0.0607
 1588SOL    HW116400   0.872   2.172   4.876  0.3101 -1.2784  0.0300
 1588SOL    HW216401   0.865   2.088   4.744 -0.7330  0.7141 -0.1853
 1589SOL     OW16402   1.307   3.405   7.067 -0.9617  0.2044 -0.1167
 1589SOL    HW116403   1.303   3.317   7.104 -1.6409 -0.0741 -0.8626
 1589SOL    HW216404   1.340   3.444   7.148 -2.6372 -2.0090  1.6303
 1590SOL     OW16405   4.635   3.352   9.302 -0.0218  0.7917  0.1068
 1590SOL    HW116406   4.684   3.339   9.383 -0.5848  0.5319  0.4039
 1590SOL    HW216407   4.561   3.403   9.335 -0.9799 -0.6691  0.2316
 1591SOL     OW16408   2.835   3.051   9.364 -0.2634 -0.0691  0.2755
 1591SOL    HW116409   2.904   3.114   9.346  0.1148 -0.1270  1.4958
 1591SOL    HW216410   2.879   2.967   9.355  0.7284  0.4314  0.5216
 1592SOL     OW16411   4.067   1.117   5.043 -0.0874  0.2116  0.1010
 1592SOL    HW116412   4.001   1.183   5.061 -0.5170 -1.0189  3.0697
 1592SOL    HW216413   4.024   1.058   4.981  0.2416 -0.5087  0.5475
 1593SOL     OW16414   3.966   3.334   6.967 -0.3628 -0.5514 -0.6592
 1593SOL    HW116415   3.966   3.310   6.874  1.2306  1.4147 -1.1538
 1593SOL    HW216416   4.058   3.337   6.995 -0.4896 -1.9156 -0.0600
 1594SOL     OW16417   2.574   0.328   2.472 -0.0773  0.0951  0.5595
 1594SOL    HW116418   2.517   0.318   2.396  0.2305 -1.3476  0.5316
 1594SOL    HW216419   2.539   0.273   2.542  0.6463 -1.6830 -0.4722
 1595SOL     OW16420   3.691   3.149  11.820 -0.8914 -0.1915  0.1510
 1595SOL    HW116421   3.696   3.091  11.896  2.0005 -1.9092 -1.3646
 1595SOL    HW216422   3.786   3.156  11.809 -0.7340 -0.5615  1.2153
 1596SOL     OW16423   0.912   4.480   2.889  0.0597 -0.6133  0.5068
 1596SOL    HW116424   0.935   4.548   2.826  1.8832  0.6113  2.4974
 1596SOL    HW216425   0.900   4.399   2.841 -0.1080  0.4720 -1.2730
 1597SOL     OW16426   0.756   0.170   8.552  0.2999  0.3579  0.2463
 1597SOL    HW116427   0.757   0.212   8.639  0.5359 -0.5370  0.6746
 1597SOL    HW216428   0.670   0.129   8.543 -0.1728  1.1353  1.1081
 1598SOL     OW16429   1.737   3.407   0.222  0.5645  0.5736 -0.3115
 1598SOL    HW116430   1.723   3.491   0.265  1.1377  0.6005 -0.1826
 1598SOL    HW216431   1.645   3.394   0.198 -0.2422  1.0878  2.4654
 1599SOL     OW16432   3.286   0.211   0.952  0.6201 -0.1012  0.7830
 1599SOL    HW116433   3.347   0.248   1.017  0.4863  1.1777  0.1812
 1599SOL    HW216434   3.295   0.281   0.888  0.6777 -0.6019  0.2406
 1600SOL     OW16435   3.738   3.443   4.772  0.2718 -0.1621 -0.5640
 1600SOL    HW116436   3.817   3.496   4.783  1.0474 -1.5430  0.5493
 1600SOL    HW216437   3.677   3.512   4.795 -0.8495 -0.2292 -3.3703
 1601SOL     OW16438   1.559   0.949   9.246  0.1906  0.5665  0.3098
 1601SOL    HW116439   1.631   0.962   9.308 -1.6497  0.2104  2.5295
 1601SOL    HW216440   1.601   0.948   9.160 -1.9491 -2.7599 -0.6917
 1602SOL     OW16441   3.328   2.383   7.704  0.1140  0.1713  0.6854
 1602SOL    HW116442   3.326   2.476   7.680 -0.8632  0.7143  2.8260
 1602SOL    HW216443   3.345   2.346   7.618  1.2360  0.5481  0.7529
 1603SOL     OW16444   2.981   0.775  10.312  0.1285 -0.0340 -0.6314
 1603SOL    HW116445   3.023   0.803  10.231  0.4016  0.9902 -0.1363
 1603SOL    HW216446   3.032   0.699  10.338 -0.1516 -0.3569 -1.0305
 1604SOL     OW16447   1.624   0.327   4.313  0.0128  0.5296 -0.3774
 1604SOL    HW116448   1.528   0.323   4.305 -0.0774 -0.5083  1.2185
 1604SOL    HW216449   1.638   0.238   4.346  1.2383  1.1918  0.8903
 1605SOL     OW16450   1.794   3.274   3.837  0.2586  0.0285 -0.1998
 1605SOL    HW116451   1.874   3.240   3.878  0.1954 -1.5033 -1.3382
 1605SOL    HW216452   1.756   3.321   3.911  0.1747  0.0435 -0.2528
 1606SOL     OW16453   0.973   2.529  13.391 -0.5193 -0.5748  0.0363
 1606SOL    HW116454   0.960   2.621  13.414 -0.8981 -0.8600  0.9507
 1606SOL    HW216455   0.972   2.492  13.480  1.5053  1.2590  0.8242
 1607SOL     OW16456   3.089   4.219   7.348 -0.1814  0.0722  0.4945
 1607SOL    HW116457   3.047   4.305   7.360 -0.9446  0.0099 -1.7245
 1607SOL    HW216458   3.026   4.180   7.287  2.1027  1.6775 -2.8563
 1608SOL     OW16459   1.886   4.295   1.299 -0.4612  0.2744  0.6955
 1608SOL    HW116460   1.900   4.203   1.277 -1.5712 -0.0122  1.1816
 1608SOL    HW216461   1.909   4.306   1.391  0.8326 -1.4176  0.5774
 1609SOL     OW16462   0.810   3.714   3.246  0.1902  0.1417  0.2953
 1609SOL    HW116463   0.834   3.637   3.299  0.5317 -0.6197 -0.9743
 1609SOL    HW216464   0.756   3.767   3.305  0.0438  0.7550 -0.3907
 1610SOL     OW16465   2.062   1.943   2.198 -0.4145 -0.0885 -0.4167
 1610SOL    HW116466   2.132   1.957   2.134 -2.1525  2.0976 -1.8061
 1610SOL    HW216467   2.065   1.848   2.189  2.4689  0.2327 -3.0104
 1611SOL     OW16468   4.612   4.604   8.853  0.3609 -0.9425  0.4943
 1611SOL    HW116469   4.582   4.513   8.860 -1.6935 -0.3196 -0.1781
 1611SOL    HW216470   4.656   4.618   8.937  0.5852 -0.2397  0.2581
 1612SOL     OW16471   0.900   1.450   7.989 -0.0083  0.4772 -0.0364
 1612SOL    HW116472   0.971   1.389   8.008  0.8343  0.7383 -2.3575
 1612SOL    HW216473   0.885   1.489   8.075  2.2450  1.7624 -0.2187
 1613SOL     OW16474   4.431   0.757   0.629  0.5073  0.1169 -0.2283
 1613SOL    HW116475   4.444   0.711   0.546  0.0742  0.1358 -0.3089
 1613SOL    HW216476   4.386   0.834   0.594 -1.0174 -1.1860 -1.1436
 1614SOL     OW16477   3.422   1.280   4.587 -0.2365  0.1662  0.0080
 1614SOL    HW116478   3.430   1.237   4.502 -1.8807 -0.8820  0.3783
 1614SOL    HW216479   3.349   1.337   4.567  0.6136  1.2978  0.1518
 1615SOL     OW16480   4.737   0.133   1.464  0.6030  0.0347  0.5054
 1615SOL    HW116481   0.008   0.039   1.449  0.4648 -0.2034  1.8574
 1615SOL    HW216482   4.661   0.150   1.408  0.5077 -0.3813  0.5029
 1616SOL     OW16483   4.216   4.235   6.211  0.0945 -0.1897 -0.2187
 1616SOL    HW116484   4.168   4.154   6.195 -0.1488 -0.2568  0.8435
 1616SOL    HW216485   4.145   4.297   6.230 -0.4569 -0.9387  0.1877
 1617SOL     OW16486   2.213   2.350   1.443  0.3187 -0.3149 -0.0323
 1617SOL    HW116487   2.294   2.390   1.475  1.0902  1.2127 -3.8166
 1617SOL    HW216488   2.209   2.406   1.366  1.4620  2.8039  2.2018
 1618SOL     OW16489   3.765   3.854   4.731  0.3864  1.0371  0.0735
 1618SOL    HW116490   3.835   3.906   4.771  0.6015  2.7815 -2.5318
 1618SOL    HW216491   3.742   3.915   4.661 -0.5035  0.8509  0.2064
 1619SOL     OW16492   1.755   4.067   7.765  0.3118 -0.3267 -0.2749
 1619SOL    HW116493   1.739   3.986   7.717  1.2560 -0.4908 -0.3044
 1619SOL    HW216494   1.844   4.055   7.797  0.7016 -0.3886 -1.3850
 1620SOL     OW16495   0.986   1.877   5.800  0.6328 -0.7589  0.3587
 1620SOL    HW116496   0.968   1.852   5.891 -1.0545  3.0566  1.0895
 1620SOL    HW216497   1.076   1.903   5.819  0.7132 -1.1317  0.4907
 1621SOL     OW16498   3.570   3.432   5.817  0.2256  0.0058 -0.2622
 1621SOL    HW116499   3.498   3.370   5.808  1.1612 -0.6994 -2.7694
 1621SOL    HW216500   3.554   3.475   5.734  0.4155  1.1807  0.3117
 1622SOL     OW16501   1.573   0.729   2.307  0.0312  0.3135 -0.0592
 1622SOL    HW116502   1.553   0.712   2.399  1.5439 -1.2455 -0.0224
 1622SOL    HW216503   1.487   0.712   2.267 -0.8304 -0.0851  1.9332
 1623SOL     OW16504   3.785   0.915   3.252  0.4224 -0.9456  0.3439
 1623SOL    HW116505   3.830   0.990   3.292  2.1798 -1.1458 -1.2464
 1623SOL    HW216506   3.828   0.930   3.168  0.8751 -0.2243  0.6977
 1624SOL     OW16507   3.805   2.936  10.150 -0.6332  0.3057 -0.4732
 1624SOL    HW116508   3.787   3.001  10.218 -1.6453 -0.6636  0.1990
 1624SOL    HW216509   3.760   2.859  10.184 -0.8803  1.0306  0.8407
 1625SOL     OW16510   2.573   0.348   9.561 -0.0055 -0.7479 -0.7059
 1625SOL    HW116511   2.567   0.257   9.587  2.7017 -0.9986 -0.9254
 1625SOL    HW216512   2.665   0.364   9.539  0.7937 -2.5780  1.3639
 1626SOL     OW16513   0.582   3.752  13.589 -0.3897 -0.3123  0.6137
 1626SOL    HW116514   0.547   3.683  13.533 -1.4035  0.4469  0.3145
 1626SOL    HW216515   0.615   3.808  13.519 -0.3549 -2.4039 -1.0074
 1627SOL     OW16516   0.620   3.520   5.084  0.0473 -0.0782  0.2182
 1627SOL    HW116517   0.700   3.522   5.137  1.8146 -0.9289 -2.3620
 1627SOL    HW216518   0.556   3.541   5.151 -1.8936 -1.4671 -1.2060
 1628SOL     OW16519   4.462   2.983   1.018  0.4529  0.5864  0.7577
 1628SOL    HW116520   4.436   2.897   1.051  0.4953  0.7939  1.3401
 1628SOL    HW216521   4.379   3.031   1.019  0.1806  0.1124  0.9485
 1629SOL     OW16522   2.525   3.721   6.623 -0.3214  0.2543 -0.9341
 1629SOL    HW116523   2.492   3.653   6.681 -1.3660  2.6007  1.2284
 1629SOL    HW216524   2.484   3.794   6.669  0.2951  0.8488 -1.3131
 1630SOL     OW16525   2.109   1.185   5.480  0.0695  0.0012 -0.4227
 1630SOL    HW116526   2.166   1.208   5.553  0.0995  1.2718 -0.8533
 1630SOL    HW216527   2.173   1.197   5.410 -2.7277  0.5784 -2.8910
 1631SOL     OW16528   1.681   0.496   8.532 -0.1046 -0.5368  0.3375
 1631SOL    HW116529   1.612   0.431   8.521  1.1115 -1.2681 -3.0927
 1631SOL    HW216530   1.656   0.555   8.602  3.0242 -0.7263  1.5849
 1632SOL     OW16531   1.859   3.249   1.635  0.5359 -0.0628 -0.3199
 1632SOL    HW116532   1.903   3.332   1.647  0.6491 -0.0793 -0.6058
 1632SOL    HW216533   1.802   3.248   1.711  0.1217  1.8065 -0.6152
 1633SOL     OW16534   1.165   4.676   8.715 -0.0914  0.4203 -0.4175
 1633SOL    HW116535   1.093   4.677   8.652 -0.9295 -0.4379  0.5141
 1633SOL    HW216536   1.107   4.689   8.790  0.3612  0.8089 -0.1313
 1634SOL     OW16537   2.420   0.357   9.334 -0.3417  0.2201  0.2135
 1634SOL    HW116538   2.334   0.319   9.350  0.0573 -0.8102 -0.0913
 1634SOL    HW216539   2.469   0.349   9.416 -2.9943  0.2159  1.7836
 1635SOL     OW16540   3.593   2.869   2.775  0.2143  0.5239  0.5620
 1635SOL    HW116541   3.572   2.881   2.682  3.1712 -1.1212 -0.3156
 1635SOL    HW216542   3.588   2.961   2.802  2.2997  1.6482 -2.9585
 1636SOL     OW16543   0.382   0.909   2.636 -0.4394 -0.5676 -0.2775
 1636SOL    HW116544   0.337   0.887   2.718  1.5997  0.8945  1.2630
 1636SOL    HW216545   0.309   0.924   2.575 -0.8033  0.5915  0.4320
 1637SOL     OW16546   2.317   3.196   3.099  0.1232 -0.3994  0.5702
 1637SOL    HW116547   2.260   3.219   3.173  2.2244  1.3184  1.6773
 1637SOL    HW216548   2.259   3.130   3.063 -0.1786 -0.0673  0.4532
 1638SOL     OW16549   0.849   0.896   4.007  0.4847  0.7545 -0.0737
 1638SOL    HW116550   0.857   0.847   3.926  2.3487  1.3464 -0.2444
 1638SOL    HW216551   0.906   0.966   3.975  0.4736  1.2095  0.8903
 1639SOL     OW16552   4.579   3.356   0.740  0.0983  0.6824  0.0025
 1639SOL    HW116553   4.664   3.387   0.774  0.4357  0.3216 -0.5175
 1639SOL    HW216554   4.576   3.399   0.655  0.3447 -1.4978 -1.0892
 1640SOL     OW16555   0.265   4.446   9.295 -0.5381  0.7964 -0.3249
 1640SOL    HW116556   0.216   4.485   9.223 -2.5309  0.7703  0.9971
 1640SOL    HW216557   0.199   4.470   9.360 -1.1337 -0.4274 -0.4750
 1641SOL     OW16558   3.109   0.747   1.860  0.5523 -0.4220 -0.2646
 1641SOL    HW116559   3.134   0.684   1.792 -0.9660  0.5505 -1.7429
 1641SOL    HW216560   3.032   0.705   1.899 -0.0399  0.3734 -0.5668
 1642SOL     OW16561   2.357   3.037   6.865 -0.3756  0.2904 -0.1615
 1642SOL    HW116562   2.419   3.031   6.792  0.2917 -0.6086  0.4734
 1642SOL    HW216563   2.416   3.052   6.939 -1.0595  0.6785  0.3062
 1643SOL     OW16564   0.047   0.302   2.011  0.3215 -0.0664 -0.5070
 1643SOL    HW116565   0.133   0.298   1.969  1.0837 -3.8494  1.4385
 1643SOL    HW216566   0.005   0.240   1.951 -0.1109 -0.6267  0.3866
 1644SOL     OW16567   3.923   0.445  13.201 -0.0684  0.2281  0.3861
 1644SOL    HW116568   3.908   0.519  13.260  1.2470  0.6325  0.1984
 1644SOL    HW216569   4.008   0.410  13.227 -0.1345  0.4470  0.8942
 1645SOL     OW16570   1.493   1.630   8.578  0.3139 -0.4537  0.1628
 1645SOL    HW116571   1.426   1.606   8.514  1.8393 -0.4410 -1.4136
 1645SOL    HW216572   1.462   1.709   8.623  2.3088  1.4551 -1.8488
 1646SOL     OW16573   1.319   3.437   6.588  0.5918 -0.0471 -0.3003
 1646SOL    HW116574   1.282   3.389   6.662  1.2721 -0.0245  0.0567
 1646SOL    HW216575   1.400   3.391   6.566  1.7654  0.8701  2.1093
 1647SOL     OW16576   1.434   3.031  11.481 -0.6712  0.0665  0.1316
 1647SOL    HW116577   1.385   3.102  11.439 -0.2559  0.7880  0.8727
 1647SOL    HW216578   1.467   2.981  11.406  0.5303  0.4926  0.3740
 1648SOL     OW16579   0.664   1.916   6.489 -0.3015 -0.0925 -0.4311
 1648SOL    HW116580   0.601   1.983   6.462  0.1121 -0.4397 -2.2487
 1648SOL    HW216581   0.662   1.857   6.414  0.0330 -1.4675  0.6473
 1649SOL     OW16582   1.091   2.969  15.006  0.2351  0.1966  0.1617
 1649SOL    HW116583   1.139   2.985  14.925  0.2572 -2.6867 -0.4014
 1649SOL    HW216584   1.022   2.912  14.970 -0.0676  1.1050 -0.6927
 1650SOL     OW16585   4.570   3.745   7.149 -0.1973 -0.6793 -0.3209
 1650SOL    HW116586   4.633   3.815   7.167 -1.7807  0.5897  0.3201
 1650SOL    HW216587   4.592   3.721   7.059 -0.6412 -2.2595 -0.0013
 1651SOL     OW16588   2.252   1.551   7.791 -0.4114 -0.3488  0.3886
 1651SOL    HW116589   2.241   1.540   7.886 -1.7547  1.9035  0.4895
 1651SOL    HW216590   2.317   1.482   7.779 -0.0648  0.0220  0.1092
 1652SOL     OW16591   2.510   2.809   3.292  0.3068  0.7097  0.2594
 1652SOL    HW116592   2.547   2.765   3.216  0.0502 -1.1718  1.2169
 1652SOL    HW216593   2.451   2.874   3.254 -2.1147 -1.6448 -0.0264
 1653SOL     OW16594   1.110   1.281   9.203 -0.0286  0.0181 -0.2853
 1653SOL    HW116595   1.153   1.203   9.169 -0.5921 -0.8687  1.0455
 1653SOL    HW216596   1.028   1.243   9.233  0.7249 -0.5824  1.0017
 1654SOL     OW16597   1.540   2.176   6.360 -0.0886  0.7271  0.0624
 1654SOL    HW116598   1.566   2.257   6.315  1.3427  0.9448  1.2902
 1654SOL    HW216599   1.614   2.168   6.419 -1.1172 -1.3197  1.0654
 1655SOL     OW16600   3.184   3.070  10.633 -0.1427  0.5142 -0.7877
 1655SOL    HW116601   3.237   2.998  10.598 -0.5835 -1.1500  1.9532
 1655SOL    HW216602   3.246   3.129  10.675  1.8525 -2.5532  0.5477
 1656SOL     OW16603   0.566   2.943   4.247 -0.1567  0.1049 -0.3526
 1656SOL    HW116604   0.573   2.989   4.164 -1.9721  0.3150 -0.3938
 1656SOL    HW216605   0.472   2.952   4.261 -0.5649  0.4317 -3.3705
 1657SOL     OW16606   0.672   2.426   7.144  0.3817  0.1324 -0.8622
 1657SOL    HW116607   0.710   2.339   7.160 -0.7608 -0.5827 -2.0374
 1657SOL    HW216608   0.730   2.478   7.200 -0.2131  0.0348 -0.1660
 1658SOL     OW16609   1.225   1.580   4.749  0.1267  0.1517 -0.0269
 1658SOL    HW116610   1.174   1.625   4.682  1.6720 -1.2460 -2.1291
 1658SOL    HW216611   1.301   1.541   4.707 -1.0435  0.1217 -2.0755
 1659SOL     OW16612   1.337   2.307   3.481  0.9211  0.7582  0.7855
 1659SOL    HW116613   1.392   2.233   3.455  1.1688  0.7584  1.3001
 1659SOL    HW216614   1.264   2.256   3.516  1.0793 -2.4716 -3.5907
 1660SOL     OW16615   1.118   4.579   6.447 -0.1304  0.3102 -0.4567
 1660SOL    HW116616   1.133   4.486   6.430 -0.0557  0.2817 -0.2308
 1660SOL    HW216617   1.033   4.570   6.490  2.1106  0.9139  4.0709
 1661SOL     OW16618   2.951   2.149   4.798 -0.1348 -0.0251  0.7314
 1661SOL    HW116619   2.862   2.185   4.802 -0.3687 -0.6920  1.6104
 1661SOL    HW216620   2.995   2.214   4.743 -0.6847 -0.3080 -0.0512
 1662SOL     OW16621   1.808   0.196   6.911 -0.0289  0.1607 -1.0159
 1662SOL    HW116622   1.805   0.100   6.909  0.2430  0.1197  0.4804
 1662SOL    HW216623   1.753   0.211   6.989 -0.1458  2.2375 -1.4992
 1663SOL     OW16624   4.289   2.369   8.179 -0.1188  0.3358  0.1953
 1663SOL    HW116625   4.285   2.282   8.140 -0.4836  1.0762 -1.4531
 1663SOL    HW216626   4.302   2.347   8.271  0.7868  0.9683  0.2139
 1664SOL     OW16627   2.277   4.504   2.556 -0.3050  0.4437  0.0003
 1664SOL    HW116628   2.244   4.439   2.619 -1.2929 -1.4217 -2.4729
 1664SOL    HW216629   2.213   4.574   2.559 -0.1731  0.5978 -0.7893
 1665SOL     OW16630   1.740   4.291   2.270 -0.1716 -0.2503  0.6711
 1665SOL    HW116631   1.737   4.341   2.351 -0.9571  0.8053 -0.0097
 1665SOL    HW216632   1.690   4.212   2.289 -0.1280 -1.0522 -2.4844
 1666SOL     OW16633   3.175   1.912   8.204  0.8909  0.2861  0.3495
 1666SOL    HW116634   3.215   1.999   8.214  0.0113  0.6705  0.4824
 1666SOL    HW216635   3.081   1.931   8.203  0.7198 -0.5775 -0.2752
 1667SOL     OW16636   0.238   3.211   1.733 -0.4200 -0.4668 -0.5301
 1667SOL    HW116637   0.152   3.237   1.768 -0.1349 -0.5628  0.2344
 1667SOL    HW216638   0.215   3.183   1.644  0.5548  0.4819 -1.0717
 1668SOL     OW16639   2.499   3.477   8.835 -0.1069  0.2169  0.3370
 1668SOL    HW116640   2.433   3.494   8.767 -0.5943 -0.3470  0.6713
 1668SOL    HW216641   2.446   3.450   8.910 -2.0638  0.3555 -0.9859
 1669SOL     OW16642   4.446   3.603   3.053  0.8217 -0.3139  0.1322
 1669SOL    HW116643   4.444   3.621   2.959 -0.2103  0.7984  0.3680
 1669SOL    HW216644   4.534   3.627   3.081  0.5536 -1.6572  2.0652
 1670SOL     OW16645   3.650   3.049   5.017 -0.3915  0.2227  0.2939
 1670SOL    HW116646   3.575   3.007   5.058 -0.6711 -0.0961 -0.5559
 1670SOL    HW216647   3.609   3.134   5.000 -0.0130  0.4658  0.5971
 1671SOL     OW16648   4.690   2.210   1.509 -0.2988 -0.1898 -0.5564
 1671SOL    HW116649   0.015   2.263   1.547  2.1449 -2.5498 -1.6905
 1671SOL    HW216650   4.618   2.239   1.565  0.6923 -0.6706  0.9640
 1672SOL     OW16651   1.788   3.469   2.944 -0.3894  0.1144  0.3977
 1672SOL    HW116652   1.794   3.550   2.894  0.3335  0.2230  0.6653
 1672SOL    HW216653   1.753   3.408   2.878 -0.3458  0.5444 -0.0223
 1673SOL     OW16654   0.630   0.363   3.695 -0.3043  0.3356 -0.8588
 1673SOL    HW116655   0.612   0.305   3.769 -0.3027 -0.8543 -1.7952
 1673SOL    HW216656   0.573   0.437   3.715 -0.9279  0.0080 -1.4407
 1674SOL     OW16657   3.905   0.413   4.832 -0.2148 -0.1313 -0.7951
 1674SOL    HW116658   3.887   0.473   4.905 -0.2974 -1.1351  0.0073
 1674SOL    HW216659   3.996   0.433   4.814 -0.2310 -0.3942 -1.1508
 1675SOL     OW16660   2.983   3.303  11.700  0.1775 -0.2841  0.5287
 1675SOL    HW116661   3.077   3.286  11.697  0.0344 -0.5432 -2.5143
 1675SOL    HW216662   2.987   3.388  11.656  0.5618 -0.3687  0.4052
 1676SOL     OW16663   1.571   2.573   4.076 -0.4245 -0.1872  0.1485
 1676SOL    HW116664   1.544   2.539   4.161 -0.8580 -1.0822 -0.3495
 1676SOL    HW216665   1.508   2.639   4.047 -0.8803 -1.1976 -1.1389
 1677SOL     OW16666   2.649   0.224   6.103 -0.5209  0.0671  0.3410
 1677SOL    HW116667   2.687   0.142   6.070  0.0800 -0.6507  2.7949
 1677SOL    HW216668   2.727   0.277   6.122  0.0723  0.0396 -1.9961
 1678SOL     OW16669   1.220   3.274   9.580  0.0387  0.2895  0.0103
 1678SOL    HW116670   1.174   3.357   9.574 -0.8107 -0.1798 -0.0063
 1678SOL    HW216671   1.288   3.274   9.512 -0.3839 -1.4737 -0.4394
 1679SOL     OW16672   3.264   3.630   2.236 -0.4524  0.1529  0.2811
 1679SOL    HW116673   3.211   3.700   2.274 -1.4525  0.5787 -1.9245
 1679SOL    HW216674   3.340   3.626   2.294  0.1930  0.4521 -0.5448
 1680SOL     OW16675   2.808   1.939   1.333  0.2102  0.3285  0.1038
 1680SOL    HW116676   2.779   2.024   1.366 -1.4648 -0.3106  0.2954
 1680SOL    HW216677   2.827   1.963   1.242 -1.9182  1.4149 -0.0480
 1681SOL     OW16678   4.632   0.910   8.387 -0.4989 -0.5920  0.0044
 1681SOL    HW116679   4.569   0.941   8.452  1.0517 -3.2621  2.7683
 1681SOL    HW216680   4.607   0.955   8.306  1.6626  0.6309  0.0127
 1682SOL     OW16681   0.178   0.740   9.305  0.6569 -0.2311  0.3329
 1682SOL    HW116682   0.140   0.666   9.352 -1.7160 -0.3847 -1.8529
 1682SOL    HW216683   0.144   0.734   9.216  0.1360  0.0650  0.5121
 1683SOL     OW16684   0.507   1.890   3.862  0.1710 -0.5419  0.2077
 1683SOL    HW116685   0.526   1.884   3.768 -0.6072  1.0658 -0.0531
 1683SOL    HW216686   0.494   1.985   3.871 -0.3934 -0.6265  0.2412
 1684SOL     OW16687   2.032   1.617   6.336  0.0785  0.0888 -0.0247
 1684SOL    HW116688   1.963   1.617   6.402  0.9116 -0.5952  0.8318
 1684SOL    HW216689   2.031   1.532   6.291  0.2013  0.9722 -1.6771
 1685SOL     OW16690   0.969   0.691   8.917  0.0271  0.0745 -0.5557
 1685SOL    HW116691   1.000   0.752   8.851  1.5235  0.4740  0.5269
 1685SOL    HW216692   1.041   0.693   8.979  1.4069  2.0907 -2.2534
 1686SOL     OW16693   1.571   0.730   5.198 -0.2904  0.6206  0.2867
 1686SOL    HW116694   1.628   0.700   5.269 -0.8785  0.3646  0.6585
 1686SOL    HW216695   1.563   0.652   5.144  1.6422 -0.8718  2.1903
 1687SOL     OW16696   1.764   2.118  12.582 -0.0893 -0.1958 -1.1227
 1687SOL    HW116697   1.699   2.048  12.576  0.6978 -0.9186 -1.1572
 1687SOL    HW216698   1.716   2.174  12.643 -0.3715 -2.5745  0.8412
 1688SOL     OW16699   1.069   1.717  11.877  0.2989  0.4916  0.4577
 1688SOL    HW116700   1.067   1.809  11.852 -1.1352  0.0169 -1.1637
 1688SOL    HW216701   0.999   1.708  11.941 -1.1498  1.3578 -1.0114
 1689SOL     OW16702   0.319   1.843   4.075 -0.3932  0.4142 -0.8211
 1689SOL    HW116703   0.381   1.836   4.002  1.9670  1.1338  1.0841
 1689SOL    HW216704   0.382   1.834   4.147  0.6224  0.8186 -1.6645
 1690SOL     OW16705   3.590   0.535  11.305  0.3013  0.0596 -0.0338
 1690SOL    HW116706   3.552   0.596  11.368  1.9757  1.3636 -0.2675
 1690SOL    HW216707   3.511   0.504  11.261 -1.5442  1.1061  2.5201
 1691SOL     OW16708   1.513   0.290  11.408  0.3132  0.0209  0.0434
 1691SOL    HW116709   1.588   0.308  11.464 -0.7149  0.0746  1.3897
 1691SOL    HW216710   1.528   0.196  11.399  3.2868  0.6597 -1.7193
 1692SOL     OW16711   2.383   0.952   8.734  0.0491  0.1694  0.1209
 1692SOL    HW116712   2.323   1.021   8.707 -2.9851 -2.0495  1.2313
 1692SOL    HW216713   2.449   1.013   8.767 -1.9046  1.9109  0.8047
 1693SOL     OW16714   1.617   1.244  16.654 -0.1451 -0.0146  0.0849
 1693SOL    HW116715   1.557   1.249  16.580 -0.5421  1.5216  0.4985
 1693SOL    HW216716   1.576   1.180  16.712 -0.5228 -2.2443 -2.6707
 1694SOL     OW16717   2.467   1.788   4.064 -0.1238  0.0688 -0.0142
 1694SOL    HW116718   2.421   1.827   4.138  1.4816  0.6799  0.6591
 1694SOL    HW216719   2.398   1.748   4.011  0.5839 -0.7127 -0.3407
 1695SOL     OW16720   0.003   3.675   8.476  0.1530  0.0571  0.7021
 1695SOL    HW116721   4.728   3.636   8.561  2.1660 -0.3391  0.9704
 1695SOL    HW216722   0.055   3.752   8.497  1.6168 -0.4160 -1.1508
 1696SOL     OW16723   4.311   4.523  14.814 -0.3438  0.1570  0.6674
 1696SOL    HW116724   4.384   4.559  14.763 -0.1116  0.2435  1.0657
 1696SOL    HW216725   4.344   4.548  14.900  0.4807  0.4310  0.2797
 1697SOL     OW16726   2.289   3.145   4.964 -0.0690 -0.1973  0.7977
 1697SOL    HW116727   2.331   3.229   4.943  1.6775 -1.0629  0.8856
 1697SOL    HW216728   2.255   3.121   4.878 -0.6832  1.2254  0.6337
 1698SOL     OW16729   3.207   0.207  15.513 -0.3979 -0.6144  0.3647
 1698SOL    HW116730   3.152   0.128  15.511 -0.5350 -0.4362 -2.5697
 1698SOL    HW216731   3.288   0.161  15.532  1.2594  2.0235 -0.3325
 1699SOL     OW16732   1.295   0.183   3.050  0.3655  0.2532 -0.6817
 1699SOL    HW116733   1.217   0.127   3.046  1.1913 -0.8368 -1.3735
 1699SOL    HW216734   1.316   0.182   3.144 -3.2858  0.4802  0.1478
 1700SOL     OW16735   4.527   0.895   1.328 -0.1220  0.0776  0.2772
 1700SOL    HW116736   4.557   0.960   1.264 -0.3194 -0.0315  0.0722
 1700SOL    HW216737   4.435   0.891   1.304  0.8891 -0.7906 -3.4741
 1701SOL     OW16738   3.640   4.061  15.820 -0.1859  0.0372 -0.0453
 1701SOL    HW116739   3.561   4.064  15.765  0.0937 -0.9098 -0.5007
 1701SOL    HW216740   3.683   4.123  15.761 -1.2761  0.6360 -0.2322
 1702SOL     OW16741   3.536   3.931   8.383  0.1099  0.3081  0.6466
 1702SOL    HW116742   3.466   3.991   8.354  0.6190  1.0772  1.0085
 1702SOL    HW216743   3.544   3.960   8.474  1.0325  1.0737  0.3245
 1703SOL     OW16744   2.039   3.055   8.419  0.5741  0.4895 -0.4145
 1703SOL    HW116745   2.022   3.093   8.505 -0.5747 -0.9949  0.0100
 1703SOL    HW216746   2.000   2.968   8.425 -0.2205  0.8679 -0.1933
 1704SOL     OW16747   3.883   3.213   1.590 -0.2505 -0.1179 -0.8088
 1704SOL    HW116748   3.816   3.186   1.527 -0.1557  0.2944 -1.0912
 1704SOL    HW216749   3.956   3.245   1.537 -1.3816  1.5320 -1.3647
 1705SOL     OW16750   3.409   0.942  16.634 -0.1779 -0.3258  0.0979
 1705SOL    HW116751   3.340   0.880  16.655  0.2921 -1.1460 -0.7838
 1705SOL    HW216752   3.433   0.963  16.724  2.7337 -0.4617 -0.6497
 1706SOL     OW16753   2.831   2.872   2.456 -0.1560 -0.3589 -0.2185
 1706SOL    HW116754   2.912   2.916   2.480 -1.1000  1.3442 -0.1900
 1706SOL    HW216755   2.767   2.930   2.498  0.5110 -0.3416  0.7809
 1707SOL     OW16756   4.125   1.965   1.635  0.1271 -0.2135 -0.3730
 1707SOL    HW116757   4.216   1.943   1.615  0.4901  0.9724 -0.0062
 1707SOL    HW216758   4.142   2.010   1.718 -3.5258  0.2592  0.1236
 1708SOL     OW16759   4.092   0.017  10.310  0.6926  0.4438 -0.4966
 1708SOL    HW116760   4.126   4.674  10.288  1.0322  0.4408  0.0341
 1708SOL    HW216761   4.167   0.076  10.306 -0.0609  1.5481  1.6434
 1709SOL     OW16762   3.016   3.763   4.682 -0.0140 -0.6746 -0.0467
 1709SOL    HW116763   2.967   3.805   4.753  2.9184 -0.1746  1.6946
 1709SOL    HW216764   2.950   3.773   4.614 -0.6122  1.4882  0.8339
 1710SOL     OW16765   0.618   0.648   1.949 -0.1551  0.2554 -0.5453
 1710SOL    HW116766   0.528   0.659   1.917  0.4369  0.0684 -2.2579
 1710SOL    HW216767   0.616   0.714   2.018  0.3991 -0.6699  0.3439
 1711SOL     OW16768   0.698   3.369   2.217  0.0631 -0.0768  0.4023
 1711SOL    HW116769   0.712   3.463   2.203  1.2942 -0.3867 -0.3810
 1711SOL    HW216770   0.603   3.357   2.217  0.2669 -1.7502  2.2378
 1712SOL     OW16771   2.708   2.198   1.386  0.0615  0.2822  0.1983
 1712SOL    HW116772   2.711   2.262   1.457 -2.5562  0.3223  0.2630
 1712SOL    HW216773   2.671   2.245   1.311  1.0188 -0.3460 -0.6575
 1713SOL     OW16774   4.088   0.829   7.280  0.3102  0.6052  0.5021
 1713SOL    HW116775   4.082   0.761   7.347 -0.2558  1.9218  1.7900
 1713SOL    HW216776   4.060   0.898   7.342 -2.0790  0.1341 -0.0428
 1714SOL     OW16777   3.489   0.842  12.713  0.1346  0.5010 -0.4778
 1714SOL    HW116778   3.564   0.902  12.714 -0.3861  1.1625 -0.9318
 1714SOL    HW216779   3.435   0.881  12.781 -0.7574 -1.1584 -0.2440
 1715SOL     OW16780   4.540   3.806   5.066  0.8575 -0.5125 -0.0627
 1715SOL    HW116781   4.558   3.819   5.159  1.8946  2.0483 -0.6021
 1715SOL    HW216782   4.629   3.815   5.029  0.4014 -0.5800 -1.1832
 1716SOL     OW16783   1.140   0.670   5.876 -0.5635 -0.2945  0.1339
 1716SOL    HW116784   1.048   0.697   5.889  0.3091  1.2119  3.1531
 1716SOL    HW216785   1.153   0.646   5.968  0.1956 -1.1264 -0.1982
 1717SOL     OW16786   2.898   1.761   8.594  0.1855 -0.4577 -0.0797
 1717SOL    HW116787   2.875   1.706   8.669  0.2190 -0.2296  0.1005
 1717SOL    HW216788   2.975   1.712   8.566  0.5909  1.5594 -2.4363
 1718SOL     OW16789   3.595   0.011   7.869 -0.3087  0.0023 -0.3090
 1718SOL    HW116790   3.673   0.005   7.813  0.9292 -0.4717  1.4808
 1718SOL    HW216791   3.562   4.665   7.878 -1.4685  0.8055  3.1548
 1719SOL     OW16792   0.311   2.260   6.024  0.2710  0.2256 -0.0451
 1719SOL    HW116793   0.356   2.316   5.961  2.3431 -1.0888  0.2536
 1719SOL    HW216794   0.326   2.294   6.113  0.6111 -0.6208  0.2262
 1720SOL     OW16795   3.854   2.085   0.856 -0.0744 -0.0072  0.3422
 1720SOL    HW116796   3.780   2.095   0.796 -0.3581  0.9485  0.8650
 1720SOL    HW216797   3.899   2.022   0.799  1.0114 -1.0243  2.3426
 1721SOL     OW16798   0.939   2.926   6.060 -0.1330  0.3207  0.1685
 1721SOL    HW116799   0.845   2.937   6.049 -0.1757  1.5079  1.8669
 1721SOL    HW216800   0.961   2.937   5.967 -0.6773  2.2842  0.2820
 1722SOL     OW16801   3.957   2.314  11.678  0.3092 -0.3399  0.3469
 1722SOL    HW116802   3.944   2.393  11.625 -0.3899 -1.6048 -1.3928
 1722SOL    HW216803   3.883   2.318  11.738 -1.4671 -1.3827 -1.7329
 1723SOL     OW16804   1.639   1.388   1.325  0.8481  0.0686 -0.6215
 1723SOL    HW116805   1.646   1.466   1.270 -1.2031  2.5487  2.6247
 1723SOL    HW216806   1.672   1.420   1.409 -1.4648 -0.2690  0.4176
 1724SOL     OW16807   2.850   4.539   6.042 -0.4850 -0.3568 -0.6331
 1724SOL    HW116808   2.783   4.471   6.048  0.6736 -1.6088 -1.9312
 1724SOL    HW216809   2.886   4.536   6.131 -0.6823 -3.1548 -0.6648
 1725SOL     OW16810   3.686   0.455   6.308  0.0584 -0.0342 -0.1185
 1725SOL    HW116811   3.750   0.525   6.316 -0.4829  0.1298  2.7354
 1725SOL    HW216812   3.723   0.387   6.364 -0.8723  0.5166  1.1589
 1726SOL     OW16813   2.408   1.763   8.384  0.0733  0.5787 -0.1088
 1726SOL    HW116814   2.464   1.817   8.440  0.6974 -1.5774  1.3628
 1726SOL    HW216815   2.465   1.687   8.371  0.7895  0.7076  2.2264
 1727SOL     OW16816   0.761   4.364  11.345 -0.2870 -0.0124  0.4477
 1727SOL    HW116817   0.803   4.286  11.383 -0.7669 -0.6502 -0.3360
 1727SOL    HW216818   0.708   4.387  11.421 -0.4080 -1.6213  0.8584
 1728SOL     OW16819   2.361   0.730   6.073 -0.1297 -0.0722 -0.5956
 1728SOL    HW116820   2.371   0.792   6.145 -0.5185 -1.8496  0.9922
 1728SOL    HW216821   2.359   0.650   6.126 -0.9472 -0.7606 -1.6778
 1729SOL     OW16822   3.509   3.870   7.991 -0.0054 -0.4971  0.1353
 1729SOL    HW116823   3.514   3.835   7.902 -0.6917  0.3289 -0.2245
 1729SOL    HW216824   3.417   3.895   8.000 -0.3570 -1.5877 -0.3747
 1730SOL     OW16825   1.595   4.730   3.563 -0.3143 -0.1036  0.1990
 1730SOL    HW116826   1.593   0.055   3.497 -0.5027 -3.1605 -3.0187
 1730SOL    HW216827   1.570   4.660   3.502  0.4456 -0.2604  0.0588
 1731SOL     OW16828   4.119   3.175   2.182 -0.3700  0.0464  0.1967
 1731SOL    HW116829   4.096   3.117   2.109 -1.3299  1.0924 -0.3382
 1731SOL    HW216830   4.040   3.230   2.189  2.1618  3.2361  3.8590
 1732SOL     OW16831   3.747   0.061  12.217 -0.0239 -0.1165  0.0662
 1732SOL    HW116832   3.665   0.097  12.184 -1.4074 -3.8738 -0.6390
 1732SOL    HW216833   3.712   4.721  12.248 -1.4430  0.3854 -0.1762
 1733SOL     OW16834   2.593   4.457   5.524  0.7881 -0.3717  0.2613
 1733SOL    HW116835   2.619   4.446   5.433  0.2910 -1.2334  0.2251
 1733SOL    HW216836   2.503   4.436   5.500 -0.0315  0.5589  2.4925
 1734SOL     OW16837   4.252   1.568  11.612  0.2434  0.5397 -0.1783
 1734SOL    HW116838   4.182   1.629  11.588 -1.4172 -1.8957 -1.4571
 1734SOL    HW216839   4.220   1.487  11.572  1.1151 -0.5321  1.3008
 1735SOL     OW16840   1.007   3.544   7.422 -0.1068 -0.4001 -0.8894
 1735SOL    HW116841   0.995   3.505   7.508 -0.6862 -2.5711 -1.9272
 1735SOL    HW216842   0.963   3.627   7.439 -0.1587 -0.9808  1.7101
 1736SOL     OW16843   2.449   2.484   4.800 -0.0604 -0.6608 -0.1032
 1736SOL    HW116844   2.404   2.439   4.872  1.1294  0.8801  1.6168
 1736SOL    HW216845   2.517   2.419   4.780 -0.9629 -2.3977  2.3743
 1737SOL     OW16846   1.056   4.088   6.992  0.2134 -0.1415  0.1480
 1737SOL    HW116847   1.025   4.059   7.077 -0.2081  1.1957  0.4493
 1737SOL    HW216848   1.016   4.017   6.943 -0.6394 -0.2089  0.9417
 1738SOL     OW16849   3.292   3.434  10.231  0.1990  0.5224 -0.2129
 1738SOL    HW116850   3.244   3.377  10.292  0.3616  0.9258  0.2954
 1738SOL    HW216851   3.358   3.368  10.213  0.2565 -0.0829  2.2498
 1739SOL     OW16852   0.405   0.238   8.658 -0.1161 -0.2611  0.0509
 1739SOL    HW116853   0.433   0.175   8.592 -2.1536  2.0771 -3.0247
 1739SOL    HW216854   0.310   0.233   8.653 -0.2686  2.0389  0.8316
 1740SOL     OW16855   1.201   3.946   7.422 -0.2240  0.4338 -0.4121
 1740SOL    HW116856   1.266   3.923   7.488 -0.6215  1.5547  0.3744
 1740SOL    HW216857   1.244   3.918   7.341  2.3870  1.8159  0.5192
 1741SOL     OW16858   2.118   2.926   3.591 -0.9271 -0.1284 -0.3676
 1741SOL    HW116859   2.121   2.838   3.628 -1.3405  0.0546  0.1160
 1741SOL    HW216860   2.048   2.933   3.526 -0.1435  0.0634 -1.1807
 1742SOL     OW16861   3.121   2.672   5.371 -0.5723 -0.2571 -0.0273
 1742SOL    HW116862   3.051   2.700   5.312  0.7136 -0.6566 -1.7405
 1742SOL    HW216863   3.065   2.660   5.448  1.0302  0.7792  1.2897
 1743SOL     OW16864   4.065   2.477   7.990  0.1394  0.4322  0.0073
 1743SOL    HW116865   4.014   2.542   8.038  0.1162  0.4031  0.0221
 1743SOL    HW216866   4.124   2.447   8.059 -0.1465  1.2321  0.5949
 1744SOL     OW16867   3.141   1.704   5.692 -0.1398 -0.2211 -0.4009
 1744SOL    HW116868   3.137   1.777   5.754 -0.6476 -1.1888  0.6946
 1744SOL    HW216869   3.048   1.690   5.675  0.1821 -0.0615 -2.3707
 1745SOL     OW16870   1.426   2.419  13.129 -0.3664 -0.2954  0.2239
 1745SOL    HW116871   1.484   2.489  13.100 -0.7114  0.8003  2.2049
 1745SOL    HW216872   1.366   2.461  13.190  0.5229 -1.7975  2.1624
 1746SOL     OW16873   3.216   3.002  15.145  0.3300  0.1696  0.0161
 1746SOL    HW116874   3.289   2.940  15.153 -1.5166 -1.7832  1.8032
 1746SOL    HW216875   3.259   3.079  15.182  1.7227 -0.6345  0.0763
 1747SOL     OW16876   2.214   1.844  12.134  0.9575  0.7019  0.2040
 1747SOL    HW116877   2.161   1.770  12.164 -0.0688  0.5111 -2.0746
 1747SOL    HW216878   2.155   1.915  12.158 -0.1369 -0.2318  0.2963
 1748SOL     OW16879   0.185   2.692   6.584  0.5230  0.1177  0.0474
 1748SOL    HW116880   0.164   2.785   6.586  2.5665  0.6472 -2.8546
 1748SOL    HW216881   0.094   2.665   6.599  0.6718 -0.1336  0.4994
 1749SOL     OW16882   1.191   4.377   3.299  0.3622  0.3461  0.2779
 1749SOL    HW116883   1.151   4.290   3.297  1.1608 -0.0148  0.2794
 1749SOL    HW216884   1.251   4.365   3.373  2.3379 -0.7763 -1.5000
 1750SOL     OW16885   1.367   4.190   1.411  0.2833  0.6926  0.3749
 1750SOL    HW116886   1.377   4.103   1.451  1.2930  0.2044 -0.9122
 1750SOL    HW216887   1.372   4.173   1.317 -2.2776 -0.9496  0.5235
 1751SOL     OW16888   2.392   0.271   5.970  0.3515 -0.1022 -0.0305
 1751SOL    HW116889   2.466   0.278   6.031 -0.1216  1.6463  0.3412
 1751SOL    HW216890   2.437   0.269   5.885 -1.1873 -0.4872 -0.8248
 1752SOL     OW16891   0.904   0.128   6.529  0.1476  0.1426  1.2189
 1752SOL    HW116892   0.825   0.077   6.544 -0.3146  0.3935 -0.3809
 1752SOL    HW216893   0.870   0.197   6.472  0.8020 -1.2936 -0.9198
 1753SOL     OW16894   2.689   2.780  15.571  0.0866 -0.0617  0.3600
 1753SOL    HW116895   2.660   2.805  15.658 -1.1965  1.3960 -0.4719
 1753SOL    HW216896   2.607   2.752  15.530  1.1819 -0.9483 -1.2421
 1754SOL     OW16897   3.318   2.862  12.117 -0.6838  0.5819 -0.4672
 1754SOL    HW116898   3.323   2.954  12.143  0.7124  0.9584 -2.0309
 1754SOL    HW216899   3.410   2.865  12.089  0.2889 -2.4390  2.4347
 1755SOL     OW16900   3.729   2.704   1.202 -0.0872  0.4124  0.1961
 1755SOL    HW116901   3.803   2.760   1.182  0.3917 -1.0490 -2.1626
 1755SOL    HW216902   3.665   2.770   1.229  0.4792  1.7190 -1.7322
 1756SOL     OW16903   3.068   1.511   7.311  0.3932 -0.3009 -0.3710
 1756SOL    HW116904   3.065   1.606   7.298 -2.9362 -0.4089 -0.3993
 1756SOL    HW216905   3.134   1.499   7.379 -0.8722 -0.1720  0.8769
 1757SOL     OW16906   2.719   3.038   5.725 -0.1202 -0.7636 -0.4617
 1757SOL    HW116907   2.625   3.041   5.710 -0.4500 -0.2967  1.7046
 1757SOL    HW216908   2.750   3.094   5.653 -4.4997  2.5253  0.2542
 1758SOL     OW16909   0.784   0.880   7.327 -0.4017 -0.2118 -0.3978
 1758SOL    HW116910   0.837   0.887   7.406 -0.6732 -1.3916 -0.1017
 1758SOL    HW216911   0.696   0.857   7.358 -1.8239  3.0966 -2.0239
 1759SOL     OW16912   2.730   4.729   6.648  0.5561 -0.3518 -0.0325
 1759SOL    HW116913   2.791   0.055   6.627  0.4140 -0.0540  0.5479
 1759SOL    HW216914   2.700   4.738   6.739  1.0966  2.0960 -0.1047
 1760SOL     OW16915   2.352   3.430   7.146 -0.0513  0.3765 -0.2246
 1760SOL    HW116916   2.297   3.352   7.139  1.4213 -0.8495  2.0586
 1760SOL    HW216917   2.437   3.396   7.172  0.0599 -0.2433 -1.4127
 1761SOL     OW16918   3.464   2.737  13.128 -0.5786 -0.0455 -0.4629
 1761SOL    HW116919   3.411   2.682  13.071 -1.0983  0.3235 -0.3371
 1761SOL    HW216920   3.545   2.745  13.077  0.4771 -1.3051  1.0164
 1762SOL     OW16921   4.703   1.638   1.845 -0.6407 -0.2674 -0.3885
 1762SOL    HW116922   4.639   1.695   1.888  0.5797  0.2593  0.7224
 1762SOL    HW216923   0.026   1.626   1.912  0.2805  0.3178 -1.2013
 1763SOL     OW16924   0.558   4.711   3.923 -0.4370 -0.3338 -0.6347
 1763SOL    HW116925   0.535   0.059   3.906 -1.6244 -0.1926  1.6860
 1763SOL    HW216926   0.466   4.687   3.918 -0.7291  0.6448 -0.1057
 1764SOL     OW16927   3.676   4.378   0.306  0.3319 -0.2830  0.6526
 1764SOL    HW116928   3.767   4.408   0.311  0.3203 -0.5609  2.3501
 1764SOL    HW216929   3.680   4.288   0.274 -1.2249 -0.5319  1.1652
 1765SOL     OW16930   0.902   2.130   3.967 -0.6919  0.1999  0.2332
 1765SOL    HW116931   0.917   2.193   4.038 -2.0710 -0.2203  0.8987
 1765SOL    HW216932   0.834   2.069   3.997  1.1457 -2.0293 -0.1819
 1766SOL     OW16933   4.462   2.110  17.578 -0.6416 -0.3276 -0.0475
 1766SOL    HW116934   4.405   2.048  17.531  1.2225 -0.0742 -2.6057
 1766SOL    HW216935   4.398   2.176  17.607 -0.8421 -1.3536  1.8854
 1767SOL     OW16936   3.218   0.770   0.939  0.2103  0.4678 -0.5390
 1767SOL    HW116937   3.157   0.712   0.986  2.4912 -1.2581  0.2912
 1767SOL    HW216938   3.294   0.748   0.992 -0.2193 -1.0950 -0.5475
 1768SOL     OW16939   1.709   4.104   5.867  0.0533 -0.6218  0.1038
 1768SOL    HW116940   1.785   4.099   5.809 -0.2119 -0.7899 -0.2294
 1768SOL    HW216941   1.642   4.072   5.807  1.4573 -0.7509 -1.3665
 1769SOL     OW16942   2.145   3.595   7.518 -0.4537  0.0051 -0.3398
 1769SOL    HW116943   2.213   3.654   7.553 -0.0042  0.1973 -1.5337
 1769SOL    HW216944   2.165   3.585   7.425  0.8995 -1.1748  0.0726
 1770SOL     OW16945   3.362   1.193  15.487 -0.6092 -0.3318 -0.4182
 1770SOL    HW116946   3.281   1.217  15.531 -1.2386 -1.0212 -1.2113
 1770SOL    HW216947   3.361   1.248  15.409 -0.0676 -0.5868 -0.6085
 1771SOL     OW16948   3.827   4.409   7.596 -0.2618  0.0709 -0.4424
 1771SOL    HW116949   3.872   4.325   7.588  0.1483  0.2692 -0.2606
 1771SOL    HW216950   3.743   4.388   7.636 -0.4812  1.7234 -0.0279
 1772SOL     OW16951   3.203   4.634   9.698  0.4252  0.0379  0.1356
 1772SOL    HW116952   3.126   4.605   9.746 -0.3101  2.6854  0.5645
 1772SOL    HW216953   3.183   4.606   9.609 -0.1785 -0.3608  0.3997
 1773SOL     OW16954   2.622   3.379   0.489  0.3784  0.4509 -0.0812
 1773SOL    HW116955   2.632   3.428   0.571 -2.6020  0.3327  0.3664
 1773SOL    HW216956   2.601   3.291   0.518  0.8655  1.8550  4.4959
 1774SOL     OW16957   2.082   0.925   7.028  0.0981  0.2290 -0.5312
 1774SOL    HW116958   2.142   0.876   7.086 -1.2817 -1.2305 -0.3334
 1774SOL    HW216959   2.027   0.853   6.996 -0.9738  0.5583  0.6004
 1775SOL     OW16960   3.956   3.177   3.437  0.0431  0.1445  0.0076
 1775SOL    HW116961   4.008   3.254   3.460  0.3076  0.4344 -1.5601
 1775SOL    HW216962   3.886   3.209   3.380 -1.1885  1.0597  2.0248
 1776SOL     OW16963   2.067   1.830   2.963  0.1490 -0.8172  0.0221
 1776SOL    HW116964   2.160   1.848   2.946 -0.0034  0.9889  1.1258
 1776SOL    HW216965   2.024   1.824   2.878 -0.9236  1.2659  0.4142
 1777SOL     OW16966   3.146   4.161   8.894 -0.5884  0.7758  0.1392
 1777SOL    HW116967   3.216   4.117   8.943 -0.5049 -1.3372 -1.8619
 1777SOL    HW216968   3.158   4.249   8.929  2.3855  0.4098  0.0209
 1778SOL     OW16969   0.981   3.875   8.937  0.4275 -0.2390 -0.3689
 1778SOL    HW116970   1.008   3.832   8.856  0.8250 -0.9971  0.1561
 1778SOL    HW216971   0.952   3.963   8.915 -1.8828 -1.1193 -0.8962
 1779SOL     OW16972   4.040   4.103   9.506  0.2491 -0.0703 -0.2154
 1779SOL    HW116973   3.982   4.031   9.529 -0.5204  0.2197 -1.2862
 1779SOL    HW216974   4.030   4.166   9.578 -2.5232  0.1596 -0.7802
 1780SOL     OW16975   0.032   0.261   0.928  0.4083  0.4118  0.0340
 1780SOL    HW116976   4.742   0.350   0.942 -1.7103 -0.3123 -0.5325
 1780SOL    HW216977   0.067   0.241   1.014  0.0785 -1.1335 -0.2012
 1781SOL     OW16978   0.314   3.042   8.669  0.0272  0.5512  0.4191
 1781SOL    HW116979   0.288   3.107   8.734  4.4133 -0.5785  3.3008
 1781SOL    HW216980   0.397   3.079   8.640  0.0868 -1.0049 -1.3880
 1782SOL     OW16981   1.257   1.417   2.072  0.1459 -0.3732 -0.0843
 1782SOL    HW116982   1.300   1.445   2.153  1.0490  1.4466 -1.1665
 1782SOL    HW216983   1.164   1.432   2.086  0.3152 -0.6872  1.4470
 1783SOL     OW16984   1.527   1.300  16.989  0.8595 -0.2023  0.4013
 1783SOL    HW116985   1.465   1.368  17.018  1.6024  1.3089 -1.5570
 1783SOL    HW216986   1.610   1.329  17.027  1.1734  0.4999 -0.8156
 1784SOL     OW16987   3.614   1.617   2.431 -0.1606  0.6268 -0.1099
 1784SOL    HW116988   3.534   1.570   2.408  0.5930 -1.3607  1.3454
 1784SOL    HW216989   3.596   1.665   2.512 -0.4894  1.4036 -0.6463
 1785SOL     OW16990   1.319   4.355   1.754 -0.4688 -0.5111  0.8409
 1785SOL    HW116991   1.340   4.268   1.790 -2.0867 -0.3639  2.1859
 1785SOL    HW216992   1.385   4.364   1.686 -2.5132 -0.8481 -1.1949
 1786SOL     OW16993   4.691   1.604   2.326 -0.1767 -0.3365  0.4378
 1786SOL    HW116994   4.696   1.621   2.420  1.9319  0.7361  0.1174
 1786SOL    HW216995   4.641   1.522   2.330  0.3785 -0.6874  0.1887
 1787SOL     OW16996   3.614   0.518  12.946 -0.2264 -0.2121  0.5302
 1787SOL    HW116997   3.634   0.551  13.033 -1.2770 -0.0312  0.7070
 1787SOL    HW216998   3.635   0.426  12.962 -0.4381 -0.3942 -0.2350
 1788SOL     OW16999   2.869   3.569   2.098 -0.2281 -0.3134  0.2411
 1788SOL    HW117000   2.824   3.486   2.082 -1.5265  0.7616 -1.6260
 1788SOL    HW217001   2.916   3.591   2.017 -0.4328 -1.1482 -0.1016
 1789SOL     OW17002   4.722   2.459  11.718 -0.2909 -0.1953  0.0890
 1789SOL    HW117003   4.711   2.489  11.628 -2.5298  0.8343  0.7085
 1789SOL    HW217004   0.072   2.472  11.726 -0.0001 -2.4195  0.2218
 1790SOL     OW17005   3.640   0.905   7.290  0.1643  0.3836 -0.2840
 1790SOL    HW117006   3.592   0.868   7.215  1.7698  0.7455 -1.4871
 1790SOL    HW217007   3.728   0.878   7.265 -0.9180 -1.4373 -2.1431
 1791SOL     OW17008   4.110   3.342  12.445  0.2274  0.1101 -0.2117
 1791SOL    HW117009   4.105   3.279  12.374  0.6884 -1.6482  1.3185
 1791SOL    HW217010   4.027   3.390  12.446  0.6532  0.8145  1.6889
 1792SOL     OW17011   0.132   0.451   9.520  0.1157 -0.2035  0.0990
 1792SOL    HW117012   0.052   0.411   9.553 -0.3836 -0.0954 -0.9721
 1792SOL    HW217013   0.135   0.398   9.440  1.1585  1.8107 -1.2092
 1793SOL     OW17014   3.279   0.153   9.426  0.0508  0.2242 -0.3741
 1793SOL    HW117015   3.287   0.201   9.344 -0.6162 -0.3464 -0.7677
 1793SOL    HW217016   3.205   0.094   9.416 -0.9571  1.7774 -1.9695
 1794SOL     OW17017   1.660   2.338  12.936 -0.7934 -0.1970 -0.5618
 1794SOL    HW117018   1.673   2.243  12.931  2.5973  0.1563  0.8840
 1794SOL    HW217019   1.680   2.359  12.845 -1.7346  0.8108 -0.5277
 1795SOL     OW17020   2.241   3.614  11.299 -0.0082 -0.0065  0.6073
 1795SOL    HW117021   2.333   3.634  11.314  0.4269 -2.0389  0.6031
 1795SOL    HW217022   2.218   3.629  11.207 -1.0931 -0.2686  0.8342
 1796SOL     OW17023   2.852   3.722  14.024 -0.2838  0.0431 -0.4168
 1796SOL    HW117024   2.932   3.724  14.076 -1.1223 -2.7532  0.9975
 1796SOL    HW217025   2.784   3.705  14.090 -1.8834  0.7315 -1.8768
 1797SOL     OW17026   1.119   0.014  15.198 -0.1210 -0.4597  0.2989
 1797SOL    HW117027   1.204   0.057  15.189 -0.1411 -0.2801  0.9378
 1797SOL    HW217028   1.075   0.052  15.121 -1.0453  1.9721  2.0159
 1798SOL     OW17029   2.919   3.694   4.418  0.3986  0.3562  0.4399
 1798SOL    HW117030   3.012   3.712   4.428  0.2865  1.6709 -0.8753
 1798SOL    HW217031   2.918   3.598   4.425 -2.1774  0.3592  0.0851
 1799SOL     OW17032   0.388   1.749  16.004  0.0692  1.0740  0.0267
 1799SOL    HW117033   0.477   1.741  16.037 -0.5454 -2.5207  0.8620
 1799SOL    HW217034   0.401   1.699  15.923 -1.3975  2.4511 -1.0684
 1800SOL     OW17035   4.064   4.313   5.172 -0.0454 -0.1729  0.1757
 1800SOL    HW117036   4.011   4.238   5.200  0.8078  0.0605  2.3802
 1800SOL    HW217037   4.002   4.359   5.115  0.4036  0.1227 -0.0740
 1801SOL     OW17038   3.024   0.046   5.598  0.1391 -0.0218 -0.3050
 1801SOL    HW117039   3.036   0.094   5.680 -0.9899  1.0295 -0.7630
 1801SOL    HW217040   2.942   0.001   5.619 -1.1580  1.3737 -2.4420
 1802SOL     OW17041   2.897   3.969   6.380 -0.4806 -0.5283  0.2089
 1802SOL    HW117042   2.861   3.910   6.314  0.4216 -1.3623  0.4473
 1802SOL    HW217043   2.826   3.964   6.444 -0.5282 -0.8252  0.1346
 1803SOL     OW17044   0.320   3.200   7.939  0.6244  0.4799 -0.1939
 1803SOL    HW117045   0.237   3.174   7.979  0.7111  0.2092 -0.1872
 1803SOL    HW217046   0.339   3.130   7.876 -3.0868 -1.1374  0.4938
 1804SOL     OW17047   1.040   1.610  17.155 -0.3321 -0.3625  0.3709
 1804SOL    HW117048   1.029   1.677  17.087  0.4318  0.2749  0.8743
 1804SOL    HW217049   1.082   1.660  17.225  1.0259  0.9779 -1.4047
 1805SOL     OW17050   2.001   4.206   5.303  0.3109  0.0090 -0.3730
 1805SOL    HW117051   2.043   4.122   5.284  0.2715  0.2792 -1.6718
 1805SOL    HW217052   1.940   4.183   5.373  1.6206 -0.7182  0.5246
 1806SOL     OW17053   3.693   1.849   4.594 -0.4255 -0.5974  0.0430
 1806SOL    HW117054   3.768   1.873   4.540  0.4008  1.2326  1.9877
 1806SOL    HW217055   3.662   1.940   4.597  0.4569 -0.2398 -1.2993
 1807SOL     OW17056   1.019   2.026   9.106  0.0745 -0.2134 -0.8291
 1807SOL    HW117057   1.108   2.046   9.135 -0.6564  1.7938  0.0194
 1807SOL    HW217058   0.976   1.988   9.182 -0.4611  0.4629 -0.7938
 1808SOL     OW17059   3.437   1.877   3.301  0.7642 -0.7523 -0.1611
 1808SOL    HW117060   3.419   1.916   3.386 -2.2940 -0.4309 -0.9632
 1808SOL    HW217061   3.465   1.949   3.244 -0.9114 -2.2953 -2.9472
 1809SOL     OW17062   2.723   3.349   2.069 -0.0787  0.3424  0.6875
 1809SOL    HW117063   2.650   3.411   2.071  0.1943  0.6614  0.7594
 1809SOL    HW217064   2.721   3.302   2.152  0.4370  1.0724  1.1071
 1810SOL     OW17065   2.262   1.725   6.241  0.0666  0.1058 -0.1571
 1810SOL    HW117066   2.203   1.650   6.252 -0.5993  0.7007  0.2398
 1810SOL    HW217067   2.275   1.755   6.331 -0.5126  0.5367 -0.2181
 1811SOL     OW17068   1.781   0.335   9.876 -0.2390 -0.3383 -0.4488
 1811SOL    HW117069   1.752   0.349   9.786 -0.2750 -1.6286 -0.6453
 1811SOL    HW217070   1.862   0.385   9.882  0.0664 -1.0170  1.2260
 1812SOL     OW17071   1.347   0.242  14.576 -0.3081 -0.3293 -0.4643
 1812SOL    HW117072   1.426   0.191  14.560 -0.0293  0.4069 -1.4419
 1812SOL    HW217073   1.283   0.193  14.525 -1.0337  1.9402 -1.7456
 1813SOL     OW17074   4.460   1.573  16.605  0.3174 -0.1710 -0.1898
 1813SOL    HW117075   4.480   1.496  16.658  3.0884 -1.2866 -2.8704
 1813SOL    HW217076   4.471   1.549  16.513 -1.1480 -2.0794  0.1377
 1814SOL     OW17077   2.794   0.755   1.014  0.3569  0.2078  0.3415
 1814SOL    HW117078   2.825   0.801   0.935  2.2319  3.3361  2.9032
 1814SOL    HW217079   2.826   0.814   1.082  0.7004  0.2025  0.1860
 1815SOL     OW17080   3.755   2.426   5.998  0.1684 -0.1461  0.0878
 1815SOL    HW117081   3.745   2.343   5.951 -3.0255 -2.1156  4.2159
 1815SOL    HW217082   3.815   2.398   6.067  0.4005 -1.3239 -0.5829
 1816SOL     OW17083   3.648   0.761   2.411 -0.2752  0.3117 -0.5384
 1816SOL    HW117084   3.601   0.680   2.428  1.0138 -0.2787  0.2248
 1816SOL    HW217085   3.608   0.781   2.326  1.6160 -1.0820 -1.7757
 1817SOL     OW17086   0.911   2.765   8.393 -0.1127  0.5922  0.5092
 1817SOL    HW117087   0.908   2.785   8.486 -0.0781 -0.2190  0.6807
 1817SOL    HW217088   0.936   2.673   8.398 -1.7669  0.0830 -0.5498
 1818SOL     OW17089   3.852   0.187   4.705 -0.0114 -0.4820 -0.4726
 1818SOL    HW117090   3.947   0.188   4.710  0.0122  0.1804 -1.0958
 1818SOL    HW217091   3.835   0.257   4.767  0.4479 -0.8421  0.0608
 1819SOL     OW17092   0.736   3.205   7.656 -0.0718  0.1477 -0.4965
 1819SOL    HW117093   0.769   3.159   7.579  1.6696 -0.0759  0.3859
 1819SOL    HW217094   0.654   3.159   7.675 -0.1731  1.9415  3.2661
 1820SOL     OW17095   1.489   1.685   0.468  0.2273  0.1934 -0.2370
 1820SOL    HW117096   1.457   1.596   0.482 -0.4798  0.3444 -0.8887
 1820SOL    HW217097   1.503   1.720   0.556  2.8662 -0.7997 -0.2667
 1821SOL     OW17098   1.222   1.945   5.201  0.3027 -0.0808  0.0212
 1821SOL    HW117099   1.174   1.875   5.246 -1.4349  0.2061 -1.4023
 1821SOL    HW217100   1.195   2.015   5.261 -0.8303  1.0548 -1.7988
 1822SOL     OW17101   4.240   1.267   2.708 -0.1091 -0.0170 -0.1353
 1822SOL    HW117102   4.179   1.258   2.635  2.1108 -3.2418 -1.5969
 1822SOL    HW217103   4.204   1.341   2.757 -0.8674  1.0278 -2.2885
 1823SOL     OW17104   2.405   1.236   8.521  0.2195  0.1618 -0.4762
 1823SOL    HW117105   2.446   1.236   8.434  2.3479  1.8672  0.5070
 1823SOL    HW217106   2.455   1.310   8.556  0.4765 -0.1370 -0.2149
 1824SOL     OW17107   4.018   0.621   6.475  0.0145  0.0850 -0.6426
 1824SOL    HW117108   4.094   0.677   6.463 -0.2341  0.7398  0.8441
 1824SOL    HW217109   3.955   0.666   6.418  0.3123 -0.1704 -1.1831
 1825SOL     OW17110   4.321   4.077  11.988  0.1724  0.2714  0.6799
 1825SOL    HW117111   4.295   3.987  11.972 -0.5706  0.6340 -0.1869
 1825SOL    HW217112   4.253   4.112  12.045 -1.4444 -2.6647  0.5327
 1826SOL     OW17113   0.666   2.498   3.469  0.2484  0.2809  0.2712
 1826SOL    HW117114   0.630   2.579   3.506  0.6989  1.1505 -1.1877
 1826SOL    HW217115   0.594   2.436   3.481  0.6425 -0.3944 -0.9108
 1827SOL     OW17116   3.860   4.526   8.862 -0.0539 -0.2879  0.0897
 1827SOL    HW117117   3.878   4.432   8.871 -2.2532 -0.6438  0.6556
 1827SOL    HW217118   3.817   4.526   8.777 -2.5435 -1.4111  1.3460
 1828SOL     OW17119   1.715   1.155   4.029 -0.2128 -0.0843 -0.2624
 1828SOL    HW117120   1.802   1.143   4.066  0.1238  1.3673 -0.5967
 1828SOL    HW217121   1.715   1.243   3.991  1.7052  0.8067  1.7988
 1829SOL     OW17122   4.387   2.679   8.540 -0.2648 -0.1675 -0.1429
 1829SOL    HW117123   4.468   2.716   8.575 -0.9401 -0.0520  1.2647
 1829SOL    HW217124   4.326   2.739   8.582  1.3377  1.9811 -0.8581
 1830SOL     OW17125   1.665   4.723   8.621  0.0761  0.0822 -0.1523
 1830SOL    HW117126   1.588   4.669   8.605  1.0087 -0.0858 -4.0464
 1830SOL    HW217127   1.637   0.064   8.588 -0.6890  0.3979  1.3134
 1831SOL     OW17128   3.746   4.204   2.719 -0.4956  0.6990  0.7499
 1831SOL    HW117129   3.665   4.195   2.769 -1.3771 -0.4378 -0.8707
 1831SOL    HW217130   3.716   4.256   2.644  1.6669  2.6499  1.2431
 1832SOL     OW17131   2.954   2.652   5.817 -0.1414  0.3211 -0.0027
 1832SOL    HW117132   2.905   2.665   5.736  0.0219 -0.1219 -0.1699
 1832SOL    HW217133   3.004   2.734   5.825  0.0853  0.2564 -0.7853
 1833SOL     OW17134   2.461   4.671  12.483 -0.0823 -0.0466  0.3597
 1833SOL    HW117135   2.485   4.669  12.575 -0.6001  0.9806  0.5174
 1833SOL    HW217136   2.544   4.641  12.446  0.7370 -2.3209  4.1092
 1834SOL     OW17137   0.305   1.118   3.871  0.1624 -0.2001  0.1151
 1834SOL    HW117138   0.243   1.159   3.931  1.0384  0.2293  0.7286
 1834SOL    HW217139   0.272   1.165   3.794 -0.7919  1.1139  1.3248
 1835SOL     OW17140   1.621   4.554  10.606  0.2998 -0.3984  0.2422
 1835SOL    HW117141   1.544   4.507  10.638 -0.3242 -0.6998 -1.7161
 1835SOL    HW217142   1.659   4.493  10.542  0.5570 -0.3482  0.3462
 1836SOL     OW17143   3.279   1.243   6.327 -0.2515  0.1946 -0.0380
 1836SOL    HW117144   3.189   1.274   6.318 -0.7930 -1.5007 -0.5195
 1836SOL    HW217145   3.317   1.293   6.398 -0.6676 -0.3088  0.5441
 1837SOL     OW17146   3.346   1.039   1.583 -0.6745  0.1003  0.0137
 1837SOL    HW117147   3.264   1.028   1.630  1.0851 -2.6123  2.4842
 1837SOL    HW217148   3.338   1.120   1.533  1.4450  0.2201 -0.1235
 1838SOL     OW17149   3.603   2.826   8.222 -0.0838 -0.0093 -0.1002
 1838SOL    HW117150   3.651   2.805   8.141  0.5097  1.8948 -0.2471
 1838SOL    HW217151   3.649   2.908   8.242 -1.9867  0.5829  1.7890
 1839SOL     OW17152   4.707   2.176  14.938  0.2969  0.1057  0.3223
 1839SOL    HW117153   0.055   2.185  14.909  0.5484 -1.5360  0.6491
 1839SOL    HW217154   4.690   2.267  14.962 -0.1402 -0.4484  2.1057
 1840SOL     OW17155   0.128   3.169   0.406 -0.0867  0.4644  0.0168
 1840SOL    HW117156   0.125   3.127   0.492 -0.5884  0.1868 -0.1418
 1840SOL    HW217157   0.052   3.123   0.373 -0.5625 -0.9253  3.0458
 1841SOL     OW17158   3.424   0.781   9.073  0.4032 -0.4321 -0.1812
 1841SOL    HW117159   3.408   0.875   9.078  0.6649 -0.4567  1.0125
 1841SOL    HW217160   3.482   0.766   9.148  0.7612  0.5759 -0.2655
 1842SOL     OW17161   3.282   3.912   5.767  0.4606 -0.2258 -0.1694
 1842SOL    HW117162   3.308   3.959   5.688 -0.9414  1.0331  0.1169
 1842SOL    HW217163   3.187   3.919   5.767  0.4357 -0.6600 -2.6399
 1843SOL     OW17164   0.399   0.373   5.798 -0.3994  0.2223 -0.3035
 1843SOL    HW117165   0.344   0.421   5.737  2.0437  2.2127 -0.9176
 1843SOL    HW217166   0.416   0.290   5.753  1.6990 -1.7303  4.0558
 1844SOL     OW17167   2.492   1.085   9.626 -0.5467 -0.2040  0.0788
 1844SOL    HW117168   2.509   1.001   9.668  0.4951 -0.4892 -0.9213
 1844SOL    HW217169   2.533   1.147   9.686  0.8440 -1.5270  0.4828
 1845SOL     OW17170   2.315   2.409   3.222 -0.5018  0.1269 -0.5325
 1845SOL    HW117171   2.237   2.414   3.277  0.0086 -1.5879  0.3506
 1845SOL    HW217172   2.330   2.501   3.201 -1.6850  0.4266 -0.0128
 1846SOL     OW17173   3.085   1.956   3.559  0.1335 -0.3139 -0.9329
 1846SOL    HW117174   3.134   1.877   3.535  2.0134  1.2787 -2.4174
 1846SOL    HW217175   3.132   1.980   3.638 -0.1974  0.7402 -1.0592
 1847SOL     OW17176   1.405   1.439   4.593 -0.2847 -0.4483 -0.0865
 1847SOL    HW117177   1.372   1.350   4.608 -2.0006  0.2041 -0.1188
 1847SOL    HW217178   1.354   1.462   4.516 -1.1768  2.7061  1.4605
 1848SOL     OW17179   1.327   4.373   5.670 -0.2882  0.2485 -0.3587
 1848SOL    HW117180   1.283   4.457   5.688 -0.1498  0.9015 -3.1032
 1848SOL    HW217181   1.272   4.348   5.596 -1.9613 -0.9453  1.3016
 1849SOL     OW17182   0.898   3.073  12.844 -0.3871  0.3818  0.0067
 1849SOL    HW117183   0.868   3.022  12.769 -0.0161 -0.0187  0.1337
 1849SOL    HW217184   0.830   3.133  12.876  0.3990  1.6837 -0.7502
 1850SOL     OW17185   3.331   3.799   4.090  0.2772 -0.5964 -0.2905
 1850SOL    HW117186   3.340   3.709   4.119  0.7308 -0.8442 -1.1854
 1850SOL    HW217187   3.421   3.826   4.071  0.2562 -0.0120  0.4301
 1851SOL     OW17188   1.881   2.981   7.625 -0.1343  0.0199 -0.1605
 1851SOL    HW117189   1.899   3.004   7.716 -0.0374 -1.3854  0.1870
 1851SOL    HW217190   1.809   3.039   7.600  1.2699  1.8043 -0.0021
 1852SOL     OW17191   3.658   0.665   3.023 -0.7176 -0.5190  0.3567
 1852SOL    HW117192   3.673   0.662   3.118 -1.4436  0.5958  0.5030
 1852SOL    HW217193   3.605   0.589   3.001 -0.6865 -0.2871 -0.5277
 1853SOL     OW17194   3.984   0.287   7.046  0.2968 -0.2516 -0.0980
 1853SOL    HW117195   3.928   0.359   7.074  1.7553  1.2962 -1.1496
 1853SOL    HW217196   3.932   0.209   7.066 -0.3428  0.1989 -0.0215
 1854SOL     OW17197   4.638   2.218   2.284  0.8574 -0.2765  0.0320
 1854SOL    HW117198   4.585   2.169   2.221  1.4129  0.6002 -1.1175
 1854SOL    HW217199   4.638   2.157   2.358  0.4468  0.4253  0.6055
 1855SOL     OW17200   4.092   0.984   4.102  0.0484 -0.0146  0.5382
 1855SOL    HW117201   4.055   1.024   4.181  0.2735 -0.2631  0.7731
 1855SOL    HW217202   4.157   0.935   4.153  1.0409  0.6185 -0.1133
 1856SOL     OW17203   1.259   3.523   7.364  0.0939  0.4479 -0.2231
 1856SOL    HW117204   1.308   3.521   7.446  0.4689  1.1829 -0.4304
 1856SOL    HW217205   1.166   3.507   7.381  0.3135 -1.7205 -1.0121
 1857SOL     OW17206   0.652   2.576   5.413  0.3749  0.4646  0.3311
 1857SOL    HW117207   0.740   2.583   5.450  0.8649  1.1948 -0.9678
 1857SOL    HW217208   0.606   2.653   5.447 -1.0112 -0.1395 -0.1854
 1858SOL     OW17209   4.291   3.274   6.558  0.2405  0.0441 -0.7470
 1858SOL    HW117210   4.313   3.361   6.525 -2.5506  0.9459 -0.2010
 1858SOL    HW217211   4.330   3.284   6.644  0.9354  1.9556 -1.2968
 1859SOL     OW17212   3.537   0.881  11.670 -0.6114 -0.3357  0.1516
 1859SOL    HW117213   3.625   0.880  11.708 -1.5439 -0.1054  2.3233
 1859SOL    HW217214   3.547   0.847  11.581  1.3402  1.8941 -0.5068
 1860SOL     OW17215   2.293   2.309  11.892  0.0300  0.2201  0.1599
 1860SOL    HW117216   2.383   2.340  11.894  0.3095 -0.6930  1.8611
 1860SOL    HW217217   2.307   2.215  11.880  1.8496  0.7310 -1.8652
 1861SOL     OW17218   0.489   3.102  11.782 -0.3452 -0.0163 -0.1983
 1861SOL    HW117219   0.397   3.106  11.754 -0.7634  2.6327  1.5794
 1861SOL    HW217220   0.509   3.031  11.721 -1.9799  0.6595 -1.5386
 1862SOL     OW17221   2.531   3.889   5.567  0.3434  0.1063  0.4658
 1862SOL    HW117222   2.608   3.942   5.547  1.5290 -1.3417  1.2402
 1862SOL    HW217223   2.482   3.919   5.490 -1.9822  0.1512  1.9671
 1863SOL     OW17224   4.467   4.087   6.919 -0.1279  0.5150 -0.0723
 1863SOL    HW117225   4.414   4.153   6.874 -0.3509  0.6635  0.4073
 1863SOL    HW217226   4.406   4.017   6.898 -1.7881  2.3972 -1.5260
 1864SOL     OW17227   4.176   2.376   4.928 -0.3681  0.2761  0.4317
 1864SOL    HW117228   4.096   2.404   4.883 -0.0692  1.7837  0.8495
 1864SOL    HW217229   4.233   2.345   4.858 -0.1741 -0.4142  0.8934
 1865SOL     OW17230   0.707   1.304  13.728 -0.5948  0.5881 -0.0597
 1865SOL    HW117231   0.736   1.256  13.650  1.3619  2.3781 -0.4251
 1865SOL    HW217232   0.710   1.393  13.695  3.0183  0.8346  0.9580
 1866SOL     OW17233   2.332   2.301   9.358 -0.3013 -0.3365  0.4023
 1866SOL    HW117234   2.246   2.345   9.356  0.7487  1.6409 -1.2787
 1866SOL    HW217235   2.373   2.334   9.278  1.2417  0.9659  1.7432
 1867SOL     OW17236   3.034   4.314   3.411  0.1276 -0.1134  0.3584
 1867SOL    HW117237   3.089   4.323   3.334  1.4903  1.1917  1.4959
 1867SOL    HW217238   3.097   4.265   3.463  1.3538  1.1348  0.0394
 1868SOL     OW17239   2.328   0.951   2.429 -0.1962  0.0748  0.2008
 1868SOL    HW117240   2.351   1.023   2.488  0.3119 -1.2654  1.6573
 1868SOL    HW217241   2.415   0.913   2.439  0.5017  1.2295 -1.4340
 1869SOL     OW17242   1.818   1.399   6.110  0.6894  0.0808  0.3505
 1869SOL    HW117243   1.907   1.363   6.100  1.3444  0.9863  2.7948
 1869SOL    HW217244   1.761   1.336   6.067 -1.0794  1.2793  0.9518
 1870SOL     OW17245   1.064   0.389  15.250  0.0681 -0.1332 -0.3213
 1870SOL    HW117246   1.046   0.304  15.211  1.0918  0.5523 -2.2739
 1870SOL    HW217247   1.128   0.427  15.191  0.0544 -0.8695 -0.8124
 1871SOL     OW17248   2.758   0.942   4.993  0.6736 -0.4799 -0.1909
 1871SOL    HW117249   2.703   0.921   4.918 -0.1949 -1.3581  0.6875
 1871SOL    HW217250   2.826   0.995   4.951  0.6389 -1.3554 -1.3265
 1872SOL     OW17251   0.030   0.905  10.557 -0.0437 -0.2505 -0.2130
 1872SOL    HW117252   0.103   0.964  10.575  1.9415 -2.9716  0.6003
 1872SOL    HW217253   0.019   0.857  10.639 -0.9449 -2.5214 -1.6686
 1873SOL     OW17254   3.933   4.670   3.695 -0.1114 -0.2941 -0.7198
 1873SOL    HW117255   3.878   0.004   3.690  1.6358  0.8918 -1.7597
 1873SOL    HW217256   3.920   4.635   3.783 -2.1309 -0.5801 -1.1441
 1874SOL     OW17257   2.833   4.663   6.368  0.3212  0.7727 -0.0206
 1874SOL    HW117258   2.894   4.730   6.337  0.6913  0.1132 -0.6973
 1874SOL    HW217259   2.808   4.710   6.448 -3.1339 -0.9020 -0.0790
 1875SOL     OW17260   2.008   4.007   6.505 -0.1958 -0.5042  0.2662
 1875SOL    HW117261   2.100   4.002   6.478 -0.8880 -0.3776 -2.1067
 1875SOL    HW217262   1.997   4.102   6.505  2.9610 -0.1350 -0.3901
 1876SOL     OW17263   1.012   0.354  10.516 -0.0742 -0.0084 -0.1053
 1876SOL    HW117264   1.027   0.333  10.608 -1.7564 -4.2058 -0.7843
 1876SOL    HW217265   0.952   0.293  10.473  0.3329 -0.0937 -0.5453
 1877SOL     OW17266   1.298   3.718   9.358  0.2151 -0.0548 -0.0755
 1877SOL    HW117267   1.329   3.724   9.268 -2.0023 -1.8214 -0.9617
 1877SOL    HW217268   1.209   3.684   9.344  0.0322  0.7999 -0.9940
 1878SOL     OW17269   1.691   4.524  12.093 -0.0044 -0.5931 -0.2677
 1878SOL    HW117270   1.674   4.503  12.001  0.0556  2.2723 -0.9439
 1878SOL    HW217271   1.728   4.612  12.082 -0.6586 -0.1768  0.8566
 1879SOL     OW17272   3.587   0.317   8.192  0.2243 -0.5982 -0.1177
 1879SOL    HW117273   3.550   0.239   8.233  0.7136 -0.1516  1.1620
 1879SOL    HW217274   3.557   0.305   8.101  1.4408 -0.4749 -0.5338
 1880SOL     OW17275   1.736   3.350   8.642  0.3555 -0.1290 -0.2981
 1880SOL    HW117276   1.671   3.421   8.638 -0.1468 -0.6806 -1.9202
 1880SOL    HW217277   1.689   3.279   8.598 -0.1254 -0.4135  0.6932
 1881SOL     OW17278   4.350   3.095   3.374  0.1364 -0.4592  0.3602
 1881SOL    HW117279   4.419   3.124   3.314 -0.0702 -2.0353 -0.6454
 1881SOL    HW217280   4.357   3.173   3.429 -0.5707 -0.4638  0.4556
 1882SOL     OW17281   0.647   1.231  10.691 -0.4517 -0.0895  0.7284
 1882SOL    HW117282   0.607   1.318  10.693 -0.9590 -0.2626 -1.8251
 1882SOL    HW217283   0.714   1.244  10.757 -0.4980  0.8269  0.5993
 1883SOL     OW17284   3.544   4.266   6.463  0.0074 -0.1045 -0.4267
 1883SOL    HW117285   3.562   4.197   6.399  0.4184  0.0171 -0.4418
 1883SOL    HW217286   3.615   4.248   6.524 -0.4705 -0.1427  0.1209
 1884SOL     OW17287   1.228   2.321   9.143  0.3798 -0.3733 -0.1601
 1884SOL    HW117288   1.281   2.278   9.076  0.5946 -1.5787  0.7855
 1884SOL    HW217289   1.292   2.375   9.189  0.0178  0.6033 -0.8176
 1885SOL     OW17290   1.242   1.975   5.911 -0.7413 -0.2414  0.0233
 1885SOL    HW117291   1.228   2.066   5.886 -1.2175 -0.1651  0.5733
 1885SOL    HW217292   1.315   1.963   5.851  0.4346  1.0737  1.2040
 1886SOL     OW17293   0.388   3.718   2.840  0.0061 -0.1883 -0.3767
 1886SOL    HW117294   0.297   3.692   2.853 -0.1659  0.6178  0.0684
 1886SOL    HW217295   0.424   3.651   2.899  0.8615 -0.4207 -1.1809
 1887SOL     OW17296   2.346   3.791   7.484 -0.2201 -0.3204 -0.8660
 1887SOL    HW117297   2.317   3.805   7.395 -0.4844  1.5470 -0.4890
 1887SOL    HW217298   2.430   3.748   7.469  0.0942 -0.0548  0.0769
 1888SOL     OW17299   0.535   4.740   2.285 -0.5785 -0.8113  0.4720
 1888SOL    HW117300   0.608   4.679   2.297 -1.2125 -1.6034  0.3218
 1888SOL    HW217301   0.563   0.069   2.340 -1.7595  0.7900 -1.0328
 1889SOL     OW17302   0.920   1.041   6.096  0.4601 -0.5470 -0.0491
 1889SOL    HW117303   0.843   0.985   6.089 -0.2702  0.3417  0.8746
 1889SOL    HW217304   0.970   1.005   6.169 -0.4295 -1.2603  0.2196
 1890SOL     OW17305   3.059   1.140   1.119 -0.0239  0.1131  0.1129
 1890SOL    HW117306   3.100   1.107   1.039  0.9110  0.5041  0.4206
 1890SOL    HW217307   3.102   1.078   1.179 -0.3310 -0.2844 -0.0801
 1891SOL     OW17308   3.565   3.504   9.976 -0.4907  0.2717  0.2962
 1891SOL    HW117309   3.555   3.525   9.883 -0.3538  1.0489  0.4545
 1891SOL    HW217310   3.543   3.411   9.983 -0.8178  0.2010 -1.5492
 1892SOL     OW17311   3.502   3.921   2.610  0.5509 -0.0463  0.6632
 1892SOL    HW117312   3.549   3.904   2.691  2.2979 -1.1805 -0.5722
 1892SOL    HW217313   3.428   3.979   2.628  2.5504  2.1083  2.0237
 1893SOL     OW17314   2.470   0.537   2.077  0.0428  0.0978 -0.3633
 1893SOL    HW117315   2.503   0.533   1.987 -1.2523  0.6162 -0.8608
 1893SOL    HW217316   2.380   0.561   2.060 -0.2560 -0.3527  0.5823
 1894SOL     OW17317   2.399   3.885   4.624 -0.0967  0.1439 -0.2011
 1894SOL    HW117318   2.376   3.881   4.531  2.5574 -3.0278 -0.7520
 1894SOL    HW217319   2.424   3.977   4.636  1.5725 -0.4741  1.1034
 1895SOL     OW17320   2.734   0.698   7.954  0.1766 -0.0604  0.3108
 1895SOL    HW117321   2.705   0.756   8.024 -0.0293 -0.9585  0.9540
 1895SOL    HW217322   2.671   0.626   7.955  0.2684 -0.1437  0.0053
 1896SOL     OW17323   0.225   0.390   4.049 -0.2033 -0.1795  0.0590
 1896SOL    HW117324   0.278   0.313   4.027  0.8308  0.7910 -0.8364
 1896SOL    HW217325   0.150   0.391   3.990  0.3766  0.2742 -0.6744
 1897SOL     OW17326   4.509   1.333   9.586 -0.5313  0.3731  0.5787
 1897SOL    HW117327   4.537   1.382   9.508  0.2769 -1.1703 -0.1032
 1897SOL    HW217328   4.464   1.257   9.550 -0.2464  0.9326 -0.9888
 1898SOL     OW17329   2.068   2.131   9.157 -0.1427  0.3554 -0.4257
 1898SOL    HW117330   1.992   2.134   9.099  0.5882  0.2956 -1.3802
 1898SOL    HW217331   2.090   2.038   9.154 -0.5672  0.2728 -1.0213
 1899SOL     OW17332   1.955   4.464   1.794 -0.7004  0.3161  0.2466
 1899SOL    HW117333   1.887   4.476   1.861  0.6681  1.7521  1.3735
 1899SOL    HW217334   2.011   4.541   1.798  1.8491 -1.6884  2.9777
 1900SOL     OW17335   1.074   0.858   8.201  0.0895 -0.1378  0.6112
 1900SOL    HW117336   1.016   0.802   8.150 -0.2116  0.6068  0.1366
 1900SOL    HW217337   1.124   0.897   8.129 -0.9371 -0.5372 -0.3162
 1901SOL     OW17338   0.368   4.234  16.524  0.2575 -0.3003  0.2179
 1901SOL    HW117339   0.376   4.324  16.493 -0.8633 -0.4321 -0.4603
 1901SOL    HW217340   0.290   4.247  16.578 -0.4660 -0.3858 -0.8146
 1902SOL     OW17341   1.137   3.911   9.161 -0.1411 -0.1785  0.6005
 1902SOL    HW117342   1.087   3.894   9.081 -0.4091 -0.7029  0.8851
 1902SOL    HW217343   1.172   3.823   9.173  0.8253  0.2464  0.8871
 1903SOL     OW17344   4.717   0.442  17.195 -0.2300 -1.0557  0.5614
 1903SOL    HW117345   0.024   0.523  17.195 -0.6072 -0.8247 -0.8178
 1903SOL    HW217346   4.661   0.453  17.118 -2.3815 -1.9840  1.9810
 1904SOL     OW17347   4.721   1.650  17.302  0.5205  0.1204 -0.3077
 1904SOL    HW117348   4.632   1.614  17.305  0.3568  0.6000  0.5373
 1904SOL    HW217349   0.025   1.607  17.372  0.6304  0.7785  0.0236
 1905SOL     OW17350   0.810   0.309   2.553  0.0563 -0.1174  0.1202
 1905SOL    HW117351   0.725   0.351   2.544  0.6779  0.8617 -1.0227
 1905SOL    HW217352   0.870   0.363   2.605  0.0476 -0.2663  0.2882
 1906SOL     OW17353   1.929   3.673   0.232  0.5134 -0.2324  0.0301
 1906SOL    HW117354   2.001   3.632   0.183 -0.2907  0.6962 -1.9449
 1906SOL    HW217355   1.877   3.701   0.156  0.1066 -1.6083 -0.1921
 1907SOL     OW17356   0.973   1.747   1.955 -0.4134 -0.0025 -0.7442
 1907SOL    HW117357   1.018   1.686   2.015 -0.8212 -0.3062 -0.7515
 1907SOL    HW217358   1.048   1.799   1.927  0.0537 -1.0467 -1.4593
 1908SOL     OW17359   0.262   0.476   5.593  0.4108 -0.1331  0.1305
 1908SOL    HW117360   0.352   0.498   5.570 -0.3462  1.7489 -1.0521
 1908SOL    HW217361   0.219   0.503   5.512  0.5415  0.4735  0.2615
 1909SOL     OW17362   0.687   0.067   7.602 -0.0159  0.4277 -0.5542
 1909SOL    HW117363   0.662   0.128   7.533  2.0701  1.6582 -0.2041
 1909SOL    HW217364   0.719   0.131   7.664  1.0050 -0.7802  0.1695
 1910SOL     OW17365   1.514   3.665   1.987  0.6868 -1.0648 -0.2366
 1910SOL    HW117366   1.567   3.599   1.943  0.7051 -2.1680  1.4449
 1910SOL    HW217367   1.466   3.705   1.914 -0.2817 -1.0344  0.4213
 1911SOL     OW17368   2.972   0.657   4.513 -0.1699 -0.0158 -0.1175
 1911SOL    HW117369   2.889   0.639   4.556  1.0777 -2.1953  1.4056
 1911SOL    HW217370   2.947   0.652   4.421 -2.0361 -0.6084  0.4285
 1912SOL     OW17371   3.210   1.654   1.597 -0.0756 -0.2270  0.5684
 1912SOL    HW117372   3.256   1.726   1.555 -1.2323 -1.8072 -3.4484
 1912SOL    HW217373   3.253   1.641   1.681 -0.0723 -1.3406  0.3964
 1913SOL     OW17374   0.035   2.816  16.115 -0.1280  0.1290 -0.0758
 1913SOL    HW117375   0.037   2.868  16.195  1.7678 -2.3108  1.4609
 1913SOL    HW217376   4.727   2.749  16.159  1.0991 -3.0374 -3.3947
 1914SOL     OW17377   0.589   4.611  15.360  0.1501 -0.0565 -0.2347
 1914SOL    HW117378   0.556   4.619  15.270 -0.5798  1.2325  0.1509
 1914SOL    HW217379   0.503   4.612  15.400 -0.3978 -0.6050 -1.3781
 1915SOL     OW17380   0.405   1.417   4.524 -0.9855 -0.5630 -0.6156
 1915SOL    HW117381   0.361   1.476   4.585  0.1860  1.1851 -1.4749
 1915SOL    HW217382   0.479   1.385   4.576 -1.1579  0.8576  0.4921
 1916SOL     OW17383   4.090   0.797   6.033  0.4063 -0.2504  0.0500
 1916SOL    HW117384   4.076   0.708   6.063 -0.0737  0.5279  2.1514
 1916SOL    HW217385   4.007   0.834   6.063  0.3400  0.5908 -1.1389
 1917SOL     OW17386   2.046   3.166  14.274  0.1529 -0.0083 -0.4914
 1917SOL    HW117387   1.991   3.243  14.287 -0.5834 -0.5665 -0.3338
 1917SOL    HW217388   2.066   3.152  14.367 -0.3048 -3.6875 -0.9803
 1918SOL     OW17389   2.281   4.005   6.457  0.2224 -0.2176 -0.3930
 1918SOL    HW117390   2.317   3.921   6.427 -0.4742 -1.2775  1.7169
 1918SOL    HW217391   2.322   4.065   6.394 -0.8346  0.3841 -0.5012
 1919SOL     OW17392   2.205   3.745   9.139  0.1596 -0.5812 -0.7517
 1919SOL    HW117393   2.284   3.770   9.092  1.5580 -2.0303  0.8439
 1919SOL    HW217394   2.233   3.675   9.198  0.9716  0.1234 -0.3048
 1920SOL     OW17395   3.226   2.429   5.261  0.3291 -0.0945  0.1762
 1920SOL    HW117396   3.308   2.389   5.290 -0.3780 -1.1147  0.7187
 1920SOL    HW217397   3.231   2.507   5.317  1.9938 -0.8175  1.0335
 1921SOL     OW17398   3.492   0.871  10.876  0.1994  0.2337  0.5078
 1921SOL    HW117399   3.545   0.950  10.872  2.7855 -1.6751 -2.3818
 1921SOL    HW217400   3.515   0.837  10.790  1.6340  4.3516 -0.7403
 1922SOL     OW17401   1.086   3.617   9.173 -0.3274 -0.0178  0.3485
 1922SOL    HW117402   0.998   3.632   9.138  0.2390 -0.2460 -1.1892
 1922SOL    HW217403   1.105   3.532   9.134 -1.5916  1.1416 -2.8113
 1923SOL     OW17404   1.169   4.216   2.062  0.1252 -0.1444 -0.0612
 1923SOL    HW117405   1.096   4.190   2.006  0.9567 -0.6788 -0.9088
 1923SOL    HW217406   1.233   4.254   2.002  2.0355 -0.2182  1.9440
 1924SOL     OW17407   4.469   1.866   8.188 -0.1532  0.5437  0.0091
 1924SOL    HW117408   4.496   1.785   8.230 -0.2818 -1.1763 -3.2487
 1924SOL    HW217409   4.546   1.891   8.138 -0.3237  0.6855 -0.1851
 1925SOL     OW17410   3.562   2.060   6.077 -0.5335 -0.1721 -0.3348
 1925SOL    HW117411   3.482   2.024   6.038 -1.2383  0.3008  0.6663
 1925SOL    HW217412   3.533   2.139   6.124  1.9655 -0.1852  1.2244
 1926SOL     OW17413   1.886   2.899   3.467  0.1844 -0.6386  0.3734
 1926SOL    HW117414   1.854   2.972   3.520  1.6355  1.0098 -1.0041
 1926SOL    HW217415   1.861   2.822   3.518  0.2337 -0.4469  0.6823
 1927SOL     OW17416   0.240   3.544   4.567  0.0099  0.5262 -0.0366
 1927SOL    HW117417   0.290   3.500   4.637  0.5464 -0.5290 -1.0791
 1927SOL    HW217418   0.308   3.570   4.504 -0.4935  0.2186 -0.7009
 1928SOL     OW17419   3.764   0.726   5.975 -0.5571  0.1070  0.3440
 1928SOL    HW117420   3.812   0.768   5.904  1.0813  1.1869  2.0981
 1928SOL    HW217421   3.696   0.685   5.922 -0.8411  1.1844 -0.1230
 1929SOL     OW17422   2.562   0.338   9.097 -0.1430 -0.7694 -0.1239
 1929SOL    HW117423   2.510   0.331   9.177 -0.8449 -1.8938 -0.6795
 1929SOL    HW217424   2.643   0.379   9.125 -0.7370  0.1469  0.2644
 1930SOL     OW17425   3.671   0.185   3.155  0.1188 -0.0781 -0.0236
 1930SOL    HW117426   3.607   0.256   3.161  0.0432 -0.2194  0.9302
 1930SOL    HW217427   3.639   0.108   3.110  3.3907 -1.3360 -0.1854
 1931SOL     OW17428   4.266   2.988   2.599 -0.2789 -0.5742  0.0068
 1931SOL    HW117429   4.202   3.027   2.540  0.3142  0.8915  0.3490
 1931SOL    HW217430   4.249   2.894   2.586 -0.8086 -0.4140 -0.4781
 1932SOL     OW17431   3.852   2.155   7.618 -0.2357  0.6817 -0.4420
 1932SOL    HW117432   3.910   2.214   7.667 -1.8624  1.6512  0.3283
 1932SOL    HW217433   3.851   2.182   7.526  0.4988 -1.8255 -1.1959
 1933SOL     OW17434   2.314   2.892   2.250 -0.2132 -0.3480 -0.1604
 1933SOL    HW117435   2.298   2.870   2.342 -1.0572  3.0904  0.5210
 1933SOL    HW217436   2.360   2.975   2.264 -0.5600 -0.5381  2.1107
 1934SOL     OW17437   4.294   2.069  12.104  0.4170 -0.0639 -0.6777
 1934SOL    HW117438   4.289   1.977  12.131 -0.6378 -0.0261 -0.7314
 1934SOL    HW217439   4.326   2.109  12.185 -0.4099  1.2939 -1.0206
 1935SOL     OW17440   3.867   1.584  10.821  0.1924  0.8054 -0.0371
 1935SOL    HW117441   3.832   1.653  10.764  0.3598  1.6145  0.8434
 1935SOL    HW217442   3.816   1.593  10.901 -0.4035 -1.4938 -0.1691
 1936SOL     OW17443   3.576   3.871  12.682 -0.2964  0.0511  0.1144
 1936SOL    HW117444   3.528   3.851  12.762  0.0507  1.0830  0.5872
 1936SOL    HW217445   3.604   3.962  12.690 -0.9045 -0.0156  2.8441
 1937SOL     OW17446   3.226   2.769   2.921 -0.6383 -0.0907  0.1546
 1937SOL    HW117447   3.270   2.698   2.875  0.0380  1.0539 -0.9359
 1937SOL    HW217448   3.299   2.801   2.973 -0.9687  0.0065  0.5611
 1938SOL     OW17449   4.367   2.713   6.646  0.1296 -0.1955 -0.4809
 1938SOL    HW117450   4.291   2.666   6.612  0.3496  0.2437 -1.5782
 1938SOL    HW217451   4.376   2.664   6.728 -0.0925  0.5884  0.0150
 1939SOL     OW17452   0.881   3.097   2.883  0.4921 -0.1476  0.5605
 1939SOL    HW117453   0.868   3.077   2.791 -0.7298  1.2260  0.4473
 1939SOL    HW217454   0.936   3.022   2.909  0.6739 -1.3729 -3.4271
 1940SOL     OW17455   1.011   2.790   4.416  0.3049  0.2262 -0.1989
 1940SOL    HW117456   0.951   2.802   4.342 -3.2697 -1.3625  2.4116
 1940SOL    HW217457   1.090   2.826   4.375  0.4257  1.5868  1.2387
 1941SOL     OW17458   4.191   1.707   3.338 -0.0948 -0.3397  0.0608
 1941SOL    HW117459   4.261   1.762   3.305 -1.4590  0.7981 -0.9235
 1941SOL    HW217460   4.226   1.685   3.424 -0.5143 -0.1303  0.2882
 1942SOL     OW17461   1.806   4.166   6.849 -0.2916 -0.3292 -0.5138
 1942SOL    HW117462   1.896   4.198   6.842 -1.1935  2.0517 -1.2778
 1942SOL    HW217463   1.776   4.238   6.905  1.2378  0.5046 -0.7601
 1943SOL     OW17464   4.450   1.713   5.509 -0.0390  0.6970 -0.0442
 1943SOL    HW117465   4.442   1.655   5.585  0.3970  0.6853 -0.0075
 1943SOL    HW217466   4.510   1.782   5.540  0.8590  0.0921 -0.4526
 1944SOL     OW17467   0.974   0.734   4.916 -0.3561  0.5158  0.2161
 1944SOL    HW117468   0.886   0.696   4.925  0.0742 -0.3662  0.6309
 1944SOL    HW217469   0.998   0.737   5.009  1.4813 -0.3251 -0.2346
 1945SOL     OW17470   3.650   1.132   3.782 -0.5920 -0.3327 -0.1239
 1945SOL    HW117471   3.688   1.210   3.743 -0.2720 -0.8742 -0.8861
 1945SOL    HW217472   3.572   1.120   3.727 -0.7074  2.1262 -0.4801
 1946SOL     OW17473   4.697   2.397   2.046 -0.8092  0.1542 -0.1481
 1946SOL    HW117474   0.038   2.414   2.004 -0.5741 -0.3665  0.1248
 1946SOL    HW217475   4.693   2.309   2.009 -1.6054  0.8933 -1.8630
 1947SOL     OW17476   4.099   1.454   2.876 -0.1337 -0.5274 -0.2062
 1947SOL    HW117477   4.096   1.543   2.841 -1.1341 -0.9458 -1.1831
 1947SOL    HW217478   4.145   1.469   2.959  0.4004 -1.1610 -0.3962
 1948SOL     OW17479   1.307   1.681   1.708  0.0606 -0.5048 -0.3436
 1948SOL    HW117480   1.349   1.597   1.725 -0.0362 -0.2696  1.0674
 1948SOL    HW217481   1.355   1.687   1.625 -0.6995  0.8684 -0.6824
 1949SOL     OW17482   3.623   3.334   7.990  0.2121  0.2081  0.1057
 1949SOL    HW117483   3.610   3.245   7.957 -0.1900  0.2267  0.2116
 1949SOL    HW217484   3.548   3.349   8.048 -1.3883 -0.3714 -1.7749
 1950SOL     OW17485   0.368   4.573  10.519 -0.0266 -0.0637  0.4250
 1950SOL    HW117486   0.418   4.517  10.578 -0.6015  1.4122  2.3257
 1950SOL    HW217487   0.278   4.564  10.550  0.2383 -2.6858  0.3736
 1951SOL     OW17488   3.681   0.635   7.771  0.2817  0.0347  0.0938
 1951SOL    HW117489   3.708   0.727   7.781  0.6141 -0.3602  2.7557
 1951SOL    HW217490   3.594   0.643   7.731  2.2229  0.4171 -4.0616
 1952SOL     OW17491   3.889   1.218   9.164  0.3465 -0.1290  0.1751
 1952SOL    HW117492   3.879   1.125   9.186  1.2070 -0.6565 -1.6194
 1952SOL    HW217493   3.895   1.260   9.249  0.5924 -0.7418  0.4576
 1953SOL     OW17494   3.216   0.751  13.329 -0.3163  0.5002  0.3366
 1953SOL    HW117495   3.191   0.826  13.383 -2.6114  1.3986 -1.9845
 1953SOL    HW217496   3.162   0.686  13.373  0.6078 -0.5210 -0.0512
 1954SOL     OW17497   0.942   3.140   5.143 -0.2437  0.5294  0.3479
 1954SOL    HW117498   0.990   3.177   5.217  0.8047 -0.9830  0.4072
 1954SOL    HW217499   0.941   3.213   5.081  2.3583  2.1326  2.1337
 1955SOL     OW17500   1.938   1.180   7.934  0.6174  0.0256  0.2226
 1955SOL    HW117501   1.933   1.085   7.942  1.1672  0.1187  1.6892
 1955SOL    HW217502   2.007   1.191   8.000  1.5544 -2.9870 -0.2681
 1956SOL     OW17503   3.241   3.700   7.989 -0.0907 -0.2801  0.0869
 1956SOL    HW117504   3.277   3.723   8.075 -1.6011  2.3182  0.0063
 1956SOL    HW217505   3.186   3.629   8.023 -1.5015  0.8695  0.1902
 1957SOL     OW17506   2.501   2.173   5.439 -0.3127  0.0075  0.3181
 1957SOL    HW117507   2.415   2.196   5.403 -0.4796 -0.6874  0.2781
 1957SOL    HW217508   2.527   2.112   5.370  0.5301 -0.8844  1.4122
 1958SOL     OW17509   0.737   0.671  16.969 -0.3178  0.0723 -0.3537
 1958SOL    HW117510   0.806   0.736  16.957  0.4937 -0.7678 -0.3105
 1958SOL    HW217511   0.680   0.717  17.030  0.2764 -1.7107  1.5799
 1959SOL     OW17512   2.687   4.009   3.602 -0.3528  0.1506 -0.0217
 1959SOL    HW117513   2.724   3.931   3.561  0.2847 -0.2199  1.2677
 1959SOL    HW217514   2.611   4.010   3.544 -1.3364  1.2763  1.2711
 1960SOL     OW17515   1.392   4.258  16.786  0.1727 -0.4060  0.3228
 1960SOL    HW117516   1.297   4.274  16.791  0.5445  1.6994  0.8183
 1960SOL    HW217517   1.394   4.175  16.739  3.1085 -0.6167  0.8277
 1961SOL     OW17518   3.336   3.988   1.350  0.7140  0.0600  0.2510
 1961SOL    HW117519   3.291   3.906   1.330  2.8542 -0.9601 -0.4076
 1961SOL    HW217520   3.271   4.018   1.413  1.1705 -0.0529  0.7711
 1962SOL     OW17521   2.719   4.394  10.258 -0.3228 -0.0873  0.1166
 1962SOL    HW117522   2.795   4.450  10.243 -0.1555 -0.2770  0.2654
 1962SOL    HW217523   2.753   4.320  10.307  1.6894  1.4892  1.1005
 1963SOL     OW17524   4.422   1.795  14.734 -0.1311  0.7986  0.1568
 1963SOL    HW117525   4.349   1.741  14.763 -1.4879  1.7149 -1.5472
 1963SOL    HW217526   4.449   1.846  14.810 -0.3611  3.7568 -1.7511
 1964SOL     OW17527   2.986   1.617   4.250 -0.3282 -0.4122  0.2516
 1964SOL    HW117528   2.926   1.650   4.317 -1.5859 -0.8347 -0.6722
 1964SOL    HW217529   2.989   1.522   4.267 -0.5523 -0.4965 -0.1787
 1965SOL     OW17530   2.447   1.130   2.618 -0.2691  0.1280 -0.1937
 1965SOL    HW117531   2.444   1.098   2.708  0.5716 -0.3458 -0.3317
 1965SOL    HW217532   2.541   1.117   2.608  0.0077  0.6039  1.7568
 1966SOL     OW17533   2.086   2.748  14.739  0.4937  0.0468  0.0941
 1966SOL    HW117534   2.085   2.744  14.834 -0.4328 -2.1185 -0.0240
 1966SOL    HW217535   2.168   2.799  14.734  1.0200 -0.7977  0.0640
 1967SOL     OW17536   3.634   2.796   4.457  0.1912 -0.0308 -0.0005
 1967SOL    HW117537   3.552   2.784   4.504  0.4852  0.2024  0.5904
 1967SOL    HW217538   3.691   2.803   4.535  0.2750  1.8092 -0.2207
 1968SOL     OW17539   4.551   2.318   5.932 -0.0389 -0.2654  0.2212
 1968SOL    HW117540   4.512   2.406   5.930  0.1761 -0.1866 -0.2986
 1968SOL    HW217541   4.470   2.269   5.918  0.3882 -0.4043 -1.6841
 1969SOL     OW17542   2.348   3.253   1.957  0.0340 -0.1871 -0.5569
 1969SOL    HW117543   2.330   3.291   2.043  0.6758 -0.5885 -0.2465
 1969SOL    HW217544   2.282   3.184   1.954  1.5869 -1.7118  0.8327
 1970SOL     OW17545   2.089   1.097  11.583  1.0317  0.5459 -0.5579
 1970SOL    HW117546   2.006   1.087  11.536  2.2148 -0.9205 -2.3748
 1970SOL    HW217547   2.080   1.183  11.623  2.4397  0.5101 -0.1947
 1971SOL     OW17548   3.576   3.230  16.257  0.0009 -0.1396  0.1190
 1971SOL    HW117549   3.601   3.303  16.314  0.3341 -0.5265  0.4689
 1971SOL    HW217550   3.609   3.259  16.172  2.1548  1.4143  1.4763
 1972SOL     OW17551   2.764   1.700   2.414  0.6202  0.2576  0.1072
 1972SOL    HW117552   2.700   1.697   2.343  0.3635 -1.4340  0.4077
 1972SOL    HW217553   2.803   1.614   2.406 -1.7203 -0.9046  1.1733
 1973SOL     OW17554   0.222   4.209  10.084 -0.0915  0.1426 -0.5465
 1973SOL    HW117555   0.295   4.264  10.112  0.0863 -1.0390  1.2976
 1973SOL    HW217556   0.162   4.207  10.159 -0.3099  3.0368 -0.6238
 1974SOL     OW17557   0.081   3.213   3.920  1.1282  0.2994  0.8153
 1974SOL    HW117558   0.031   3.294   3.921  1.3920  0.5022 -1.8646
 1974SOL    HW217559   0.126   3.220   3.835  0.1512  1.1297  0.3610
 1975SOL     OW17560   1.871   0.006  17.579 -0.0728  0.0962 -0.2452
 1975SOL    HW117561   1.862   0.085  17.526 -0.6485  0.0851 -0.1730
 1975SOL    HW217562   1.962   0.021  17.602 -0.1903  2.3605 -1.2938
 1976SOL     OW17563   2.403   0.759   7.915  0.3372 -0.0956 -0.4348
 1976SOL    HW117564   2.403   0.668   7.946  0.8576 -0.4570 -1.4811
 1976SOL    HW217565   2.406   0.806   7.998  2.6065 -2.4759  0.8208
 1977SOL     OW17566   4.643   3.673   2.377  0.2570 -0.0475 -0.1588
 1977SOL    HW117567   4.585   3.614   2.329  0.2371  0.0936 -0.3116
 1977SOL    HW217568   4.607   3.762   2.373 -0.3302 -0.2964 -0.3937
 1978SOL     OW17569   0.847   1.192   9.908  0.0527 -0.0365  0.0978
 1978SOL    HW117570   0.788   1.124   9.877 -0.5319  0.3126  0.4346
 1978SOL    HW217571   0.798   1.228   9.982  0.3254  0.8533 -0.1539
 1979SOL     OW17572   2.280   1.764  13.908 -0.1008  0.2559 -0.3527
 1979SOL    HW117573   2.283   1.761  13.813 -1.0296 -0.4059 -0.3580
 1979SOL    HW217574   2.202   1.712  13.924  0.6361 -1.1310 -1.2788
 1980SOL     OW17575   0.580   1.397   3.299 -0.3967 -0.7626 -0.4343
 1980SOL    HW117576   0.515   1.406   3.369 -1.3233  2.6321 -1.7231
 1980SOL    HW217577   0.628   1.315   3.313  2.0389  0.5257 -1.2368
 1981SOL     OW17578   4.559   1.701   4.469 -0.7952 -0.1478  0.2035
 1981SOL    HW117579   4.520   1.625   4.513 -0.2630 -0.5068  0.0591
 1981SOL    HW217580   4.652   1.679   4.458 -1.3119 -0.4992 -3.5358
 1982SOL     OW17581   4.136   1.204  13.250 -0.1016  0.0560  0.4008
 1982SOL    HW117582   4.063   1.159  13.293  1.1828 -2.1045  0.3049
 1982SOL    HW217583   4.204   1.137  13.259  0.7212  0.7354 -0.7416
 1983SOL     OW17584   0.138   4.546  10.654 -0.0184  0.0790 -0.5029
 1983SOL    HW117585   0.094   4.613  10.602  0.4061  2.4547  2.2238
 1983SOL    HW217586   0.065   4.484  10.648  0.3799 -0.4764  0.3284
 1984SOL     OW17587   0.198   3.114   3.077  0.3173  0.0506 -0.0649
 1984SOL    HW117588   0.279   3.152   3.112 -0.5726  2.3590 -0.5141
 1984SOL    HW217589   0.186   3.159   2.994 -0.0442  1.2193  0.6311
 1985SOL     OW17590   0.942   2.744   3.939 -0.3498 -0.1854 -0.7183
 1985SOL    HW117591   0.872   2.679   3.933 -0.6325  0.1961 -1.4984
 1985SOL    HW217592   0.904   2.827   3.911  1.1421  0.7474  0.0335
 1986SOL     OW17593   2.123   2.993   5.284  0.2602  0.4189  0.0773
 1986SOL    HW117594   2.034   2.990   5.247  0.2894 -0.4089  0.0709
 1986SOL    HW217595   2.127   3.086   5.305  0.6856  0.1695  1.0747
 1987SOL     OW17596   4.430   0.000   2.011  0.1580  0.1328 -0.0044
 1987SOL    HW117597   4.413   0.055   1.934 -0.6873 -2.0140 -1.3378
 1987SOL    HW217598   4.379   4.669   1.980 -0.5461  0.5215  0.1907
 1988SOL     OW17599   1.480   0.401   9.155 -0.2949  0.1233 -0.2605
 1988SOL    HW117600   1.395   0.425   9.191 -0.5078  0.5726 -1.0521
 1988SOL    HW217601   1.474   0.306   9.156 -0.1211  0.1322  1.0136
 1989SOL     OW17602   3.388   4.278   6.950  0.5356 -0.2678 -0.1513
 1989SOL    HW117603   3.364   4.187   6.936 -1.5583  0.4465 -1.2170
 1989SOL    HW217604   3.336   4.322   6.883  1.2655 -1.5873 -1.5740
 1990SOL     OW17605   0.079   3.857   7.163 -0.5188 -0.0826 -0.4754
 1990SOL    HW117606   0.135   3.913   7.217  0.3530 -0.3513 -1.0941
 1990SOL    HW217607   0.126   3.849   7.080 -0.4215  0.2582 -0.4519
 1991SOL     OW17608   1.482   0.329   6.989 -0.4544  0.1947 -0.6283
 1991SOL    HW117609   1.416   0.381   7.034 -0.2612  1.0697 -1.3644
 1991SOL    HW217610   1.429   0.259   6.950 -0.1952  0.3953 -1.3432
 1992SOL     OW17611   1.034   1.690   6.010 -0.1854  0.2361  0.3231
 1992SOL    HW117612   1.106   1.705   6.072  0.8059 -0.3419 -0.6873
 1992SOL    HW217613   1.061   1.667   5.922  2.3556  1.1082  0.8633
 1993SOL     OW17614   3.973   1.466  13.934 -0.2994 -0.1296 -0.0755
 1993SOL    HW117615   3.923   1.520  13.995  2.0551  2.0764 -0.1021
 1993SOL    HW217616   3.939   1.484  13.846 -2.0261 -1.9585  0.2154
 1994SOL     OW17617   3.834   0.457   8.222  0.1023  0.0132  0.0904
 1994SOL    HW117618   3.752   0.410   8.204  0.5320 -1.3471  1.6667
 1994SOL    HW217619   3.853   0.445   8.315 -0.8446 -0.0787  0.2727
 1995SOL     OW17620   3.363   0.130   8.922 -0.4246  0.2444 -0.3774
 1995SOL    HW117621   3.436   0.190   8.936  1.4641 -1.8752 -0.9655
 1995SOL    HW217622   3.397   0.049   8.883  0.0912  1.0131 -1.5050
 1996SOL     OW17623   1.831   0.077   8.029  0.3952  0.0771 -0.7023
 1996SOL    HW117624   1.888   0.046   8.099 -0.2358 -0.3891 -0.3982
 1996SOL    HW217625   1.854   0.014   7.961 -1.7280  0.0153 -1.3545
 1997SOL     OW17626   2.267   0.378   6.758  0.2132  0.0349 -0.1511
 1997SOL    HW117627   2.207   0.335   6.819 -0.2593  1.0601  0.1036
 1997SOL    HW217628   2.268   0.309   6.692  1.2023  0.7393 -0.8693
 1998SOL     OW17629   2.048   2.546   6.325 -0.5972  0.1319  0.8172
 1998SOL    HW117630   1.966   2.513   6.288 -0.4003  1.8709 -1.2122
 1998SOL    HW217631   2.026   2.639   6.331 -1.9083 -0.2796  2.5325
 1999SOL     OW17632   3.553   0.295   9.848 -0.0943  0.2184  0.5140
 1999SOL    HW117633   3.511   0.226   9.796 -0.9394  0.6267  0.6648
 1999SOL    HW217634   3.495   0.287   9.924 -0.3060 -1.1257  0.2177
 2000SOL     OW17635   3.781   2.453   3.271 -0.3569  0.1124  0.0588
 2000SOL    HW117636   3.740   2.526   3.224  0.9477  0.5462 -0.4002
 2000SOL    HW217637   3.712   2.387   3.269 -3.3732  3.2062  1.1708
 2001SOL     OW17638   0.103   4.456   7.222  0.4934  0.0567 -0.2738
 2001SOL    HW117639   0.108   4.428   7.130  0.5303 -0.5283 -0.0951
 2001SOL    HW217640   0.090   4.551   7.215 -1.4323 -0.0792  1.4604
 2002SOL     OW17641   1.091   2.248  11.832 -0.4939  0.2085  0.1636
 2002SOL    HW117642   1.121   2.289  11.751  0.2986 -0.1634  0.2675
 2002SOL    HW217643   1.141   2.167  11.828 -1.7248 -0.4706 -1.5272
 2003SOL     OW17644   1.033   0.424   4.316  0.0619  0.3034  0.4230
 2003SOL    HW117645   0.946   0.435   4.279  0.2446 -1.6806 -0.5560
 2003SOL    HW217646   1.061   0.515   4.328 -0.2918  0.5150 -0.3881
 2004SOL     OW17647   2.663   4.321   1.864  0.3188  0.5999  0.2680
 2004SOL    HW117648   2.755   4.343   1.848  0.2401 -0.9690 -2.2799
 2004SOL    HW217649   2.637   4.261   1.794 -2.2134  1.7652  0.2008
 2005SOL     OW17650   4.357   2.835   3.807 -0.0471 -0.1960  0.1680
 2005SOL    HW117651   4.342   2.923   3.772  0.2600 -0.9375 -1.8267
 2005SOL    HW217652   4.448   2.826   3.779  0.0538  0.5230  0.2602
 2006SOL     OW17653   4.729   2.157   5.988 -0.2158  0.4671 -0.4418
 2006SOL    HW117654   4.674   2.229   5.958 -0.3085  0.7530  0.4064
 2006SOL    HW217655   0.067   2.206   5.979 -2.0827  3.3545 -1.6437
 2007SOL     OW17656   3.451   0.712  11.095 -0.2264  0.4224  0.8249
 2007SOL    HW117657   3.480   0.767  11.022 -0.7936 -1.0758 -0.5240
 2007SOL    HW217658   3.423   0.782  11.154 -0.2074  0.3642  0.9013
 2008SOL     OW17659   0.552   0.223   7.010  0.1721 -0.6100 -0.5228
 2008SOL    HW117660   0.607   0.236   6.932  0.0445 -1.3606 -0.7383
 2008SOL    HW217661   0.535   0.129   7.003 -1.8607 -0.2175 -0.7357
 2009SOL     OW17662   2.876   4.306  16.965 -0.3834 -0.1079 -0.3037
 2009SOL    HW117663   2.927   4.350  16.897  3.2645 -3.8172  0.0189
 2009SOL    HW217664   2.893   4.213  16.947 -0.9473 -0.3122  0.2430
 2010SOL     OW17665   1.541   2.190  11.880 -0.0101  0.4060 -0.0604
 2010SOL    HW117666   1.560   2.123  11.946  0.4683  1.4883  0.9057
 2010SOL    HW217667   1.477   2.245  11.925 -1.7174 -0.7072 -1.1470
 2011SOL     OW17668   0.344   0.712   8.984 -0.0210  0.1586 -0.3247
 2011SOL    HW117669   0.320   0.805   8.983  0.0589  0.1603 -2.2273
 2011SOL    HW217670   0.429   0.717   8.940 -1.3960  1.0154 -2.8777
 2012SOL     OW17671   2.235   4.322  11.191  0.4657 -0.2019 -0.4382
 2012SOL    HW117672   2.291   4.277  11.128  0.6033 -1.1507  0.3650
 2012SOL    HW217673   2.209   4.251  11.249  1.6489  0.9352  1.4989
 2013SOL     OW17674   3.917   3.892  16.498 -0.1614 -0.6083  0.2453
 2013SOL    HW117675   3.914   3.932  16.586 -0.2690  0.3912 -0.2074
 2013SOL    HW217676   4.008   3.909  16.476  0.6603 -3.8998  1.1025
 2014SOL     OW17677   4.168   1.151   8.611  0.4799  0.3398 -0.0623
 2014SOL    HW117678   4.106   1.138   8.539 -1.1860 -0.2322  1.4657
 2014SOL    HW217679   4.222   1.222   8.576  1.0315  0.0448  0.1919
 2015SOL     OW17680   3.221   1.030  10.471  0.4272 -1.1372  0.2730
 2015SOL    HW117681   3.302   0.985  10.447  0.4443 -0.3358 -1.1582
 2015SOL    HW217682   3.186   1.045  10.383 -0.1650 -2.3051  0.3084
 2016SOL     OW17683   2.499   4.738  13.444  0.2113  0.3459  0.5717
 2016SOL    HW117684   2.448   0.055  13.390  0.1961 -0.8219 -0.7263
 2016SOL    HW217685   2.548   4.708  13.368  0.8180  0.3686  0.9559
 2017SOL     OW17686   3.438   4.158   5.786  0.6749 -1.2158  0.4075
 2017SOL    HW117687   3.378   4.204   5.845  0.4513  1.5001 -1.9727
 2017SOL    HW217688   3.427   4.063   5.797  0.8834 -1.5687 -2.4300
 2018SOL     OW17689   1.268   2.680   8.791  0.6025 -0.4269 -0.3074
 2018SOL    HW117690   1.261   2.603   8.736 -0.6287 -0.3783 -0.2253
 2018SOL    HW217691   1.173   2.695   8.798  0.6694  1.3939 -3.1484
 2019SOL     OW17692   0.768   2.585  10.742  0.1167  0.1541  0.0505
 2019SOL    HW117693   0.797   2.624  10.825  1.0798  0.0107 -0.2290
 2019SOL    HW217694   0.853   2.596  10.700  0.5711 -4.1609 -0.0620
 2020SOL     OW17695   0.770   3.494  14.542 -0.3764 -0.1534  0.2473
 2020SOL    HW117696   0.821   3.467  14.466  0.1138 -0.6758  0.7641
 2020SOL    HW217697   0.824   3.569  14.568  1.0324 -0.9193 -0.5171
 2021SOL     OW17698   2.472   0.833   4.005  0.1178 -0.0205 -0.0201
 2021SOL    HW117699   2.394   0.862   4.052 -0.5259  0.8059 -1.5832
 2021SOL    HW217700   2.530   0.910   4.007  1.0193 -0.7870  2.9084
 2022SOL     OW17701   1.766   3.569  10.010 -0.0168 -0.0623  0.1885
 2022SOL    HW117702   1.822   3.498   9.979 -0.1741 -0.2160  0.2516
 2022SOL    HW217703   1.692   3.520  10.047  0.4105 -1.3614 -0.6911
 2023SOL     OW17704   2.493   4.267   2.231 -0.6314 -0.2092 -0.0191
 2023SOL    HW117705   2.464   4.303   2.315  1.2882 -0.8238  0.9012
 2023SOL    HW217706   2.456   4.327   2.166 -0.9482  0.8087  1.1007
 2024SOL     OW17707   3.958   1.091   3.628  0.0026  0.5896 -0.4704
 2024SOL    HW117708   3.942   1.117   3.718  3.6367 -0.0496  0.3303
 2024SOL    HW217709   4.034   1.149   3.619  1.6247 -1.4141  0.4303
 2025SOL     OW17710   0.495   2.808   8.648  0.0522  0.4456  0.0825
 2025SOL    HW117711   0.437   2.883   8.661  1.0456  1.5612 -2.0366
 2025SOL    HW217712   0.489   2.802   8.553  0.4812  0.6115  0.0446
 2026SOL     OW17713   1.810   0.427   4.867 -0.1140  0.7026 -0.0743
 2026SOL    HW117714   1.890   0.391   4.905 -0.1269  1.5029  0.7099
 2026SOL    HW217715   1.827   0.521   4.863  3.7307  0.0387  0.7404
 2027SOL     OW17716   4.239   3.330  17.030  0.3421  0.0799 -0.3601
 2027SOL    HW117717   4.174   3.371  16.973 -2.7593 -1.5786  2.0124
 2027SOL    HW217718   4.187   3.258  17.065  0.6382  0.4184  0.7528
 2028SOL     OW17719   3.531   2.328  12.461 -0.2626  0.4473 -0.0951
 2028SOL    HW117720   3.618   2.294  12.443 -0.4464  0.9937 -2.0137
 2028SOL    HW217721   3.497   2.350  12.374 -3.9362  0.7072  1.3844
 2029SOL     OW17722   3.967   0.836   0.551 -0.1666  0.8279  0.2956
 2029SOL    HW117723   4.052   0.796   0.571 -1.0115 -1.5472 -0.8681
 2029SOL    HW217724   3.914   0.767   0.511  0.9639  0.3658 -0.3965
 2030SOL     OW17725   2.814   4.499   5.009  0.0913  0.1674  0.2017
 2030SOL    HW117726   2.747   4.529   4.947 -0.1952 -1.5615 -0.3453
 2030SOL    HW217727   2.812   4.403   5.006 -1.3222  0.2581 -1.7512
 2031SOL     OW17728   1.432   3.496   7.578  0.0571 -0.4761 -0.3150
 2031SOL    HW117729   1.479   3.470   7.658  0.6400  1.7195  0.0818
 2031SOL    HW217730   1.510   3.531   7.535 -1.4496 -1.5458 -3.9035
 2032SOL     OW17731   3.398   2.120   6.702 -0.7565  0.0232  0.2793
 2032SOL    HW117732   3.431   2.049   6.757  0.6997 -1.9744 -3.2359
 2032SOL    HW217733   3.341   2.170   6.761 -0.7146  0.7281 -0.2725
 2033SOL     OW17734   0.563   0.759   9.819  0.4734  0.4671 -0.3465
 2033SOL    HW117735   0.475   0.734   9.847 -0.0422  3.1280  0.4840
 2033SOL    HW217736   0.604   0.679   9.849 -3.3603 -0.7943  1.6068
 2034SOL     OW17737   2.280   1.256   2.007  0.8197  0.1188  0.0273
 2034SOL    HW117738   2.216   1.243   1.938  1.9084  0.1053 -0.9923
 2034SOL    HW217739   2.230   1.258   2.088 -2.0071  0.0546 -1.7435
 2035SOL     OW17740   1.700   2.426   9.253 -0.1692 -0.4468 -0.1571
 2035SOL    HW117741   1.720   2.390   9.339  1.2400  1.1382  0.1813
 2035SOL    HW217742   1.770   2.488   9.235  0.5683 -1.5832 -1.1436
 2036SOL     OW17743   3.791   3.379   8.602  0.4763  0.2221 -0.2187
 2036SOL    HW117744   3.794   3.461   8.653  0.6259 -0.0100  0.1424
 2036SOL    HW217745   3.864   3.333   8.642 -0.1193 -0.1425  0.4514
 2037SOL     OW17746   0.754   2.365   4.482  0.5653 -0.7562 -0.8702
 2037SOL    HW117747   0.738   2.430   4.550  0.2992 -0.9784 -0.7165
 2037SOL    HW217748   0.755   2.435   4.417 -1.4972 -0.1516 -0.2845
 2038SOL     OW17749   3.301   4.090   9.117  0.1274 -0.6054  0.8708
 2038SOL    HW117750   3.287   4.171   9.165 -0.8176  0.2867 -0.9091
 2038SOL    HW217751   3.357   4.048   9.181  0.6737 -0.8408  0.2426
 2039SOL     OW17752   0.587   1.997   7.381  0.3872  0.4814  0.2300
 2039SOL    HW117753   0.587   2.057   7.306  1.9763 -0.5226 -0.5524
 2039SOL    HW217754   0.631   1.918   7.350 -0.2101  0.3122 -0.1984
 2040SOL     OW17755   3.443   3.538  15.352  0.3266 -0.0927 -1.1398
 2040SOL    HW117756   3.377   3.571  15.413  0.9409 -0.6244 -0.1893
 2040SOL    HW217757   3.516   3.532  15.413 -1.2107 -1.1857  0.5963
 2041SOL     OW17758   0.687   3.942   2.366 -0.1529  0.0036 -0.2645
 2041SOL    HW117759   0.776   3.934   2.333 -0.2167  2.9166 -1.1057
 2041SOL    HW217760   0.649   3.896   2.291 -1.9761  0.3259  0.4390
 2042SOL     OW17761   2.279   0.671   1.004 -0.1024  0.4872 -0.5873
 2042SOL    HW117762   2.358   0.665   1.058 -0.9768  0.3413  0.6505
 2042SOL    HW217763   2.282   0.762   0.973  0.6280  0.7966  0.3884
 2043SOL     OW17764   0.042   2.679  15.020  0.4401 -0.3564 -0.0435
 2043SOL    HW117765   4.722   2.619  14.981  1.5827 -2.6816  1.6887
 2043SOL    HW217766   0.022   2.756  14.967  2.7753  0.0386 -0.3569
 2044SOL     OW17767   2.086   3.349  17.569  0.7220  0.3118  0.5548
 2044SOL    HW117768   2.114   3.274  17.516  0.0538  1.5858 -1.6133
 2044SOL    HW217769   2.030   3.313  17.637 -1.4767  1.3799 -0.6804
 2045SOL     OW17770   3.109   2.970   4.753 -0.6253  0.1589 -0.8915
 2045SOL    HW117771   3.144   3.032   4.689  2.0101 -0.8427 -0.4169
 2045SOL    HW217772   3.141   2.992   4.841 -1.3322  0.3846 -0.6929
 2046SOL     OW17773   0.573   3.721  15.348 -0.7154  0.0272 -0.5204
 2046SOL    HW117774   0.498   3.756  15.300 -1.1139  0.5155  0.4795
 2046SOL    HW217775   0.624   3.802  15.355 -0.9810  0.0375  1.1939
 2047SOL     OW17776   0.521   4.221   5.126  0.1410 -0.6663  0.5517
 2047SOL    HW117777   0.587   4.180   5.182  0.6633 -1.2134 -0.4614
 2047SOL    HW217778   0.535   4.314   5.146 -1.2442 -0.5732  1.1050
 2048SOL     OW17779   4.137   0.341  17.222 -0.4207 -0.5621  0.2177
 2048SOL    HW117780   4.108   0.425  17.187  2.5173 -0.7824 -2.8014
 2048SOL    HW217781   4.188   0.367  17.299 -1.9186 -0.4667  1.1594
 2049SOL     OW17782   0.229   2.535   8.112  0.0211  0.1352 -0.1621
 2049SOL    HW117783   0.283   2.594   8.165 -0.5337  0.8953 -0.4577
 2049SOL    HW217784   0.225   2.463   8.176 -0.2765  0.3899  0.1006
 2050SOL     OW17785   3.637   3.895   5.631  0.8643  0.0924 -0.4621
 2050SOL    HW117786   3.681   3.851   5.559  0.7908  0.9165 -1.0047
 2050SOL    HW217787   3.561   3.936   5.590 -0.7092 -1.3735  0.9684
 2051SOL     OW17788   0.820   1.459   6.773 -0.2515  0.1440 -0.2604
 2051SOL    HW117789   0.754   1.400   6.810  0.2393 -0.2249  0.0298
 2051SOL    HW217790   0.786   1.548   6.778 -0.3119  0.0887  0.3440
 2052SOL     OW17791   0.873   3.885  17.473  0.0010  0.6665  0.2262
 2052SOL    HW117792   0.843   3.815  17.530  0.5571  0.3212  0.0920
 2052SOL    HW217793   0.965   3.859  17.483  0.0232  0.7386  0.2105
 2053SOL     OW17794   1.585   1.810   5.552  0.3717  0.6676  0.1848
 2053SOL    HW117795   1.628   1.727   5.571 -0.7573  0.3109  1.1603
 2053SOL    HW217796   1.571   1.819   5.457 -0.3415  1.6006  0.3759
 2054SOL     OW17797   2.434   3.843   4.076  0.2102  0.1217 -0.3243
 2054SOL    HW117798   2.447   3.854   4.171 -1.0950  1.5605 -0.3341
 2054SOL    HW217799   2.388   3.759   4.074 -1.3754  0.9933  0.3320
 2055SOL     OW17800   3.594   0.092  17.003  0.8519  0.1229 -0.3860
 2055SOL    HW117801   3.556   0.121  17.086  2.3267 -0.3600  0.4495
 2055SOL    HW217802   3.572   4.742  16.997 -0.4572  0.2520  2.2076
 2056SOL     OW17803   1.411   3.485   1.764 -0.6914  0.3599  0.7317
 2056SOL    HW117804   1.477   3.435   1.813 -3.5899 -2.1056  2.1721
 2056SOL    HW217805   1.330   3.472   1.815 -1.0402  1.2139  0.4006
 2057SOL     OW17806   3.070   3.160  15.006  0.2446  0.3672 -0.5565
 2057SOL    HW117807   3.097   3.153  14.915  3.0433 -1.5340  0.4312
 2057SOL    HW217808   3.133   3.105  15.052  0.7090  2.3748  1.2360
 2058SOL     OW17809   1.348   2.357  12.864 -0.0919 -0.0391 -0.3640
 2058SOL    HW117810   1.391   2.385  12.945 -1.6726 -0.9028  0.7822
 2058SOL    HW217811   1.412   2.293  12.835 -0.5805 -0.8786  0.3924
 2059SOL     OW17812   2.785   3.264   2.478 -1.0965  0.4349  0.5219
 2059SOL    HW117813   2.879   3.280   2.473 -1.1990  0.6512 -0.6618
 2059SOL    HW217814   2.761   3.285   2.569  3.4814 -0.3263  1.8740
 2060SOL     OW17815   2.359   4.118   3.203 -0.2451  0.3645  0.0723
 2060SOL    HW117816   2.374   4.055   3.133  1.1542 -1.3372  1.9187
 2060SOL    HW217817   2.263   4.117   3.198 -0.4303  0.0008  3.2871
 2061SOL     OW17818   3.709   2.957  12.605  0.6310  0.3773 -0.3483
 2061SOL    HW117819   3.670   2.882  12.560  2.4844 -1.4969  1.1507
 2061SOL    HW217820   3.641   2.969  12.672  1.7839  0.8121  0.7446
 2062SOL     OW17821   3.595   1.151   8.942  0.3244  0.0095  0.9850
 2062SOL    HW117822   3.559   1.091   9.007  0.3502 -0.0211  0.9709
 2062SOL    HW217823   3.589   1.236   8.985  0.3483  0.4217  0.1741
 2063SOL     OW17824   1.118   2.390  16.768  0.1396  0.1440  0.0554
 2063SOL    HW117825   1.141   2.418  16.679 -0.5862 -1.7399 -0.7003
 2063SOL    HW217826   1.023   2.380  16.767  0.1531  0.0817 -0.5872
 2064SOL     OW17827   0.477   4.451   1.968 -0.0466  0.1316  0.2206
 2064SOL    HW117828   0.466   4.361   1.938  3.2767 -0.3546  0.5420
 2064SOL    HW217829   0.389   4.476   1.996  0.7186  1.6503  1.2411
 2065SOL     OW17830   4.664   4.124   7.744 -0.6356 -0.3543  0.2315
 2065SOL    HW117831   4.612   4.198   7.776 -2.1034 -1.4486  0.3809
 2065SOL    HW217832   0.004   4.168   7.757 -1.6125  2.5990 -3.3008
 2066SOL     OW17833   3.269   0.139   1.293 -0.8558  0.2261  0.6685
 2066SOL    HW117834   3.211   0.215   1.289 -2.7453 -1.2647 -0.1681
 2066SOL    HW217835   3.225   0.074   1.348 -0.1070 -0.5230  0.3838
 2067SOL     OW17836   4.327   1.269   4.435  0.1662 -0.1148 -1.0890
 2067SOL    HW117837   4.273   1.247   4.511  1.3066  2.1104  0.3538
 2067SOL    HW217838   4.398   1.206   4.441  0.8774  0.7484 -0.5426
 2068SOL     OW17839   1.437   3.701   9.100 -0.0774  0.2019 -0.4175
 2068SOL    HW117840   1.516   3.649   9.110 -0.9708 -1.0976 -0.1024
 2068SOL    HW217841   1.430   3.710   9.005 -0.2900 -2.0677 -0.6273
 2069SOL     OW17842   4.072   2.475   5.922 -0.1774  0.1435 -0.4014
 2069SOL    HW117843   3.982   2.507   5.914  0.1483  0.7608 -1.6289
 2069SOL    HW217844   4.064   2.385   5.952  1.6689  0.3496  0.7750
 2070SOL     OW17845   4.270   3.868   6.905  0.1422  0.0145  0.2295
 2070SOL    HW117846   4.285   3.774   6.891 -0.9510  0.0112 -0.8908
 2070SOL    HW217847   4.232   3.862   6.992  0.2247  0.4180  0.2891
 2071SOL     OW17848   1.701   3.335   5.636 -0.4128  0.2137 -0.2888
 2071SOL    HW117849   1.640   3.296   5.573 -0.2973 -1.3480  0.5605
 2071SOL    HW217850   1.762   3.264   5.652 -0.1806  0.3614 -0.5240
 2072SOL     OW17851   0.940   2.737  15.211 -0.3162 -0.4145  0.5099
 2072SOL    HW117852   0.858   2.696  15.238  0.0386 -1.1459  0.4828
 2072SOL    HW217853   0.934   2.711  15.119 -0.4172  2.4261 -0.2603
 2073SOL     OW17854   0.488   3.781  12.862 -0.6891 -0.4639 -0.0965
 2073SOL    HW117855   0.412   3.746  12.907  0.1767 -0.8165  1.0955
 2073SOL    HW217856   0.505   3.734  12.781 -1.2922 -1.5365  0.4129
 2074SOL     OW17857   0.222   2.385   4.436 -0.2549  0.9949 -0.2165
 2074SOL    HW117858   0.294   2.386   4.499 -0.1247 -1.5444 -0.3108
 2074SOL    HW217859   0.244   2.300   4.398 -0.7398 -0.2895  2.3332
 2075SOL     OW17860   4.396   2.081   3.240  0.2395  0.1669 -0.4545
 2075SOL    HW117861   4.302   2.061   3.244  0.4681 -0.4908  1.2747
 2075SOL    HW217862   4.424   2.052   3.326  2.6242 -1.0948 -1.6406
 2076SOL     OW17863   0.528   4.682   1.546  0.0565 -0.0151  0.2427
 2076SOL    HW117864   0.487   4.614   1.493  2.3413 -2.0662  1.1243
 2076SOL    HW217865   0.488   0.018   1.512  0.6210 -1.6992 -4.3619
 2077SOL     OW17866   3.620   1.543   6.815 -0.0422 -0.4643 -0.0048
 2077SOL    HW117867   3.612   1.633   6.783  0.6330 -0.1956  0.5971
 2077SOL    HW217868   3.696   1.502   6.774  0.4404  0.2435  0.1780
 2078SOL     OW17869   1.526   1.972  14.738 -0.4281 -0.2153  0.1230
 2078SOL    HW117870   1.491   2.029  14.670  0.2522  0.5087  0.3797
 2078SOL    HW217871   1.506   2.021  14.818  0.8064 -1.1226  0.9793
 2079SOL     OW17872   3.386   0.970  15.805 -0.1412  0.0915  0.1688
 2079SOL    HW117873   3.423   1.058  15.806  0.9288 -0.3499  0.1276
 2079SOL    HW217874   3.328   0.967  15.881  0.1422 -0.0922  0.3774
 2080SOL     OW17875   3.579   0.463   8.508  0.2700 -0.0842 -0.2150
 2080SOL    HW117876   3.587   0.543   8.455  0.1424 -0.2123 -0.4259
 2080SOL    HW217877   3.649   0.417   8.463  1.9298 -0.9548  3.2990
 2081SOL     OW17878   1.142   0.160  14.398 -0.1671  0.2332  0.2555
 2081SOL    HW117879   1.128   0.241  14.447  0.7969  0.4367  0.2045
 2081SOL    HW217880   1.157   0.185  14.307 -0.6893 -1.6272 -0.3356
 2082SOL     OW17881   1.108   0.048  10.271 -0.6360  0.2176 -0.0617
 2082SOL    HW117882   1.052   0.046  10.349  1.5494 -2.6290  1.4317
 2082SOL    HW217883   1.039   0.042  10.206 -0.3898  0.9946 -0.3890
 2083SOL     OW17884   3.429   3.875   6.296 -0.1300 -0.1061  0.7237
 2083SOL    HW117885   3.448   3.928   6.373  1.2325 -1.6226  1.4228
 2083SOL    HW217886   3.339   3.908   6.284 -0.2230 -0.3253  0.8349
 2084SOL     OW17887   1.105   1.126   5.692 -0.8565 -0.0064 -0.0574
 2084SOL    HW117888   1.016   1.127   5.727 -0.3487  0.2489  1.2232
 2084SOL    HW217889   1.148   1.080   5.764  1.6195  0.1512 -1.4126
 2085SOL     OW17890   0.626   3.423   5.678  0.4058  0.1863  0.6346
 2085SOL    HW117891   0.586   3.507   5.654 -0.1206  0.0201  0.9376
 2085SOL    HW217892   0.699   3.451   5.733  2.6163  1.4720 -2.9460
 2086SOL     OW17893   2.494   0.517   4.133 -0.8559  0.2252  0.0062
 2086SOL    HW117894   2.469   0.609   4.135  1.0162  0.7159  1.0989
 2086SOL    HW217895   2.584   0.525   4.100 -0.9917 -1.4942 -0.7699
 2087SOL     OW17896   1.043   0.412   2.745  0.5558  0.0431  0.0657
 2087SOL    HW117897   1.040   0.318   2.728  1.1074  0.1353 -0.5535
 2087SOL    HW217898   1.080   0.410   2.833 -0.8016  1.2357  0.6542
 2088SOL     OW17899   2.049   4.380   8.165  0.1612 -0.2223  0.0103
 2088SOL    HW117900   1.954   4.363   8.166  0.0094  0.6142 -0.2476
 2088SOL    HW217901   2.046   4.448   8.097  0.8899  0.4553  0.6556
 2089SOL     OW17902   0.852   2.459   1.711  0.0677 -0.2213  0.5477
 2089SOL    HW117903   0.775   2.494   1.755  0.4591 -0.7671  1.6557
 2089SOL    HW217904   0.892   2.541   1.681 -0.4412 -0.1701  0.0122
 2090SOL     OW17905   4.456   4.282  16.333  0.1578  0.0727 -0.1774
 2090SOL    HW117906   4.437   4.211  16.273  0.3184 -0.2827  0.1948
 2090SOL    HW217907   4.542   4.256  16.367  0.4803  0.5208 -0.6388
 2091SOL     OW17908   4.018   2.998  14.166 -0.3581 -0.6385 -0.1698
 2091SOL    HW117909   3.923   2.991  14.174 -0.4719  0.9348 -0.0474
 2091SOL    HW217910   4.028   2.986  14.072 -1.5835  0.1090 -0.3971
 2092SOL     OW17911   2.415   2.286   7.077  0.2029  0.2427 -0.4423
 2092SOL    HW117912   2.454   2.209   7.035  0.8627  0.0065  0.5917
 2092SOL    HW217913   2.339   2.300   7.020 -0.2336 -1.8250 -0.3743
 2093SOL     OW17914   1.860   3.824  16.522  0.1048  0.8995 -0.5542
 2093SOL    HW117915   1.950   3.833  16.490  0.8709 -0.5748  1.2033
 2093SOL    HW217916   1.831   3.768  16.449  1.4162  0.6257 -0.8574
 2094SOL     OW17917   4.303   0.831  14.818  0.2230  0.1867  0.1420
 2094SOL    HW117918   4.303   0.897  14.888 -5.4122  0.3315  0.0404
 2094SOL    HW217919   4.387   0.788  14.828  2.5724  4.2269 -2.1309
 2095SOL     OW17920   1.806   4.286  15.276 -0.0436  0.1395 -0.2249
 2095SOL    HW117921   1.866   4.346  15.319  3.4714 -1.4650 -2.9543
 2095SOL    HW217922   1.786   4.231  15.352  0.8396 -1.3550 -1.0838
 2096SOL     OW17923   2.570   3.239   4.411  0.6234 -0.1380 -0.6434
 2096SOL    HW117924   2.502   3.277   4.467  0.8736 -1.2769  0.4442
 2096SOL    HW217925   2.584   3.151   4.448 -0.4636 -0.9838 -2.2397
 2097SOL     OW17926   2.523   2.121   7.456  0.4124 -0.2899 -0.5888
 2097SOL    HW117927   2.539   2.060   7.528 -1.8808 -0.4786 -0.2203
 2097SOL    HW217928   2.614   2.139   7.433  0.0601 -1.4839 -2.9083
 2098SOL     OW17929   2.702   2.406  10.924  0.6378  1.0035  0.2366
 2098SOL    HW117930   2.632   2.462  10.889  0.9864  1.8378  0.8625
 2098SOL    HW217931   2.686   2.441  11.012 -1.0743 -3.5228  1.6915
 2099SOL     OW17932   2.727   0.252  13.435  0.3473  0.2864 -0.4635
 2099SOL    HW117933   2.653   0.229  13.492  0.9135 -0.3344  0.0162
 2099SOL    HW217934   2.703   0.208  13.354  0.5745  1.5631 -1.2323
 2100SOL     OW17935   4.363   4.044   9.099  0.0326 -0.1379  0.5663
 2100SOL    HW117936   4.290   4.075   9.046 -1.5077  2.7626  4.3647
 2100SOL    HW217937   4.330   4.078   9.182 -0.3701 -2.7358  1.4718
 2101SOL     OW17938   4.678   0.259  17.592 -0.1911  0.0720  0.2006
 2101SOL    HW117939   4.701   0.178  17.636 -0.8724 -0.5492 -0.5770
 2101SOL    HW217940   4.735   0.251  17.516 -1.2959  0.1890 -0.6453
 2102SOL     OW17941   2.518   4.743  11.263  0.3613 -0.1679  0.0777
 2102SOL    HW117942   2.444   0.001  11.323 -0.2580  1.0680 -0.7285
 2102SOL    HW217943   2.580   0.061  11.301  1.3218  0.3106 -2.2733
 2103SOL     OW17944   0.089   4.503  15.466  0.6205  0.0537 -0.1496
 2103SOL    HW117945   0.000   4.533  15.450 -0.5732 -3.6167 -0.4793
 2103SOL    HW217946   0.124   4.484  15.379  0.0183 -1.5908 -0.0360
 2104SOL     OW17947   2.090   1.494   0.395  0.0183 -0.9045  0.2257
 2104SOL    HW117948   2.079   1.516   0.302  0.2048 -0.6483  0.2663
 2104SOL    HW217949   2.108   1.400   0.387 -1.2435 -1.1959  0.9280
 2105SOL     OW17950   0.111   1.374   4.913 -0.3871 -0.1972  0.0437
 2105SOL    HW117951   0.097   1.323   4.993 -1.1185  0.6257  0.4358
 2105SOL    HW217952   0.099   1.467   4.932 -3.8413 -1.0276  1.8362
 2106SOL     OW17953   1.904   3.911   8.107  0.2616 -0.3762 -0.4170
 2106SOL    HW117954   1.938   3.942   8.023  1.8796 -0.3376  0.2583
 2106SOL    HW217955   1.824   3.961   8.127  0.7345 -0.1773  0.9791
 2107SOL     OW17956   3.913   2.406   6.938 -0.0473  0.0757  0.9120
 2107SOL    HW117957   3.836   2.359   6.905 -1.1403  1.3260  1.6754
 2107SOL    HW217958   3.980   2.339   6.932  0.9858  1.3188 -1.6060
 2108SOL     OW17959   4.323   3.028   9.138 -0.5827 -0.0637  0.3145
 2108SOL    HW117960   4.413   3.014   9.165 -0.4735 -1.0300 -0.5486
 2108SOL    HW217961   4.316   3.119   9.109 -0.3373 -1.0802 -2.9297
 2109SOL     OW17962   3.471   3.230   3.424  0.3266  0.0619  0.1861
 2109SOL    HW117963   3.509   3.142   3.430 -1.1685 -0.6287 -0.4956
 2109SOL    HW217964   3.526   3.293   3.472 -1.9802  3.8970 -2.1721
 2110SOL     OW17965   0.491   2.899   8.357  0.2544  0.5157 -0.0919
 2110SOL    HW117966   0.501   2.992   8.377 -1.2350  1.1845 -2.4054
 2110SOL    HW217967   0.559   2.882   8.292  1.5493  2.3495  0.7849
 2111SOL     OW17968   0.995   0.311   9.129  0.1734 -0.9583 -0.3995
 2111SOL    HW117969   0.965   0.279   9.214 -1.5079 -1.0973 -1.0508
 2111SOL    HW217970   0.912   0.335   9.087 -0.3087  2.5299  2.4984
 2112SOL     OW17971   3.727   4.191   3.167 -0.1173 -0.4779 -0.2745
 2112SOL    HW117972   3.768   4.277   3.177  2.1967 -1.7459  0.9878
 2112SOL    HW217973   3.680   4.183   3.249  1.4807 -0.9177  0.5988
 2113SOL     OW17974   3.653   2.098   7.163 -0.5960 -0.2222 -0.2472
 2113SOL    HW117975   3.684   2.010   7.184 -0.1331 -0.2449 -1.0557
 2113SOL    HW217976   3.728   2.157   7.158 -0.8964  0.1498 -0.3754
 2114SOL     OW17977   2.564   2.952   1.903 -0.3886 -0.5149 -0.0840
 2114SOL    HW117978   2.621   2.939   1.827 -1.3799  1.5180 -1.1673
 2114SOL    HW217979   2.496   3.008   1.865  0.5388  1.0565  0.5628
 2115SOL     OW17980   0.089   3.404   5.773 -0.3957 -0.4871 -0.4145
 2115SOL    HW117981   0.066   3.490   5.808  1.4758  0.2814 -1.1132
 2115SOL    HW217982   0.041   3.340   5.826 -2.3454 -0.1492 -1.7322
 2116SOL     OW17983   1.663   4.295  10.451  0.2546  0.4782 -0.2912
 2116SOL    HW117984   1.748   4.339  10.455 -0.3858  1.7911 -1.0720
 2116SOL    HW217985   1.634   4.298  10.360  1.9250 -1.0131 -0.8740
 2117SOL     OW17986   0.175   4.065   3.770 -0.2372 -0.3221 -0.2926
 2117SOL    HW117987   0.223   3.990   3.734  1.0335  0.1037  0.5251
 2117SOL    HW217988   0.085   4.031   3.771 -0.1696 -0.5474 -1.3793
 2118SOL     OW17989   1.523   4.464   7.730 -0.6075 -0.3693 -0.2338
 2118SOL    HW117990   1.516   4.485   7.637  1.7002 -0.7165 -0.5000
 2118SOL    HW217991   1.440   4.491   7.768 -0.2434  1.4914 -0.7569
 2119SOL     OW17992   0.696   3.161   3.630  0.7516  0.3281  0.1263
 2119SOL    HW117993   0.646   3.136   3.708  1.1276  1.2186  0.6549
 2119SOL    HW217994   0.643   3.233   3.594 -1.7771 -2.9428 -2.7212
 2120SOL     OW17995   1.703   1.759  12.122  0.0463 -0.0639  0.0815
 2120SOL    HW117996   1.670   1.838  12.079 -1.8457 -0.7546  0.2501
 2120SOL    HW217997   1.652   1.763  12.204 -0.8666  1.8539 -0.5797
 2121SOL     OW17998   1.374   2.877  17.642 -0.2452 -0.4640 -0.0156
 2121SOL    HW117999   1.448   2.938  17.636 -0.1101 -0.7195 -0.9452
 2121SOL    HW218000   1.356   2.870  17.735 -0.9447  1.3139 -0.0086
 2122SOL     OW18001   2.425   3.110   2.472  0.1539 -0.1216 -0.0554
 2122SOL    HW118002   2.412   3.204   2.464 -0.8100 -0.2436  0.1457
 2122SOL    HW218003   2.332   3.090   2.465  0.7639 -2.2656 -2.0111
 2123SOL     OW18004   3.141   4.393  17.297  0.0683 -0.4528  0.0567
 2123SOL    HW118005   3.051   4.368  17.274 -0.2251  1.1873 -0.5659
 2123SOL    HW218006   3.183   4.348  17.224 -0.3932  0.3801 -0.7313
 2124SOL     OW18007   2.296   3.484   5.736 -1.0137 -0.4077  0.3746
 2124SOL    HW118008   2.379   3.479   5.783 -0.7083 -1.7539 -0.3074
 2124SOL    HW218009   2.304   3.416   5.669 -0.6038  0.4949 -0.5003
 2125SOL     OW18010   1.333   1.400   3.485 -0.4906 -0.6259  0.2170
 2125SOL    HW118011   1.292   1.427   3.567  1.2130  2.5024  0.0493
 2125SOL    HW218012   1.362   1.315   3.519 -1.4115 -1.3563 -0.8467
 2126SOL     OW18013   2.699   4.042   8.110  0.3198 -0.8521  0.1400
 2126SOL    HW118014   2.750   4.005   8.183 -0.4076  0.7664  1.4583
 2126SOL    HW218015   2.656   4.117   8.151  0.0325 -0.4167 -0.9588
 2127SOL     OW18016   2.010   2.078   5.269  0.0799  0.2850 -0.4968
 2127SOL    HW118017   1.976   2.097   5.181 -0.8989 -3.3439 -0.9083
 2127SOL    HW218018   1.937   2.040   5.318  1.9899 -2.6755 -0.0154
 2128SOL     OW18019   0.363   3.436   8.892 -0.0642  0.0720  0.4398
 2128SOL    HW118020   0.338   3.502   8.828  0.5598 -0.0813  0.0369
 2128SOL    HW218021   0.290   3.374   8.885 -2.1911  2.5627  0.4024
 2129SOL     OW18022   0.229   1.467   3.223  0.7492 -0.0939  0.3943
 2129SOL    HW118023   0.309   1.417   3.203 -0.8277 -1.8071 -1.5954
 2129SOL    HW218024   0.180   1.399   3.268 -1.5431  1.5745  0.3906
 2130SOL     OW18025   2.738   0.732   7.328  0.4017  0.5633 -0.6115
 2130SOL    HW118026   2.694   0.697   7.250 -0.5279 -0.9191  0.5871
 2130SOL    HW218027   2.674   0.752   7.396  0.9348  0.3354 -0.0525
 2131SOL     OW18028   3.375   2.301   5.608 -0.4389 -0.3359 -0.0734
 2131SOL    HW118029   3.319   2.224   5.614 -1.9583  0.7358 -0.5637
 2131SOL    HW218030   3.417   2.288   5.694  1.1461 -2.6579 -1.1785
 2132SOL     OW18031   1.178   3.488   7.845  0.5755  0.3178  0.5674
 2132SOL    HW118032   1.224   3.570   7.828 -0.6454  0.2049 -3.1825
 2132SOL    HW218033   1.165   3.497   7.940 -0.7568  0.5482  0.3701
 2133SOL     OW18034   0.644   4.139   4.804  0.5993 -0.1201 -0.3131
 2133SOL    HW118035   0.572   4.128   4.866  0.5403  0.0536 -0.3502
 2133SOL    HW218036   0.656   4.234   4.805  0.7386 -0.1777  1.7009
 2134SOL     OW18037   3.134   3.019   7.200  0.3793  0.1710  0.0498
 2134SOL    HW118038   3.130   3.055   7.112  0.2430 -0.1621 -0.0805
 2134SOL    HW218039   3.189   2.943   7.180 -0.1610 -1.1189  3.3865
 2135SOL     OW18040   0.666   0.984   7.921  0.6580  0.2954 -0.2183
 2135SOL    HW118041   0.646   0.998   7.829 -0.6739 -1.7672 -0.2460
 2135SOL    HW218042   0.652   0.890   7.935 -0.7311  0.6625  0.9067
 2136SOL     OW18043   1.912   4.011   3.602  0.4318  0.4566 -0.6460
 2136SOL    HW118044   1.925   4.011   3.508 -2.3894  1.0613 -1.0587
 2136SOL    HW218045   1.859   4.090   3.619  0.0927 -0.3266  1.9288
 2137SOL     OW18046   3.753   4.179  16.172  0.8644  0.4591 -0.0227
 2137SOL    HW118047   3.687   4.232  16.217  1.5172  0.4594  0.9422
 2137SOL    HW218048   3.820   4.246  16.158  1.7841 -0.4655 -0.0947
 2138SOL     OW18049   3.139   3.180   9.638  0.2021  0.3894 -0.5295
 2138SOL    HW118050   3.048   3.208   9.648  0.5631  0.6018  2.2081
 2138SOL    HW218051   3.172   3.239   9.706 -1.9854 -1.0025  1.7552
 2139SOL     OW18052   1.849   0.851   3.755  0.1822  0.0641  0.0951
 2139SOL    HW118053   1.837   0.855   3.850  0.9206 -1.4357  0.2403
 2139SOL    HW218054   1.789   0.778   3.738 -0.9547  0.3348  2.9286
 2140SOL     OW18055   0.645   1.702  16.114 -0.3358  0.3094  0.4271
 2140SOL    HW118056   0.680   1.790  16.123  0.6371 -0.1703  1.3861
 2140SOL    HW218057   0.726   1.657  16.091  0.5127  2.2372 -0.3441
 2141SOL     OW18058   2.842   1.620   6.051  0.1597  0.4617 -0.5115
 2141SOL    HW118059   2.801   1.661   5.975 -2.2984 -0.8795  0.0611
 2141SOL    HW218060   2.766   1.612   6.109 -0.6671 -4.4225 -2.2522
 2142SOL     OW18061   3.177   0.964   6.368 -0.0294 -0.0990  0.2086
 2142SOL    HW118062   3.201   1.027   6.300 -1.6909 -1.5661 -1.7505
 2142SOL    HW218063   3.229   0.993   6.443  0.8016 -2.0115  0.3736
 2143SOL     OW18064   0.583   3.197   8.087  0.0831 -0.1049  0.4975
 2143SOL    HW118065   0.671   3.195   8.125  0.4175 -0.4080 -0.3014
 2143SOL    HW218066   0.560   3.104   8.078 -1.0769  0.5031 -2.8727
 2144SOL     OW18067   2.655   1.325   7.504  0.0182 -0.2077  0.1817
 2144SOL    HW118068   2.619   1.239   7.525 -1.0891  0.2127  0.0129
 2144SOL    HW218069   2.748   1.310   7.489 -0.0250  0.1411 -0.4573
 2145SOL     OW18070   0.140   3.679   3.411  0.1636  0.0492 -0.0716
 2145SOL    HW118071   0.218   3.712   3.368  0.0683  0.6216  0.1986
 2145SOL    HW218072   0.121   3.749   3.474 -0.9822  0.4045 -0.8094
 2146SOL     OW18073   2.093   2.074   1.884  0.1257  0.0981  0.4402
 2146SOL    HW118074   2.090   2.146   1.821  1.3835 -1.1893 -1.0802
 2146SOL    HW218075   2.004   2.092   1.914  0.6063  1.7109  0.9129
 2147SOL     OW18076   2.483   1.443   7.136  0.0252 -0.3341 -0.8993
 2147SOL    HW118077   2.436   1.485   7.208  1.2351  0.6354 -0.6817
 2147SOL    HW218078   2.417   1.394   7.087 -0.4074 -2.2988  1.6435
 2148SOL     OW18079   3.412   0.848  11.900 -0.4266  0.5621 -0.1235
 2148SOL    HW118080   3.474   0.906  11.943  0.8033 -1.2449  0.5046
 2148SOL    HW218081   3.453   0.841  11.814 -0.0843  0.2467  0.0668
 2149SOL     OW18082   2.204   1.046  11.814  1.0789 -0.2320 -0.2378
 2149SOL    HW118083   2.170   1.017  11.730 -1.8133 -1.9564  1.5366
 2149SOL    HW218084   2.250   1.126  11.789  1.4961 -0.8944 -1.6079
 2150SOL     OW18085   0.181   1.264  10.761  0.7446 -0.2589  0.5335
 2150SOL    HW118086   0.144   1.343  10.720 -0.1437 -1.3049 -0.6770
 2150SOL    HW218087   0.107   1.206  10.779  1.1211 -0.8099  0.2847
 2151SOL     OW18088   3.562   0.355   6.766 -0.2087  0.0597 -0.4817
 2151SOL    HW118089   3.477   0.377   6.728  0.8557  1.5814 -1.9988
 2151SOL    HW218090   3.621   0.409   6.714 -0.1591 -0.2903 -0.7895
 2152SOL     OW18091   1.816   0.440   0.816 -0.1811 -0.5130  0.2787
 2152SOL    HW118092   1.894   0.494   0.808 -1.6883  1.5040 -0.6452
 2152SOL    HW218093   1.750   0.508   0.829  0.4066  0.0946  0.0748
 2153SOL     OW18094   1.181   4.469  16.063 -0.7468  0.9186 -0.5435
 2153SOL    HW118095   1.248   4.403  16.047  0.1329  2.0726 -1.6631
 2153SOL    HW218096   1.237   4.535  16.104 -0.7307  0.5902 -0.0470
 2154SOL     OW18097   0.982   2.287  14.517 -0.0557 -0.1962 -0.2199
 2154SOL    HW118098   0.886   2.290  14.523  0.0193  0.7462  0.4880
 2154SOL    HW218099   1.003   2.380  14.528 -1.3217  0.3536 -2.3892
 2155SOL     OW18100   4.285   1.955   5.966  0.2208  0.2931  0.3388
 2155SOL    HW118101   4.298   1.932   6.058  2.1290  0.0786  0.0105
 2155SOL    HW218102   4.360   1.905   5.934  2.2960  3.5024  0.1410
 2156SOL     OW18103   0.138   2.693   6.278 -0.2417 -0.9543 -0.2096
 2156SOL    HW118104   0.150   2.655   6.365  2.2479 -0.9828 -0.5631
 2156SOL    HW218105   0.049   2.728   6.283 -0.5298 -1.7954  0.5192
 2157SOL     OW18106   1.995   3.779  15.201  0.4195  0.0569  0.6077
 2157SOL    HW118107   2.047   3.731  15.267 -0.7096  0.5269  1.8319
 2157SOL    HW218108   1.924   3.715  15.194  0.8516 -0.4361  0.6481
 2158SOL     OW18109   0.473   0.856   5.093 -0.1034  0.4294 -0.0482
 2158SOL    HW118110   0.512   0.882   5.177 -0.6274  0.2436  0.2500
 2158SOL    HW218111   0.490   0.931   5.037 -1.9897  0.6334 -0.3385
 2159SOL     OW18112   0.946   2.983   2.119 -0.3165  0.5831  0.3709
 2159SOL    HW118113   0.895   3.002   2.198 -0.7914 -1.8761  0.6702
 2159SOL    HW218114   0.978   3.068   2.090  1.7809 -0.9791 -1.9472
 2160SOL     OW18115   0.812   1.137   6.356  0.3880 -0.2887 -0.4275
 2160SOL    HW118116   0.843   1.215   6.402 -0.5607 -0.1056 -0.0903
 2160SOL    HW218117   0.856   1.146   6.272  0.8815  1.2177 -0.0084
 2161SOL     OW18118   2.943   2.375   9.438 -0.5331  0.1272 -0.1452
 2161SOL    HW118119   2.929   2.324   9.518  0.4080 -1.3769 -0.9386
 2161SOL    HW218120   2.965   2.464   9.465 -2.0786  0.5520 -0.2632
 2162SOL     OW18121   3.078   3.688   1.086  1.0069 -0.3835 -0.8178
 2162SOL    HW118122   3.005   3.724   1.036 -0.5678  0.5584  2.1416
 2162SOL    HW218123   3.123   3.766   1.121  0.3850  0.6871 -2.4350
 2163SOL     OW18124   2.847   0.252   7.164 -0.0530  0.0510 -0.2500
 2163SOL    HW118125   2.799   0.215   7.089  2.2229  0.6720 -2.0049
 2163SOL    HW218126   2.844   0.345   7.141 -1.1590  0.1003  0.1001
 2164SOL     OW18127   3.061   1.359   6.193 -0.0524 -0.1683  0.4265
 2164SOL    HW118128   2.974   1.366   6.231 -0.2053 -1.1657  0.2632
 2164SOL    HW218129   3.040   1.340   6.101 -1.6015  0.5752  0.6377
 2165SOL     OW18130   1.946   1.503  15.457 -0.8838  0.0132 -0.3806
 2165SOL    HW118131   1.956   1.564  15.384 -0.6291  2.2657  1.5393
 2165SOL    HW218132   2.032   1.460  15.454 -0.5527  0.7804 -1.7477
 2166SOL     OW18133   0.286   3.019   5.054 -0.1494  0.0595 -0.3516
 2166SOL    HW118134   0.262   2.927   5.041 -2.2895  0.5632  0.0034
 2166SOL    HW218135   0.378   3.012   5.081 -0.3707  3.4704  1.1807
 2167SOL     OW18136   2.117   4.570   4.107  0.2532 -0.0947 -0.1944
 2167SOL    HW118137   2.035   4.598   4.066  0.6501  1.3498  0.0158
 2167SOL    HW218138   2.176   4.586   4.034  1.8200 -1.1047  0.8515
 2168SOL     OW18139   4.675   1.594   3.011  0.7627 -0.1609 -0.2147
 2168SOL    HW118140   4.717   1.607   2.926 -0.8641  1.7472 -0.7350
 2168SOL    HW218141   4.628   1.511   3.008  0.0986  0.2617 -1.6767
 2169SOL     OW18142   0.933   2.616  15.502 -0.6410 -0.3935 -0.3892
 2169SOL    HW118143   0.903   2.645  15.416 -1.8660  1.3657  0.6204
 2169SOL    HW218144   1.003   2.553  15.485 -0.5522 -0.4681  0.2583
 2170SOL     OW18145   2.303   3.830   9.476 -0.1425 -0.2029  0.4326
 2170SOL    HW118146   2.363   3.811   9.549 -0.2479 -0.5371  0.4306
 2170SOL    HW218147   2.340   3.767   9.414 -0.0870  0.6296 -0.3785
 2171SOL     OW18148   0.719   0.654   1.675 -0.1059 -0.3303  0.2122
 2171SOL    HW118149   0.640   0.704   1.655 -0.6893 -1.3921 -0.1664
 2171SOL    HW218150   0.714   0.650   1.770 -2.0290 -2.0175  0.0460
 2172SOL     OW18151   1.652   1.724   9.023 -0.1526 -0.7134  0.2920
 2172SOL    HW118152   1.636   1.660   9.093 -0.6112  0.3081  1.1103
 2172SOL    HW218153   1.631   1.661   8.953 -1.6933  0.6254 -0.4511
 2173SOL     OW18154   4.644   2.816  15.856 -0.0618  0.2904  0.3865
 2173SOL    HW118155   4.612   2.742  15.906  1.3036 -0.7272 -0.2448
 2173SOL    HW218156   4.698   2.848  15.929  1.1891 -1.9125  0.4199
 2174SOL     OW18157   1.617   2.202   5.840 -0.1800 -0.2549 -0.0907
 2174SOL    HW118158   1.617   2.276   5.900 -0.8511 -0.4873  0.1897
 2174SOL    HW218159   1.673   2.137   5.882 -1.1825 -0.0366  1.5699
 2175SOL     OW18160   3.219   3.239   3.650 -0.2666 -0.1055 -0.0136
 2175SOL    HW118161   3.308   3.209   3.668  0.7473  0.6649 -3.8509
 2175SOL    HW218162   3.212   3.212   3.559 -0.2022 -1.3660  0.3520
 2176SOL     OW18163   3.393   2.103   3.115  0.0887 -0.2362  0.5848
 2176SOL    HW118164   3.445   2.181   3.138  0.1347 -0.9562  2.9694
 2176SOL    HW218165   3.313   2.148   3.088 -0.1291 -2.2731 -2.1093
 2177SOL     OW18166   4.486   1.057   8.564 -0.2121 -0.2607 -0.0979
 2177SOL    HW118167   4.457   1.140   8.525  0.2357 -0.9237 -1.8238
 2177SOL    HW218168   4.439   1.046   8.647 -0.6222 -1.1624 -0.4517
 2178SOL     OW18169   1.461   4.469   6.091 -0.2962 -0.5784 -0.2592
 2178SOL    HW118170   1.384   4.417   6.070 -1.9620  1.9630 -0.4775
 2178SOL    HW218171   1.530   4.405   6.071  0.6786 -0.2866  2.1387
 2179SOL     OW18172   4.382   4.577   3.735  0.6572  0.0260 -0.2357
 2179SOL    HW118173   4.320   4.636   3.693 -1.1809 -0.5744  1.6553
 2179SOL    HW218174   4.321   4.544   3.800 -1.0915 -0.3914 -2.0829
 2180SOL     OW18175   3.520   1.951   1.786  0.3319 -0.2617 -0.1843
 2180SOL    HW118176   3.472   1.879   1.826  0.9682  0.7650  2.4733
 2180SOL    HW218177   3.511   2.020   1.852  0.8782  0.2466 -0.6332
 2181SOL     OW18178   3.114   3.419   0.090  0.1303 -0.1957  0.2571
 2181SOL    HW118179   3.057   3.491   0.117 -0.8911 -0.5152 -1.0826
 2181SOL    HW218180   3.048   3.366   0.047 -0.8805  2.3406 -1.3423
 2182SOL     OW18181   4.026   0.007   4.051 -0.5727  0.0062  0.8723
 2182SOL    HW118182   3.989   0.017   4.139 -0.7534  0.1529  0.7795
 2182SOL    HW218183   3.979   4.674   4.017  0.2281 -0.5250  0.9650
 2183SOL     OW18184   1.864   2.482   7.364 -0.3334 -0.0396 -0.8114
 2183SOL    HW118185   1.862   2.406   7.422 -0.8503 -0.0102 -0.7956
 2183SOL    HW218186   1.957   2.504   7.370 -0.5028 -0.3206  2.4246
 2184SOL     OW18187   0.040   2.818   4.843 -0.1479 -0.4547 -0.4729
 2184SOL    HW118188   4.721   2.840   4.912 -1.1400 -0.4784 -1.3636
 2184SOL    HW218189   0.119   2.800   4.895 -0.5327  1.4745  0.8172
 2185SOL     OW18190   2.997   0.195   8.115 -0.3619  0.3728  0.0293
 2185SOL    HW118191   2.973   0.103   8.100 -0.3090  0.6997 -2.1735
 2185SOL    HW218192   3.052   0.190   8.193  0.3204 -0.4164 -0.5025
 2186SOL     OW18193   4.056   0.070   5.508 -0.2409 -0.5523 -0.5142
 2186SOL    HW118194   4.104   0.082   5.425 -0.6437 -0.0292 -0.6709
 2186SOL    HW218195   4.115   0.015   5.559  0.0397  0.1413 -0.0830
 2187SOL     OW18196   0.106   0.466  11.590  0.2717  0.2416  0.1174
 2187SOL    HW118197   0.077   0.545  11.545  0.6972 -0.0650 -0.6962
 2187SOL    HW218198   0.182   0.437  11.541  2.5400  3.0984  1.9646
 2188SOL     OW18199   4.155   2.026   3.545 -1.1134  0.2968 -0.0230
 2188SOL    HW118200   4.153   2.121   3.540 -1.8341  0.3101  0.6063
 2188SOL    HW218201   4.117   1.995   3.627 -1.8723  1.8610  0.2175
 2189SOL     OW18202   1.189   2.154  16.841 -0.1458 -0.0790  0.3204
 2189SOL    HW118203   1.150   2.235  16.809  0.5705  0.3968  0.6594
 2189SOL    HW218204   1.147   2.152  16.928  1.1812  0.7488  0.9866
 2190SOL     OW18205   2.926   1.389   7.519  0.1065 -0.0722  0.7151
 2190SOL    HW118206   2.966   1.449   7.581 -1.0898 -0.2638  1.6770
 2190SOL    HW218207   2.966   1.420   7.438  1.5661 -2.9074  0.3489
 2191SOL     OW18208   3.777   1.272   4.488  0.0128 -0.2708 -0.1439
 2191SOL    HW118209   3.811   1.186   4.460 -1.4792 -0.5361 -1.1603
 2191SOL    HW218210   3.696   1.277   4.437  0.4455 -0.8987 -0.9136
 2192SOL     OW18211   4.538   3.519   4.449  0.1720  0.4041 -1.0568
 2192SOL    HW118212   4.585   3.526   4.367  0.8970 -0.2021 -0.6929
 2192SOL    HW218213   4.597   3.547   4.519  1.4695 -0.7454 -1.7035
 2193SOL     OW18214   3.066   1.062   7.513 -0.7856 -0.3430 -0.0464
 2193SOL    HW118215   3.136   1.104   7.463  0.7252 -0.9543  1.5595
 2193SOL    HW218216   3.033   1.006   7.443  0.5266  0.7120 -1.4968
 2194SOL     OW18217   2.880   1.321   8.693 -1.0182  0.3517  0.1246
 2194SOL    HW118218   2.846   1.311   8.782 -0.1866  1.5302  0.5765
 2194SOL    HW218219   2.874   1.416   8.687  0.9431  0.3411 -1.9638
 2195SOL     OW18220   0.105   0.959   5.230  0.2593 -0.0880  0.1291
 2195SOL    HW118221   0.127   0.963   5.137  0.8983  0.7362  0.3162
 2195SOL    HW218222   0.166   0.897   5.269  0.6281 -1.2564 -2.3041
 2196SOL     OW18223   4.594   4.181   4.862  0.5591  0.1506 -0.0419
 2196SOL    HW118224   4.652   4.117   4.904  0.2849  0.7641  1.2319
 2196SOL    HW218225   4.655   4.243   4.822  0.3020  0.1928 -0.3676
 2197SOL     OW18226   2.030   2.114   9.567 -0.3092  0.7388 -0.0587
 2197SOL    HW118227   2.098   2.085   9.506 -1.1408 -0.5418 -0.3875
 2197SOL    HW218228   1.970   2.042   9.546 -0.5631  0.8723  0.2195
 2198SOL     OW18229   2.544   1.858   3.566 -0.0636 -0.3305  0.4669
 2198SOL    HW118230   2.495   1.788   3.608 -1.3362  1.4996  2.0488
 2198SOL    HW218231   2.543   1.828   3.475  0.0324 -2.2896  1.1121
 2199SOL     OW18232   4.229   0.708   1.233 -0.5678 -0.3052 -0.0778
 2199SOL    HW118233   4.166   0.779   1.221 -1.7007 -1.0632  1.3419
 2199SOL    HW218234   4.195   0.683   1.319  1.3371 -2.1476  0.1166
 2200SOL     OW18235   1.970   2.698   9.144  0.1162  0.6196 -0.3820
 2200SOL    HW118236   2.030   2.772   9.141 -1.4101  1.9358  1.2210
 2200SOL    HW218237   1.964   2.677   9.051 -1.0149 -0.0490 -0.1692
 2201SOL     OW18238   3.100   0.469   3.049 -0.0972 -0.0972 -0.0702
 2201SOL    HW118239   3.044   0.393   3.061 -0.8853  0.2849 -1.3186
 2201SOL    HW218240   3.188   0.431   3.046 -1.2734 -2.9509  1.7289
 2202SOL     OW18241   4.287   1.855  16.722 -0.4473 -0.3317  0.8105
 2202SOL    HW118242   4.312   1.840  16.631  0.4241 -2.1092  1.3449
 2202SOL    HW218243   4.263   1.766  16.744  1.8826 -1.4667 -1.1439
 2203SOL     OW18244   1.368   1.667   2.283 -0.1991 -0.8920 -0.0454
 2203SOL    HW118245   1.443   1.622   2.244 -0.6808 -1.6642 -0.0816
 2203SOL    HW218246   1.391   1.759   2.269  0.4776 -1.2350 -1.1542
 2204SOL     OW18247   4.584   1.690   7.359  0.4759 -0.0857  0.2572
 2204SOL    HW118248   4.513   1.627   7.372  0.6614 -0.3018  0.2185
 2204SOL    HW218249   4.541   1.763   7.404  0.1948  1.1974 -2.0914
 2205SOL     OW18250   2.345   2.020  13.947 -0.4871 -0.1682 -0.0949
 2205SOL    HW118251   2.295   2.064  14.016 -0.9359  0.5952 -0.9120
 2205SOL    HW218252   2.316   1.929  13.950  0.7394 -0.5673 -0.5376
 2206SOL     OW18253   3.520   2.583  16.123 -0.3832 -0.3212  0.6333
 2206SOL    HW118254   3.558   2.671  16.129 -1.4169  0.3297 -2.1309
 2206SOL    HW218255   3.427   2.596  16.143 -0.4600  0.5816 -0.2940
 2207SOL     OW18256   1.286   4.546   2.373  0.8010  0.4976  0.1085
 2207SOL    HW118257   1.260   4.636   2.394  1.3870  0.3492  1.4452
 2207SOL    HW218258   1.210   4.514   2.324  0.5806  2.7555 -1.0364
 2208SOL     OW18259   2.074   3.583  14.185  0.5586  0.2095  0.2754
 2208SOL    HW118260   2.030   3.544  14.261 -0.6412 -1.3147 -1.1859
 2208SOL    HW218261   2.033   3.528  14.119 -0.9300  1.3683  0.2351
 2209SOL     OW18262   2.746   3.312   1.797 -0.5962  0.0864 -0.2210
 2209SOL    HW118263   2.841   3.302   1.790 -0.5377  0.1506  0.4699
 2209SOL    HW218264   2.730   3.306   1.891 -1.4533 -0.2719 -0.3856
 2210SOL     OW18265   2.371   0.954   3.301  0.0543  0.0805  0.3114
 2210SOL    HW118266   2.301   0.888   3.305 -0.2908  0.4633  0.5473
 2210SOL    HW218267   2.375   0.950   3.205  0.1586 -0.0647  0.3211
 2211SOL     OW18268   3.347   4.113  13.555 -0.1599 -0.3404  0.9083
 2211SOL    HW118269   3.336   4.022  13.527 -2.5536  0.0534  0.6287
 2211SOL    HW218270   3.301   4.155  13.482  0.8959 -1.1309 -0.2303
 2212SOL     OW18271   1.758   1.148   1.252  0.1453  0.4178  0.7948
 2212SOL    HW118272   1.699   1.223   1.253 -0.6336 -0.1593 -0.8244
 2212SOL    HW218273   1.704   1.078   1.288  0.0710 -0.7531 -1.5493
 2213SOL     OW18274   3.709   3.338  16.023 -0.0669 -0.7288 -0.7091
 2213SOL    HW118275   3.781   3.324  15.962  0.7920  1.1535 -0.1509
 2213SOL    HW218276   3.720   3.428  16.055 -0.2522 -0.6519 -0.8645
 2214SOL     OW18277   0.717   2.786   8.800  0.0037  0.1824 -0.5244
 2214SOL    HW118278   0.712   2.694   8.825 -1.6307  0.5777  0.6153
 2214SOL    HW218279   0.637   2.789   8.746 -0.7271  0.2053  0.5685
 2215SOL     OW18280   1.013   1.278   0.649 -0.3905  0.2760  0.2714
 2215SOL    HW118281   0.961   1.248   0.724  0.5868 -2.4634 -0.1395
 2215SOL    HW218282   0.981   1.367   0.659  0.6863  0.7078 -0.1602
 2216SOL     OW18283   2.473   2.770   6.741 -0.3264 -0.2836  0.9861
 2216SOL    HW118284   2.520   2.845   6.706  1.9182 -1.9257  0.4984
 2216SOL    HW218285   2.386   2.775   6.700 -0.8937 -0.6985  2.1479
 2217SOL     OW18286   2.625   4.547   5.211 -0.3708 -0.8115  0.0762
 2217SOL    HW118287   2.547   4.599   5.192  0.5671  1.3237  2.0589
 2217SOL    HW218288   2.678   4.559   5.132 -0.9338 -0.2963 -0.2199
 2218SOL     OW18289   3.230   2.220   4.125 -0.3523  0.3436 -0.0523
 2218SOL    HW118290   3.263   2.139   4.086  2.0964  0.6830  1.3497
 2218SOL    HW218291   3.290   2.287   4.092  1.0668 -1.0775 -0.3814
 2219SOL     OW18292   0.948   1.002  14.742  0.1163 -0.0405  0.2562
 2219SOL    HW118293   0.994   1.065  14.686  0.1192  0.2696  0.6080
 2219SOL    HW218294   1.002   0.998  14.821  0.4503  0.8762  0.0804
 2220SOL     OW18295   1.403   0.563   4.573 -0.1879  0.5872  0.2894
 2220SOL    HW118296   1.363   0.648   4.556 -0.8834  0.6401  2.2966
 2220SOL    HW218297   1.344   0.502   4.529 -0.1165  1.0515 -0.4576
 2221SOL     OW18298   1.781   4.064  10.694  0.2530  0.4129 -0.2100
 2221SOL    HW118299   1.819   4.149  10.718 -0.5918  0.5211  0.7530
 2221SOL    HW218300   1.692   4.093  10.674 -0.0338 -1.5288 -1.6899
 2222SOL     OW18301   0.383   2.465   5.467  0.9542  0.0351 -0.2689
 2222SOL    HW118302   0.381   2.425   5.380 -2.1180  2.1229 -1.1703
 2222SOL    HW218303   0.477   2.473   5.483  0.9295  3.1761 -1.6079
 2223SOL     OW18304   0.211   2.388   6.277  0.2326  0.8724 -0.0877
 2223SOL    HW118305   0.129   2.367   6.320  1.8334 -1.0349  2.0545
 2223SOL    HW218306   0.272   2.387   6.351  1.6320  0.7390 -1.2340
 2224SOL     OW18307   1.730   1.624   9.517 -0.8281  0.2045 -0.0381
 2224SOL    HW118308   1.766   1.604   9.603 -3.0591 -2.0916  0.3554
 2224SOL    HW218309   1.642   1.586   9.518 -0.7580  0.0901  1.4115
 2225SOL     OW18310   4.479   0.158   5.946  0.0127  0.0519 -0.3173
 2225SOL    HW118311   4.491   0.064   5.960 -0.0842  0.3548  1.8263
 2225SOL    HW218312   4.568   0.194   5.941 -0.6416  1.3469 -2.6356
 2226SOL     OW18313   3.476   0.765   4.606 -0.0501 -0.6705  0.1213
 2226SOL    HW118314   3.405   0.822   4.637  1.0701 -0.0404  1.4892
 2226SOL    HW218315   3.451   0.697   4.669  1.6301 -0.8168  0.6131
 2227SOL     OW18316   0.176   1.219  15.587 -0.3842 -0.8475  0.2688
 2227SOL    HW118317   0.104   1.274  15.557  1.2735  2.0105  1.4995
 2227SOL    HW218318   0.202   1.265  15.668 -1.5810  0.8943 -0.3325
 2228SOL     OW18319   2.522   4.550   6.554  0.4620 -0.2622  0.0175
 2228SOL    HW118320   2.555   4.473   6.508 -1.6693 -1.3979  0.3771
 2228SOL    HW218321   2.589   4.612   6.526 -0.5527 -0.2349 -2.2938
 2229SOL     OW18322   1.828   2.188  14.200 -0.4556  0.3439  0.4111
 2229SOL    HW118323   1.851   2.277  14.226  1.5711 -0.3851  1.1580
 2229SOL    HW218324   1.769   2.159  14.269 -0.8131  0.8848  0.3330
 2230SOL     OW18325   1.099   0.519   8.274  0.4288  0.0603  0.4203
 2230SOL    HW118326   1.186   0.550   8.300  1.6953 -0.9236 -2.6989
 2230SOL    HW218327   1.133   0.475   8.196 -0.7871 -2.0802  1.1151
 2231SOL     OW18328   4.079   1.962   6.689  0.5248 -0.2820  0.5348
 2231SOL    HW118329   3.986   1.983   6.697  0.2706 -0.9732 -0.4876
 2231SOL    HW218330   4.111   2.027   6.627  1.5496  0.8736  2.2894
 2232SOL     OW18331   0.874   0.700   5.933 -0.4143 -0.0541 -0.3190
 2232SOL    HW118332   0.868   0.724   6.026 -1.8679 -0.1261 -0.3957
 2232SOL    HW218333   0.798   0.746   5.899  0.6048  0.3188 -2.0725
 2233SOL     OW18334   3.911   3.702   9.221  0.4999  0.0863 -0.6404
 2233SOL    HW118335   3.923   3.612   9.190  4.4442  0.8316 -1.3167
 2233SOL    HW218336   3.998   3.738   9.206  0.5856  0.6070  1.1216
 2234SOL     OW18337   2.826   2.947   3.227  0.0514 -0.1909  0.2414
 2234SOL    HW118338   2.811   2.861   3.266  0.1919 -0.2784  0.1052
 2234SOL    HW218339   2.802   2.945   3.134 -2.5326 -1.4316  0.9462
 2235SOL     OW18340   2.204   1.489   5.502  0.1669 -0.0865  0.1825
 2235SOL    HW118341   2.179   1.426   5.569  1.1946 -0.8175 -0.1206
 2235SOL    HW218342   2.290   1.512   5.536  0.3111  1.1520 -1.0251
 2236SOL     OW18343   1.538   2.014  12.088  0.0333 -0.0738 -0.3262
 2236SOL    HW118344   1.548   2.051  12.176  0.7593 -0.1640 -0.3694
 2236SOL    HW218345   1.452   1.972  12.091 -1.3034  2.7525  1.2278
 2237SOL     OW18346   4.110   1.210   9.606  0.2739 -0.6365  0.1761
 2237SOL    HW118347   4.165   1.244   9.536  0.4804 -0.3006  0.4965
 2237SOL    HW218348   4.171   1.143   9.638 -0.9808 -1.5233  0.7002
 2238SOL     OW18349   2.909   0.370   7.904  0.4809 -0.0016  0.0530
 2238SOL    HW118350   3.003   0.354   7.908  0.2870 -1.1143  0.2221
 2238SOL    HW218351   2.904   0.339   7.995 -0.7283 -2.5959 -0.8928
 2239SOL     OW18352   2.480   4.579   7.305  0.3854 -0.4725 -0.0417
 2239SOL    HW118353   2.446   4.517   7.369 -0.2803  1.4310  1.4550
 2239SOL    HW218354   2.490   4.660   7.354 -0.4916 -2.3763  3.2946
 2240SOL     OW18355   2.022   4.338   3.832 -0.1266  1.0486 -0.0315
 2240SOL    HW118356   2.056   4.319   3.919 -0.5743  0.1066 -0.0679
 2240SOL    HW218357   2.102   4.369   3.790  0.0377 -1.1211 -1.3128
 2241SOL     OW18358   1.114   1.150   0.447 -0.2383 -0.1846  0.3091
 2241SOL    HW118359   1.055   1.189   0.382 -1.7671 -2.4521  0.3226
 2241SOL    HW218360   1.081   1.179   0.532  0.1735 -1.7650  1.0155
 2242SOL     OW18361   4.287   3.494   7.258 -0.4719  0.0667  0.1560
 2242SOL    HW118362   4.199   3.489   7.295  0.1761 -0.8242  1.6141
 2242SOL    HW218363   4.341   3.456   7.328  0.6384  0.6083 -0.3937
 2243SOL     OW18364   3.265   1.493   4.559  0.2495 -0.0949 -0.3260
 2243SOL    HW118365   3.319   1.540   4.622 -1.3007  1.8145 -0.4239
 2243SOL    HW218366   3.179   1.527   4.585  0.9494  1.0214  0.5260
 2244SOL     OW18367   2.501   0.585   4.671  0.6830  0.0749 -0.1746
 2244SOL    HW118368   2.452   0.641   4.611  1.2153  0.5948 -0.1260
 2244SOL    HW218369   2.464   0.499   4.652 -0.1035 -0.0125  1.7380
 2245SOL     OW18370   2.584   0.016   6.882 -0.8959  0.5726  0.1837
 2245SOL    HW118371   2.490   0.023   6.869 -0.8025 -1.3641 -1.5484
 2245SOL    HW218372   2.580   4.670   6.917  0.0427  0.0334 -1.1022
 2246SOL     OW18373   1.527   4.674   5.493 -0.7157 -0.1100  0.4666
 2246SOL    HW118374   1.601   4.696   5.437 -1.3553 -1.0053 -0.7193
 2246SOL    HW218375   1.521   4.581   5.472 -0.3398 -0.9121  3.8281
 2247SOL     OW18376   1.489   2.727   7.643 -0.9606  0.0206  0.3640
 2247SOL    HW118377   1.569   2.766   7.680 -2.1599 -1.3892  4.4641
 2247SOL    HW218378   1.512   2.705   7.553  1.1917  0.6967  0.7390
 2248SOL     OW18379   0.104   1.238   4.002  0.8072  0.3186  0.2623
 2248SOL    HW118380   0.016   1.255   3.970 -0.3054  0.4543  3.3541
 2248SOL    HW218381   0.077   1.185   4.077  2.0239  0.3771  0.7485
 2249SOL     OW18382   4.530   4.023  11.136  0.6159 -0.2975 -0.2978
 2249SOL    HW118383   4.529   3.934  11.171 -1.8169 -1.0226 -2.1390
 2249SOL    HW218384   4.623   4.041  11.143  1.1487 -2.6433 -1.4141
 2250SOL     OW18385   3.722   2.893   1.705  0.5049  0.4441  0.5905
 2250SOL    HW118386   3.733   2.798   1.713 -0.6658  0.3236  0.7329
 2250SOL    HW218387   3.640   2.899   1.655  2.3708  2.2625 -2.2267
 2251SOL     OW18388   2.606   0.562   2.307 -0.3020 -0.5793 -0.4190
 2251SOL    HW118389   2.598   0.481   2.357 -2.5611 -0.2495 -0.2672
 2251SOL    HW218390   2.554   0.554   2.227  0.4032 -0.4758 -0.8921
 2252SOL     OW18391   2.303   4.351   9.210 -0.1225 -0.7123 -0.6957
 2252SOL    HW118392   2.305   4.339   9.115  0.4019 -0.3169 -0.7361
 2252SOL    HW218393   2.324   4.261   9.235  0.7440  0.4539  2.7448
 2253SOL     OW18394   3.074   1.217   5.588 -0.2731 -0.0085 -0.4112
 2253SOL    HW118395   3.167   1.194   5.592 -0.8235 -2.2083 -0.5295
 2253SOL    HW218396   3.083   1.307   5.554 -3.6718  0.5609  0.2636
 2254SOL     OW18397   0.421   1.341   2.478  0.0210 -0.2794  0.4278
 2254SOL    HW118398   0.389   1.412   2.424  1.2064 -0.1430 -0.1074
 2254SOL    HW218399   0.492   1.389   2.521 -1.2185  1.5083  0.4793
 2255SOL     OW18400   1.984   1.718  14.140 -0.5368  0.2557 -0.4455
 2255SOL    HW118401   1.993   1.813  14.131  0.6043  0.2612  0.8583
 2255SOL    HW218402   1.928   1.690  14.068 -1.5067 -0.7031  0.6906
 2256SOL     OW18403   0.935   1.085   1.891  0.2244  0.1071  0.1126
 2256SOL    HW118404   0.930   0.991   1.908  2.5407 -0.1266 -0.4297
 2256SOL    HW218405   0.841   1.100   1.896  0.4134  1.4516 -0.4381
 2257SOL     OW18406   1.124   0.248   8.797  0.0211  0.3261  0.0147
 2257SOL    HW118407   1.107   0.241   8.891  5.0718 -3.7000  0.6599
 2257SOL    HW218408   1.103   0.157   8.777 -3.4519  1.4722 -1.4810
 2258SOL     OW18409   1.835   2.469   3.526  0.0297  0.3439 -0.4865
 2258SOL    HW118410   1.873   2.550   3.562  0.4095 -1.0984  2.3877
 2258SOL    HW218411   1.787   2.434   3.601 -1.0573  2.0769 -0.3664
 2259SOL     OW18412   0.748   3.447   3.887  0.4360 -0.6895 -0.9062
 2259SOL    HW118413   0.810   3.502   3.935  0.1520 -1.1768  0.0255
 2259SOL    HW218414   0.795   3.431   3.805  2.4567  0.8248 -0.0380
 2260SOL     OW18415   0.478   4.448   8.042 -0.4375  0.1504  0.3211
 2260SOL    HW118416   0.501   4.539   8.022 -0.0127  0.1106  0.6381
 2260SOL    HW218417   0.570   4.424   8.042 -0.3483  0.4916  0.7453
 2261SOL     OW18418   1.463   0.878   2.879 -0.0241  0.1360 -0.1526
 2261SOL    HW118419   1.445   0.950   2.938 -0.6722  1.2348 -1.6788
 2261SOL    HW218420   1.422   0.803   2.922 -3.1115  1.7324 -0.2927
 2262SOL     OW18421   4.498   3.484   2.240  0.2883  0.2495 -0.2601
 2262SOL    HW118422   4.569   3.461   2.179 -0.0420 -0.2841 -0.4431
 2262SOL    HW218423   4.429   3.501   2.176 -0.5173  4.3826  1.7246
 2263SOL     OW18424   3.787   1.515   1.626  0.6963 -0.1553 -0.1527
 2263SOL    HW118425   3.765   1.598   1.667  0.3808  0.7471 -2.1486
 2263SOL    HW218426   3.812   1.470   1.707 -1.2495  0.3665  0.7258
 2264SOL     OW18427   1.608   4.645   8.903  0.3090  0.2090  0.4992
 2264SOL    HW118428   1.645   4.696   8.831 -2.6019 -0.4120 -1.4619
 2264SOL    HW218429   1.513   4.640   8.891  0.4337 -3.1184  0.8114
 2265SOL     OW18430   3.281   0.349   9.164  0.2486 -0.7083 -0.2011
 2265SOL    HW118431   3.374   0.352   9.143  0.0330 -1.6156 -1.2741
 2265SOL    HW218432   3.244   0.406   9.097 -2.9033 -2.1745  0.2736
 2266SOL     OW18433   0.520   1.964   9.130  0.1629 -0.0542 -0.2686
 2266SOL    HW118434   0.576   1.920   9.194 -0.0604 -1.4784 -1.0531
 2266SOL    HW218435   0.564   2.043   9.098 -1.1534  0.5722 -0.5657
 2267SOL     OW18436   0.165   4.298   7.602  0.2454  0.2464  0.1170
 2267SOL    HW118437   0.211   4.327   7.681  0.2697  1.3978 -0.3253
 2267SOL    HW218438   0.226   4.233   7.568 -0.5682  0.0182 -0.9209
 2268SOL     OW18439   3.441   2.322   9.579 -0.0793 -0.5448  0.0055
 2268SOL    HW118440   3.492   2.401   9.562  0.2197 -0.5804  0.7667
 2268SOL    HW218441   3.475   2.270   9.506 -0.8855 -2.6901  1.1644
 2269SOL     OW18442   2.689   0.902  14.980  0.4703  0.1683 -0.3453
 2269SOL    HW118443   2.632   0.826  14.989  0.2962  0.4586  0.9893
 2269SOL    HW218444   2.666   0.944  15.063  0.5970 -0.6677  0.1073
 2270SOL     OW18445   4.452   0.410   8.549  0.0901  0.4440 -0.2834
 2270SOL    HW118446   4.459   0.491   8.600 -0.7465  0.0452  0.4599
 2270SOL    HW218447   4.531   0.417   8.496 -0.3981  2.9829 -0.6579
 2271SOL     OW18448   3.160   0.568  10.316  0.4301 -0.0510 -0.3194
 2271SOL    HW118449   3.216   0.553  10.392  0.1695 -1.8088 -0.4710
 2271SOL    HW218450   3.113   0.485  10.313  0.2797  0.0760 -1.3849
 2272SOL     OW18451   0.273   1.970   6.021  0.2516 -0.1363 -0.4219
 2272SOL    HW118452   0.284   2.064   6.012  0.0741 -0.0084  0.7126
 2272SOL    HW218453   0.353   1.943   5.976 -0.0561 -1.1591 -0.3628
 2273SOL     OW18454   4.196   1.174   6.859  0.3210  0.4392 -0.0764
 2273SOL    HW118455   4.211   1.168   6.953  0.8494 -2.6546 -0.3667
 2273SOL    HW218456   4.127   1.108   6.850 -0.7919  1.2788  2.1360
 2274SOL     OW18457   2.179   3.234  11.605 -0.6656 -0.3100  0.2017
 2274SOL    HW118458   2.178   3.272  11.517 -0.5378 -0.4970  0.1194
 2274SOL    HW218459   2.273   3.234  11.620 -0.6962  1.7820  0.4840
 2275SOL     OW18460   1.843   0.192   3.329 -0.4761  0.8457 -0.0977
 2275SOL    HW118461   1.868   0.166   3.418  2.7337  1.2849 -0.8735
 2275SOL    HW218462   1.901   0.137   3.277 -0.9639 -0.2742  0.5420
 2276SOL     OW18463   4.669   4.374   1.357  0.3317  0.1203 -0.1117
 2276SOL    HW118464   4.699   4.454   1.401  1.1657 -0.9445  1.2717
 2276SOL    HW218465   4.611   4.331   1.420 -0.3379  0.3660 -0.5659
 2277SOL     OW18466   2.278   1.057   5.267  0.3978  0.0062  0.4326
 2277SOL    HW118467   2.281   1.143   5.226 -0.2709 -0.5853 -0.8765
 2277SOL    HW218468   2.186   1.030   5.258  0.7243 -0.1430 -2.4086
 2278SOL     OW18469   2.343   0.593   9.172 -0.3910  0.0558  0.4347
 2278SOL    HW118470   2.334   0.503   9.203  0.9130 -0.1223  0.2775
 2278SOL    HW218471   2.395   0.578   9.093 -2.0468  0.1123 -0.6680
 2279SOL     OW18472   1.495   0.864   8.087 -0.0193 -0.1415  0.0796
 2279SOL    HW118473   1.535   0.941   8.126  0.4166 -0.2008 -0.2564
 2279SOL    HW218474   1.512   0.801   8.157  0.3480  1.0092  1.0273
 2280SOL     OW18475   2.031   0.376   9.671 -0.5225 -0.1314  0.1955
 2280SOL    HW118476   2.024   0.281   9.671  0.8366 -0.2233 -1.0440
 2280SOL    HW218477   2.038   0.393   9.765  2.1651  1.8106 -0.3735
 2281SOL     OW18478   4.706   3.251  13.533 -0.3603  0.1038 -0.4394
 2281SOL    HW118479   4.707   3.307  13.455 -1.4658  0.3433 -0.2822
 2281SOL    HW218480   4.639   3.286  13.591  2.5383  2.7908  1.3106
 2282SOL     OW18481   1.841   1.709  15.624  0.2854  0.3077  0.2498
 2282SOL    HW118482   1.853   1.632  15.568  2.6766  1.1237 -0.3420
 2282SOL    HW218483   1.839   1.663  15.708 -1.2461 -1.0680 -0.5311
 2283SOL     OW18484   0.883   3.367   3.635 -0.2125 -0.1931 -0.1138
 2283SOL    HW118485   0.864   3.423   3.560 -0.3886 -1.3384 -0.9280
 2283SOL    HW218486   0.840   3.288   3.605  0.0167  0.8817 -3.2482
 2284SOL     OW18487   1.700   1.818  14.330  0.2952  0.2268 -0.0087
 2284SOL    HW118488   1.788   1.808  14.293 -0.2085  0.9850 -1.4067
 2284SOL    HW218489   1.679   1.911  14.322  0.0833  0.0968 -1.0461
 2285SOL     OW18490   4.568   3.576   1.103 -0.0806 -0.2333 -0.5694
 2285SOL    HW118491   4.613   3.492   1.102  0.7592  0.2323 -1.2665
 2285SOL    HW218492   4.505   3.566   1.175 -0.3920  1.1941 -0.6311
 2286SOL     OW18493   4.489   2.766   6.050 -0.2665  0.4722 -0.9911
 2286SOL    HW118494   4.394   2.755   6.058 -0.1161  0.4637  0.6589
 2286SOL    HW218495   4.514   2.696   5.989  0.9082  0.2971 -0.3105
 2287SOL     OW18496   0.851   3.385  17.764  0.2427  0.3400 -0.0724
 2287SOL    HW118497   0.857   3.292  17.740 -1.7651  0.3390 -0.5369
 2287SOL    HW218498   0.770   3.378   0.042  0.5600  1.5093  0.6086
 2288SOL     OW18499   1.967   4.256   2.089  0.0291  0.2005  0.0229
 2288SOL    HW118500   1.967   4.337   2.141 -2.7834  0.0867  0.1774
 2288SOL    HW218501   1.875   4.256   2.063 -0.4726 -0.3361  1.7441
 2289SOL     OW18502   1.613   3.961   8.233  0.1603  0.2411  0.1952
 2289SOL    HW118503   1.644   3.906   8.305 -3.4312  0.2088  1.6834
 2289SOL    HW218504   1.563   3.894   8.187  1.1254  1.4302 -2.5712
 2290SOL     OW18505   2.134   1.525   0.670  0.0668  0.1561 -0.1474
 2290SOL    HW118506   2.122   1.532   0.576  1.8639 -1.1679 -0.4568
 2290SOL    HW218507   2.107   1.434   0.685  1.7383 -0.3103  0.0216
 2291SOL     OW18508   0.616   4.703  14.513 -0.3582 -0.0702  0.4728
 2291SOL    HW118509   0.582   4.665  14.594 -0.2180 -0.2234  0.4614
 2291SOL    HW218510   0.603   4.630  14.453  1.7870 -1.3145  1.5259
 2292SOL     OW18511   0.143   1.518  10.336  0.5980  0.2484  0.4286
 2292SOL    HW118512   0.138   1.589  10.272 -0.1805 -1.2925 -1.2219
 2292SOL    HW218513   0.053   1.489  10.348  0.7018 -0.3276 -0.2138
 2293SOL     OW18514   2.021   0.176   3.813 -0.3305 -0.2725 -0.1018
 2293SOL    HW118515   1.983   0.102   3.766 -0.9725  0.2253 -0.3677
 2293SOL    HW218516   2.096   0.143   3.862  0.0735 -0.0361 -0.5589
 2294SOL     OW18517   4.708   0.725   5.911 -0.1871  0.5338  0.4015
 2294SOL    HW118518   4.664   0.810   5.914 -0.1452  0.6078 -1.0656
 2294SOL    HW218519   4.695   0.704   5.819  1.3693 -0.6286  0.4451
 2295SOL     OW18520   0.265   2.007  17.173  0.4709 -0.2334  0.0508
 2295SOL    HW118521   0.292   2.033  17.261 -0.7145  2.0630 -0.2512
 2295SOL    HW218522   0.257   1.912  17.178 -0.4735 -0.2505 -1.9673
 2296SOL     OW18523   1.841   1.649  16.409  0.2583  0.0982 -0.6567
 2296SOL    HW118524   1.772   1.619  16.350 -1.2576  1.0774  0.6039
 2296SOL    HW218525   1.811   1.613  16.492  3.6301 -1.1742  0.0384
 2297SOL     OW18526   2.877   0.018   0.921  0.2733  0.7842 -0.4822
 2297SOL    HW118527   2.787   0.044   0.937 -0.1391 -0.3053 -1.0874
 2297SOL    HW218528   2.865   4.722   0.835 -1.2804  0.6460 -0.1934
 2298SOL     OW18529   4.048   3.621   3.759 -0.0086 -0.2445  0.0329
 2298SOL    HW118530   4.029   3.614   3.852 -0.4483 -1.1106 -0.1240
 2298SOL    HW218531   3.962   3.610   3.719  0.5161 -0.0215 -1.1673
 2299SOL     OW18532   3.857   2.666   4.039  0.6507 -0.2630  0.2414
 2299SOL    HW118533   3.806   2.657   3.958 -0.8628  2.2896  0.9278
 2299SOL    HW218534   3.935   2.618   4.009  0.2904  0.1596 -1.3613
 2300SOL     OW18535   4.330   3.679   9.370  0.3537  0.4791  0.4428
 2300SOL    HW118536   4.314   3.769   9.398 -1.6451  0.7750 -1.6325
 2300SOL    HW218537   4.425   3.683   9.364  0.4956 -0.9559  1.6816
 2301SOL     OW18538   2.026   3.695   4.725 -0.4410 -0.4101  0.0858
 2301SOL    HW118539   2.066   3.770   4.681  0.2846 -0.3239  0.8830
 2301SOL    HW218540   1.932   3.716   4.724 -0.0742  1.0641 -2.0326
 2302SOL     OW18541   4.445   2.823   2.276  0.1346  0.1590  0.0055
 2302SOL    HW118542   4.386   2.897   2.285  2.0953  1.5787  0.9211
 2302SOL    HW218543   4.415   2.807   2.186 -2.1357  0.0179  0.7857
 2303SOL     OW18544   0.141   2.412   2.649 -0.0764 -0.4902 -0.2585
 2303SOL    HW118545   0.046   2.409   2.641 -0.0458 -0.4748 -0.6379
 2303SOL    HW218546   0.158   2.377   2.736  2.5150  0.0983 -0.5019
 2304SOL     OW18547   2.908   2.821  12.787 -0.1615 -0.1917 -0.5929
 2304SOL    HW118548   2.850   2.745  12.797 -1.1462  0.1728 -3.6835
 2304SOL    HW218549   2.911   2.850  12.879 -0.1908 -3.7525  0.5432
 2305SOL     OW18550   1.727   1.362  15.533  0.1718  0.2392 -0.1048
 2305SOL    HW118551   1.793   1.408  15.481  0.2203  0.6434  0.3093
 2305SOL    HW218552   1.744   1.390  15.623 -0.9895  1.9352 -0.4184
 2306SOL     OW18553   1.770   0.433   5.805 -0.2467  1.1151 -0.0269
 2306SOL    HW118554   1.798   0.431   5.714  0.6840 -1.4043  0.3041
 2306SOL    HW218555   1.675   0.424   5.799 -0.0396 -2.1351  1.5478
 2307SOL     OW18556   0.051   1.757   3.672 -0.4699  0.0570  0.0723
 2307SOL    HW118557   0.041   1.814   3.748 -1.5236 -1.4907  1.0932
 2307SOL    HW218558   0.086   1.823   3.612 -2.8976  1.0155 -0.2725
 2308SOL     OW18559   0.114   0.661   7.614  0.1832 -0.2484 -0.1652
 2308SOL    HW118560   0.115   0.629   7.524  0.2750 -0.6979 -0.0062
 2308SOL    HW218561   0.124   0.585   7.672 -2.5165 -1.5368 -1.4246
 2309SOL     OW18562   3.918   4.261  13.659  0.0774  0.9892 -0.2987
 2309SOL    HW118563   3.978   4.292  13.591 -1.1037 -1.9223 -2.6390
 2309SOL    HW218564   3.894   4.175  13.627  4.1676 -0.1484 -0.2769
 2310SOL     OW18565   3.207   0.816   6.712  0.1067  0.6180 -0.1910
 2310SOL    HW118566   3.265   0.797   6.638 -1.1005  0.5008 -1.1288
 2310SOL    HW218567   3.236   0.746   6.769 -0.9441 -0.0336 -0.4406
 2311SOL     OW18568   1.298   2.516   7.731  0.2380 -0.0929  0.0843
 2311SOL    HW118569   1.352   2.592   7.752 -1.2579  0.4944  1.9149
 2311SOL    HW218570   1.281   2.532   7.639  1.1860 -0.2137 -0.1117
 2312SOL     OW18571   3.401   4.499   2.549 -0.4916 -0.0954  0.0775
 2312SOL    HW118572   3.416   4.463   2.461  2.7428 -1.7881  1.3158
 2312SOL    HW218573   3.313   4.464   2.563  1.3285 -4.1719  1.5014
 2313SOL     OW18574   2.399   3.778   6.360  0.4158 -0.3179  0.1797
 2313SOL    HW118575   2.460   3.761   6.432 -0.4803  0.9833  1.2387
 2313SOL    HW218576   2.389   3.690   6.323 -2.7427  0.3433 -0.4716
 2314SOL     OW18577   4.642   0.369  11.240 -0.0404  0.8367  0.1945
 2314SOL    HW118578   4.577   0.312  11.199 -0.3868  1.3571  0.0286
 2314SOL    HW218579   4.589   0.436  11.282  0.6417  1.4139  0.1339
 2315SOL     OW18580   2.022   0.710   1.814  0.2098 -0.1214 -0.0003
 2315SOL    HW118581   2.026   0.625   1.770  1.7512  0.6639 -1.3781
 2315SOL    HW218582   2.046   0.766   1.740 -2.5943 -0.9650 -1.5336
 2316SOL     OW18583   3.382   3.440   3.921 -0.5319  0.2806 -0.2531
 2316SOL    HW118584   3.403   3.349   3.941 -0.1822  0.9135  2.2615
 2316SOL    HW218585   3.385   3.475   4.010  2.2543  0.9780 -0.6129
 2317SOL     OW18586   1.207   1.561   9.558 -0.0664  0.3760  0.7639
 2317SOL    HW118587   1.115   1.542   9.573 -0.1156  0.9719  1.1835
 2317SOL    HW218588   1.211   1.557   9.462  0.1029 -0.2704  0.7920
 2318SOL     OW18589   3.044   1.986   8.685 -0.2715 -0.2369 -0.3015
 2318SOL    HW118590   3.005   1.949   8.605 -1.7717 -3.5438  1.9476
 2318SOL    HW218591   2.963   2.001   8.733  0.1751  2.8389 -0.5417
 2319SOL     OW18592   1.606   2.771  14.151 -0.0063 -0.2472 -0.1254
 2319SOL    HW118593   1.650   2.738  14.073 -1.9807 -1.7220 -0.6112
 2319SOL    HW218594   1.679   2.822  14.186 -0.9751  0.8173  0.3344
 2320SOL     OW18595   2.765   4.678   9.984  0.2332  0.2175  0.5400
 2320SOL    HW118596   2.673   4.651   9.978  0.2816 -0.6333  3.9699
 2320SOL    HW218597   2.751   0.028   9.981  1.9998  0.4937  1.1211
 2321SOL     OW18598   1.678   4.423   6.675 -0.1175 -0.5544 -0.3129
 2321SOL    HW118599   1.589   4.428   6.710  0.4299 -1.1148  1.1353
 2321SOL    HW218600   1.713   4.351   6.726  0.4068 -0.2565 -0.2539
 2322SOL     OW18601   3.521   1.071   2.092 -0.0485 -0.9665  0.5252
 2322SOL    HW118602   3.466   1.077   2.014 -1.0681 -1.5744  1.1908
 2322SOL    HW218603   3.512   1.158   2.131  2.9643 -1.1306  1.5681
 2323SOL     OW18604   0.975   3.405   6.430 -0.0442 -0.6665  0.3332
 2323SOL    HW118605   0.888   3.443   6.414 -0.3801 -0.9778  1.4120
 2323SOL    HW218606   1.025   3.481   6.460 -0.1243 -1.6175  2.9064
 2324SOL     OW18607   0.160   0.642   1.961 -0.3844 -0.4119 -0.1265
 2324SOL    HW118608   0.168   0.673   2.051 -1.0513 -0.2516 -0.1282
 2324SOL    HW218609   0.130   0.725   1.923 -1.5505 -0.6635  0.2620
 2325SOL     OW18610   3.379   4.086  14.600  0.0544 -0.0366 -0.0218
 2325SOL    HW118611   3.432   4.166  14.606 -1.4800  0.9468  0.4232
 2325SOL    HW218612   3.449   4.021  14.602  0.2664  0.2141  0.7321
 2326SOL     OW18613   4.583   2.604   2.767 -0.8411 -0.5128 -0.4330
 2326SOL    HW118614   4.565   2.673   2.703 -0.4650  0.0825  0.1118
 2326SOL    HW218615   4.568   2.644   2.852 -1.1677 -0.6650 -0.4171
 2327SOL     OW18616   2.366   3.311   8.056 -0.1265 -0.2947 -0.2197
 2327SOL    HW118617   2.398   3.342   8.142 -0.3665  1.0049 -0.5961
 2327SOL    HW218618   2.450   3.336   8.016 -0.1697  0.9263  0.4479
 2328SOL     OW18619   3.585   2.760   7.876 -0.6872 -0.0865  0.6725
 2328SOL    HW118620   3.576   2.725   7.787  3.6059  0.1381  0.1804
 2328SOL    HW218621   3.515   2.712   7.920 -1.8600  1.6271  0.6730
 2329SOL     OW18622   2.867   2.329   5.352 -0.6212 -0.2819  0.6692
 2329SOL    HW118623   2.805   2.401   5.342 -0.7921 -0.3369  1.2962
 2329SOL    HW218624   2.837   2.266   5.288 -0.9932  0.2938  0.2736
 2330SOL     OW18625   2.910   1.670  15.300 -0.3836  0.0610 -0.1602
 2330SOL    HW118626   2.966   1.724  15.244  1.5063 -2.0831 -0.3579
 2330SOL    HW218627   2.973   1.637  15.364  0.0794  2.4358  0.6114
 2331SOL     OW18628   0.578   3.465  12.963  0.0837  0.6330 -0.2394
 2331SOL    HW118629   0.500   3.490  12.914  0.2314  1.0195 -0.2723
 2331SOL    HW218630   0.620   3.550  12.960  1.2724  0.0249 -0.8065
 2332SOL     OW18631   0.424   3.829   9.525  0.1591 -0.4092  0.2519
 2332SOL    HW118632   0.490   3.780   9.575  0.2006 -0.1991  0.4052
 2332SOL    HW218633   0.471   3.911   9.540  1.3903 -1.1289  0.3640
 2333SOL     OW18634   3.996   1.596   2.608  0.5854 -0.4125  0.3907
 2333SOL    HW118635   3.943   1.639   2.541 -0.8868 -1.1984  1.0353
 2333SOL    HW218636   3.966   1.509   2.581  0.7971 -0.5392  0.5633
 2334SOL     OW18637   0.387   0.811  10.762 -0.9300  0.6309 -0.7760
 2334SOL    HW118638   0.363   0.857  10.682 -1.0535  1.8678 -0.0289
 2334SOL    HW218639   0.344   0.859  10.834 -0.1090  2.4097 -1.4699
 2335SOL     OW18640   0.435   2.905   6.914  0.2267  0.3441  0.1282
 2335SOL    HW118641   0.470   2.837   6.972 -2.0088 -0.9442 -0.0546
 2335SOL    HW218642   0.491   2.978   6.940 -0.1260  0.8188 -0.4376
 2336SOL     OW18643   3.552   2.446   3.003 -1.0475 -0.4182  0.3843
 2336SOL    HW118644   3.627   2.391   2.982  0.9286  2.1530  0.6447
 2336SOL    HW218645   3.547   2.431   3.097 -0.0381 -1.6358  0.2353
 2337SOL     OW18646   4.063   0.306   6.482  0.2983 -0.0697  0.1684
 2337SOL    HW118647   4.045   0.281   6.573  0.1576 -0.4275  0.0381
 2337SOL    HW218648   4.069   0.402   6.478  0.0043  0.1075  3.2660
 2338SOL     OW18649   0.138   0.388   3.794 -0.3600  0.2938 -0.1254
 2338SOL    HW118650   0.096   0.463   3.751 -0.6836  0.0581 -0.2200
 2338SOL    HW218651   0.087   0.314   3.761  1.1218  0.0070 -1.7357
 2339SOL     OW18652   2.250   3.415  10.849 -0.2452  0.4508 -0.8631
 2339SOL    HW118653   2.243   3.483  10.916  1.6093  1.1121 -1.3363
 2339SOL    HW218654   2.189   3.348  10.879  0.9147  0.4455  1.4701
 2340SOL     OW18655   3.712   1.692  12.809 -0.3975 -0.1360  0.3920
 2340SOL    HW118656   3.634   1.649  12.844 -1.7353  2.0469  0.1424
 2340SOL    HW218657   3.674   1.780  12.806 -3.1601 -1.2927  1.4472
 2341SOL     OW18658   4.144   1.692   0.856  0.2266 -0.2525  0.4917
 2341SOL    HW118659   4.118   1.707   0.947 -0.7319 -3.5351  0.7408
 2341SOL    HW218660   4.239   1.703   0.865  0.2711  0.2819 -0.5921
 2342SOL     OW18661   2.518   2.558   5.261 -0.2719 -0.5100 -0.0196
 2342SOL    HW118662   2.592   2.619   5.257 -1.3297  0.8244  0.8873
 2342SOL    HW218663   2.456   2.606   5.316  1.5091  1.2027  0.5016
 2343SOL     OW18664   0.060   0.546   8.663  0.1567  0.3317  0.1102
 2343SOL    HW118665   0.096   0.633   8.680  1.7926 -0.1192 -1.0930
 2343SOL    HW218666   0.123   0.498   8.609  0.4022 -0.9701  1.5637
 2344SOL     OW18667   1.192   3.346   1.869 -0.0289 -0.4051 -0.3031
 2344SOL    HW118668   1.142   3.369   1.790  0.4219 -1.0263 -0.7701
 2344SOL    HW218669   1.126   3.357   1.938  0.9120 -1.2079  0.7281
 2345SOL     OW18670   0.158   0.067   3.750 -0.0072 -0.1171  0.4468
 2345SOL    HW118671   0.169   4.738   3.689  0.4757  0.2863  0.0497
 2345SOL    HW218672   0.082   0.111   3.713  0.2231 -0.2853 -0.2191
 2346SOL     OW18673   2.413   2.793   3.823  0.4476 -0.2877 -0.1687
 2346SOL    HW118674   2.450   2.792   3.735  0.0783  0.9600 -0.3458
 2346SOL    HW218675   2.320   2.810   3.809  0.7023  1.0020 -0.3015
 2347SOL     OW18676   4.337   4.391   8.668 -0.1437 -0.1683 -0.1682
 2347SOL    HW118677   4.354   4.453   8.597 -2.2665 -0.9184 -1.3333
 2347SOL    HW218678   4.425   4.379   8.704  0.3325  3.2867 -0.1863
 2348SOL     OW18679   2.977   2.195  16.245 -0.7089  0.0573  0.0382
 2348SOL    HW118680   2.891   2.171  16.213 -1.1442  1.6273  0.0286
 2348SOL    HW218681   2.961   2.204  16.339 -0.3040  1.1899 -0.0020
 2349SOL     OW18682   4.577   0.665   1.105 -0.0673  0.4488 -0.2680
 2349SOL    HW118683   4.596   0.644   1.196 -2.5135 -1.0394 -0.0869
 2349SOL    HW218684   4.481   0.672   1.108 -0.1907 -1.2339  0.0225
 2350SOL     OW18685   0.576   4.448   3.450  0.4113  0.0223  0.0337
 2350SOL    HW118686   0.548   4.524   3.400  1.0863 -1.5919 -2.7839
 2350SOL    HW218687   0.491   4.422   3.486 -0.2243 -0.1788 -1.6455
 2351SOL     OW18688   4.511   1.709  17.761 -0.2614  0.4052 -0.3494
 2351SOL    HW118689   4.425   1.719   0.029  0.9075  1.2532  1.9667
 2351SOL    HW218690   4.549   1.771   0.052 -2.2130  1.1849  0.0610
 2352SOL     OW18691   1.789   2.226   1.199  0.2444 -0.1135  0.1835
 2352SOL    HW118692   1.757   2.150   1.248  0.8790  1.0080  2.3248
 2352SOL    HW218693   1.860   2.187   1.147 -1.1047  2.0760 -3.3195
 2353SOL     OW18694   4.438   2.486   5.262 -0.1722 -0.4470  0.1947
 2353SOL    HW118695   4.527   2.516   5.243 -0.3140  1.7003  2.8442
 2353SOL    HW218696   4.461   2.405   5.306  1.2398 -0.7648 -1.1398
 2354SOL     OW18697   2.266   2.512   8.605  0.1273  0.2466  0.0594
 2354SOL    HW118698   2.362   2.504   8.599  0.0554 -1.7894  1.6679
 2354SOL    HW218699   2.242   2.443   8.542  0.6728  1.0126 -0.9984
 2355SOL     OW18700   2.357   0.930   3.019 -0.2505 -0.0008  0.2770
 2355SOL    HW118701   2.351   1.011   2.968  0.6471 -0.5074 -0.6350
 2355SOL    HW218702   2.420   0.881   2.966 -0.2280 -0.5485  0.8213
 2356SOL     OW18703   1.737   3.479   7.217 -0.3762  0.3014 -0.1413
 2356SOL    HW118704   1.824   3.491   7.178  0.0359 -0.8642  0.4319
 2356SOL    HW218705   1.699   3.441   7.138 -0.1550 -0.6264  0.1881
 2357SOL     OW18706   0.616   1.866   3.067  0.1560 -0.3489  0.8309
 2357SOL    HW118707   0.616   1.773   3.091 -0.0877 -0.7318 -0.6733
 2357SOL    HW218708   0.676   1.861   2.994 -1.4322  0.8671 -0.5632
 2358SOL     OW18709   2.011   3.058   2.151  0.1547 -0.0350 -0.2412
 2358SOL    HW118710   1.945   2.992   2.170  0.9505 -0.5173  0.8584
 2358SOL    HW218711   2.034   3.047   2.059 -2.0145  0.0552 -0.8051
 2359SOL     OW18712   1.654   1.545   4.389 -0.0851 -0.0051 -0.2729
 2359SOL    HW118713   1.665   1.506   4.476  0.7240 -0.3363 -0.5215
 2359SOL    HW218714   1.622   1.463   4.349 -0.0564 -0.5636  0.8648
 2360SOL     OW18715   2.457   4.490  14.918 -0.3934  0.0607 -0.1598
 2360SOL    HW118716   2.516   4.562  14.898  0.3478 -0.6861 -0.6678
 2360SOL    HW218717   2.382   4.525  14.871 -0.6935 -0.2352  0.0969
 2361SOL     OW18718   0.680   1.693  15.086  0.0946 -0.1515 -0.3783
 2361SOL    HW118719   0.599   1.653  15.057 -0.6343  0.5356  0.7056
 2361SOL    HW218720   0.722   1.626  15.139  0.0227  0.5989  0.6276
 2362SOL     OW18721   1.759   3.797   9.856  0.1680  0.3766  0.1761
 2362SOL    HW118722   1.758   3.717   9.908 -2.7002  0.0143 -0.4302
 2362SOL    HW218723   1.819   3.848   9.910  0.5423 -0.6740  0.7521
 2363SOL     OW18724   4.305   2.544   7.640  0.3284 -0.0710  0.0112
 2363SOL    HW118725   4.304   2.452   7.613  0.3236 -0.4961  1.4985
 2363SOL    HW218726   4.396   2.545   7.671 -0.0947  0.2986  1.2355
 2364SOL     OW18727   0.005   2.461  17.676  0.2456 -0.8325  0.3263
 2364SOL    HW118728   0.064   2.386  17.678  3.2400  1.4518 -1.5094
 2364SOL    HW218729   0.062   2.538  17.685  1.5175 -1.6954 -0.4024
 2365SOL     OW18730   0.917   0.559  12.152  0.5887 -0.4114  0.6283
 2365SOL    HW118731   1.002   0.603  12.149  0.0314  0.7095  1.3555
 2365SOL    HW218732   0.896   0.543  12.060 -0.1156 -0.0592  0.7269
 2366SOL     OW18733   4.196   3.162   0.821  0.3839 -0.0714 -1.1643
 2366SOL    HW118734   4.275   3.110   0.806  1.1637  1.1103 -1.1838
 2366SOL    HW218735   4.243   3.234   0.863  0.3908 -2.1598  2.3725
 2367SOL     OW18736   3.550   2.371  14.718 -0.6272 -0.3836  0.0872
 2367SOL    HW118737   3.497   2.333  14.788 -1.6266 -0.8957 -0.9576
 2367SOL    HW218738   3.537   2.466  14.723  2.5628 -0.0071  1.5549
 2368SOL     OW18739   0.758   3.400   8.439 -0.4203  0.1453 -0.4044
 2368SOL    HW118740   0.740   3.384   8.532  1.1032 -1.6588 -0.4337
 2368SOL    HW218741   0.842   3.356   8.432 -0.2372  0.2664  1.0084
 2369SOL     OW18742   1.319   0.079   8.404  0.4394  0.0395  0.3624
 2369SOL    HW118743   1.345   0.023   8.477 -0.5020 -2.3935 -1.1693
 2369SOL    HW218744   1.410   0.107   8.399 -0.0710  1.6805  0.3722
 2370SOL     OW18745   3.027   2.564  15.498  0.6431  0.0224  0.2132
 2370SOL    HW118746   2.960   2.573  15.566 -0.3121 -2.7653 -0.3454
 2370SOL    HW218747   3.089   2.508  15.544  0.5713 -1.1196 -1.0868
 2371SOL     OW18748   4.504   1.124   6.133 -0.0963 -0.1731 -0.3893
 2371SOL    HW118749   4.457   1.198   6.094 -1.5894 -0.8089  0.2138
 2371SOL    HW218750   4.521   1.071   6.055 -0.1708  0.4026 -0.8006
 2372SOL     OW18751   3.518   4.514   3.301  0.1998 -0.3153  0.3217
 2372SOL    HW118752   3.610   4.506   3.277 -0.5175 -6.1602 -0.4302
 2372SOL    HW218753   3.506   4.423   3.327 -3.3086 -0.3966 -1.6901
 2373SOL     OW18754   4.265   2.556   9.009  0.0370 -0.1637  0.0650
 2373SOL    HW118755   4.244   2.620   9.077 -0.9258  0.3652 -0.7204
 2373SOL    HW218756   4.183   2.558   8.959  0.2053 -0.3550 -0.2236
 2374SOL     OW18757   2.455   0.839   5.303  1.0110 -0.3288 -0.2696
 2374SOL    HW118758   2.431   0.862   5.213 -0.9809 -1.0001  0.0821
 2374SOL    HW218759   2.414   0.912   5.348  2.0733  0.6578 -0.9204
 2375SOL     OW18760   4.070   2.956  11.588  0.4011 -0.0598 -0.0193
 2375SOL    HW118761   4.144   2.929  11.642 -0.0365 -0.2699  0.4805
 2375SOL    HW218762   4.013   2.980  11.662  2.3978  1.0563  1.1556
 2376SOL     OW18763   0.139   3.256   7.516  0.7563  0.3641  0.7296
 2376SOL    HW118764   0.225   3.293   7.537  0.8242 -0.0688  1.1973
 2376SOL    HW218765   0.081   3.332   7.518  1.0012  0.5426  1.1210
 2377SOL     OW18766   0.595   0.819  12.120 -0.5040 -0.2824 -0.3777
 2377SOL    HW118767   0.538   0.867  12.181  0.4661 -1.2081  1.2405
 2377SOL    HW218768   0.672   0.857  12.162  0.1358  0.5789 -2.3409
 2378SOL     OW18769   3.957   0.788  17.359 -0.1913 -0.0226  0.5573
 2378SOL    HW118770   3.969   0.817  17.269 -0.2827  2.8228  1.4842
 2378SOL    HW218771   4.047   0.765  17.385 -0.0038  1.9926  1.6352
 2379SOL     OW18772   0.136   3.652   9.670  0.8279  0.0614 -0.1956
 2379SOL    HW118773   0.228   3.630   9.683  1.0993 -0.7721 -3.3376
 2379SOL    HW218774   0.133   3.638   9.575 -1.0185 -0.1410 -0.1040
 2380SOL     OW18775   4.455   1.064   1.761  0.1427  0.7137  0.1836
 2380SOL    HW118776   4.531   1.114   1.791  0.1298  0.4421  0.6679
 2380SOL    HW218777   4.449   1.097   1.671  1.6602  0.7879  0.1042
 2381SOL     OW18778   0.216   3.480   8.091  0.4917 -0.4402 -0.5328
 2381SOL    HW118779   0.282   3.543   8.061  1.1723 -1.3244 -0.8762
 2381SOL    HW218780   0.235   3.397   8.048  1.3862  0.1412 -1.2776
 2382SOL     OW18781   0.422   4.084   3.035 -0.2848  0.2349  0.0867
 2382SOL    HW118782   0.418   4.169   3.078  1.5540  1.2428 -1.7028
 2382SOL    HW218783   0.330   4.068   3.016 -0.1957  0.0501 -0.2027
 2383SOL     OW18784   4.192   4.223  10.049 -0.1031 -0.3907  0.6469
 2383SOL    HW118785   4.243   4.162  10.102  3.5114  2.3498  0.2882
 2383SOL    HW218786   4.190   4.176   9.966 -0.5505 -1.4964  1.2765
 2384SOL     OW18787   4.179   1.522   4.417  0.0685 -0.3408  0.2131
 2384SOL    HW118788   4.247   1.553   4.358  0.7243  0.2816  1.3008
 2384SOL    HW218789   4.221   1.453   4.469  0.8784 -2.4246 -3.2450
 2385SOL     OW18790   4.208   4.546   3.925 -0.0594 -0.7694  0.5415
 2385SOL    HW118791   4.262   4.611   3.969  1.7646 -0.6760 -1.8000
 2385SOL    HW218792   4.124   4.591   3.921 -0.4219 -1.4640  0.3150
 2386SOL     OW18793   1.501   1.409   2.296  0.5692  1.2907 -0.6484
 2386SOL    HW118794   1.585   1.377   2.264 -0.2839 -1.3754 -0.2002
 2386SOL    HW218795   1.445   1.335   2.321  1.6501  0.8200  0.3550
 2387SOL     OW18796   3.886   3.732   5.898  0.5348  0.2232 -0.1197
 2387SOL    HW118797   3.951   3.663   5.883  1.7797  1.1077  1.1238
 2387SOL    HW218798   3.816   3.708   5.838  0.8603  0.7175 -0.7031
 2388SOL     OW18799   3.210   4.436   6.487 -0.4241  0.2747  0.5758
 2388SOL    HW118800   3.194   4.418   6.394 -0.5508  0.3293  0.5865
 2388SOL    HW218801   3.118   4.443   6.513 -0.7903  1.8585 -1.1564
 2389SOL     OW18802   3.594   4.317   4.589  0.1681  0.5888  0.0519
 2389SOL    HW118803   3.525   4.346   4.649 -0.1277  1.6299 -0.8042
 2389SOL    HW218804   3.569   4.377   4.519 -0.4401  1.5391  1.0770
 2390SOL     OW18805   3.528   4.544  12.109  0.2231 -0.0839 -0.2250
 2390SOL    HW118806   3.565   4.530  12.196 -2.2597  0.9770  1.0073
 2390SOL    HW218807   3.565   4.475  12.055  0.9491 -0.4051  0.6877
 2391SOL     OW18808   2.254   0.191   3.436  0.0873  0.4018 -0.2065
 2391SOL    HW118809   2.231   0.213   3.346  0.6905 -0.0745 -0.4718
 2391SOL    HW218810   2.311   0.115   3.431  1.2834  1.3568 -0.8856
 2392SOL     OW18811   4.580   2.936   8.962  0.1046  0.0543 -0.3865
 2392SOL    HW118812   4.605   2.987   9.039 -1.0088  1.0581 -0.7037
 2392SOL    HW218813   4.530   2.994   8.905  3.0568  2.8598 -0.0909
 2393SOL     OW18814   2.005   1.835   3.979  0.3404  0.0673 -0.5126
 2393SOL    HW118815   1.964   1.920   3.994  0.0851 -0.2794  0.7289
 2393SOL    HW218816   2.081   1.864   3.929 -2.3472  2.6105 -3.2336
 2394SOL     OW18817   4.283   0.680  16.874  0.2702  0.5921  0.2169
 2394SOL    HW118818   4.338   0.688  16.796  0.8652  0.1705  0.6052
 2394SOL    HW218819   4.335   0.744  16.922 -0.9357  2.3785 -0.8269
 2395SOL     OW18820   2.762   2.211   3.145  0.0450  0.3743 -0.2185
 2395SOL    HW118821   2.796   2.164   3.221  0.6568 -0.2877 -0.9046
 2395SOL    HW218822   2.666   2.213   3.145  0.0594  1.2697 -0.5587
 2396SOL     OW18823   1.824   1.528  10.551 -0.4410  0.0512 -0.2926
 2396SOL    HW118824   1.804   1.460  10.616 -1.2088  0.1189 -0.4607
 2396SOL    HW218825   1.883   1.581  10.604 -0.2078  1.3759 -1.9005
 2397SOL     OW18826   0.977   1.808   9.306  0.7116  0.3689 -0.2134
 2397SOL    HW118827   0.980   1.713   9.297 -0.6586  0.1296  1.7822
 2397SOL    HW218828   1.030   1.819   9.384 -0.4015  0.4820  0.5287
 2398SOL     OW18829   4.330   4.388   5.014 -0.1917 -0.9505 -0.2357
 2398SOL    HW118830   4.254   4.365   5.068 -0.0022 -0.2103  0.3552
 2398SOL    HW218831   4.378   4.305   5.012 -1.5224 -1.7668  2.8954
 2399SOL     OW18832   0.618   0.584   4.617 -0.1717  0.1951  0.2234
 2399SOL    HW118833   0.708   0.579   4.584 -0.4367  0.3514 -0.5424
 2399SOL    HW218834   0.634   0.626   4.701 -3.7857 -1.5681  1.7860
 2400SOL     OW18835   0.173   0.397   6.741  0.1649 -0.0815 -0.6443
 2400SOL    HW118836   0.149   0.312   6.779  0.4531  0.1145 -0.0237
 2400SOL    HW218837   0.267   0.402   6.758  0.3062 -0.2116 -1.3903
 2401SOL     OW18838   0.555   0.269   4.731  0.1992 -0.4207  0.5003
 2401SOL    HW118839   0.479   0.269   4.790  0.7222 -1.8016  1.1850
 2401SOL    HW218840   0.526   0.331   4.664 -0.2334 -2.0768 -0.8426
 2402SOL     OW18841   3.401   2.361   4.799  0.0091  0.1269  0.0599
 2402SOL    HW118842   3.442   2.372   4.884 -2.7339  0.1390  1.3949
 2402SOL    HW218843   3.475   2.381   4.741 -0.6365 -1.1953 -1.2284
 2403SOL     OW18844   2.356   2.009   7.253 -0.2328  0.0119  0.4408
 2403SOL    HW118845   2.384   2.028   7.342 -0.5829 -1.0187  0.7777
 2403SOL    HW218846   2.422   2.044   7.193 -0.0406  1.8398  1.7264
 2404SOL     OW18847   4.369   3.495   5.949 -0.2251 -0.0138  0.0568
 2404SOL    HW118848   4.411   3.507   5.864  0.0621  0.9354  0.3407
 2404SOL    HW218849   4.276   3.494   5.927 -0.3060 -0.2150  0.4088
 2405SOL     OW18850   2.097   0.217   7.622 -0.3079 -0.5259 -0.0648
 2405SOL    HW118851   2.159   0.284   7.593 -1.6925  0.8962  0.2848
 2405SOL    HW218852   2.113   0.235   7.715  0.9049 -0.8029 -0.2233
 2406SOL     OW18853   4.679   4.480   2.343  0.2649  0.5323 -0.3440
 2406SOL    HW118854   0.029   4.473   2.358  0.0986  0.8378  0.8072
 2406SOL    HW218855   4.636   4.412   2.394  0.8121 -0.1794 -0.8254
 2407SOL     OW18856   0.788   1.327   5.416  0.3912  0.2949  0.2554
 2407SOL    HW118857   0.815   1.277   5.339  0.7802  1.2082 -0.1981
 2407SOL    HW218858   0.708   1.284   5.447  1.9730 -2.7701  0.0794
 2408SOL     OW18859   2.478   1.739   5.581 -0.0488  0.4361 -0.1115
 2408SOL    HW118860   2.562   1.781   5.597  1.4985 -1.8623 -2.1727
 2408SOL    HW218861   2.423   1.810   5.614  0.4048  0.2940  0.9783
 2409SOL     OW18862   4.742   3.990   2.760  0.5029  0.1296  0.4045
 2409SOL    HW118863   0.037   4.072   2.729 -2.8773  1.0932 -1.3164
 2409SOL    HW218864   4.660   4.026   2.795 -0.2760 -1.1884 -0.0725
 2410SOL     OW18865   0.294   1.506   5.161 -0.3130  0.4667 -0.0772
 2410SOL    HW118866   0.311   1.524   5.254  0.2846 -0.4941 -0.0001
 2410SOL    HW218867   0.322   1.415   5.171 -0.6635  0.2565 -1.0763
 2411SOL     OW18868   3.514   1.185  10.013 -0.5216 -0.8466  0.3534
 2411SOL    HW118869   3.452   1.136   9.958 -1.0707  0.4744 -0.2008
 2411SOL    HW218870   3.580   1.209   9.948  1.0457  1.0034  2.6814
 2412SOL     OW18871   1.708   2.498   0.505 -0.1263 -0.0351  0.0407
 2412SOL    HW118872   1.717   2.412   0.465  1.5088  0.5891 -0.9540
 2412SOL    HW218873   1.613   2.498   0.518 -0.1429 -1.3878 -0.0623
 2413SOL     OW18874   0.926   3.992   3.106  0.0398  0.1739 -0.2260
 2413SOL    HW118875   0.831   4.001   3.098 -0.0674 -1.4423 -0.6975
 2413SOL    HW218876   0.941   3.908   3.064  0.9820 -0.5270  1.4849
 2414SOL     OW18877   4.517   0.448   6.529  0.4688 -0.4295 -0.0211
 2414SOL    HW118878   4.569   0.517   6.569  4.9796 -4.5403  1.3056
 2414SOL    HW218879   4.452   0.430   6.597 -0.6164  1.5153 -0.5602
 2415SOL     OW18880   4.271   4.048   8.324 -0.2324  0.1345 -0.1252
 2415SOL    HW118881   4.350   4.101   8.328  0.2728 -0.7664  1.5322
 2415SOL    HW218882   4.296   4.003   8.243 -2.4108  0.8991 -1.2548
 2416SOL     OW18883   3.053   1.551   8.551 -0.4195 -0.9147  0.4089
 2416SOL    HW118884   3.143   1.551   8.583 -0.5505 -0.6789  0.7870
 2416SOL    HW218885   3.048   1.464   8.511  3.2764 -0.9730  0.0830
 2417SOL     OW18886   0.004   4.706  12.962  0.3795 -0.4674  0.2405
 2417SOL    HW118887   0.043   0.040  13.001  0.7526 -0.1221 -0.8029
 2417SOL    HW218888   0.005   4.660  13.046 -1.8762 -0.6127  0.1952
 2418SOL     OW18889   0.960   4.469   7.769 -0.1705  0.5688 -0.0202
 2418SOL    HW118890   0.982   4.553   7.727  2.4682 -0.3827 -0.5336
 2418SOL    HW218891   0.866   4.467   7.753 -0.1550 -0.1124 -0.0159
 2419SOL     OW18892   2.844   4.190   9.877 -0.5449 -0.0902 -0.0070
 2419SOL    HW118893   2.779   4.144   9.824 -0.3145  0.0607 -0.4246
 2419SOL    HW218894   2.817   4.176   9.967 -1.8299  0.6050 -0.2904
 2420SOL     OW18895   2.468   0.627   8.283 -0.1798 -0.0237  0.3935
 2420SOL    HW118896   2.467   0.719   8.254  1.7636 -0.0258  0.2974
 2420SOL    HW218897   2.436   0.581   8.206  1.7388 -0.5692 -0.0635
 2421SOL     OW18898   3.527   0.897   6.078 -0.0479 -0.3569 -0.4301
 2421SOL    HW118899   3.615   0.870   6.053  0.3252  1.0336 -0.6069
 2421SOL    HW218900   3.486   0.813   6.101  1.4097 -0.9548  0.0189
 2422SOL     OW18901   0.662   0.851   9.573 -0.2827  0.5761 -0.0064
 2422SOL    HW118902   0.577   0.816   9.548 -0.2364  0.4674 -0.0126
 2422SOL    HW218903   0.636   0.888   9.657  1.1811  1.4348  0.0693
 2423SOL     OW18904   4.202   1.373  10.589  0.2249  0.5333 -0.5691
 2423SOL    HW118905   4.145   1.326  10.650  2.1716 -0.8916  0.1658
 2423SOL    HW218906   4.149   1.453  10.586 -0.2314  0.2203 -0.8409
 2424SOL     OW18907   4.719   3.085  10.477  0.5678 -0.2276  0.2846
 2424SOL    HW118908   4.732   2.995  10.449 -1.2929 -0.8001  1.3081
 2424SOL    HW218909   4.653   3.080  10.545  1.5828  0.3373  1.3036
 2425SOL     OW18910   2.909   1.514   7.090 -0.2387 -0.6202  0.2991
 2425SOL    HW118911   2.965   1.490   7.164 -1.5907  0.3805  1.6212
 2425SOL    HW218912   2.844   1.444   7.093 -2.1878  1.1657 -0.3252
 2426SOL     OW18913   1.950   3.070   7.869 -0.0509 -0.0931  0.1604
 2426SOL    HW118914   1.994   3.150   7.898  0.1085 -0.6542  1.4747
 2426SOL    HW218915   1.967   3.028   7.953 -0.4840 -0.1059  0.2420
 2427SOL     OW18916   3.519   2.313   5.368  0.1952 -0.3929  0.0472
 2427SOL    HW118917   3.469   2.328   5.448 -1.0615 -1.7304 -0.4682
 2427SOL    HW218918   3.485   2.226   5.348 -0.5928  0.4440 -2.3454
 2428SOL     OW18919   1.907   0.438   3.840  0.1611 -0.1134 -0.5660
 2428SOL    HW118920   1.931   0.346   3.837 -0.6573 -0.3167 -1.1175
 2428SOL    HW218921   1.887   0.450   3.933 -2.0541 -2.4061 -0.7518
 2429SOL     OW18922   2.315   2.319   2.436 -0.0804 -0.5429  0.2501
 2429SOL    HW118923   2.295   2.331   2.529 -0.9036  0.9797 -0.1262
 2429SOL    HW218924   2.237   2.272   2.407  1.1902 -1.0905 -2.2726
 2430SOL     OW18925   1.878   2.586   6.722  0.0530  0.2897  0.4266
 2430SOL    HW118926   1.961   2.541   6.736  0.0526  0.1910  0.1151
 2430SOL    HW218927   1.834   2.556   6.802 -0.4998 -1.4207 -0.5124
 2431SOL     OW18928   1.630   4.251  15.063 -0.0747  0.2570  0.1578
 2431SOL    HW118929   1.703   4.278  15.118 -1.8443 -0.7925  2.9929
 2431SOL    HW218930   1.680   4.195  15.003 -0.0100  0.9901 -0.4691
 2432SOL     OW18931   3.679   3.629   7.059 -0.6171 -0.2912  0.3864
 2432SOL    HW118932   3.634   3.640   6.975 -1.0287  0.3550  0.6982
 2432SOL    HW218933   3.665   3.715   7.099  1.7134 -0.6763  2.0067
 2433SOL     OW18934   0.006   1.871   7.258 -0.5828 -0.0243  0.4763
 2433SOL    HW118935   4.677   1.931   7.275  0.5232  1.1551  0.9603
 2433SOL    HW218936   4.700   1.789   7.257 -2.0916  0.9427 -2.4759
 2434SOL     OW18937   0.956   4.337   8.105  0.1661  0.2180 -0.0194
 2434SOL    HW118938   1.034   4.299   8.146  0.6343  2.2565  0.9870
 2434SOL    HW218939   0.942   4.397   8.178 -0.1762 -0.1195  0.1877
 2435SOL     OW18940   1.084   2.643   6.618 -0.0049 -0.0489 -0.0107
 2435SOL    HW118941   1.150   2.660   6.552 -0.4947 -1.4265 -0.8574
 2435SOL    HW218942   1.022   2.714   6.602  0.5806  0.7183  1.0919
 2436SOL     OW18943   4.510   3.631   4.115  0.3297 -0.2702  0.3236
 2436SOL    HW118944   4.452   3.584   4.175  0.6382 -0.0357  0.8063
 2436SOL    HW218945   4.510   3.723   4.144 -0.5704 -0.4052  0.7634
 2437SOL     OW18946   1.718   1.937   1.243 -0.2716 -0.4477 -0.2044
 2437SOL    HW118947   1.797   1.886   1.225 -0.2670 -0.5083 -0.0166
 2437SOL    HW218948   1.677   1.924   1.158  1.4949 -1.6522 -0.8845
 2438SOL     OW18949   2.315   2.762   7.816 -0.5633 -0.0668 -0.6130
 2438SOL    HW118950   2.280   2.851   7.820 -0.7914 -0.2046  0.4193
 2438SOL    HW218951   2.379   2.784   7.749 -1.9083  1.6543 -1.3302
 2439SOL     OW18952   0.436   0.553  11.362 -0.0622  0.1338  0.1419
 2439SOL    HW118953   0.465   0.619  11.425  1.1239 -0.3043  0.0506
 2439SOL    HW218954   0.514   0.536  11.309  0.2020  0.8623  0.2971
 2440SOL     OW18955   1.474   0.754   6.384 -0.1716  0.0400 -0.0515
 2440SOL    HW118956   1.419   0.677   6.372 -0.6204  0.1631  1.2196
 2440SOL    HW218957   1.495   0.752   6.477 -1.6475 -0.7923  0.2574
 2441SOL     OW18958   1.873   2.306   9.457  0.3058 -0.0861  0.1540
 2441SOL    HW118959   1.947   2.320   9.399  0.0368  1.9733  0.2919
 2441SOL    HW218960   1.901   2.231   9.510 -0.4590  1.1755  2.3714
 2442SOL     OW18961   4.438   0.596   6.289  0.2862  0.1269 -0.0388
 2442SOL    HW118962   4.481   0.543   6.222 -0.9392  0.1175 -0.8100
 2442SOL    HW218963   4.482   0.554   6.364 -0.4296 -0.1131  0.2501
 2443SOL     OW18964   0.281   3.915  15.560 -0.0129  0.1488  0.2046
 2443SOL    HW118965   0.298   3.975  15.632  3.4293 -1.8214  1.0756
 2443SOL    HW218966   0.193   3.878  15.568 -0.3589  1.4639  2.6164
 2444SOL     OW18967   4.159   2.814   2.388 -0.3717 -0.1449 -0.1939
 2444SOL    HW118968   4.094   2.786   2.324 -0.5622 -1.9681  0.7834
 2444SOL    HW218969   4.200   2.896   2.361 -2.1549  0.6839 -0.3591
 2445SOL     OW18970   2.999   3.403   8.689  0.2621 -0.4918  0.1152
 2445SOL    HW118971   2.935   3.331   8.687 -0.0049 -0.2845  1.8173
 2445SOL    HW218972   3.080   3.353   8.674  0.7303  0.4066 -0.3871
 2446SOL     OW18973   2.387   4.244   9.851 -0.3002 -0.4448 -0.0842
 2446SOL    HW118974   2.358   4.320   9.801  0.3445  0.1849  0.4990
 2446SOL    HW218975   2.302   4.210   9.877 -0.8880  1.8592  1.0203
 2447SOL     OW18976   1.374   1.686  17.563 -0.2577  0.0895 -0.1465
 2447SOL    HW118977   1.279   1.693  17.558 -0.2917 -0.9038 -0.9112
 2447SOL    HW218978   1.400   1.728  17.645 -2.3521  0.5160  0.2916
 2448SOL     OW18979   4.505   2.202   2.867 -0.1882 -0.2449  0.1030
 2448SOL    HW118980   4.464   2.249   2.795 -0.9158 -1.0637 -0.0126
 2448SOL    HW218981   4.505   2.111   2.836  1.1747 -0.5383  0.9212
 2449SOL     OW18982   1.403   2.950   9.233 -0.2681  0.2215  0.0147
 2449SOL    HW118983   1.395   3.036   9.276  1.7911 -0.4349  1.7696
 2449SOL    HW218984   1.361   2.961   9.148 -0.0744  1.7602  0.1065
 2450SOL     OW18985   2.006   1.459  17.174  0.3141  0.1850  0.3073
 2450SOL    HW118986   1.927   1.505  17.201  1.4791  1.5790  1.3373
 2450SOL    HW218987   2.034   1.428  17.260 -1.2924 -1.4573  0.2286
 2451SOL     OW18988   3.535   2.149  14.972  0.4605 -0.1757  0.8015
 2451SOL    HW118989   3.602   2.113  15.031 -1.7841  1.9290  4.6539
 2451SOL    HW218990   3.559   2.242  14.975  3.0756 -0.8317  0.1655
 2452SOL     OW18991   3.516   3.866   7.142  0.0966  0.0992  0.2331
 2452SOL    HW118992   3.458   3.937   7.169 -0.1236  0.0037  0.0170
 2452SOL    HW218993   3.543   3.829   7.226 -2.4104 -0.0246  0.9746
 2453SOL     OW18994   4.711   3.452   9.925 -0.1313 -0.3901 -0.9028
 2453SOL    HW118995   0.023   3.405   9.863 -2.0176  1.0059 -3.6229
 2453SOL    HW218996   4.643   3.385   9.934 -0.8841  0.5044  0.0595
 2454SOL     OW18997   4.038   3.030   8.779  0.0728 -0.4038 -0.2163
 2454SOL    HW118998   4.026   3.016   8.873 -1.4266 -0.3136 -0.3977
 2454SOL    HW218999   3.950   3.009   8.748 -0.5037  1.2641  0.2880
 2455SOL     OW19000   0.430   0.729   7.103  0.0998 -0.1358 -0.1562
 2455SOL    HW119001   0.352   0.739   7.048 -1.4063  0.7408  2.1653
 2455SOL    HW219002   0.415   0.776   7.185  0.2827 -0.4009  0.0316
 2456SOL     OW19003   2.155   4.679   1.787 -0.1899 -0.5565 -0.3258
 2456SOL    HW119004   2.179   0.028   1.783  0.2164 -0.6607 -0.3145
 2456SOL    HW219005   2.125   4.671   1.696  1.1933  0.0898 -0.8298
 2457SOL     OW19006   2.833   3.198   6.932 -0.1179 -0.4985 -0.1357
 2457SOL    HW119007   2.916   3.183   6.887  0.8256  0.8918  1.1303
 2457SOL    HW219008   2.866   3.184   7.021  2.2347  2.5785 -0.5205
 2458SOL     OW19009   1.104   1.452   5.314 -0.0361  0.1380  0.0401
 2458SOL    HW119010   1.092   1.437   5.407  1.6952  0.8079  0.3858
 2458SOL    HW219011   1.138   1.369   5.280  1.2344  0.2659  0.9860
 2459SOL     OW19012   0.054   4.609   1.459 -0.3981  0.0590  0.6939
 2459SOL    HW119013   0.125   4.637   1.401 -1.1126  0.7175  0.1396
 2459SOL    HW219014   0.102   4.564   1.528 -0.2462  1.1717  1.3199
 2460SOL     OW19015   1.159   3.718  10.030 -0.6419  0.2888  0.4193
 2460SOL    HW119016   1.187   3.804  10.062 -0.7945  0.0224  1.2722
 2460SOL    HW219017   1.066   3.740  10.031 -0.6419  0.2283  1.8417
 2461SOL     OW19018   2.987   2.833  17.418 -0.1341 -0.3844 -0.3050
 2461SOL    HW119019   2.948   2.915  17.450 -2.9441 -1.0646 -1.9345
 2461SOL    HW219020   3.037   2.805  17.495  0.2531 -0.9425 -0.7604
 2462SOL     OW19021   4.260   2.730   7.933 -0.7695 -0.2693  0.3273
 2462SOL    HW119022   4.210   2.713   8.013 -1.5676 -1.6463 -0.4704
 2462SOL    HW219023   4.325   2.660   7.934 -1.6019 -1.0354  0.1500
 2463SOL     OW19024   1.681   3.079   5.020  0.6150 -0.4279 -0.4367
 2463SOL    HW119025   1.721   3.087   4.934 -1.0561  0.9662 -1.0627
 2463SOL    HW219026   1.647   3.165   5.041 -0.1364 -0.9698  0.5888
 2464SOL     OW19027   3.017   0.121   3.987  0.0335 -0.1771  0.2836
 2464SOL    HW119028   3.101   0.117   3.940  0.3331 -1.0069  0.8850
 2464SOL    HW219029   2.989   0.031   4.001 -3.3569  0.6698 -1.0448
 2465SOL     OW19030   3.107   2.684   2.139  0.2503  0.4331  0.1974
 2465SOL    HW119031   3.188   2.671   2.189  0.2640  0.1650  0.1098
 2465SOL    HW219032   3.059   2.745   2.195  1.1247 -1.0044  2.5184
 2466SOL     OW19033   2.444   0.521   3.491 -0.0101  0.1615  0.2529
 2466SOL    HW119034   2.438   0.613   3.463 -0.0844 -0.1974 -0.9386
 2466SOL    HW219035   2.353   0.491   3.493  1.2450 -3.6647 -0.6186
 2467SOL     OW19036   3.239   0.176  10.179 -0.1742 -0.6808 -0.0543
 2467SOL    HW119037   3.204   0.147  10.095  1.7558  1.7164 -1.6949
 2467SOL    HW219038   3.317   0.121  10.189 -0.0833 -0.5785 -0.1909
 2468SOL     OW19039   2.353   4.634  13.655  0.1191  1.0113  0.0534
 2468SOL    HW119040   2.407   4.612  13.732 -1.2366  0.2769  0.7825
 2468SOL    HW219041   2.405   4.700  13.608 -0.7889  0.6286 -1.4677
 2469SOL     OW19042   0.987   3.979   1.708  0.1104 -0.1143 -0.1711
 2469SOL    HW119043   1.026   4.066   1.715 -0.3150  0.1525 -1.1258
 2469SOL    HW219044   1.022   3.941   1.628 -2.0462  2.0225 -2.1125
 2470SOL     OW19045   3.549   0.093   7.557  0.1578 -0.2160  0.1199
 2470SOL    HW119046   3.532   0.108   7.650 -2.3256 -0.6400 -0.2659
 2470SOL    HW219047   3.630   0.142   7.543 -1.7560  3.0652  0.5427
 2471SOL     OW19048   0.275   1.912   1.684 -0.1575  0.9188 -0.3098
 2471SOL    HW119049   0.240   1.981   1.740  1.5300  1.2872  0.2911
 2471SOL    HW219050   0.345   1.876   1.738 -1.8801  0.0473  1.3242
 2472SOL     OW19051   1.152   0.626   3.925 -0.1726 -0.3647 -0.1383
 2472SOL    HW119052   1.081   0.616   3.861  0.4067 -1.2524 -0.6579
 2472SOL    HW219053   1.137   0.542   3.968  2.7515 -1.4985 -1.2833
 2473SOL     OW19054   3.838   4.351   6.537 -0.5487 -0.7224  0.7388
 2473SOL    HW119055   3.769   4.414   6.516  0.2132 -0.4061 -0.8292
 2473SOL    HW219056   3.849   4.369   6.631  1.8054 -1.6393  0.6356
 2474SOL     OW19057   3.653   4.242   8.518 -0.2047 -0.3586  0.9040
 2474SOL    HW119058   3.619   4.154   8.536 -1.3929  0.3778  2.2961
 2474SOL    HW219059   3.745   4.222   8.536  0.1514  2.0431  1.7450
 2475SOL     OW19060   1.701   0.622   8.140 -0.0826 -0.1599 -0.5635
 2475SOL    HW119061   1.703   0.531   8.110  0.7432 -0.2394 -0.2823
 2475SOL    HW219062   1.609   0.617   8.164  1.2149  0.0901  4.5190
 2476SOL     OW19063   3.067   2.894   1.084 -0.4714 -0.2209 -0.2707
 2476SOL    HW119064   3.149   2.943   1.089  0.3095 -2.0043  4.5170
 2476SOL    HW219065   3.070   2.848   1.000 -0.0428 -0.2336 -0.2454
 2477SOL     OW19066   1.651   4.291   0.556 -0.4515  0.5996  1.1487
 2477SOL    HW119067   1.665   4.311   0.649  1.4545  0.7781  0.8191
 2477SOL    HW219068   1.585   4.353   0.526  0.6890  0.7820 -0.9754
 2478SOL     OW19069   2.071   4.718  17.310  0.9871 -0.4716 -0.5662
 2478SOL    HW119070   2.110   4.712  17.223 -0.2647 -0.9794 -1.0891
 2478SOL    HW219071   2.014   0.051  17.306  1.8117  0.2425  1.4367
 2479SOL     OW19072   2.991   0.023   6.866  0.4128 -0.0069  0.3602
 2479SOL    HW119073   3.059   0.066   6.918 -0.2360 -0.8380  1.8908
 2479SOL    HW219074   3.047   4.730   6.797 -0.1102 -0.3677  0.1315
 2480SOL     OW19075   4.740   1.560   1.589 -0.5631 -0.1533 -0.0962
 2480SOL    HW119076   4.693   1.558   1.672  1.2214  0.8524  0.9152
 2480SOL    HW219077   0.041   1.644   1.595  1.6204 -1.0952 -2.6571
 2481SOL     OW19078   2.738   3.508   1.120 -0.1143  0.3425  0.6263
 2481SOL    HW119079   2.739   3.573   1.190 -0.3367  0.4255  0.5491
 2481SOL    HW219080   2.650   3.528   1.091  0.1332  0.9950  0.3302
 2482SOL     OW19081   0.097   4.306   6.291 -0.0213 -0.1317 -0.2729
 2482SOL    HW119082   0.031   4.295   6.360  1.8852 -3.1306  1.0340
 2482SOL    HW219083   0.160   4.365   6.331  1.2076 -0.7060 -1.3887
 2483SOL     OW19084   0.743   0.254   7.777  0.0212 -0.4776 -0.2490
 2483SOL    HW119085   0.783   0.340   7.764 -0.1718 -0.5612 -1.3716
 2483SOL    HW219086   0.728   0.252   7.872  0.0380 -1.0961 -0.2579
 2484SOL     OW19087   1.623   1.191   7.658 -0.1044  0.5518  0.7953
 2484SOL    HW119088   1.669   1.251   7.600 -2.7489  0.7078 -1.1289
 2484SOL    HW219089   1.614   1.240   7.740 -0.9813  2.2235 -0.3263
 2485SOL     OW19090   2.166   4.116   7.394 -1.0546 -0.0421 -0.1473
 2485SOL    HW119091   2.153   4.171   7.317 -0.9356  1.1788  0.7089
 2485SOL    HW219092   2.162   4.025   7.365  1.4930 -0.0148 -0.6180
 2486SOL     OW19093   1.934   4.614   9.307 -0.5046  0.0290 -0.4829
 2486SOL    HW119094   1.991   4.642   9.236 -1.2129 -1.2574 -1.5672
 2486SOL    HW219095   1.850   4.625   9.263 -0.5942  0.2452 -0.2582
 2487SOL     OW19096   4.044   0.058   5.926  0.5196  0.3727  0.0828
 2487SOL    HW119097   3.953   0.060   5.955 -0.0498 -1.4205 -1.5347
 2487SOL    HW219098   4.090   4.726   5.963  0.8280  0.8564  0.6877
 2488SOL     OW19099   0.715   0.851   4.785  0.5439  0.2154 -0.1017
 2488SOL    HW119100   0.657   0.901   4.728  1.0808 -1.6882 -2.3413
 2488SOL    HW219101   0.799   0.875   4.745  0.3685 -0.0921 -0.6603
 2489SOL     OW19102   0.475   1.911   7.055 -0.0047  0.0773 -0.5766
 2489SOL    HW119103   0.388   1.925   7.019 -0.8574  1.8217  2.2094
 2489SOL    HW219104   0.532   1.925   6.979 -1.2093  2.2607 -1.0558
 2490SOL     OW19105   4.502   0.996   2.240 -0.2007 -0.0966 -0.3848
 2490SOL    HW119106   4.508   1.029   2.150  3.2274  0.2959  0.0020
 2490SOL    HW219107   4.474   0.908   2.216  0.5224 -0.6850  0.9875
 2491SOL     OW19108   3.269   2.113  14.005  0.1421 -1.1232  0.6470
 2491SOL    HW119109   3.342   2.149  13.955 -0.5557  1.6231  1.6332
 2491SOL    HW219110   3.216   2.191  14.023 -1.3077 -1.9757  0.0645
 2492SOL     OW19111   3.778   4.119   1.375  0.2850  0.2692  0.9351
 2492SOL    HW119112   3.762   4.185   1.308  0.4249 -2.5526 -1.8964
 2492SOL    HW219113   3.694   4.092   1.411  0.1978 -0.1839  0.3936
 2493SOL     OW19114   4.740   2.590   9.316  0.1939 -0.5385 -0.3216
 2493SOL    HW119115   0.010   2.648   9.241 -1.9510 -1.4885 -1.4577
 2493SOL    HW219116   0.085   2.577   9.348  0.3126 -1.1757 -0.9069
 2494SOL     OW19117   3.865   2.489   2.030 -0.2804 -0.1563 -0.1898
 2494SOL    HW119118   3.817   2.458   2.107 -1.7500 -1.5960 -1.6941
 2494SOL    HW219119   3.801   2.553   1.996 -0.0457 -0.6876 -1.6081
 2495SOL     OW19120   0.881   0.814   1.955 -0.0347 -0.8049 -0.7117
 2495SOL    HW119121   0.902   0.830   2.047  0.3526 -0.3614 -0.8771
 2495SOL    HW219122   0.793   0.777   1.958 -0.1622 -0.4042  0.5283
 2496SOL     OW19123   1.531   1.032   1.450  0.3335 -0.1008 -0.1929
 2496SOL    HW119124   1.456   0.973   1.462 -1.4075  2.6187  2.2829
 2496SOL    HW219125   1.479   1.105   1.416  0.3068 -0.5519 -1.1164
 2497SOL     OW19126   4.298   0.297   7.884  0.0818 -0.4274  0.2958
 2497SOL    HW119127   4.230   0.233   7.864  0.7062 -1.3347  1.0621
 2497SOL    HW219128   4.245   0.370   7.913  0.2579 -0.3781  0.4942
 2498SOL     OW19129   4.556   0.231   6.381 -0.4857 -0.3176 -0.3887
 2498SOL    HW119130   4.552   0.317   6.424 -1.0021  0.2918 -1.6637
 2498SOL    HW219131   4.463   0.209   6.381 -0.6824  0.5146 -1.8656
 2499SOL     OW19132   1.292   1.404  12.810 -0.0954 -0.0009  0.1107
 2499SOL    HW119133   1.246   1.420  12.728  3.7958 -3.5900 -2.8091
 2499SOL    HW219134   1.224   1.414  12.876  1.2270 -1.6690  1.7325
 2500SOL     OW19135   3.893   1.030   4.849 -0.3445  0.0597 -0.4481
 2500SOL    HW119136   3.800   1.053   4.855 -0.5413 -1.1854  1.1195
 2500SOL    HW219137   3.918   1.107   4.798 -1.8966  0.2832 -0.8811
 2501SOL     OW19138   3.402   2.725   3.411 -0.7612 -0.2212  0.3073
 2501SOL    HW119139   3.365   2.692   3.329 -1.6030 -1.8735  1.3431
 2501SOL    HW219140   3.380   2.642   3.452  0.4101 -1.4399 -1.5288
 2502SOL     OW19141   0.951   3.189   4.326  0.2014 -0.3238 -0.2356
 2502SOL    HW119142   0.934   3.108   4.278  0.9424  0.3280 -1.6011
 2502SOL    HW219143   0.875   3.171   4.380 -1.0335  1.5200 -1.3586
 2503SOL     OW19144   2.358   3.995   5.971 -0.0685 -0.3129  0.1606
 2503SOL    HW119145   2.272   4.001   6.014 -0.0815  1.4090 -0.0985
 2503SOL    HW219146   2.343   4.000   5.877 -0.6468 -0.6189  0.2335
 2504SOL     OW19147   0.831   3.379   9.161  0.4272 -0.8742  0.3765
 2504SOL    HW119148   0.779   3.459   9.170  2.1194  0.3149 -0.4719
 2504SOL    HW219149   0.764   3.317   9.133  0.6253 -1.1110  0.4297
 2505SOL     OW19150   0.127   3.282  16.615 -0.4397  0.0334 -0.2984
 2505SOL    HW119151   0.055   3.277  16.677  1.3542 -0.5107  1.7701
 2505SOL    HW219152   0.184   3.220  16.662 -0.5898  0.7105  0.7642
 2506SOL     OW19153   3.600   0.589  12.686  0.2356 -0.7249 -0.3346
 2506SOL    HW119154   3.614   0.551  12.773 -1.5979 -0.5945  0.0108
 2506SOL    HW219155   3.550   0.669  12.702 -0.1747 -0.9613 -0.4419
 2507SOL     OW19156   0.937   3.801   8.348 -0.3299 -0.0259 -0.1445
 2507SOL    HW119157   0.942   3.889   8.385 -0.3019  0.1489 -0.5619
 2507SOL    HW219158   0.939   3.817   8.254 -0.2314 -0.9846 -0.2979
 2508SOL     OW19159   3.135   0.375   1.223  0.3112 -0.1363  0.3498
 2508SOL    HW119160   3.064   0.404   1.279  0.8358  0.7901  0.5327
 2508SOL    HW219161   3.079   0.327   1.162  0.0088 -0.2711  0.7366
 2509SOL     OW19162   0.532   1.664   9.625 -0.2002  0.2438  0.1081
 2509SOL    HW119163   0.465   1.721   9.663 -1.7630 -1.8300  0.4910
 2509SOL    HW219164   0.475   1.616   9.565  0.4841  0.8269 -1.0069
 2510SOL     OW19165   0.089   4.354   4.008 -0.2409  0.1655  0.1469
 2510SOL    HW119166   4.744   4.340   4.040 -0.0146  2.1756  1.6240
 2510SOL    HW219167   0.088   4.284   3.942 -0.4212  1.5976 -1.3636
 2511SOL     OW19168   3.873   0.296   7.876 -0.2316 -0.1607 -0.3010
 2511SOL    HW119169   3.911   0.208   7.887  2.1588  1.0538  1.1162
 2511SOL    HW219170   3.923   0.323   7.799  0.0057 -1.3187 -0.5521
 2512SOL     OW19171   2.129   0.224   5.533 -0.0643 -0.2307 -0.0006
 2512SOL    HW119172   2.122   0.130   5.545  1.3724 -0.5647 -1.7020
 2512SOL    HW219173   2.218   0.247   5.558  0.2556 -0.0595 -1.2816
 2513SOL     OW19174   2.085   2.758   2.928 -0.5736  0.0888 -0.3337
 2513SOL    HW119175   2.070   2.844   2.968  1.7774  0.8277 -1.0435
 2513SOL    HW219176   2.121   2.714   3.005  1.2429 -1.6151 -2.1725
 2514SOL     OW19177   3.905   1.492   9.870  0.7377  0.4924 -0.5604
 2514SOL    HW119178   3.931   1.580   9.897  0.8698 -0.0128  0.9523
 2514SOL    HW219179   3.971   1.431   9.905  0.1769  1.0234  1.4268
 2515SOL     OW19180   1.765   2.983   0.244  0.2554  0.2206 -0.1373
 2515SOL    HW119181   1.840   2.984   0.304  0.1829  4.3944 -0.1154
 2515SOL    HW219182   1.778   3.062   0.192 -0.2524  0.6264  0.3493
 2516SOL     OW19183   0.886   3.102   6.518  0.2194  0.5700  0.3042
 2516SOL    HW119184   0.870   3.147   6.435  0.2905 -0.3434 -0.2078
 2516SOL    HW219185   0.981   3.101   6.530  0.3776 -0.6032 -1.0434
 2517SOL     OW19186   3.889   3.516   5.112  0.0446  0.2476 -0.0236
 2517SOL    HW119187   3.971   3.469   5.125  0.0605  0.6311  1.2448
 2517SOL    HW219188   3.922   3.571   5.041  1.3876 -1.5912 -0.8246
 2518SOL     OW19189   3.363   4.257   4.089  0.2461 -0.5478 -0.1162
 2518SOL    HW119190   3.391   4.236   4.177 -2.1025 -0.9508  0.5413
 2518SOL    HW219191   3.425   4.324   4.061 -0.1518 -0.0400  0.2257
 2519SOL     OW19192   3.756   2.955   9.483  0.3148  0.0019  0.5534
 2519SOL    HW119193   3.850   2.948   9.467 -0.0903 -1.4050 -1.3657
 2519SOL    HW219194   3.759   2.997   9.568  0.9908 -2.1569  1.5852
 2520SOL     OW19195   1.101   2.989  17.293  0.0139  0.0712  0.2158
 2520SOL    HW119196   1.090   3.050  17.220  2.9930  1.4445  0.9272
 2520SOL    HW219197   1.191   3.014  17.311 -0.0123  0.4496 -0.1762
 2521SOL     OW19198   3.935   4.309  10.283  0.3312 -0.1541 -0.1070
 2521SOL    HW119199   4.001   4.263  10.335  2.3149  1.8075 -0.9111
 2521SOL    HW219200   3.922   4.254  10.206 -0.9800 -0.4175  0.2935
 2522SOL     OW19201   2.866   1.566   5.382  0.0351  0.3196  0.1382
 2522SOL    HW119202   2.829   1.583   5.469  0.7282 -2.2736  0.9379
 2522SOL    HW219203   2.957   1.558   5.409  0.4044  1.7178 -0.7341
 2523SOL     OW19204   1.167   2.863   9.088 -0.7476 -0.4345  0.8951
 2523SOL    HW119205   1.075   2.837   9.081 -0.5814 -1.1957  1.5636
 2523SOL    HW219206   1.179   2.850   9.182  0.3096  3.3738  1.2753
 2524SOL     OW19207   2.994   0.055  12.349  0.5421  0.2615 -0.3481
 2524SOL    HW119208   3.057   0.118  12.315 -0.1946 -0.2608 -2.6633
 2524SOL    HW219209   2.908   0.075  12.313 -0.4255 -1.2181  1.1575
 2525SOL     OW19210   0.233   2.640   0.896 -0.2581  0.3976  0.8340
 2525SOL    HW119211   0.189   2.689   0.827 -2.6771 -2.5626  0.2722
 2525SOL    HW219212   0.184   2.660   0.975 -0.3166  1.1341  0.6114
 2526SOL     OW19213   1.270   1.201   4.679 -0.9308  0.0601 -0.6739
 2526SOL    HW119214   1.252   1.164   4.593 -0.9403 -0.6141 -0.3869
 2526SOL    HW219215   1.249   1.123   4.732 -3.0220  1.0529 -0.0782
 2527SOL     OW19216   4.555   3.382   8.546  0.0793  0.3030  0.1491
 2527SOL    HW119217   4.595   3.426   8.622  0.6537 -2.4818  1.4349
 2527SOL    HW219218   4.624   3.388   8.481 -0.1822 -2.2762 -0.3333
 2528SOL     OW19219   1.539   2.204  10.448  0.3914 -0.2723 -0.5156
 2528SOL    HW119220   1.604   2.186  10.516 -0.3655 -1.9039 -0.2181
 2528SOL    HW219221   1.471   2.233  10.509  1.6138  0.2528  0.6037
 2529SOL     OW19222   2.631   1.050   4.041  0.8772  0.2520 -0.1371
 2529SOL    HW119223   2.701   1.115   4.041  1.2229 -0.1276 -1.6529
 2529SOL    HW219224   2.571   1.110   4.085 -1.2197  0.8245 -3.7823
 2530SOL     OW19225   1.308   0.100   8.107 -0.2592 -1.0197  0.4316
 2530SOL    HW119226   1.394   0.082   8.069 -0.4245 -0.3717 -0.2388
 2530SOL    HW219227   1.314   0.060   8.193  0.9357 -0.7732  0.4702
 2531SOL     OW19228   1.321   0.413   8.664  0.1232 -0.2198  0.0038
 2531SOL    HW119229   1.250   0.377   8.717 -0.0147 -1.2496 -0.8948
 2531SOL    HW219230   1.366   0.458   8.736 -0.7088 -1.9030  1.5839
 2532SOL     OW19231   3.522   0.175   4.285  0.1903 -0.4447 -0.2222
 2532SOL    HW119232   3.538   0.254   4.338 -0.2738 -1.4322  1.3894
 2532SOL    HW219233   3.484   0.216   4.207 -2.0046 -2.2954 -0.1147
 2533SOL     OW19234   2.799   1.235   5.720  0.5139 -0.4960 -0.1997
 2533SOL    HW119235   2.870   1.238   5.655  0.9271 -2.1511  0.1742
 2533SOL    HW219236   2.778   1.142   5.728 -0.4982 -0.2799 -0.3210
 2534SOL     OW19237   3.022   3.009   7.481  0.0405  0.0375  0.4782
 2534SOL    HW119238   3.059   3.003   7.393  0.4087  1.7040  0.5236
 2534SOL    HW219239   3.036   2.919   7.512 -1.8469 -0.5714 -0.4426
 2535SOL     OW19240   2.521   0.713   8.608  0.0683 -0.1563 -0.0394
 2535SOL    HW119241   2.576   0.789   8.588 -0.2715  0.2882  0.6790
 2535SOL    HW219242   2.435   0.744   8.579  0.2102  0.1423 -0.1435
 2536SOL     OW19243   3.063   1.784  14.364  0.5717  0.0017  0.0833
 2536SOL    HW119244   3.072   1.841  14.288 -0.4717 -0.5197 -0.4239
 2536SOL    HW219245   2.972   1.778  14.391  0.8930 -0.5070  1.0612
 2537SOL     OW19246   2.872   2.975   1.256  0.2020 -0.7893 -0.4154
 2537SOL    HW119247   2.880   3.061   1.214 -0.8440  0.0424  1.0670
 2537SOL    HW219248   2.928   2.933   1.192  1.2161  0.9556 -0.6775
 2538SOL     OW19249   1.365   3.423   5.402  0.0046  0.1303 -0.2037
 2538SOL    HW119250   1.306   3.426   5.476  0.0504  2.1532 -0.2525
 2538SOL    HW219251   1.436   3.363   5.427 -2.4251 -2.2168  1.0612
 2539SOL     OW19252   1.454   3.856   6.481 -0.1007  0.3639 -0.2880
 2539SOL    HW119253   1.535   3.890   6.518  0.4884 -1.2518 -0.0808
 2539SOL    HW219254   1.394   3.877   6.552  1.2111  0.3132  0.8430
 2540SOL     OW19255   2.825   3.028   3.940  0.6081  0.5008  0.0591
 2540SOL    HW119256   2.834   3.118   3.909 -0.3787  0.7493  0.4791
 2540SOL    HW219257   2.766   3.039   4.015  1.3235  0.0313  0.6795
 2541SOL     OW19258   1.620   0.686   4.367 -0.2294 -0.0222  0.4456
 2541SOL    HW119259   1.678   0.647   4.433  0.9991  0.6800 -0.2156
 2541SOL    HW219260   1.585   0.759   4.417  0.6357  1.0012 -0.4461
 2542SOL     OW19261   0.171   2.434   3.261  0.4294  0.0934  0.0193
 2542SOL    HW119262   0.225   2.361   3.232  0.2583 -0.1698  0.3690
 2542SOL    HW219263   0.172   2.489   3.182 -0.5565  1.9166  1.2622
 2543SOL     OW19264   0.917   4.310   5.037  0.4755  0.5821  0.3401
 2543SOL    HW119265   0.843   4.333   5.093 -2.2113 -2.4154 -2.0103
 2543SOL    HW219266   0.871   4.250   4.978  3.3880 -0.2354 -1.0753
 2544SOL     OW19267   2.389   0.969   5.588 -0.2494  0.2096  0.0848
 2544SOL    HW119268   2.309   0.918   5.575 -0.1548 -0.4949  2.1947
 2544SOL    HW219269   2.456   0.901   5.579 -0.8608 -0.1235 -1.8535
 2545SOL     OW19270   2.067   1.428   5.802 -0.2043  0.7093  0.3888
 2545SOL    HW119271   2.017   1.347   5.803 -0.5207  0.8467 -2.0671
 2545SOL    HW219272   2.130   1.405   5.870  0.1052  0.1803 -0.0786
 2546SOL     OW19273   1.584   4.061   4.207  0.4259 -0.3452 -0.2395
 2546SOL    HW119274   1.612   3.989   4.265  0.2627  0.4864  0.8772
 2546SOL    HW219275   1.603   4.034   4.117  1.5615  0.6022 -0.2816
 2547SOL     OW19276   1.509   3.506  10.166  0.0356  0.4312 -0.1723
 2547SOL    HW119277   1.485   3.598  10.175 -0.9294  0.1914 -0.2840
 2547SOL    HW219278   1.440   3.485  10.103 -1.0318 -1.2773  1.5487
 2548SOL     OW19279   1.493   2.117   3.760 -0.5161  0.4361 -0.0490
 2548SOL    HW119280   1.570   2.086   3.807 -1.1944 -0.1022  0.7103
 2548SOL    HW219281   1.498   2.209   3.787  1.9298 -0.0253  1.0221
 2549SOL     OW19282   4.541   2.138   7.716 -0.6097  0.4958 -0.0198
 2549SOL    HW119283   4.636   2.139   7.702 -0.6144 -0.2327 -0.0643
 2549SOL    HW219284   4.540   2.044   7.699 -1.3536  0.0213  2.6694
 2550SOL     OW19285   3.784   4.621   2.459  0.7122  0.2949  0.1273
 2550SOL    HW119286   3.739   4.677   2.395 -0.2044 -1.5273 -0.8502
 2550SOL    HW219287   3.861   4.674   2.479 -0.0906  1.6643 -0.3773
 2551SOL     OW19288   2.108   3.045   2.771  0.1355  0.2963  0.2215
 2551SOL    HW119289   2.098   3.139   2.755  0.8486  0.1563 -1.0167
 2551SOL    HW219290   2.128   3.029   2.863 -1.2893 -1.3901  0.2497
 2552SOL     OW19291   4.259   4.212  13.037 -0.3091  0.6112 -0.7984
 2552SOL    HW119292   4.241   4.306  13.031  1.0825  0.8500 -1.1935
 2552SOL    HW219293   4.167   4.184  13.041 -1.4437  4.2651 -0.9635
 2553SOL     OW19294   2.971   3.209  12.384  0.6896 -0.2167  0.4184
 2553SOL    HW119295   3.054   3.256  12.380  0.6829 -0.2981 -0.6364
 2553SOL    HW219296   2.988   3.153  12.460  0.3082 -0.5009  0.2908
 2554SOL     OW19297   1.521   2.870  11.687  0.5331 -0.3874  0.3091
 2554SOL    HW119298   1.614   2.891  11.680  0.1171  1.3280 -0.0721
 2554SOL    HW219299   1.484   2.938  11.630  0.7980 -0.4302  0.0862
 2555SOL     OW19300   2.029   1.036   6.166 -0.7750  0.1846 -0.6400
 2555SOL    HW119301   2.085   0.965   6.135  0.7607  0.2665  1.8985
 2555SOL    HW219302   2.082   1.114   6.147 -1.6367  0.7859 -0.5953
 2556SOL     OW19303   1.983   1.429  16.205 -0.1081  0.4668 -0.2640
 2556SOL    HW119304   2.010   1.362  16.269  2.0257 -1.5640 -3.2418
 2556SOL    HW219305   1.985   1.505  16.262 -1.3750  0.2631  0.0516
 2557SOL     OW19306   1.084   4.252  10.098 -0.0890  0.2297  0.1756
 2557SOL    HW119307   1.087   4.177  10.158 -0.1578  0.0915  0.0032
 2557SOL    HW219308   1.104   4.205  10.018 -0.2565 -1.6197  1.2145
 2558SOL     OW19309   1.339   0.185   2.644 -0.3043  0.1213 -0.1989
 2558SOL    HW119310   1.255   0.156   2.680  0.7434 -1.4566  0.9987
 2558SOL    HW219311   1.386   0.113   2.687 -1.3242 -0.2497  0.3078
 2559SOL     OW19312   2.220   2.432  14.334 -0.4457  0.3175  0.2332
 2559SOL    HW119313   2.279   2.497  14.296 -0.5027 -0.3536 -1.0066
 2559SOL    HW219314   2.279   2.360  14.355  1.5205  1.6221 -0.8171
 2560SOL     OW19315   1.133   3.258   8.998 -0.3956 -0.0173  0.1535
 2560SOL    HW119316   1.120   3.340   8.952  2.2121 -0.0551 -0.6652
 2560SOL    HW219317   1.180   3.204   8.935 -1.4642 -0.6135 -0.1404
 2561SOL     OW19318   4.593   2.811   4.210 -0.5799  0.1690  0.4256
 2561SOL    HW119319   4.508   2.774   4.186 -0.6981  1.0924 -0.5496
 2561SOL    HW219320   4.593   2.788   4.303  3.3655 -0.4142  0.2938
 2562SOL     OW19321   1.945   2.152  15.762  0.2404  0.7955 -0.3705
 2562SOL    HW119322   1.891   2.223  15.727 -0.8314  0.5784  0.8747
 2562SOL    HW219323   1.907   2.078  15.715  0.0668 -0.9326  2.5747
 2563SOL     OW19324   2.038   1.203   3.409 -0.4749 -0.0419  0.0671
 2563SOL    HW119325   2.003   1.135   3.352 -0.5783  0.3631 -0.3544
 2563SOL    HW219326   2.001   1.183   3.495 -0.5834  0.0981  0.0530
 2564SOL     OW19327   4.207   3.037   5.204  0.7462  0.4290  0.2748
 2564SOL    HW119328   4.131   2.983   5.182  2.5694 -2.2150  0.4447
 2564SOL    HW219329   4.186   3.070   5.291 -1.0962  1.1958 -0.4623
 2565SOL     OW19330   4.377   1.539   8.689  0.1999  0.1912  0.2962
 2565SOL    HW119331   4.390   1.528   8.784  4.8395 -0.6634 -0.4544
 2565SOL    HW219332   4.391   1.632   8.670  0.6128  0.3664  1.4521
 2566SOL     OW19333   2.019   0.353  15.208 -0.4373 -1.2115  0.4432
 2566SOL    HW119334   2.102   0.401  15.213  2.1960 -5.8703  0.6019
 2566SOL    HW219335   2.056   0.267  15.226 -0.7380 -0.7467  3.2971
 2567SOL     OW19336   0.992   0.177   3.706 -0.2479  0.2044 -0.9873
 2567SOL    HW119337   0.955   0.245   3.650 -2.1812  1.2796  1.5523
 2567SOL    HW219338   0.985   0.092   3.662  2.0458  0.7036 -2.2524
 2568SOL     OW19339   2.484   2.131   3.556  0.1841  0.4382  0.2469
 2568SOL    HW119340   2.513   2.043   3.579 -0.6648 -0.2303 -1.2487
 2568SOL    HW219341   2.475   2.118   3.461 -0.7298  0.7404  0.2961
 2569SOL     OW19342   0.251   2.934   7.585  0.2190 -0.4225 -0.3345
 2569SOL    HW119343   0.292   2.854   7.550  1.3846  0.8731 -1.9070
 2569SOL    HW219344   0.284   3.000   7.525 -0.9331  0.1854 -0.2834
 2570SOL     OW19345   0.098   1.351   2.444  0.3804 -0.3745 -0.7348
 2570SOL    HW119346   0.134   1.298   2.515 -3.1278  0.9207  1.9937
 2570SOL    HW219347   0.175   1.369   2.391  1.1730  1.0308  0.9048
 2571SOL     OW19348   4.681   3.184  15.623  0.0964 -0.8906  0.1631
 2571SOL    HW119349   4.623   3.233  15.565  0.2158 -0.2414  0.5861
 2571SOL    HW219350   4.744   3.149  15.560  0.1538  1.2289 -0.9308
 2572SOL     OW19351   1.166   1.490   3.697  0.4670 -0.4005 -0.6020
 2572SOL    HW119352   1.206   1.443   3.770 -0.7032  1.5173  1.3132
 2572SOL    HW219353   1.166   1.580   3.730 -2.6289 -0.2538 -0.9531
 2573SOL     OW19354   1.341   0.694   3.548  0.4051  0.3229 -0.0798
 2573SOL    HW119355   1.260   0.702   3.498  0.8899  1.1924 -0.7457
 2573SOL    HW219356   1.348   0.603   3.574  0.4763  0.9691  2.1850
 2574SOL     OW19357   2.480   3.682  10.132 -0.0440  0.0637  0.8062
 2574SOL    HW119358   2.418   3.699  10.202 -0.3721 -1.0685  0.7976
 2574SOL    HW219359   2.567   3.697  10.169  0.5258  0.5401 -0.7204
 2575SOL     OW19360   0.720   3.401   3.183  0.4518 -0.3862 -0.2599
 2575SOL    HW119361   0.795   3.404   3.242  1.8579  1.1597 -2.1513
 2575SOL    HW219362   0.769   3.383   3.103 -1.0636  0.2974 -1.3360
 2576SOL     OW19363   3.294   3.143  12.150  0.0435 -0.1775  0.9533
 2576SOL    HW119364   3.372   3.170  12.101 -0.7621 -1.9667 -1.3111
 2576SOL    HW219365   3.293   3.204  12.224  0.6992 -0.7561  1.4374
 2577SOL     OW19366   0.037   2.862  14.823 -0.0432 -0.0165  0.0746
 2577SOL    HW119367   0.126   2.896  14.812 -0.2784  0.0233 -1.7652
 2577SOL    HW219368   0.023   2.819  14.738 -1.2022 -0.3199  0.4186
 2578SOL     OW19369   2.083   2.878   2.571  0.3738  0.3913  0.1816
 2578SOL    HW119370   2.096   2.953   2.629 -0.9879  1.2719 -0.6480
 2578SOL    HW219371   2.165   2.833   2.591  0.4701 -0.1816 -1.4910
 2579SOL     OW19372   3.833   4.568  10.726  0.1757  0.0283  0.2312
 2579SOL    HW119373   3.867   4.628  10.660 -1.6937  0.7285 -0.1135
 2579SOL    HW219374   3.746   4.549  10.691 -0.1078  1.2878  0.2301
 2580SOL     OW19375   2.433   1.460  14.555  0.2898  0.0810 -0.1061
 2580SOL    HW119376   2.435   1.433  14.647 -0.4900  0.8095  0.1267
 2580SOL    HW219377   2.354   1.512  14.540 -0.3116 -0.8386 -0.1231
 2581SOL     OW19378   2.613   2.506   1.357  0.4672 -0.1283  0.8325
 2581SOL    HW119379   2.559   2.465   1.290  1.1461 -0.3282  0.4079
 2581SOL    HW219380   2.546   2.519   1.425 -0.0306 -1.2420  0.5476
 2582SOL     OW19381   0.832   0.678   9.189 -0.8280  0.0663 -0.0800
 2582SOL    HW119382   0.738   0.685   9.177 -0.8110  1.1691  0.4096
 2582SOL    HW219383   0.857   0.687   9.097 -2.0096  0.6197 -0.3475
 2583SOL     OW19384   2.452   0.517   8.014 -0.0507  0.0572 -0.3143
 2583SOL    HW119385   2.451   0.426   8.041  0.5406 -0.1158 -0.8884
 2583SOL    HW219386   2.439   0.497   7.921  1.6764 -1.0085 -0.3294
 2584SOL     OW19387   1.499   3.621   4.223  0.4156 -0.6074 -0.6873
 2584SOL    HW119388   1.574   3.672   4.253 -0.0815 -0.4716  0.3220
 2584SOL    HW219389   1.485   3.673   4.145 -1.1915  0.4088  0.2934
 2585SOL     OW19390   3.925   3.638   1.904 -0.0821 -0.0604 -0.1983
 2585SOL    HW119391   3.997   3.578   1.924 -0.7075 -0.4572  0.8549
 2585SOL    HW219392   3.882   3.592   1.832  1.6391 -0.3654 -1.0462
 2586SOL     OW19393   3.779   0.217  11.700 -0.3872  0.3992  0.1329
 2586SOL    HW119394   3.798   0.225  11.794  0.0007  0.4281  0.0516
 2586SOL    HW219395   3.862   0.244  11.660 -1.4592  0.9529 -1.6683
 2587SOL     OW19396   2.779   3.134   8.217 -0.4003 -0.4728 -0.5936
 2587SOL    HW119397   2.688   3.105   8.219 -1.1274  1.7973 -0.2136
 2587SOL    HW219398   2.806   3.101   8.302  1.5537 -1.6933 -1.6919
 2588SOL     OW19399   0.825   1.188  12.199 -0.4217 -0.0550  0.2522
 2588SOL    HW119400   0.803   1.222  12.113 -1.6046 -0.6666  0.3163
 2588SOL    HW219401   0.906   1.137  12.195 -0.3708 -0.0192  0.7966
 2589SOL     OW19402   2.892   0.343   6.095  0.2409  0.2293  0.2744
 2589SOL    HW119403   2.860   0.379   6.177 -1.5305  0.7362 -0.6274
 2589SOL    HW219404   2.939   0.418   6.059  0.5448 -0.0020  0.1792
 2590SOL     OW19405   1.798   3.650   2.755 -0.8084 -0.3611 -0.3537
 2590SOL    HW119406   1.887   3.624   2.734 -0.7688 -0.2110 -0.3673
 2590SOL    HW219407   1.761   3.684   2.673  0.4257  0.5969 -0.5044
 2591SOL     OW19408   3.993   4.634   6.487  0.2444 -0.1136 -0.4287
 2591SOL    HW119409   3.975   4.540   6.489  4.7707 -0.9836 -0.2772
 2591SOL    HW219410   3.955   4.653   6.573  0.3241  1.5292 -0.7613
 2592SOL     OW19411   0.084   1.309   6.402  0.1953 -0.5716  0.0431
 2592SOL    HW119412   0.003   1.277   6.442  0.1679 -0.9334 -0.2993
 2592SOL    HW219413   0.057   1.299   6.311  0.9266  0.4830 -0.2959
 2593SOL     OW19414   4.712   1.982   6.951  0.4307  0.0800  0.5610
 2593SOL    HW119415   4.727   2.073   6.974  3.2048 -0.2770  0.1968
 2593SOL    HW219416   4.726   1.941   7.036  0.1065 -1.0041  0.0957
 2594SOL     OW19417   2.060   0.464   1.152 -0.2517 -0.2485  0.1392
 2594SOL    HW119418   1.969   0.445   1.172 -0.7403  0.8737 -1.0062
 2594SOL    HW219419   2.051   0.480   1.058  2.1394 -1.4553 -0.3130
 2595SOL     OW19420   0.585   4.140  16.416 -0.3579 -0.1146  0.2126
 2595SOL    HW119421   0.503   4.160  16.461  0.0885  2.4390 -0.0799
 2595SOL    HW219422   0.540   4.086  16.351 -0.0031  1.3278 -1.2318
 2596SOL     OW19423   1.875   2.311   3.191  0.1791  0.7070  0.5097
 2596SOL    HW119424   1.796   2.363   3.200 -1.5690 -1.4712 -2.3539
 2596SOL    HW219425   1.842   2.227   3.222  0.2346  0.0646 -1.1964
 2597SOL     OW19426   1.484   4.505   8.149 -0.6814 -0.2274 -0.4242
 2597SOL    HW119427   1.543   4.576   8.177  0.0040 -1.2754  0.7723
 2597SOL    HW219428   1.526   4.433   8.195 -1.4671 -0.5306 -0.1819
 2598SOL     OW19429   3.180   1.975   3.817 -0.2890 -0.2339 -0.3781
 2598SOL    HW119430   3.241   1.979   3.890  2.0719  1.0239 -2.4418
 2598SOL    HW219431   3.132   1.895   3.838 -1.5089 -0.6969 -4.8114
 2599SOL     OW19432   4.286   3.945   9.478 -0.0311 -0.0142 -0.3118
 2599SOL    HW119433   4.355   3.987   9.530  0.8002  1.0807 -2.3103
 2599SOL    HW219434   4.259   4.018   9.422  0.6923  0.8093  0.4057
 2600SOL     OW19435   1.805   4.356   5.638 -0.1540 -1.0855  0.0076
 2600SOL    HW119436   1.740   4.320   5.577  0.3737  0.8997 -1.7205
 2600SOL    HW219437   1.764   4.431   5.680  1.2820  1.2087 -2.7142
 2601SOL     OW19438   0.323   1.255   5.213  0.0209  0.0210  0.1982
 2601SOL    HW119439   0.231   1.281   5.208  0.3866  1.2179 -0.3051
 2601SOL    HW219440   0.324   1.202   5.293  0.9421 -0.6248 -0.2450
 2602SOL     OW19441   1.057   1.912   3.895  0.2047 -0.2076  0.4887
 2602SOL    HW119442   1.003   1.991   3.900 -0.3540 -0.6655  1.7235
 2602SOL    HW219443   1.071   1.896   3.988  1.1647 -2.3161 -0.0286
 2603SOL     OW19444   1.420   0.440   3.028 -0.5631  0.3255 -0.1512
 2603SOL    HW119445   1.392   0.354   2.998 -1.8706  1.1908 -1.4270
 2603SOL    HW219446   1.358   0.500   2.986 -0.3507  0.8655  0.3054
 2604SOL     OW19447   1.329   0.306   2.181  0.0462  0.9374 -0.0738
 2604SOL    HW119448   1.274   0.360   2.237  0.3735 -0.5757  1.7073
 2604SOL    HW219449   1.264   0.243   2.150 -0.3268  1.5918 -0.6370
 2605SOL     OW19450   0.688   2.033   2.506 -0.2991  0.5250 -0.1712
 2605SOL    HW119451   0.778   2.067   2.498  0.2820 -0.5506  1.8559
 2605SOL    HW219452   0.638   2.112   2.527  3.2765  2.2489  1.8208
 2606SOL     OW19453   4.165   0.020  10.913  0.1920  0.1215 -0.6588
 2606SOL    HW119454   4.101   0.082  10.878  0.2630  1.4764  1.6377
 2606SOL    HW219455   4.122   4.718  10.985 -2.0443  2.2459 -0.6723
 2607SOL     OW19456   0.991   1.301   1.422  0.4006  0.2285  0.5895
 2607SOL    HW119457   1.050   1.239   1.379  1.2284  1.7227 -0.4056
 2607SOL    HW219458   0.992   1.271   1.513 -0.8242  2.7176  1.4397
 2608SOL     OW19459   0.206   1.257  16.088  0.7195 -0.7049 -0.0374
 2608SOL    HW119460   0.179   1.348  16.102  0.7477 -0.7473  0.3013
 2608SOL    HW219461   0.289   1.265  16.136 -0.0034 -1.1046  1.2639
 2609SOL     OW19462   4.071   0.522   4.148  0.2426  0.4753 -0.4097
 2609SOL    HW119463   4.056   0.598   4.205  0.1162  0.1992 -0.0752
 2609SOL    HW219464   3.997   0.468   4.177  1.1530 -1.4405 -1.6465
 2610SOL     OW19465   3.968   3.037  12.680 -0.3236 -0.4282 -0.0699
 2610SOL    HW119466   3.957   2.990  12.763 -1.1673 -0.1900 -0.0493
 2610SOL    HW219467   3.880   3.029  12.643  0.5776 -0.9043 -2.0581
 2611SOL     OW19468   0.428   0.214  11.193  0.3078  0.2446  1.0035
 2611SOL    HW119469   0.339   0.185  11.214 -0.6206  1.6634 -0.9238
 2611SOL    HW219470   0.473   0.135  11.221  0.2930  0.1146  0.6577
 2612SOL     OW19471   1.204   0.088   6.071  0.2646 -0.1772  0.2866
 2612SOL    HW119472   1.167   0.036   6.142 -0.2100 -1.2938 -0.7739
 2612SOL    HW219473   1.190   0.021   6.003  1.4418  1.4098 -1.5260
 2613SOL     OW19474   2.074   1.661   4.834  0.0259 -0.3164  0.3067
 2613SOL    HW119475   2.101   1.638   4.745  0.2900 -0.3808  0.4035
 2613SOL    HW219476   1.984   1.688   4.817 -0.5460 -1.8938  0.8354
 2614SOL     OW19477   4.682   3.452  13.361 -0.2184 -0.3394 -0.1616
 2614SOL    HW119478   4.644   3.385  13.304  1.5048 -1.8941  0.4667
 2614SOL    HW219479   0.012   3.479  13.306 -0.1907 -0.7968 -0.3525
 2615SOL     OW19480   4.491   1.467  16.353 -0.3740  0.4548 -0.2907
 2615SOL    HW119481   4.437   1.442  16.278 -0.6246  1.3090 -0.3989
 2615SOL    HW219482   4.533   1.383  16.373 -1.2876  0.1980  0.4945
 2616SOL     OW19483   4.554   0.469   1.335 -0.9841 -0.5664  0.4182
 2616SOL    HW119484   4.646   0.441   1.331  0.0613  2.5412  2.6287
 2616SOL    HW219485   4.513   0.412   1.270  2.1343 -0.8284 -1.3077
 2617SOL     OW19486   4.662   0.238   4.064  0.3041  0.2293 -0.3241
 2617SOL    HW119487   4.733   0.175   4.075  1.1941  1.0505 -1.4186
 2617SOL    HW219488   4.593   0.195   4.014 -0.9220 -0.0646  1.6054
 2618SOL     OW19489   1.067   0.602   6.392 -0.1082 -0.2447  0.3449
 2618SOL    HW119490   0.987   0.652   6.377 -1.2872 -2.7305 -1.4914
 2618SOL    HW219491   1.099   0.659   6.462  0.5548  0.9207 -0.9099
 2619SOL     OW19492   2.663   1.564   3.433 -0.0605  0.9349  0.0316
 2619SOL    HW119493   2.756   1.561   3.457  0.3690  1.2908 -1.6348
 2619SOL    HW219494   2.643   1.472   3.455  0.7547  0.8588  0.5006
 2620SOL     OW19495   0.403   1.083   2.394 -0.6549 -0.0306 -1.0896
 2620SOL    HW119496   0.488   1.083   2.350 -0.0369  2.1611  0.0782
 2620SOL    HW219497   0.396   1.175   2.421 -1.6410 -0.9218  1.5846
 2621SOL     OW19498   2.140   2.589   2.394 -0.3169 -0.4953  0.3765
 2621SOL    HW119499   2.153   2.534   2.317 -2.6324 -1.6984  0.8664
 2621SOL    HW219500   2.052   2.561   2.416 -0.4861 -0.5984 -0.4414
 2622SOL     OW19501   2.740   1.053   3.281 -0.4936 -0.0480 -0.8503
 2622SOL    HW119502   2.716   1.142   3.304  0.9576 -0.0212  0.5581
 2622SOL    HW219503   2.733   1.054   3.186  2.4521  0.1175 -1.0688
 2623SOL     OW19504   2.567   1.973   5.253 -0.0563  0.0815  0.2897
 2623SOL    HW119505   2.599   1.883   5.247 -0.1886  0.0950 -0.5502
 2623SOL    HW219506   2.472   1.967   5.252 -0.0733 -0.0637  2.1359
 2624SOL     OW19507   4.372   0.057   9.446  0.4940  0.0777  0.0271
 2624SOL    HW119508   4.392   0.036   9.537  2.6258 -0.6358 -0.5959
 2624SOL    HW219509   4.358   0.152   9.442 -1.3699 -0.2708 -1.5916
 2625SOL     OW19510   0.264   0.908   2.878 -0.4222 -0.2514  0.0751
 2625SOL    HW119511   0.205   0.839   2.910 -0.8006  0.6244  1.2538
 2625SOL    HW219512   0.241   0.982   2.934 -2.2487  0.7109 -1.9396
 2626SOL     OW19513   1.366   4.670  13.024  0.4104  0.2714  0.1565
 2626SOL    HW119514   1.401   4.647  12.938  2.6769 -0.1683  1.1933
 2626SOL    HW219515   1.415   0.005  13.050 -0.6823  1.0019  0.0086
 2627SOL     OW19516   4.337   0.840  14.552 -0.4599  0.1445  0.9194
 2627SOL    HW119517   4.428   0.824  14.574 -0.5355  0.1008  1.2052
 2627SOL    HW219518   4.313   0.826  14.643  0.2614 -0.2584  1.0481
 2628SOL     OW19519   4.188   0.443   9.759 -0.4046 -0.0597  0.0663
 2628SOL    HW119520   4.146   0.446   9.845  1.9439  0.7260  1.1884
 2628SOL    HW219521   4.134   0.504   9.709 -0.5957 -0.1213  0.1981
 2629SOL     OW19522   4.736   1.769   8.926  0.2249 -0.0015  0.0895
 2629SOL    HW119523   4.642   1.761   8.910 -0.2824  0.1936  2.9214
 2629SOL    HW219524   4.738   1.737   9.016 -2.2838 -1.7319 -0.4645
 2630SOL     OW19525   0.347   4.008   5.712 -0.4284  0.6200 -0.5876
 2630SOL    HW119526   0.332   4.038   5.622  0.8461 -0.8937 -1.3290
 2630SOL    HW219527   0.441   4.021   5.728 -0.4573  1.1733 -0.8799
 2631SOL     OW19528   0.406   1.456   1.985  0.4482 -0.4891 -0.0387
 2631SOL    HW119529   0.374   1.369   1.964 -0.2723 -0.9276  2.8444
 2631SOL    HW219530   0.344   1.506   1.932  1.3876 -0.0149 -0.6835
 2632SOL     OW19531   0.506   1.341   5.458  0.3970 -1.3591  0.2676
 2632SOL    HW119532   0.540   1.365   5.372 -0.2564  1.7100  0.8613
 2632SOL    HW219533   0.437   1.408   5.463  0.5529 -1.3062  1.9767
 2633SOL     OW19534   2.728   3.243   6.024  0.2146  0.0955 -0.3295
 2633SOL    HW119535   2.734   3.191   6.105  0.0377 -0.6081 -0.7642
 2633SOL    HW219536   2.637   3.229   5.997 -0.7645  0.5910  2.6779
 2634SOL     OW19537   1.710   3.358   4.380  0.3790 -0.1047 -0.1245
 2634SOL    HW119538   1.701   3.400   4.465 -0.1636  2.2091 -1.3228
 2634SOL    HW219539   1.685   3.269   4.402  0.0566  0.2667  0.9883
 2635SOL     OW19540   4.224   1.432  14.069  0.5203 -0.1044 -0.7287
 2635SOL    HW119541   4.144   1.467  14.029  0.3596  1.7357  1.2164
 2635SOL    HW219542   4.194   1.342  14.085 -1.0673  0.9610  2.2500
 2636SOL     OW19543   1.523   1.600   3.921  0.1692  0.2801 -0.5641
 2636SOL    HW119544   1.485   1.687   3.933 -2.3799 -1.3187  3.2127
 2636SOL    HW219545   1.603   1.606   3.973  0.6228  1.8117 -1.4350
 2637SOL     OW19546   4.704   0.826   1.754 -0.3396  0.1890 -0.2551
 2637SOL    HW119547   4.627   0.880   1.772 -2.1448 -1.9599 -1.6562
 2637SOL    HW219548   4.663   0.772   1.687 -0.1515  0.0359 -0.2476
 2638SOL     OW19549   1.270   0.013   4.112 -0.0179  0.4525 -0.3215
 2638SOL    HW119550   1.245   0.041   4.199 -1.5257 -0.1165 -0.5845
 2638SOL    HW219551   1.363   0.035   4.109  0.5651 -2.2364 -2.1748
 2639SOL     OW19552   1.774   1.333   2.249 -0.0343  0.2020  0.4059
 2639SOL    HW119553   1.839   1.360   2.314 -0.7230  0.9335  0.8003
 2639SOL    HW219554   1.816   1.266   2.196  0.8734  0.0173  1.3628
 2640SOL     OW19555   0.320   4.126   2.216  0.3238  0.1036  0.3929
 2640SOL    HW119556   0.403   4.137   2.170 -0.1393 -1.2773 -0.7800
 2640SOL    HW219557   0.361   4.111   2.301 -2.2672  1.7085  1.8943
 2641SOL     OW19558   1.550   3.811   6.178 -0.5673  0.1761  0.4848
 2641SOL    HW119559   1.609   3.818   6.103 -1.2303 -0.6497 -0.1102
 2641SOL    HW219560   1.528   3.718   6.177  1.8167 -0.3865  0.5273
 2642SOL     OW19561   1.827   3.853   6.961  0.2490 -0.6654 -0.1222
 2642SOL    HW119562   1.787   3.772   6.930  1.5903 -1.3981  0.0748
 2642SOL    HW219563   1.769   3.913   6.914  1.3738 -1.4187 -2.4462
 2643SOL     OW19564   0.145   3.383   9.739  0.4820 -0.0261 -0.0878
 2643SOL    HW119565   0.084   3.426   9.679  2.7537  2.1774 -0.8108
 2643SOL    HW219566   0.226   3.434   9.733  2.5863 -3.1368  1.2007
 2644SOL     OW19567   4.404   3.007  10.858 -0.2411 -0.0800  0.5596
 2644SOL    HW119568   4.328   3.056  10.892 -0.2829  1.3893 -1.6510
 2644SOL    HW219569   4.359   2.939  10.809 -0.9612  0.1315  0.9173
 2645SOL     OW19570   2.592   3.270   9.533  0.0472  0.0629 -0.2033
 2645SOL    HW119571   2.523   3.267   9.600 -1.8675 -3.8011 -2.3604
 2645SOL    HW219572   2.597   3.175   9.523  0.6683  0.0079  0.6736
 2646SOL     OW19573   0.977   1.200   9.630  0.5928  0.8592  0.6552
 2646SOL    HW119574   0.943   1.183   9.718  0.5218 -1.8890  0.1031
 2646SOL    HW219575   0.986   1.110   9.599 -1.9564  0.5834  0.7060
 2647SOL     OW19576   0.551   2.593   3.118  0.3832 -0.3522  0.3355
 2647SOL    HW119577   0.616   2.653   3.081 -2.8578  2.5736 -0.5405
 2647SOL    HW219578   0.612   2.524   3.145  2.1160  0.7879 -0.6516
 2648SOL     OW19579   3.178   0.524   1.698 -0.0387 -0.7986 -0.0905
 2648SOL    HW119580   3.271   0.535   1.718 -0.0087 -1.6202  0.2374
 2648SOL    HW219581   3.195   0.460   1.629  0.7275 -0.4258 -0.2466
 2649SOL     OW19582   2.953   3.530  14.816  0.1641  0.6482  0.0198
 2649SOL    HW119583   3.024   3.467  14.802 -1.0998 -0.7968  0.1187
 2649SOL    HW219584   2.906   3.490  14.889 -1.5910  0.6936 -1.0932
 2650SOL     OW19585   4.242   2.612   0.214 -0.1497 -0.0306  0.0510
 2650SOL    HW119586   4.201   2.694   0.187 -0.6826 -0.4740 -0.4678
 2650SOL    HW219587   4.330   2.646   0.233  1.1179 -2.1421 -2.0288
 2651SOL     OW19588   1.582   1.438   6.986 -0.4087 -0.0746  0.1140
 2651SOL    HW119589   1.534   1.489   7.051 -1.3988  0.0790 -0.7172
 2651SOL    HW219590   1.515   1.410   6.923 -1.5255 -0.2919  1.4059
 2652SOL     OW19591   2.462   1.249  11.259 -0.0845  0.0923  0.3317
 2652SOL    HW119592   2.373   1.286  11.251 -0.1021 -0.1445 -0.6283
 2652SOL    HW219593   2.467   1.205  11.174  2.0302 -1.2872  1.1961
 2653SOL     OW19594   1.227   2.514  13.268 -0.3734  0.6345  0.2068
 2653SOL    HW119595   1.164   2.487  13.201 -2.0877  1.4480  1.4910
 2653SOL    HW219596   1.163   2.574  13.307  0.1159  3.2883 -3.0886
 2654SOL     OW19597   1.678   0.110   7.149 -1.3528 -0.0613 -0.3081
 2654SOL    HW119598   1.592   0.100   7.190 -1.6335 -1.0047 -1.1239
 2654SOL    HW219599   1.719   0.025   7.165 -0.2809  0.8195  1.6632
 2655SOL     OW19600   0.569   2.138   6.190  0.0021  0.4249  0.2755
 2655SOL    HW119601   0.624   2.091   6.128  1.3599  0.4662  1.4397
 2655SOL    HW219602   0.614   2.219   6.215 -2.1576  1.3716  1.1052
 2656SOL     OW19603   2.745   1.329   4.532 -0.4928 -0.6188 -0.1461
 2656SOL    HW119604   2.668   1.367   4.573  0.5106  0.2977  0.8881
 2656SOL    HW219605   2.735   1.237   4.559 -3.1956 -0.3830 -0.3578
 2657SOL     OW19606   3.205   0.605   4.899 -0.3809 -0.0895  0.1847
 2657SOL    HW119607   3.301   0.613   4.894 -0.5407  1.6899  0.0446
 2657SOL    HW219608   3.188   0.680   4.843  2.4175  2.2103  2.4066
 2658SOL     OW19609   3.163   2.241   3.032  0.7112  0.1005 -0.2355
 2658SOL    HW119610   3.123   2.309   3.086  1.5507 -0.8416  1.5968
 2658SOL    HW219611   3.093   2.212   2.974  0.6896 -0.8134  0.2405
 2659SOL     OW19612   2.315   1.580   2.990  0.7126 -0.0328  0.7008
 2659SOL    HW119613   2.354   1.660   2.954  0.3089  0.1721  0.7083
 2659SOL    HW219614   2.374   1.514   2.956  1.5945  1.1381 -0.0556
 2660SOL     OW19615   2.093   4.105   3.102 -0.2030  0.4478  0.7349
 2660SOL    HW119616   2.030   4.092   3.032 -0.5235  2.7183  0.6110
 2660SOL    HW219617   2.036   4.097   3.179  0.6312  3.3196  1.6266
 2661SOL     OW19618   4.411   1.028  13.800  0.3013  0.4258 -0.3136
 2661SOL    HW119619   4.473   1.097  13.823  1.3985 -0.9540  0.9335
 2661SOL    HW219620   4.466   0.950  13.812 -0.6613  0.0272  1.5927
 2662SOL     OW19621   2.698   3.741   3.107 -0.0995 -0.7788  0.0933
 2662SOL    HW119622   2.631   3.781   3.161  0.3414  0.2646 -0.1342
 2662SOL    HW219623   2.715   3.665   3.163 -0.5140 -0.8977  0.0622
 2663SOL     OW19624   2.168   1.986   3.358  0.1995  0.5575  0.2535
 2663SOL    HW119625   2.130   2.017   3.440 -1.7531 -0.3809 -0.2922
 2663SOL    HW219626   2.253   2.028   3.359 -0.4360  1.7916  2.0190
 2664SOL     OW19627   3.155   1.614   4.857 -0.5869  0.4470 -0.4388
 2664SOL    HW119628   3.125   1.568   4.779  2.5349 -0.0190 -1.3716
 2664SOL    HW219629   3.125   1.702   4.832 -0.3077  0.6064 -0.2142
 2665SOL     OW19630   0.046   1.052   2.246  0.1257 -0.2034  0.6023
 2665SOL    HW119631   0.042   1.144   2.219  0.9930 -0.7432 -1.4356
 2665SOL    HW219632   4.699   1.025   2.239 -1.2040  3.9374  2.3394
 2666SOL     OW19633   1.005   3.053  12.461  0.1100  0.2100  0.3585
 2666SOL    HW119634   0.980   2.970  12.501  2.5322 -0.5813  0.2326
 2666SOL    HW219635   1.008   3.023  12.370 -2.9940 -3.6196  1.5241
 2667SOL     OW19636   1.050   0.153   8.122  0.2369 -0.3972 -0.1214
 2667SOL    HW119637   1.139   0.147   8.088  0.1582  1.0053 -0.5785
 2667SOL    HW219638   1.058   0.174   8.215 -0.1796  0.1568 -0.2092
 2668SOL     OW19639   3.150   1.485   5.414 -0.7023 -0.4140 -0.1411
 2668SOL    HW119640   3.160   1.578   5.391  1.8960 -0.6601 -0.0225
 2668SOL    HW219641   3.222   1.466   5.474  0.1969  1.8329 -0.5150
 2669SOL     OW19642   4.000   1.792   7.439 -0.2673  0.2673  0.2245
 2669SOL    HW119643   4.059   1.820   7.368 -0.1486  2.1128  1.0671
 2669SOL    HW219644   4.053   1.826   7.511 -0.4110 -0.6137  0.7413
 2670SOL     OW19645   3.826   0.197   3.762  0.3116 -0.4742  0.5933
 2670SOL    HW119646   3.842   0.184   3.855 -1.4761 -1.6337  0.7320
 2670SOL    HW219647   3.757   0.264   3.770  0.7269  0.1163 -0.8042
 2671SOL     OW19648   0.701   0.066   5.304  0.1280  0.6898 -0.2200
 2671SOL    HW119649   0.750   0.081   5.384  0.1132  0.4471 -0.1668
 2671SOL    HW219650   0.640   4.741   5.329  0.6668  0.8125  1.3999
 2672SOL     OW19651   0.205   1.354  15.828 -0.2864 -0.1830  0.0385
 2672SOL    HW119652   0.196   1.445  15.858  2.0520  0.2552 -0.6156
 2672SOL    HW219653   0.206   1.308  15.912 -0.7586 -0.0990  0.0936
 2673SOL     OW19654   2.670   2.726   9.707 -0.7364 -0.4122 -0.4162
 2673SOL    HW119655   2.695   2.819   9.704  2.3230 -1.1967  0.4421
 2673SOL    HW219656   2.576   2.737   9.697 -0.9372  1.7382  4.0117
 2674SOL     OW19657   4.008   0.874   7.962 -0.4246 -0.2860 -0.0640
 2674SOL    HW119658   3.929   0.885   7.910  0.1005 -0.5095 -0.9074
 2674SOL    HW219659   3.991   0.799   8.019 -1.0621  0.3114  0.5331
 2675SOL     OW19660   2.643   2.903   6.387 -0.0471 -0.2301 -0.5436
 2675SOL    HW119661   2.611   2.814   6.401  1.9084 -0.8459 -0.0268
 2675SOL    HW219662   2.695   2.915   6.466 -1.0198 -1.9939  0.3667
 2676SOL     OW19663   1.349   2.918  13.170 -0.3445  0.5276 -0.7589
 2676SOL    HW119664   1.377   2.962  13.090  0.0428  1.1762 -0.2686
 2676SOL    HW219665   1.348   2.985  13.239  0.6681  1.8645 -2.0624
 2677SOL     OW19666   3.680   1.527  17.596 -0.0034  0.5062  0.1407
 2677SOL    HW119667   3.771   1.520  17.626  0.4004 -1.8741 -1.6073
 2677SOL    HW219668   3.638   1.506  17.679 -3.4796 -1.4077 -2.0907
 2678SOL     OW19669   3.712   3.773   3.786  0.1374  0.3637 -0.8772
 2678SOL    HW119670   3.709   3.769   3.882  1.6308 -1.2192 -0.8980
 2678SOL    HW219671   3.780   3.839   3.774  0.2653  0.2598 -0.7257
 2679SOL     OW19672   3.903   2.426   5.090  0.7310  0.1024  0.3047
 2679SOL    HW119673   3.885   2.339   5.054 -1.0830  0.7871 -0.4092
 2679SOL    HW219674   3.835   2.436   5.156 -0.7120  0.3893 -1.2344
 2680SOL     OW19675   3.274   2.809   8.493  0.0895  0.3526  0.3166
 2680SOL    HW119676   3.362   2.785   8.462 -0.4713 -2.1190  0.7029
 2680SOL    HW219677   3.234   2.785   8.409 -0.2427 -0.6270  0.7607
 2681SOL     OW19678   0.361   4.663   4.775 -0.1097 -0.1269  0.4262
 2681SOL    HW119679   0.297   4.726   4.741  0.0957 -1.1578 -1.8279
 2681SOL    HW219680   0.446   4.701   4.757 -1.4651  1.8854 -1.6518
 2682SOL     OW19681   0.063   0.266   9.796  0.2033 -0.6733 -0.1633
 2682SOL    HW119682   0.036   0.308   9.714 -0.0306 -0.7504 -0.1278
 2682SOL    HW219683   4.737   0.201   9.805 -1.4800  0.8485 -2.2445
 2683SOL     OW19684   3.506   1.602  12.948  0.0038  0.5302 -0.4502
 2683SOL    HW119685   3.423   1.628  12.907 -0.2053 -1.4068 -1.2489
 2683SOL    HW219686   3.482   1.545  13.021 -0.8816  1.1670 -0.2510
 2684SOL     OW19687   0.624   2.228   3.164  0.6185  0.5019 -0.4029
 2684SOL    HW119688   0.693   2.283   3.200  1.1121 -1.4749  1.6544
 2684SOL    HW219689   0.681   2.152   3.151  0.5957  0.4476 -0.1796
 2685SOL     OW19690   4.409   2.363  11.423  0.4232  0.2839 -0.0505
 2685SOL    HW119691   4.322   2.402  11.416 -0.4197 -1.6717 -0.6875
 2685SOL    HW219692   4.466   2.435  11.398  0.8886 -0.2025 -0.4077
 2686SOL     OW19693   0.305   0.856   5.384 -0.4839  0.3045  0.0891
 2686SOL    HW119694   0.374   0.918   5.363  0.1944 -0.5456 -0.1837
 2686SOL    HW219695   0.294   0.865   5.479 -1.4348 -0.0626  0.0197
 2687SOL     OW19696   1.186   2.863   7.892  0.0159 -0.3517 -0.1865
 2687SOL    HW119697   1.280   2.876   7.908  0.0420  0.5129 -1.0365
 2687SOL    HW219698   1.155   2.900   7.974 -0.0468  1.2267 -0.9291
 2688SOL     OW19699   3.938   0.165  11.122  0.3558 -0.3101 -0.5043
 2688SOL    HW119700   3.880   0.238  11.143  2.3213  1.4999 -1.3230
 2688SOL    HW219701   3.909   0.134  11.036  2.4368  1.0105 -1.6869
 2689SOL     OW19702   0.370   2.985  15.316 -0.0048  0.2186  0.3051
 2689SOL    HW119703   0.305   2.949  15.256 -0.2170 -1.1048  1.3218
 2689SOL    HW219704   0.367   2.917  15.383 -2.2222 -1.1415 -1.1806
 2690SOL     OW19705   4.344   1.043   6.371  0.1890  0.5111  0.5366
 2690SOL    HW119706   4.397   1.089   6.306 -1.3271 -0.1759 -1.1837
 2690SOL    HW219707   4.256   1.080   6.361 -0.1419 -0.1243  1.1028
 2691SOL     OW19708   1.217   1.952   6.512  0.4445  0.1310 -0.2805
 2691SOL    HW119709   1.225   1.962   6.417  2.8469  0.5397 -0.0254
 2691SOL    HW219710   1.232   2.043   6.538 -0.9027  0.9196 -2.2511
 2692SOL     OW19711   4.294   1.482   9.083  0.3041 -0.1865  0.4955
 2692SOL    HW119712   4.227   1.417   9.062 -0.7812  1.3666 -0.8166
 2692SOL    HW219713   4.251   1.561   9.051 -1.6640 -2.1417 -1.6860
 2693SOL     OW19714   3.873   4.663   0.040  0.0011 -0.4586  0.3294
 2693SOL    HW119715   3.849   4.590  17.754 -1.3279  0.6354 -0.4862
 2693SOL    HW219716   3.842   4.732  17.753  3.7425  0.8043 -0.1518
 2694SOL     OW19717   1.696   1.320   4.877 -0.3419  0.2013 -0.5539
 2694SOL    HW119718   1.745   1.354   4.953  0.3978  1.8187 -1.7646
 2694SOL    HW219719   1.634   1.258   4.915  2.0661 -0.0019  3.1134
 2695SOL     OW19720   2.254   4.099   2.270  0.3330  0.2158 -0.3044
 2695SOL    HW119721   2.294   4.186   2.277  2.4078 -0.5793 -2.3027
 2695SOL    HW219722   2.226   4.115   2.180  0.5392  1.4187 -0.1634
 2696SOL     OW19723   2.955   3.652  16.015  0.0047  0.6012 -0.5340
 2696SOL    HW119724   3.024   3.612  15.963 -1.0991 -1.6471 -0.2644
 2696SOL    HW219725   2.999   3.681  16.095  1.0700  1.6171 -1.4901
 2697SOL     OW19726   4.413   3.824  13.115 -0.5898 -0.3003 -0.0817
 2697SOL    HW119727   4.456   3.766  13.051  0.4456  2.4173 -1.8444
 2697SOL    HW219728   4.385   3.761  13.181  0.1353 -1.3984 -0.8125
 2698SOL     OW19729   2.741   3.365   8.988  0.2246  0.1934 -0.0218
 2698SOL    HW119730   2.695   3.352   9.070  1.3696 -2.4431  0.2073
 2698SOL    HW219731   2.673   3.410   8.938  0.9184  3.9080  2.4106
 2699SOL     OW19732   0.449   1.302  16.217 -0.5270 -0.3559 -0.4197
 2699SOL    HW119733   0.471   1.383  16.262  1.4509 -0.3412 -1.4267
 2699SOL    HW219734   0.393   1.277  16.291 -0.9053 -0.9271 -0.8975
 2700SOL     OW19735   3.820   0.997  14.725  0.0937  0.0170  0.1673
 2700SOL    HW119736   3.814   0.989  14.821  2.3352 -0.6522  0.2487
 2700SOL    HW219737   3.800   1.090  14.713  0.7336  0.0275 -0.7723
 2701SOL     OW19738   3.523   4.243   3.364 -0.1737  0.0243  0.3233
 2701SOL    HW119739   3.428   4.231   3.360  0.0753 -1.8515  0.0665
 2701SOL    HW219740   3.538   4.248   3.459  0.6512 -0.2112  0.2094
 2702SOL     OW19741   0.292   3.559   5.926  0.3041 -0.0105 -0.0089
 2702SOL    HW119742   0.263   3.650   5.923  0.5794  0.1158  1.2581
 2702SOL    HW219743   0.215   3.506   5.905 -1.0067  1.9312 -0.0318
 2703SOL     OW19744   1.358   3.152  10.443 -0.4757  0.0191 -0.3767
 2703SOL    HW119745   1.392   3.239  10.421  1.4673 -0.7154 -0.2447
 2703SOL    HW219746   1.333   3.122  10.355  2.2643  3.3646 -2.3125
 2704SOL     OW19747   4.202   4.165   9.295  0.2386  0.4587 -0.4356
 2704SOL    HW119748   4.216   4.258   9.278  1.7019  0.5592  1.3780
 2704SOL    HW219749   4.141   4.167   9.369  1.8253 -1.2460  0.9121
 2705SOL     OW19750   4.551   3.536   5.280 -0.1198 -0.2172 -0.7356
 2705SOL    HW119751   4.542   3.489   5.363  0.3247  0.0434 -0.5390
 2705SOL    HW219752   4.562   3.460   5.224  1.6701 -0.8878  0.5292
 2706SOL     OW19753   0.359   0.722   6.357 -0.0408  0.4513 -0.3401
 2706SOL    HW119754   0.421   0.718   6.430  1.1911  0.6808 -1.3730
 2706SOL    HW219755   0.410   0.684   6.284 -0.1185 -0.0292 -0.1445
 2707SOL     OW19756   1.395   3.570   6.150 -0.5043 -0.0832 -0.5562
 2707SOL    HW119757   1.324   3.626   6.180  1.2030  1.9199 -0.2111
 2707SOL    HW219758   1.366   3.543   6.063  0.3460  0.5909 -1.0523
 2708SOL     OW19759   2.819   1.454   5.154  0.1252  0.0082 -0.2198
 2708SOL    HW119760   2.730   1.426   5.175 -0.7920  1.8250 -1.6472
 2708SOL    HW219761   2.833   1.499   5.237  1.4391 -1.3179  0.2737
 2709SOL     OW19762   3.280   3.765   0.839  0.3190  0.1522  0.0630
 2709SOL    HW119763   3.241   3.685   0.804 -1.9891  1.9066 -1.3258
 2709SOL    HW219764   3.250   3.823   0.769  0.4270  0.6619  0.4340
 2710SOL     OW19765   1.444   1.585   0.925  0.5927 -0.9768 -0.1030
 2710SOL    HW119766   1.356   1.560   0.897 -0.1752  0.8550  0.6999
 2710SOL    HW219767   1.485   1.622   0.847  0.5246  0.9903  0.7971
 2711SOL     OW19768   2.987   1.523   4.644 -0.1617  0.3222 -0.0350
 2711SOL    HW119769   2.932   1.579   4.590  0.5840  0.4483 -0.6564
 2711SOL    HW219770   2.922   1.500   4.710 -1.1853 -1.3695 -1.6315
 2712SOL     OW19771   3.167   3.811   2.729 -0.3092 -0.7880 -0.3462
 2712SOL    HW119772   3.179   3.728   2.774  2.3142 -0.2724 -0.1032
 2712SOL    HW219773   3.114   3.783   2.654  0.5028 -2.1583 -0.4033
 2713SOL     OW19774   0.141   1.606   2.102 -0.3351 -0.2817  0.2151
 2713SOL    HW119775   0.223   1.596   2.149 -0.5519 -1.3649  0.3619
 2713SOL    HW219776   0.103   1.659   2.172  1.8041  0.4971  0.7697
 2714SOL     OW19777   4.334   1.838  16.450 -0.2833 -0.1202  0.8608
 2714SOL    HW119778   4.267   1.904  16.468 -0.9815 -1.0969  1.8349
 2714SOL    HW219779   4.348   1.856  16.357 -1.4791 -1.5102  0.4061
 2715SOL     OW19780   3.682   4.625   1.211 -0.1808  0.3997 -0.0353
 2715SOL    HW119781   3.749   4.681   1.249  0.5583  0.0146 -0.7614
 2715SOL    HW219782   3.637   4.690   1.156 -0.7770 -0.0611 -0.0959
 2716SOL     OW19783   0.853   1.520  12.291  0.0393  0.2409  0.3346
 2716SOL    HW119784   0.795   1.447  12.313 -0.2993  0.6585  0.8130
 2716SOL    HW219785   0.830   1.589  12.353  0.5163  0.2667  0.4830
 2717SOL     OW19786   0.643   1.151   4.163 -0.0361 -0.4942 -0.2387
 2717SOL    HW119787   0.705   1.086   4.129  0.9363  0.3484 -0.0714
 2717SOL    HW219788   0.563   1.136   4.113 -0.7012  1.7880  0.1500
 2718SOL     OW19789   2.823   4.533   3.143  0.0880  0.2957 -0.4967
 2718SOL    HW119790   2.758   4.592   3.105 -1.5364 -0.5894  0.9101
 2718SOL    HW219791   2.908   4.575   3.131  1.3996 -1.8450  1.2017
 2719SOL     OW19792   1.853   4.620   3.971  0.5418  1.1038  0.4153
 2719SOL    HW119793   1.817   4.631   3.883  0.8238  1.1624  0.3069
 2719SOL    HW219794   1.796   4.548   3.998  0.3655  1.3753  0.7664
 2720SOL     OW19795   3.591   4.056   8.905  0.4358  0.3470 -0.5222
 2720SOL    HW119796   3.569   4.017   8.990 -3.0172  0.5634 -1.3263
 2720SOL    HW219797   3.681   4.025   8.896 -1.0412 -3.6537 -1.6914
 2721SOL     OW19798   1.759   0.160  15.786  0.1101 -0.4539 -0.3220
 2721SOL    HW119799   1.667   0.185  15.793  0.4374  0.5030  0.5839
 2721SOL    HW219800   1.802   0.244  15.768  0.4050 -0.5086  0.1283
 2722SOL     OW19801   1.137   0.041   7.352  0.1349  0.3103  0.0194
 2722SOL    HW119802   1.127   0.004   7.440  2.0848 -1.4337 -0.4870
 2722SOL    HW219803   1.054   0.011   7.317  0.4552  0.3197 -0.7355
 2723SOL     OW19804   2.961   2.069   2.120  0.3338  0.0904 -0.4664
 2723SOL    HW119805   2.881   2.095   2.167 -0.2171 -2.1246 -0.1741
 2723SOL    HW219806   3.009   2.152   2.132 -1.2800  1.1489 -1.3540
 2724SOL     OW19807   1.025   4.190  13.548 -0.1233 -0.0960  0.1252
 2724SOL    HW119808   0.929   4.187  13.548 -0.0691 -1.8397 -2.6956
 2724SOL    HW219809   1.052   4.114  13.599 -0.0449  0.0293  0.2711
 2725SOL     OW19810   3.028   2.893  17.146  0.0673  0.2838  0.2868
 2725SOL    HW119811   3.014   2.876  17.239 -0.8014 -0.6715 -0.0067
 2725SOL    HW219812   2.947   2.941  17.127 -0.0343 -1.1542 -3.1185
 2726SOL     OW19813   1.408   3.954   1.522 -0.0140 -0.1917 -0.6099
 2726SOL    HW119814   1.341   3.891   1.496  0.2843 -0.7724  0.0304
 2726SOL    HW219815   1.453   3.897   1.584  0.0348 -0.9190 -1.3180
 2727SOL     OW19816   4.089   3.799   3.258 -0.1994 -0.3893 -0.0203
 2727SOL    HW119817   4.129   3.860   3.197 -0.4830 -0.9726 -0.7855
 2727SOL    HW219818   4.145   3.722   3.252 -0.6980 -0.9680  2.7379
 2728SOL     OW19819   1.955   3.423   6.729  0.4867  0.0257  0.0881
 2728SOL    HW119820   1.905   3.490   6.682 -2.0146 -0.6780  1.7771
 2728SOL    HW219821   2.033   3.473   6.755  1.8168 -3.4328  2.6618
 2729SOL     OW19822   2.965   3.034   1.499 -0.3578 -0.4011  0.0324
 2729SOL    HW119823   2.950   2.999   1.411 -2.0666 -0.6681  0.4206
 2729SOL    HW219824   3.006   2.965   1.551 -2.1320 -0.4717  1.3538
 2730SOL     OW19825   2.103   3.813   1.679  0.7749 -0.4757  0.7977
 2730SOL    HW119826   2.185   3.825   1.727  1.6736  0.7040 -1.0280
 2730SOL    HW219827   2.037   3.864   1.725  0.8799  0.6486 -0.3166
 2731SOL     OW19828   2.151   3.231   7.107  0.5206  0.9004  0.6834
 2731SOL    HW119829   2.184   3.173   7.039 -0.1383  0.6703  0.5535
 2731SOL    HW219830   2.113   3.169   7.169  2.7716 -3.3373 -2.2241
 2732SOL     OW19831   4.371   2.176  11.674  0.1290 -0.6600 -0.2170
 2732SOL    HW119832   4.275   2.170  11.672  0.2086 -1.2371 -2.2310
 2732SOL    HW219833   4.397   2.218  11.592  1.5733  1.2581  1.2188
 2733SOL     OW19834   2.732   1.296   7.152 -0.4167  0.4520 -0.8044
 2733SOL    HW119835   2.641   1.319   7.170 -0.9011 -1.4042 -0.8338
 2733SOL    HW219836   2.739   1.213   7.199  0.1327  0.6169 -0.5940
 2734SOL     OW19837   4.474   2.275   1.647  0.3400  0.4213 -0.2443
 2734SOL    HW119838   4.461   2.345   1.711 -3.5858  0.6874 -1.3418
 2734SOL    HW219839   4.393   2.285   1.598  0.3927  0.9401 -0.2304
 2735SOL     OW19840   1.693   4.019   3.914 -0.0327 -0.2156 -0.2428
 2735SOL    HW119841   1.620   4.080   3.903 -1.2897 -1.5810  0.4691
 2735SOL    HW219842   1.682   3.970   3.832  0.5494 -0.9944  0.1380
 2736SOL     OW19843   3.929   4.546   3.932  0.8451 -0.3352 -0.3989
 2736SOL    HW119844   3.950   4.463   3.975  0.5654 -0.6669 -0.9074
 2736SOL    HW219845   3.834   4.541   3.925  0.6569 -1.0934  2.8825
 2737SOL     OW19846   3.862   1.869   8.171  0.2358 -0.1002 -0.5600
 2737SOL    HW119847   3.921   1.818   8.228 -1.2104 -0.3396  0.7397
 2737SOL    HW219848   3.926   1.869   8.100  0.4418  0.3908 -0.3763
 2738SOL     OW19849   3.739   4.343   0.601 -0.1101  0.1517 -0.1423
 2738SOL    HW119850   3.676   4.409   0.630 -1.0499 -0.5787 -0.5389
 2738SOL    HW219851   3.767   4.374   0.515  0.0487  4.1495  1.3539
 2739SOL     OW19852   3.744   1.347   1.434 -0.0390 -0.5772 -0.0086
 2739SOL    HW119853   3.759   1.269   1.487  3.6282 -0.4939 -0.9267
 2739SOL    HW219854   3.763   1.411   1.502  2.2848  1.1816 -2.2983
 2740SOL     OW19855   3.338   4.298   1.445 -0.6515 -0.2022  0.0138
 2740SOL    HW119856   3.325   4.284   1.351  0.0025 -0.6512 -0.0117
 2740SOL    HW219857   3.376   4.386   1.440  0.3409 -0.7251 -1.7784
 2741SOL     OW19858   2.942   2.128   6.011  0.4984  0.1742 -0.0566
 2741SOL    HW119859   2.997   2.105   6.086 -0.4006 -0.9161  0.2663
 2741SOL    HW219860   2.885   2.186   6.063  1.6429  2.3237 -1.2279
 2742SOL     OW19861   4.345   2.877   4.494 -0.5918 -0.3862 -0.5999
 2742SOL    HW119862   4.402   2.912   4.563 -2.5840  1.2620  0.2377
 2742SOL    HW219863   4.393   2.795   4.480 -2.5655 -1.7173  0.2967
 2743SOL     OW19864   0.260   4.719   8.691 -0.6580 -0.2247  0.0631
 2743SOL    HW119865   0.272   4.624   8.691  0.4248 -0.0950  1.2299
 2743SOL    HW219866   0.174   4.731   8.732 -0.4296 -2.1692  1.1232
 2744SOL     OW19867   3.749   3.349   9.554  0.9622  0.2484  0.3870
 2744SOL    HW119868   3.808   3.338   9.480  0.8620  0.9855  0.1950
 2744SOL    HW219869   3.774   3.263   9.586 -0.1613  0.4518  1.8429
 2745SOL     OW19870   0.371   2.428   6.502 -0.4690 -0.1199  0.4130
 2745SOL    HW119871   0.362   2.494   6.571  1.9892  0.2619  0.3776
 2745SOL    HW219872   0.379   2.348   6.555  1.8921 -0.8335 -1.0340
 2746SOL     OW19873   3.445   1.654   8.366  0.5543  0.6620  0.2744
 2746SOL    HW119874   3.496   1.581   8.330  0.9259  1.1205 -0.1116
 2746SOL    HW219875   3.392   1.692   8.296 -0.8481  0.1716  1.0688
 2747SOL     OW19876   3.972   1.829   2.777  0.2294 -0.2358 -0.2268
 2747SOL    HW119877   3.977   1.736   2.758 -0.9751 -1.0928  3.6430
 2747SOL    HW219878   3.913   1.859   2.707 -2.1387 -2.2764  0.9086
 2748SOL     OW19879   1.109   0.906  15.254  0.3313  0.0700  0.1443
 2748SOL    HW119880   1.086   0.832  15.311 -1.0542 -0.6329 -1.3252
 2748SOL    HW219881   1.173   0.864  15.197 -2.0620 -2.7717 -0.4505
 2749SOL     OW19882   4.237   1.327   1.825 -0.4739  0.3130 -0.5548
 2749SOL    HW119883   4.200   1.354   1.909  0.1310  0.2482 -0.2699
 2749SOL    HW219884   4.308   1.267   1.848 -0.5740  0.7634  0.9640
 2750SOL     OW19885   3.375   3.166   8.962  0.1326  0.0968  0.4266
 2750SOL    HW119886   3.328   3.234   9.011 -0.0115  0.9446 -0.8841
 2750SOL    HW219887   3.376   3.104   9.035 -1.7784 -0.8770 -0.3801
 2751SOL     OW19888   0.344   1.417   9.015 -0.0333 -0.4013  0.8573
 2751SOL    HW119889   0.375   1.505   9.036 -1.2184 -0.0276  1.0238
 2751SOL    HW219890   0.376   1.364   9.088  2.2929 -0.3319 -0.1071
 2752SOL     OW19891   2.214   4.439   8.407 -0.2906  0.1250  0.1059
 2752SOL    HW119892   2.236   4.506   8.343 -0.3430 -1.0267 -1.1234
 2752SOL    HW219893   2.239   4.363   8.355  0.1387  0.5366 -0.2887
 2753SOL     OW19894   4.004   2.222  13.227  0.6956  0.4234 -0.0407
 2753SOL    HW119895   4.011   2.152  13.163 -1.0883 -0.2225  0.4681
 2753SOL    HW219896   4.094   2.221  13.261  2.0065  2.1750 -3.4285
 2754SOL     OW19897   1.194   0.018  13.255 -0.0860  0.4963  0.2681
 2754SOL    HW119898   1.232   0.065  13.181  0.2950  0.0893  0.2079
 2754SOL    HW219899   1.117   4.724  13.212 -0.6371 -1.1894  2.7504
 2755SOL     OW19900   4.316   0.908  17.263  0.2381 -0.1493 -0.2624
 2755SOL    HW119901   4.273   0.826  17.287 -0.1345  0.0921 -0.1127
 2755SOL    HW219902   4.395   0.879  17.217  1.5853  2.6121  0.3291
 2756SOL     OW19903   0.694   2.520   4.995 -0.5844 -0.0072  0.1139
 2756SOL    HW119904   0.763   2.494   5.057  0.2238 -0.1544 -0.8410
 2756SOL    HW219905   0.738   2.494   4.914  3.3779  0.0929  2.2246
 2757SOL     OW19906   0.358   0.056   5.543 -0.0027  0.1716 -0.1760
 2757SOL    HW119907   0.328   0.079   5.455 -0.9687  1.0937  0.4055
 2757SOL    HW219908   0.306   4.720   5.552 -1.7564  1.2538 -0.7108
 2758SOL     OW19909   1.794   1.700   8.317  0.4724 -0.7140  0.8777
 2758SOL    HW119910   1.783   1.794   8.325  1.3034 -0.7432  2.2699
 2758SOL    HW219911   1.716   1.659   8.352 -0.2374 -1.9060 -2.0677
 2759SOL     OW19912   0.936   2.768   7.939 -0.2719 -0.3023 -0.2480
 2759SOL    HW119913   0.946   2.675   7.921 -0.5647  0.1049 -2.4220
 2759SOL    HW219914   1.021   2.795   7.905 -0.2067 -0.1365  0.0423
 2760SOL     OW19915   0.334   1.716   4.823  0.6313 -0.0341 -0.2729
 2760SOL    HW119916   0.265   1.713   4.889  2.1289 -0.1379  1.2826
 2760SOL    HW219917   0.404   1.675   4.875  1.1606  0.8266 -0.3150
 2761SOL     OW19918   3.893   3.999  16.752 -0.0741 -0.3902 -0.6240
 2761SOL    HW119919   3.843   4.061  16.805  0.3311  0.0427 -0.7553
 2761SOL    HW219920   3.976   4.045  16.765 -0.4802  0.9178 -2.6902
 2762SOL     OW19921   3.273   4.502  12.305 -0.1387  0.2141 -0.4847
 2762SOL    HW119922   3.365   4.529  12.304 -0.2768  0.6983 -0.0086
 2762SOL    HW219923   3.277   4.449  12.384 -1.0508  0.3982 -0.3148
 2763SOL     OW19924   3.582   3.978   1.923 -0.1945 -0.7242  0.1384
 2763SOL    HW119925   3.670   4.006   1.950  0.1923 -2.8079  1.0303
 2763SOL    HW219926   3.601   3.895   1.881 -3.2818 -0.6954 -1.3124
 2764SOL     OW19927   3.689   1.162   7.427  0.0987  0.3710 -0.0158
 2764SOL    HW119928   3.704   1.070   7.409 -1.1572  0.5264 -1.7754
 2764SOL    HW219929   3.761   1.176   7.488  0.7535 -0.2356 -0.6520
 2765SOL     OW19930   1.053   3.853   8.661  0.2697  0.6517  0.1342
 2765SOL    HW119931   1.047   3.763   8.630 -0.9690  0.4089  1.0551
 2765SOL    HW219932   1.058   3.903   8.580  0.8321  0.9713  0.3682
 2766SOL     OW19933   1.567   4.663   5.931 -0.0969 -0.6344 -0.5403
 2766SOL    HW119934   1.529   4.588   5.977 -0.5301  0.8044  1.4303
 2766SOL    HW219935   1.549   4.730   5.996 -4.0440 -1.7944 -0.4559
 2767SOL     OW19936   4.339   1.973   2.450 -0.3761  0.2437 -0.1829
 2767SOL    HW119937   4.356   2.067   2.453  0.1066  0.2009 -1.4633
 2767SOL    HW219938   4.289   1.970   2.368 -0.7239 -1.1342  0.0696
 2768SOL     OW19939   2.496   2.568   7.058 -0.2922  0.0575 -0.0232
 2768SOL    HW119940   2.410   2.581   7.019  0.5168  0.0536 -1.8225
 2768SOL    HW219941   2.496   2.473   7.073 -0.0278 -0.1121 -1.1146
 2769SOL     OW19942   2.733   3.133   6.278  0.1085 -0.3779 -0.1902
 2769SOL    HW119943   2.690   3.051   6.300  0.1189 -0.8899 -2.1467
 2769SOL    HW219944   2.692   3.198   6.335 -2.3330 -1.5696 -0.6071
 2770SOL     OW19945   0.949   0.966   3.171  0.0837  0.5190 -0.4454
 2770SOL    HW119946   0.882   1.003   3.114  0.5587 -0.4558 -1.6421
 2770SOL    HW219947   0.990   1.050   3.194 -2.4337  1.2594  1.3556
 2771SOL     OW19948   2.900   0.325   1.980  0.4700 -0.9490  0.3993
 2771SOL    HW119949   2.842   0.284   2.044  0.5046 -2.0829 -0.2843
 2771SOL    HW219950   2.953   0.377   2.039  0.7735 -4.0204  2.8168
 2772SOL     OW19951   4.306   3.413  15.974  0.9558 -0.2947  0.2902
 2772SOL    HW119952   4.366   3.420  15.900  0.4204  0.2613 -0.0926
 2772SOL    HW219953   4.362   3.447  16.044 -0.3864  0.5258  0.9722
 2773SOL     OW19954   0.356   4.080   6.791  0.0156 -0.0848 -0.2850
 2773SOL    HW119955   0.357   4.166   6.833  0.0769 -0.6591  0.8982
 2773SOL    HW219956   0.306   4.109   6.715  1.4668  0.3827 -1.0617
 2774SOL     OW19957   1.974   2.496   2.792 -0.7385  0.1706 -0.4637
 2774SOL    HW119958   2.007   2.584   2.812  0.2712 -0.1083 -0.9040
 2774SOL    HW219959   2.021   2.446   2.858 -1.6946 -1.5487 -1.0822
 2775SOL     OW19960   0.979   3.277  11.123  0.2536 -0.0629  0.1387
 2775SOL    HW119961   1.050   3.320  11.076  2.8250 -2.2013  2.0202
 2775SOL    HW219962   1.014   3.276  11.213 -1.1528  0.6156  0.6984
 2776SOL     OW19963   2.042   1.258   3.814  0.1728 -0.2638 -0.1355
 2776SOL    HW119964   2.052   1.163   3.809 -1.0876 -0.4219  0.3181
 2776SOL    HW219965   1.951   1.277   3.789  0.7025 -0.0231 -1.9241
 2777SOL     OW19966   4.557   2.547  14.920  0.6010 -0.1442 -0.1000
 2777SOL    HW119967   4.498   2.477  14.891  0.7648 -0.4107  0.2121
 2777SOL    HW219968   4.498   2.619  14.943  0.3690 -1.2900  2.8615
 2778SOL     OW19969   2.000   4.571   6.542  0.2271  0.4941  0.1019
 2778SOL    HW119970   2.091   4.595   6.558 -0.7372  3.2904  1.5005
 2778SOL    HW219971   2.000   4.600   6.450 -2.1713 -2.0909 -0.7228
 2779SOL     OW19972   0.529   3.149   8.580 -0.3072 -0.0302 -0.0577
 2779SOL    HW119973   0.568   3.232   8.609  0.8540 -0.1671 -1.2633
 2779SOL    HW219974   0.476   3.173   8.504 -3.4032 -1.8944  1.4817
 2780SOL     OW19975   1.777   3.398  10.231 -0.1614  0.4614  0.1432
 2780SOL    HW119976   1.692   3.443  10.226 -0.1362  0.6864  1.9015
 2780SOL    HW219977   1.758   3.345  10.153  2.2876  2.5312 -1.8748
 2781SOL     OW19978   4.546   0.582  11.414 -0.0761  0.4732  0.1792
 2781SOL    HW119979   4.468   0.551  11.460  0.1769 -0.7104 -0.1842
 2781SOL    HW219980   4.559   0.670  11.450  1.2757  1.1715 -1.9915
 2782SOL     OW19981   4.254   1.667   3.623  0.0715 -0.4852 -0.2531
 2782SOL    HW119982   4.203   1.607   3.677  1.6748  0.5180  2.3658
 2782SOL    HW219983   4.336   1.684   3.670 -0.3552  0.2697  0.2146
 2783SOL     OW19984   3.412   2.248   2.227 -0.0906  0.2783 -0.0552
 2783SOL    HW119985   3.327   2.291   2.233  0.4868  1.4645 -0.3500
 2783SOL    HW219986   3.415   2.203   2.312  2.2922  1.4557  0.5028
 2784SOL     OW19987   2.834   2.945  10.542  0.5875 -0.2712 -0.3981
 2784SOL    HW119988   2.819   2.965  10.634  0.7360 -2.0366  0.0047
 2784SOL    HW219989   2.797   2.857  10.534  0.2790 -0.1439 -0.3656
 2785SOL     OW19990   4.643   0.643  12.721 -0.1303 -0.5838 -0.1292
 2785SOL    HW119991   4.731   0.617  12.693  0.3440  0.1736  0.6402
 2785SOL    HW219992   4.611   0.568  12.771 -1.2409 -0.6395 -0.9210
 2786SOL     OW19993   1.704   1.314   9.755  0.3546  0.0201 -0.3152
 2786SOL    HW119994   1.783   1.349   9.797  0.2932 -0.3527  0.1083
 2786SOL    HW219995   1.645   1.372   9.804 -2.7353 -2.3636 -1.2460
 2787SOL     OW19996   2.691   3.128  12.388  0.0813 -0.0547 -0.2213
 2787SOL    HW119997   2.646   3.211  12.372  1.8934  1.1474  0.9213
 2787SOL    HW219998   2.782   3.158  12.396 -0.2415  0.7243  0.4190
 2788SOL     OW19999   0.200   1.196   4.599  0.4164  0.5342 -0.3462
 2788SOL    HW120000   0.197   1.106   4.566 -0.9294  0.3537  0.2856
 2788SOL    HW220001   0.258   1.196   4.675  0.9588  2.1900 -0.7605
 2789SOL     OW20002   3.671   4.639   9.384  0.3421 -0.0566 -0.1391
 2789SOL    HW120003   3.704   4.638   9.293 -3.1073  1.1836 -1.3842
 2789SOL    HW220004   3.740   4.600   9.438 -0.3899 -0.8147  0.2399
 2790SOL     OW20005   3.099   4.323  17.562 -0.3122  0.2960  0.1032
 2790SOL    HW120006   3.108   4.361  17.475  0.6832 -0.1621  0.0101
 2790SOL    HW220007   3.145   4.389  17.613  0.8034 -1.1583  0.9934
 2791SOL     OW20008   1.843   4.717   6.731 -0.0585  0.4129  0.1374
 2791SOL    HW120009   1.768   4.657   6.730 -0.9137  1.4844 -0.7301
 2791SOL    HW220010   1.876   4.704   6.643 -1.4921  0.2426 -0.3805
 2792SOL     OW20011   4.499   3.049  15.802  0.2951  0.3488  0.0115
 2792SOL    HW120012   4.557   3.094  15.740 -0.5424  1.2387 -0.1399
 2792SOL    HW220013   4.546   2.968  15.783 -0.6353 -0.1629 -0.1360
 2793SOL     OW20014   0.247   3.338  14.551 -0.0625 -0.1075  0.0319
 2793SOL    HW120015   0.304   3.413  14.531  0.7430 -0.9570 -0.8186
 2793SOL    HW220016   0.314   3.272  14.568  0.1816  0.6909  2.1944
 2794SOL     OW20017   3.459   2.851  15.182  0.0053  0.0459 -0.7393
 2794SOL    HW120018   3.515   2.851  15.104  1.9762 -3.5313  0.6925
 2794SOL    HW220019   3.444   2.757  15.185 -0.7583  0.1687 -0.8090
 2795SOL     OW20020   3.901   4.486   0.406 -0.2404 -0.0131  0.9774
 2795SOL    HW120021   3.909   4.553   0.473  0.5385  1.4854 -0.6067
 2795SOL    HW220022   3.986   4.494   0.362 -0.1578 -2.7379  0.6417
 2796SOL     OW20023   3.356   1.258   5.700  0.0616  0.3260  0.9525
 2796SOL    HW120024   3.447   1.284   5.688 -0.3489  0.4940 -1.6230
 2796SOL    HW220025   3.369   1.183   5.758 -1.8120 -1.7522 -1.3168
 2797SOL     OW20026   4.451   1.539   9.287  0.4272 -0.0755  0.0691
 2797SOL    HW120027   4.405   1.616   9.321 -0.3489  0.1302 -1.4595
 2797SOL    HW220028   4.416   1.523   9.199  1.2402 -2.6155  0.2163
 2798SOL     OW20029   2.262   1.161   7.901  0.2238  0.6386 -0.4856
 2798SOL    HW120030   2.232   1.070   7.897  0.3101  0.6095 -0.4654
 2798SOL    HW220031   2.273   1.178   7.808 -2.5268 -3.4003 -1.5374
 2799SOL     OW20032   2.982   4.012   9.655 -0.2023  0.2534  0.1052
 2799SOL    HW120033   2.887   4.003   9.649 -0.1666 -0.1004  0.0615
 2799SOL    HW220034   2.990   4.105   9.636  0.2810  0.2663  0.3613
 2800SOL     OW20035   3.103   2.020   6.780 -0.0214 -0.4824  0.1112
 2800SOL    HW120036   3.111   2.105   6.823 -0.7879  0.0211 -0.7622
 2800SOL    HW220037   3.197   2.002   6.773 -0.1705 -0.1423 -2.4376
 2801SOL     OW20038   3.772   2.591   7.392  0.2030 -0.4939 -0.7541
 2801SOL    HW120039   3.808   2.600   7.304  3.0018  0.3075  0.4753
 2801SOL    HW220040   3.844   2.539   7.427 -0.0976 -0.2898  0.1730
 2802SOL     OW20041   2.173   2.021  15.684 -0.7087  0.0871 -0.2227
 2802SOL    HW120042   2.123   1.949  15.722  0.3392 -1.7165 -2.2346
 2802SOL    HW220043   2.121   2.099  15.702  0.9251  1.4529 -1.4383
 2803SOL     OW20044   2.299   2.540   6.701 -0.0489  0.4180  0.2817
 2803SOL    HW120045   2.313   2.584   6.785  0.4618  0.3418  0.2341
 2803SOL    HW220046   2.248   2.606   6.655 -2.3382 -2.0839 -0.7770
 2804SOL     OW20047   1.430   1.739  17.292 -0.0111 -0.1632  0.1610
 2804SOL    HW120048   1.417   1.699  17.378 -0.7874 -1.1271 -0.4057
 2804SOL    HW220049   1.461   1.825  17.320 -0.9372  0.0508  0.5257
 2805SOL     OW20050   2.616   2.111  15.800  0.0259  0.2524 -0.4401
 2805SOL    HW120051   2.639   2.142  15.887  2.5106  0.4759 -1.1766
 2805SOL    HW220052   2.521   2.119  15.799 -0.2577 -2.9606  0.8747
 2806SOL     OW20053   1.526   4.249  17.615 -0.0497 -0.1362 -0.0176
 2806SOL    HW120054   1.452   4.280  17.666 -0.7394 -0.4528 -0.8274
 2806SOL    HW220055   1.601   4.292  17.656 -0.5526  1.1935 -0.4955
 2807SOL     OW20056   2.494   2.388   8.920 -0.3013  0.0882 -0.2952
 2807SOL    HW120057   2.511   2.426   9.006 -1.1917 -0.0950 -0.0330
 2807SOL    HW220058   2.410   2.429   8.898  0.1657  1.1234 -0.1481
 2808SOL     OW20059   2.178   1.403   3.998  0.0790  0.1504 -0.6518
 2808SOL    HW120060   2.132   1.367   3.923 -0.9218  0.3500 -0.1244
 2808SOL    HW220061   2.216   1.482   3.959  0.3497  1.1126  1.5667
 2809SOL     OW20062   1.533   3.519   3.907 -0.1070 -0.2597 -0.4451
 2809SOL    HW120063   1.585   3.580   3.855 -1.1049 -1.5172 -2.8902
 2809SOL    HW220064   1.482   3.581   3.961  0.2424 -1.2459  1.0273
 2810SOL     OW20065   2.993   2.019   4.076 -0.4023  0.2096 -0.0656
 2810SOL    HW120066   2.905   2.056   4.085 -0.5694  0.4107 -2.5567
 2810SOL    HW220067   3.046   2.093   4.047 -0.2202 -0.3000 -1.0362
 2811SOL     OW20068   2.773   0.726   2.185 -0.1512  0.0215 -0.3359
 2811SOL    HW120069   2.706   0.793   2.193  0.7882  0.8132  0.9135
 2811SOL    HW220070   2.720   0.652   2.215  0.4264 -0.0155  0.5763
 2812SOL     OW20071   2.470   4.631   2.732  0.6521 -0.1684  0.7236
 2812SOL    HW120072   2.409   4.558   2.724  0.6266 -0.2990  2.1156
 2812SOL    HW220073   2.553   4.592   2.704 -0.5275 -1.3419 -1.1150
 2813SOL     OW20074   3.644   4.697   4.008 -0.0154 -0.2552  0.3426
 2813SOL    HW120075   3.614   4.691   3.917 -1.1291 -0.5444  0.7298
 2813SOL    HW220076   3.568   4.672   4.059 -0.4537  1.1508  0.3752
 2814SOL     OW20077   2.777   0.598   8.322  0.2475 -0.1721  0.3187
 2814SOL    HW120078   2.684   0.612   8.307  0.7025  2.3530 -0.1203
 2814SOL    HW220079   2.796   0.552   8.240  0.5456 -0.6074  0.6295
 2815SOL     OW20080   0.707   4.565   7.698 -0.0814  0.4790  0.3113
 2815SOL    HW120081   0.669   4.600   7.778 -1.6919 -1.5383  0.4349
 2815SOL    HW220082   0.693   4.641   7.642 -1.1116  0.9071  1.1566
 2816SOL     OW20083   3.531   2.908   4.760 -0.1976 -0.7404 -0.0171
 2816SOL    HW120084   3.565   2.990   4.724  0.6611 -0.2592  1.8706
 2816SOL    HW220085   3.594   2.865   4.818 -0.9937 -2.3855 -0.3585
 2817SOL     OW20086   0.553   1.847   0.089 -0.1434 -0.6817 -0.0631
 2817SOL    HW120087   0.637   1.888   0.110 -0.8220 -0.1654  1.6728
 2817SOL    HW220088   0.485   1.915   0.093  0.9337  0.4344 -0.6233
 2818SOL     OW20089   0.940   2.872   5.550  0.4186  0.1581 -0.0584
 2818SOL    HW120090   0.888   2.792   5.547  0.2669  0.2470  0.2445
 2818SOL    HW220091   0.988   2.870   5.467  0.1700 -1.0706 -0.1635
 2819SOL     OW20092   2.330   3.963  16.825  0.2672  0.4713  0.0942
 2819SOL    HW120093   2.400   3.952  16.761  0.5154 -1.6413  0.7254
 2819SOL    HW220094   2.301   3.873  16.841 -1.3955  1.1682  1.0489
 2820SOL     OW20095   4.237   2.324   5.197 -0.4613 -0.2767  0.1568
 2820SOL    HW120096   4.225   2.357   5.107 -1.4277  0.9807  0.7386
 2820SOL    HW220097   4.310   2.381   5.221  0.8185 -1.4756 -0.8904
 2821SOL     OW20098   4.057   2.400  14.801  0.3121  0.0243  0.1829
 2821SOL    HW120099   4.038   2.422  14.892 -0.1718 -2.0520  0.5668
 2821SOL    HW220100   4.146   2.436  14.807  0.8786 -1.5625  1.2084
 2822SOL     OW20101   3.095   0.254  12.204  0.3813  0.3737 -0.1298
 2822SOL    HW120102   3.149   0.326  12.236  0.8481  0.9216 -2.1459
 2822SOL    HW220103   3.056   0.290  12.125  1.2400 -0.7559 -1.0746
 2823SOL     OW20104   3.707   3.313   1.820  0.2698 -0.7111  0.5553
 2823SOL    HW120105   3.768   3.282   1.753 -1.0161  1.9768 -1.8569
 2823SOL    HW220106   3.724   3.243   1.882 -2.7396 -0.0588  2.0821
 2824SOL     OW20107   4.255   3.909   6.493 -0.0224 -0.4509  0.0701
 2824SOL    HW120108   4.209   3.975   6.545 -0.7268 -1.2980  0.5287
 2824SOL    HW220109   4.347   3.926   6.510 -0.5808  1.4274  1.3006
 2825SOL     OW20110   2.573   1.351   2.838 -0.3649 -0.3349  0.6708
 2825SOL    HW120111   2.524   1.354   2.756 -1.2771 -1.3670  1.1772
 2825SOL    HW220112   2.664   1.366   2.815 -0.5796 -2.9508 -1.9334
 2826SOL     OW20113   3.848   0.190  16.977 -0.3032 -0.1260 -0.6251
 2826SOL    HW120114   3.885   0.121  17.032 -0.6922  0.4804  0.4001
 2826SOL    HW220115   3.757   0.160  16.970 -1.2910  2.9472 -1.2095
 2827SOL     OW20116   1.460   4.369   3.756  0.1369  0.4609 -0.1670
 2827SOL    HW120117   1.551   4.347   3.738  0.0718 -0.5556  0.7917
 2827SOL    HW220118   1.434   4.322   3.835  1.6201 -0.3733 -0.1892
 2828SOL     OW20119   4.131   2.023   3.064 -0.4453  0.0990  0.1322
 2828SOL    HW120120   4.136   2.118   3.073 -0.6215  0.2291 -1.0666
 2828SOL    HW220121   4.068   1.995   3.130 -0.8728  0.4950 -0.1047
 2829SOL     OW20122   3.057   3.764   2.377  0.2804  0.0504 -0.5728
 2829SOL    HW120123   3.092   3.693   2.431 -1.0935  0.4825  0.8923
 2829SOL    HW220124   2.966   3.737   2.367 -0.6736  1.6812  3.3220
 2830SOL     OW20125   3.341   0.967   7.416  0.5267 -1.0974  0.1504
 2830SOL    HW120126   3.349   1.061   7.407 -0.6615 -1.1727 -1.4390
 2830SOL    HW220127   3.323   0.954   7.510  0.8956 -0.4258  0.3110
 2831SOL     OW20128   4.494   0.996  11.895  0.3524 -0.6542  0.6621
 2831SOL    HW120129   4.545   1.029  11.821  1.2709  1.4833  2.2378
 2831SOL    HW220130   4.459   1.083  11.914 -0.7143 -1.1168  0.8094
 2832SOL     OW20131   0.488   4.286  16.789  0.5946 -0.5695 -0.2016
 2832SOL    HW120132   0.457   4.253  16.705 -0.2591  0.4803 -0.2828
 2832SOL    HW220133   0.450   4.220  16.847 -1.8281  1.7230  0.7950
 2833SOL     OW20134   2.321   2.810  12.087 -0.0990  0.0931 -0.1612
 2833SOL    HW120135   2.320   2.851  12.174  0.0361 -0.9801  0.3526
 2833SOL    HW220136   2.244   2.849  12.045  0.3232  0.3520 -0.6836
 2834SOL     OW20137   4.710   3.595   3.117  0.1490  0.4475  0.2047
 2834SOL    HW120138   0.032   3.655   3.083  1.6088 -1.2830 -0.0314
 2834SOL    HW220139   4.738   3.512   3.078  1.8967  2.3421 -2.5415
 2835SOL     OW20140   3.739   3.378   2.916  1.1383 -0.5947  0.0356
 2835SOL    HW120141   3.812   3.357   2.974  0.1077 -1.4710  1.0409
 2835SOL    HW220142   3.703   3.454   2.960 -0.1523 -1.9850  1.3991
 2836SOL     OW20143   2.345   0.454   9.646 -1.0192  0.2349 -0.7616
 2836SOL    HW120144   2.306   0.369   9.665 -0.3794 -0.2066 -1.4084
 2836SOL    HW220145   2.436   0.425   9.638 -1.1001 -0.2541  0.1755
 2837SOL     OW20146   3.278   2.293  12.915  0.1777  0.1476  0.2465
 2837SOL    HW120147   3.355   2.283  12.971 -0.1217  1.2832  0.8517
 2837SOL    HW220148   3.315   2.260  12.833  1.4215  1.9421  0.0961
 2838SOL     OW20149   1.093   2.125   2.962  0.5313  0.5272 -0.2972
 2838SOL    HW120150   1.025   2.081   3.013  1.7752 -1.4221 -0.3317
 2838SOL    HW220151   1.049   2.210   2.962  0.5418  0.5278  1.9931
 2839SOL     OW20152   1.520   1.137   0.896  0.3959 -0.2314 -0.4570
 2839SOL    HW120153   1.559   1.210   0.945 -1.9787  0.2613  0.6822
 2839SOL    HW220154   1.431   1.170   0.887  0.5706  0.5480  0.6400
 2840SOL     OW20155   0.566   4.736   7.935  0.6945 -0.0572  0.3357
 2840SOL    HW120156   0.481   0.033   7.946  0.2539 -1.4929  2.3568
 2840SOL    HW220157   0.630   0.046   7.980  1.4421  1.6625 -2.7751
 2841SOL     OW20158   3.722   4.130   7.326 -0.2158  0.1507 -0.2992
 2841SOL    HW120159   3.646   4.122   7.384 -1.1955  0.8738 -1.4755
 2841SOL    HW220160   3.681   4.178   7.254 -1.1615 -0.0930  0.0788
 2842SOL     OW20161   3.947   2.688   2.539  0.1587 -0.2294  0.5376
 2842SOL    HW120162   4.029   2.732   2.517  0.3255 -1.4647 -1.3013
 2842SOL    HW220163   3.922   2.753   2.605 -1.0949  0.0484 -0.2276
 2843SOL     OW20164   0.173   2.166   3.754  0.0634 -1.0005  0.1823
 2843SOL    HW120165   0.120   2.241   3.782  0.7388  0.0584 -1.3486
 2843SOL    HW220166   0.260   2.205   3.747 -0.1202 -0.8739 -1.4075
 2844SOL     OW20167   4.562   1.857  13.049  0.2282 -0.8265  0.5675
 2844SOL    HW120168   4.642   1.850  12.996  0.3652  0.7358  0.5412
 2844SOL    HW220169   4.600   1.899  13.127  1.7750  0.1412 -0.6841
 2845SOL     OW20170   4.119   1.585   8.598  0.4123  0.3072  0.0016
 2845SOL    HW120171   4.204   1.552   8.627 -0.4360 -1.9569 -0.0514
 2845SOL    HW220172   4.061   1.529   8.651  1.3564 -0.3394  0.3567
 2846SOL     OW20173   2.770   4.118   6.933  0.6089  0.5329 -0.1543
 2846SOL    HW120174   2.768   4.158   6.846 -0.1192 -0.1790 -0.4702
 2846SOL    HW220175   2.687   4.070   6.938  1.6283 -0.7949  3.5076
 2847SOL     OW20176   0.169   0.023   5.018  0.1661  0.4970 -0.1106
 2847SOL    HW120177   0.190   4.674   5.031 -2.1286 -0.0189 -0.0370
 2847SOL    HW220178   0.081   0.009   4.982  0.2645  0.3074 -0.2762
 2848SOL     OW20179   4.182   3.840   3.636  0.2392 -0.2929 -0.4487
 2848SOL    HW120180   4.113   3.802   3.583  0.8149 -0.5380 -1.0152
 2848SOL    HW220181   4.157   3.818   3.726 -1.7955 -0.0815 -0.9686
 2849SOL     OW20182   3.634   0.116   8.845  0.6141  0.3921  0.4122
 2849SOL    HW120183   3.606   0.028   8.872 -2.6176  1.6069  0.9654
 2849SOL    HW220184   3.729   0.103   8.845  0.5183 -0.3209  0.0934
 2850SOL     OW20185   3.613   3.902   2.855 -0.5526  0.2464  0.5900
 2850SOL    HW120186   3.671   3.976   2.839 -0.8467 -0.1418 -2.2190
 2850SOL    HW220187   3.598   3.899   2.950  2.0900 -2.6706  0.9133
 2851SOL     OW20188   4.414   2.709  14.062  0.1120 -0.0960 -0.1629
 2851SOL    HW120189   4.323   2.703  14.034 -0.2406 -1.3385  1.2772
 2851SOL    HW220190   4.427   2.804  14.072 -0.2091 -0.2050  1.2447
 2852SOL     OW20191   4.629   2.915   6.995  0.0039  0.1839 -0.1832
 2852SOL    HW120192   4.600   2.857   7.065  2.9044  1.0596  1.7739
 2852SOL    HW220193   4.719   2.887   6.979 -1.2623 -3.0702 -1.5675
 2853SOL     OW20194   0.678   4.288   6.308  0.2589  0.4674 -0.2884
 2853SOL    HW120195   0.746   4.259   6.248  0.3957 -0.6703  0.4072
 2853SOL    HW220196   0.625   4.209   6.321 -0.3215  0.8114 -0.5256
 2854SOL     OW20197   2.177   1.865  15.454 -0.1023 -0.0461 -0.1497
 2854SOL    HW120198   2.262   1.901  15.427  0.7351 -0.0965  2.4395
 2854SOL    HW220199   2.151   1.928  15.521 -2.2170 -0.1222 -0.9045
 2855SOL     OW20200   3.081   2.719   7.472  0.7973  0.4708 -0.5194
 2855SOL    HW120201   2.989   2.707   7.496  0.2328  2.7780 -1.4820
 2855SOL    HW220202   3.128   2.689   7.549  1.1646  3.6916  0.5191
 2856SOL     OW20203   4.394   1.852  14.457 -0.2506  0.0033  0.1370
 2856SOL    HW120204   4.371   1.798  14.533  1.2130 -2.0659 -0.8940
 2856SOL    HW220205   4.442   1.916  14.510  0.9266  0.5441 -1.5839
 2857SOL     OW20206   1.957   3.428   8.812 -0.1494  0.4404 -0.1784
 2857SOL    HW120207   1.895   3.377   8.761 -0.3972  0.7496 -0.1901
 2857SOL    HW220208   1.917   3.423   8.899 -1.7765  0.6521 -0.9062
 2858SOL     OW20209   1.241   2.420   6.355  0.2356  0.0867  0.5216
 2858SOL    HW120210   1.182   2.417   6.280 -0.4216 -0.1624  1.0478
 2858SOL    HW220211   1.264   2.512   6.364 -1.9094  0.5661  1.1146
 2859SOL     OW20212   0.470   2.706  14.041  0.7294  0.6886  0.8027
 2859SOL    HW120213   0.488   2.614  14.021 -0.8800  0.0898  2.1382
 2859SOL    HW220214   0.534   2.745  13.981  0.7885 -3.9084 -2.0579
 2860SOL     OW20215   3.876   1.197  15.784  0.1641  0.7923  0.5226
 2860SOL    HW120216   3.864   1.289  15.806 -0.0802  0.5382  1.4532
 2860SOL    HW220217   3.839   1.194  15.695 -0.1748 -1.3769  0.7353
 2861SOL     OW20218   1.975   3.831  14.141 -0.3377 -0.1485  0.0751
 2861SOL    HW120219   2.025   3.749  14.149 -3.5131 -1.9886  0.8118
 2861SOL    HW220220   1.982   3.841  14.046 -3.5505  2.2656  0.1132
 2862SOL     OW20221   0.960   1.890   3.622  0.2264  0.1641  0.3217
 2862SOL    HW120222   0.997   1.873   3.709  1.3459  1.3629  0.0702
 2862SOL    HW220223   0.866   1.876   3.626 -0.1342  2.0901 -1.3987
 2863SOL     OW20224   1.546   0.186  17.424  0.4006  0.2782  0.2699
 2863SOL    HW120225   1.515   0.163  17.336 -0.9869  2.1750  0.2603
 2863SOL    HW220226   1.619   0.244  17.403 -0.4956  1.1717 -0.3906
 2864SOL     OW20227   2.938   4.470  12.641  0.3017  0.2879 -0.2241
 2864SOL    HW120228   2.863   4.468  12.700  1.1812  0.7737  0.9026
 2864SOL    HW220229   2.977   4.557  12.653  0.1123 -0.0744  2.9820
 2865SOL     OW20230   4.319   2.731   4.078 -0.0043 -0.1766  0.4457
 2865SOL    HW120231   4.325   2.770   3.991  2.7135 -1.6518 -0.0391
 2865SOL    HW220232   4.292   2.810   4.124  2.3584  0.2187  1.1856
 2866SOL     OW20233   1.404   4.425  15.785 -0.2277  0.2555  0.1505
 2866SOL    HW120234   1.430   4.345  15.829  0.1042 -0.9688 -2.3191
 2866SOL    HW220235   1.400   4.393  15.695 -0.5712  1.2038 -0.1774
 2867SOL     OW20236   1.770   4.406   7.857  0.9715  0.5370  0.1903
 2867SOL    HW120237   1.826   4.414   7.779  0.4435 -0.1890 -0.2630
 2867SOL    HW220238   1.681   4.423   7.825  1.6287  0.7000 -1.6022
 2868SOL     OW20239   0.938   3.160  14.718  0.4244  0.4341 -0.3623
 2868SOL    HW120240   0.911   3.186  14.806 -0.9872  0.8078 -0.9126
 2868SOL    HW220241   1.004   3.096  14.746 -0.1249  0.5590  1.1987
 2869SOL     OW20242   2.114   1.683   4.249 -0.0405 -0.7900  0.3475
 2869SOL    HW120243   2.064   1.757   4.212  3.3929 -0.0377 -2.8354
 2869SOL    HW220244   2.202   1.718   4.263  1.2826 -3.0650 -2.2854
 2870SOL     OW20245   4.636   0.821   9.420  0.0204 -0.3041  0.0201
 2870SOL    HW120246   4.696   0.880   9.465 -1.0411  0.1409  0.8386
 2870SOL    HW220247   4.563   0.811   9.481 -0.9189 -1.6209 -1.3171
 2871SOL     OW20248   2.727   4.097   6.020 -0.8210 -0.0790  0.1380
 2871SOL    HW120249   2.777   4.045   6.082 -0.9303  0.3105  0.5514
 2871SOL    HW220250   2.765   4.058   5.941 -0.7181 -3.1426  1.7010
 2872SOL     OW20251   3.548   2.922   8.665 -0.0437  0.0086 -0.0235
 2872SOL    HW120252   3.457   2.895   8.681 -0.2781  0.5277 -0.4853
 2872SOL    HW220253   3.556   2.998   8.722 -3.3020 -0.4820  1.1178
 2873SOL     OW20254   2.761   0.544   5.523  0.1719 -0.1422  0.3517
 2873SOL    HW120255   2.772   0.598   5.445  1.7326 -0.4966  0.3241
 2873SOL    HW220256   2.789   0.461   5.484 -0.7647 -0.0841 -0.4339
 2874SOL     OW20257   1.486   2.498   4.328 -0.0464  0.2006 -0.3841
 2874SOL    HW120258   1.443   2.554   4.392 -0.3934  0.5346 -0.9104
 2874SOL    HW220259   1.434   2.418   4.328 -0.2761  0.3662  1.7336
 2875SOL     OW20260   2.782   4.112   4.033 -0.0277 -0.2723  0.2353
 2875SOL    HW120261   2.862   4.060   4.038 -0.2321 -0.2461  3.6729
 2875SOL    HW220262   2.741   4.068   3.958  1.7029  0.6396 -1.2439
 2876SOL     OW20263   1.339   1.331  17.643 -0.2890  0.1816  0.0376
 2876SOL    HW120264   1.273   1.380  17.594 -0.2071  0.2004 -0.0534
 2876SOL    HW220265   1.319   1.370  17.728  0.7084 -2.9594  1.6807
 2877SOL     OW20266   2.849   3.878   2.622 -0.1808  0.6806  0.0761
 2877SOL    HW120267   2.881   3.838   2.703 -0.1173 -1.6629 -1.1298
 2877SOL    HW220268   2.760   3.841   2.622 -0.0729  0.4407 -0.8289
 2878SOL     OW20269   0.770   3.615   8.027  0.3088 -0.3336  0.9039
 2878SOL    HW120270   0.767   3.531   7.982 -0.7700 -0.7440  1.7519
 2878SOL    HW220271   0.723   3.607   8.110 -0.0775 -1.4109  0.5725
 2879SOL     OW20272   4.108   1.945   8.698  0.1373 -0.5615  0.2076
 2879SOL    HW120273   4.080   1.902   8.617  1.4720  0.1067 -0.6207
 2879SOL    HW220274   4.069   2.032   8.691  1.8789 -0.0145 -2.8566
 2880SOL     OW20275   4.539   3.590   0.453  0.1398  0.5775 -0.1381
 2880SOL    HW120276   4.605   3.529   0.486 -0.1133  1.2745  1.6649
 2880SOL    HW220277   4.585   3.641   0.386  1.8513 -0.9518 -0.1285
 2881SOL     OW20278   2.533   1.084   5.904  0.4322  0.1980  0.0301
 2881SOL    HW120279   2.559   1.025   5.975  0.6415 -1.1727 -1.1657
 2881SOL    HW220280   2.570   1.039   5.828 -1.8430  0.5422 -1.2614
 2882SOL     OW20281   2.539   1.977   6.776  0.0471 -0.7599  0.2377
 2882SOL    HW120282   2.497   2.054   6.739 -0.5108 -1.0828  0.1895
 2882SOL    HW220283   2.632   1.995   6.767 -0.4729  1.4786 -0.6206
 2883SOL     OW20284   1.646   4.112  16.785  0.3835  0.1191 -0.5488
 2883SOL    HW120285   1.594   4.186  16.751  0.0112 -1.2416 -2.8986
 2883SOL    HW220286   1.616   4.034  16.739 -0.6909 -0.5807  1.3162
 2884SOL     OW20287   1.666   4.167   8.584  0.4925  0.5242  0.0912
 2884SOL    HW120288   1.588   4.219   8.564 -0.5823 -1.3053 -0.3790
 2884SOL    HW220289   1.658   4.144   8.676 -0.3779  2.1719  0.4322
 2885SOL     OW20290   1.893   3.274   0.417 -0.1886  0.1357  0.3371
 2885SOL    HW120291   1.820   3.306   0.364  0.8608 -0.7472 -1.6273
 2885SOL    HW220292   1.938   3.358   0.423 -0.7903  0.5836 -1.2486
 2886SOL     OW20293   1.252   2.122   8.603  0.6195  0.3080 -0.3315
 2886SOL    HW120294   1.263   2.047   8.545 -0.6876 -1.6741  1.9958
 2886SOL    HW220295   1.157   2.110   8.612  0.1693  0.9987 -3.8752
 2887SOL     OW20296   0.643   0.767   4.107  0.0682 -0.2516 -0.1333
 2887SOL    HW120297   0.728   0.802   4.081 -0.8251  1.9290 -0.1416
 2887SOL    HW220298   0.583   0.837   4.081 -1.0938 -0.6902  1.3198
 2888SOL     OW20299   0.049   3.790  10.997 -0.4057  0.3232 -0.1946
 2888SOL    HW120300   0.032   3.837  11.079 -0.5958 -1.0631  0.5790
 2888SOL    HW220301   4.712   3.797  10.947 -0.5039 -0.1967 -0.1166
 2889SOL     OW20302   0.134   4.675  17.447  0.3138  0.4531  0.3542
 2889SOL    HW120303   0.157   0.020  17.476 -1.7361  0.6712  1.2791
 2889SOL    HW220304   0.056   4.699  17.397  1.1372 -0.9906 -1.6077
 2890SOL     OW20305   1.419   4.012   5.788 -0.8447  0.0418 -0.2528
 2890SOL    HW120306   1.363   4.084   5.817  1.2555  1.7833 -0.5752
 2890SOL    HW220307   1.369   3.970   5.718 -0.3856  0.8128 -1.0255
 2891SOL     OW20308   0.062   4.014   2.253  0.7061 -0.0510 -0.2629
 2891SOL    HW120309   0.105   4.066   2.185  1.2509  2.0350  1.6741
 2891SOL    HW220310   0.133   3.986   2.311  1.1304  0.3069 -0.6095
 2892SOL     OW20311   4.194   4.101   8.880 -0.9891  0.4966 -0.2689
 2892SOL    HW120312   4.146   4.018   8.886  0.7075 -0.4904 -0.5130
 2892SOL    HW220313   4.234   4.086   8.795 -2.0879  1.9500 -1.0327
 2893SOL     OW20314   1.418   3.283   3.831 -0.0348 -0.2480  0.2844
 2893SOL    HW120315   1.458   3.277   3.744 -0.9203  2.5475 -0.3091
 2893SOL    HW220316   1.458   3.362   3.866  0.2188  0.5009 -1.6600
 2894SOL     OW20317   1.867   1.590   7.831 -0.0537 -0.5497  0.3289
 2894SOL    HW120318   1.789   1.592   7.886  0.2473  0.0967  0.7405
 2894SOL    HW220319   1.882   1.684   7.815 -0.4157 -0.7476 -1.1900
 2895SOL     OW20320   0.719   2.598  15.293 -0.3950  0.3829  0.6563
 2895SOL    HW120321   0.729   2.524  15.352 -3.1540  0.2815  0.9874
 2895SOL    HW220322   0.630   2.628  15.309 -1.0743 -0.7677 -0.9086
 2896SOL     OW20323   0.685   4.050   5.370  0.0966 -0.6394 -0.2622
 2896SOL    HW120324   0.713   4.126   5.420 -0.5931 -1.5476  1.4948
 2896SOL    HW220325   0.735   3.983   5.416 -0.2258  0.3171  1.4772
 2897SOL     OW20326   1.817   1.677   4.683 -0.5976  0.5100 -0.1914
 2897SOL    HW120327   1.856   1.689   4.597  0.1854 -4.6072 -0.5676
 2897SOL    HW220328   1.771   1.593   4.689  1.6090 -0.8463 -2.2250
 2898SOL     OW20329   1.267   3.026  16.845 -0.7048 -0.3009  0.7778
 2898SOL    HW120330   1.330   3.058  16.780 -1.4106 -4.0430 -1.7724
 2898SOL    HW220331   1.318   2.952  16.877 -1.1376 -0.9210  0.0549
 2899SOL     OW20332   3.581   1.372   7.042 -0.6645 -0.0769 -0.2740
 2899SOL    HW120333   3.573   1.293   6.988  1.8562  0.0929 -0.9246
 2899SOL    HW220334   3.588   1.433   6.968  1.4375 -0.7085 -0.6182
 2900SOL     OW20335   2.065   2.623  10.515  0.4976  0.1248 -0.5426
 2900SOL    HW120336   2.112   2.616  10.431 -0.0863  1.9848 -1.0302
 2900SOL    HW220337   2.058   2.534  10.548 -1.9580  0.6994  0.4587
 2901SOL     OW20338   0.059   3.178   7.247 -0.0162  0.3767  0.3572
 2901SOL    HW120339   0.119   3.108   7.222  1.1414  0.8733  1.7369
 2901SOL    HW220340   0.115   3.219   7.313 -1.1646 -0.8207  2.0409
 2902SOL     OW20341   0.541   0.744   8.054  0.3909  0.1619 -0.8205
 2902SOL    HW120342   0.613   0.696   8.014  0.5654 -1.1215  1.0027
 2902SOL    HW220343   0.477   0.717   7.988 -1.1123 -0.6338  0.9321
 2903SOL     OW20344   3.484   0.273   4.940 -0.1809  0.7260  0.2761
 2903SOL    HW120345   3.523   0.340   4.997  1.1534 -0.7217  1.0412
 2903SOL    HW220346   3.440   0.213   4.999  0.0551  0.6560  0.3794
 2904SOL     OW20347   0.198   0.284   9.288  0.4055 -0.5305  0.5030
 2904SOL    HW120348   0.220   0.267   9.197  3.0245 -0.6259  1.1535
 2904SOL    HW220349   0.280   0.257   9.329  1.8968  2.5101 -0.4714
 2905SOL     OW20350   4.071   0.099   8.505  0.3013 -0.0213 -0.7096
 2905SOL    HW120351   4.057   0.068   8.595 -2.0036  0.2576 -0.9511
 2905SOL    HW220352   4.139   0.158   8.536  0.1385  0.3910 -1.1419
 2906SOL     OW20353   4.626   1.298   5.394 -0.2235 -0.1360  0.0950
 2906SOL    HW120354   4.603   1.312   5.485 -1.6269  0.9937 -0.4410
 2906SOL    HW220355   4.643   1.204   5.393  0.9073  0.0567  0.5193
 2907SOL     OW20356   2.679   0.258   3.732 -0.1489  0.4584  0.3374
 2907SOL    HW120357   2.711   0.262   3.822 -0.6249 -0.8231  0.5533
 2907SOL    HW220358   2.596   0.303   3.751 -1.1340 -0.8578 -0.8161
 2908SOL     OW20359   2.346   4.714   4.864  0.4895  0.4177 -0.0393
 2908SOL    HW120360   2.306   0.051   4.897  1.1802  1.0551 -0.7760
 2908SOL    HW220361   2.352   4.678   4.953  0.7256  1.8349  0.5141
 2909SOL     OW20362   2.342   3.389   9.048  0.5644 -0.2900 -0.2099
 2909SOL    HW120363   2.396   3.315   9.074  0.5276 -0.2474 -0.0123
 2909SOL    HW220364   2.297   3.403   9.131  1.1367 -2.5287  0.4620
 2910SOL     OW20365   3.683   1.418   6.384 -0.1995  0.0786  0.2810
 2910SOL    HW120366   3.649   1.498   6.343  0.7077  0.7705  0.8926
 2910SOL    HW220367   3.774   1.434   6.409  0.0477  1.1570 -1.3185
 2911SOL     OW20368   1.494   1.210   7.227 -0.2738  0.6758  0.0182
 2911SOL    HW120369   1.525   1.128   7.266  1.9174  3.4078  4.0054
 2911SOL    HW220370   1.558   1.218   7.156  0.9913 -0.7535  0.9951
 2912SOL     OW20371   0.421   3.539  16.662  0.5100  0.9599  0.2182
 2912SOL    HW120372   0.378   3.566  16.581 -0.4163  1.0173  0.7257
 2912SOL    HW220373   0.462   3.458  16.632 -0.5135  0.2927  0.6118
 2913SOL     OW20374   1.173   2.592   9.618  0.0130  0.0895 -0.2368
 2913SOL    HW120375   1.268   2.604   9.622  0.1912 -0.7957 -1.6837
 2913SOL    HW220376   1.144   2.633   9.699 -1.1741 -2.6373  0.7015
 2914SOL     OW20377   4.610   1.617  15.224  0.1725 -1.1760  0.9826
 2914SOL    HW120378   4.635   1.525  15.217 -0.4804 -1.2741 -0.0892
 2914SOL    HW220379   4.671   1.654  15.160 -2.5726  0.2678 -0.8056
 2915SOL     OW20380   3.539   0.004   2.978  0.9287  0.0797  0.3092
 2915SOL    HW120381   3.595   0.053   2.917 -0.7073  0.9991 -0.4600
 2915SOL    HW220382   3.493   4.690   2.918  0.4252  1.8807 -1.0714
 2916SOL     OW20383   0.454   2.814  11.306  0.1676 -0.2635 -0.6034
 2916SOL    HW120384   0.517   2.752  11.270  0.7648  0.7453 -1.2957
 2916SOL    HW220385   0.370   2.788  11.267 -0.2834  2.6744 -1.6114
 2917SOL     OW20386   4.191   4.001   5.184 -0.5579  0.5121  0.3163
 2917SOL    HW120387   4.180   4.007   5.279 -1.3367 -1.4564  0.3452
 2917SOL    HW220388   4.103   4.014   5.151 -0.2027 -1.3349 -1.3617
 2918SOL     OW20389   0.954   0.518   8.500  0.4433 -0.2198  0.5896
 2918SOL    HW120390   0.990   0.532   8.412 -2.0146 -1.5302 -0.6168
 2918SOL    HW220391   1.008   0.442   8.523  1.0932  0.4919  1.4172
 2919SOL     OW20392   1.099   3.599   6.067  0.0055  0.5260 -0.0023
 2919SOL    HW120393   1.026   3.647   6.106 -1.3197 -1.2510 -0.2859
 2919SOL    HW220394   1.081   3.620   5.975 -0.5942  2.2299  0.5168
 2920SOL     OW20395   3.952   4.120   7.623 -0.6014 -0.4375 -0.2427
 2920SOL    HW120396   4.026   4.089   7.570 -0.2325 -3.0400  1.7689
 2920SOL    HW220397   3.998   4.153   7.700  2.5703 -1.5616 -1.6737
 2921SOL     OW20398   0.669   3.338   5.419 -0.3105 -0.5144 -0.1242
 2921SOL    HW120399   0.642   3.386   5.498  1.0084  1.3398 -0.8044
 2921SOL    HW220400   0.764   3.335   5.424 -0.2860 -1.5517 -1.2195
 2922SOL     OW20401   1.743   3.240   6.748 -0.2431 -0.2549 -0.3782
 2922SOL    HW120402   1.788   3.325   6.748  1.1559 -1.0137  0.0786
 2922SOL    HW220403   1.811   3.182   6.715 -1.9430 -2.4298 -0.0364
 2923SOL     OW20404   1.211   3.028   6.118 -0.3171 -0.3376 -0.3534
 2923SOL    HW120405   1.193   3.117   6.086  2.7844 -0.3337 -2.1016
 2923SOL    HW220406   1.128   2.983   6.100 -0.8827  0.4462  0.2888
 2924SOL     OW20407   2.272   4.655   8.211 -0.0439 -0.3613  0.7655
 2924SOL    HW120408   2.353   4.650   8.160 -0.2272 -0.9204  0.5264
 2924SOL    HW220409   2.277   4.728   8.272 -1.0822  2.2649 -2.3090
 2925SOL     OW20410   2.996   2.814   3.990  0.1419  0.4347 -0.8778
 2925SOL    HW120411   2.906   2.834   3.964 -0.2253 -0.2218 -0.1261
 2925SOL    HW220412   3.035   2.836   3.905 -0.5715  2.1227 -0.7669
 2926SOL     OW20413   0.883   0.272  12.455  0.3712  0.0321 -0.6071
 2926SOL    HW120414   0.835   0.330  12.396 -0.0768 -0.5391 -0.8135
 2926SOL    HW220415   0.824   0.259  12.530  0.2049 -0.1875 -0.7767
 2927SOL     OW20416   1.312   4.563   4.528 -0.3558 -0.0133  0.4174
 2927SOL    HW120417   1.230   4.565   4.478  0.1715 -1.4442 -0.5192
 2927SOL    HW220418   1.330   4.469   4.539  1.6467 -0.2582 -5.1539
 2928SOL     OW20419   2.506   1.096   0.527 -0.6183  0.4253  0.0121
 2928SOL    HW120420   2.556   1.050   0.594 -0.4990  0.3639 -0.1196
 2928SOL    HW220421   2.441   1.135   0.586  0.8480  0.1698  1.8151
 2929SOL     OW20422   1.056   1.550   6.933  0.7846 -0.2069 -0.5929
 2929SOL    HW120423   0.992   1.621   6.937  2.0033  0.9919 -1.8316
 2929SOL    HW220424   1.008   1.475   6.901 -2.8054  1.5926  0.6023
 2930SOL     OW20425   2.917   3.367  11.968  0.1733 -0.4688  0.2358
 2930SOL    HW120426   2.919   3.329  11.880  1.5145 -0.6947  0.3663
 2930SOL    HW220427   2.902   3.288  12.019  3.1935 -1.3240 -0.2003
 2931SOL     OW20428   2.463   3.691   9.617 -0.1139  0.2723 -0.0966
 2931SOL    HW120429   2.539   3.633   9.606  0.2606  0.8656 -0.7009
 2931SOL    HW220430   2.461   3.697   9.712  0.8592 -0.3093 -0.0296
 2932SOL     OW20431   4.723   2.048  17.507  0.5543 -0.1434  0.0784
 2932SOL    HW120432   4.698   1.997  17.429 -0.4812  0.2932  0.1220
 2932SOL    HW220433   4.633   2.052  17.541  0.3803  1.6670 -0.6106
 2933SOL     OW20434   0.582   2.154  11.045 -0.4676  0.1663  0.5499
 2933SOL    HW120435   0.618   2.202  10.971 -1.5627 -1.6647 -1.1831
 2933SOL    HW220436   0.615   2.204  11.120  1.3452  0.3839 -0.4147
 2934SOL     OW20437   3.079   1.797   7.323  0.0243  0.2141 -0.3117
 2934SOL    HW120438   2.985   1.808   7.311 -0.1849 -0.8066  0.4181
 2934SOL    HW220439   3.116   1.850   7.253 -2.4562 -0.0402 -1.8190
 2935SOL     OW20440   3.423   3.184   3.989  0.8822  0.5909 -0.0292
 2935SOL    HW120441   3.511   3.154   4.009  0.1201 -1.0000  0.9025
 2935SOL    HW220442   3.428   3.175   3.894 -0.7177  0.0609 -0.0650
 2936SOL     OW20443   4.636   0.651   7.803 -0.5647 -0.4415 -0.0313
 2936SOL    HW120444   4.702   0.634   7.735  2.1699  1.6752  2.1187
 2936SOL    HW220445   4.559   0.653   7.746 -0.4120  0.7645 -0.1806
 2937SOL     OW20446   2.428   0.806  15.026 -0.3779 -0.5802  0.4139
 2937SOL    HW120447   2.416   0.714  15.051  2.6798 -0.2372  3.1179
 2937SOL    HW220448   2.356   0.834  15.082  0.6654 -0.1733  1.5403
 2938SOL     OW20449   3.651   1.686   9.213  0.4285 -0.2232  0.2556
 2938SOL    HW120450   3.570   1.647   9.245  0.2309  0.7064  0.8882
 2938SOL    HW220451   3.672   1.758   9.272 -1.5631  1.3063 -0.8865
 2939SOL     OW20452   3.174   3.351   7.305 -0.3031  0.0919 -0.0234
 2939SOL    HW120453   3.148   3.414   7.237 -1.2522  1.6329  1.7524
 2939SOL    HW220454   3.259   3.320   7.273 -0.4013 -0.0624 -0.1350
 2940SOL     OW20455   0.824   4.237   1.423  0.2125 -0.6125 -0.3974
 2940SOL    HW120456   0.793   4.202   1.340  1.6501 -0.3919 -1.0322
 2940SOL    HW220457   0.785   4.324   1.428 -0.2740 -0.9482  1.8937
 2941SOL     OW20458   4.131   3.503   9.408 -0.5410  0.3122  0.3464
 2941SOL    HW120459   4.206   3.558   9.427  0.8030 -1.4532  0.1353
 2941SOL    HW220460   4.143   3.478   9.317 -1.6010  2.4158 -0.3712
 2942SOL     OW20461   0.153   0.076   4.662  0.4100 -0.3749  0.1369
 2942SOL    HW120462   0.117   0.164   4.648  1.1984 -0.2657 -1.1586
 2942SOL    HW220463   0.114   0.041   4.742 -0.8756 -2.1500 -1.2639
 2943SOL     OW20464   1.489   3.607   8.422 -0.4986  0.6104 -0.1997
 2943SOL    HW120465   1.518   3.580   8.509 -0.2728  0.4105 -0.3394
 2943SOL    HW220466   1.564   3.571   8.375 -0.3411  3.3381 -2.0503
 2944SOL     OW20467   1.535   0.794   6.685 -0.2264 -0.4676  0.2521
 2944SOL    HW120468   1.564   0.770   6.773  0.7781 -0.5714 -0.1063
 2944SOL    HW220469   1.479   0.719   6.667  2.0091 -1.8377 -1.0686
 2945SOL     OW20470   4.181   0.472   7.264 -0.3895  0.4842  0.2934
 2945SOL    HW120471   4.272   0.479   7.294 -0.4015  1.6968  0.0675
 2945SOL    HW220472   4.183   0.514   7.178 -0.5879 -0.4692 -0.1758
 2946SOL     OW20473   2.950   2.205   2.564  0.1394 -0.6026 -0.2396
 2946SOL    HW120474   2.998   2.128   2.595  0.9764 -0.5360 -1.3499
 2946SOL    HW220475   2.891   2.221   2.637  1.3895  1.8330  0.2478
 2947SOL     OW20476   2.776   1.972   5.822  0.5046  0.3792  0.2401
 2947SOL    HW120477   2.701   2.027   5.796 -1.1501 -1.5599  0.9750
 2947SOL    HW220478   2.833   2.029   5.874  0.6961  2.0687 -1.8012
 2948SOL     OW20479   3.258   1.244   2.157 -0.0331  0.2947  0.0319
 2948SOL    HW120480   3.281   1.223   2.067 -2.4028 -3.9909  0.4150
 2948SOL    HW220481   3.169   1.209   2.159  0.4619 -1.0681 -1.9437
 2949SOL     OW20482   0.515   2.510  17.566  0.0457 -0.0922  0.6123
 2949SOL    HW120483   0.487   2.557  17.645 -0.4678 -0.0760  0.4224
 2949SOL    HW220484   0.441   2.522  17.506  1.7720  1.6801 -1.1129
 2950SOL     OW20485   1.943   3.497  11.253  1.0239  0.0796 -0.2607
 2950SOL    HW120486   1.929   3.568  11.315 -1.4278 -0.9054  0.3381
 2950SOL    HW220487   1.879   3.514  11.184 -0.1789 -3.7048 -0.1037
 2951SOL     OW20488   3.910   1.218   5.712  0.3051 -0.1994  0.0595
 2951SOL    HW120489   3.982   1.157   5.730  1.8977  1.1546 -1.8427
 2951SOL    HW220490   3.956   1.302   5.714  1.6197 -0.9145 -0.6820
 2952SOL     OW20491   4.077   4.248   2.436 -0.1411  0.2653 -0.0877
 2952SOL    HW120492   4.130   4.209   2.367 -2.2822 -1.3625 -0.7964
 2952SOL    HW220493   3.995   4.262   2.389 -0.5547  2.6951  1.3162
 2953SOL     OW20494   1.004   2.804   7.378 -0.2431  0.0365 -0.1976
 2953SOL    HW120495   1.075   2.789   7.440  0.6873  0.9700 -1.0406
 2953SOL    HW220496   1.054   2.820   7.299 -1.0719 -2.4133 -1.2334
 2954SOL     OW20497   4.522   4.050   6.300 -0.0659  0.1710 -0.0255
 2954SOL    HW120498   4.429   4.035   6.285 -0.1036 -0.5628  0.9654
 2954SOL    HW220499   4.531   4.004   6.384  3.1635 -1.1636 -1.0937
 2955SOL     OW20500   3.553   2.435  14.450  0.2664  0.9543 -0.2291
 2955SOL    HW120501   3.558   2.426  14.545  1.3994 -1.3640 -0.5173
 2955SOL    HW220502   3.491   2.370  14.420  1.0042 -0.4356  1.2333
 2956SOL     OW20503   0.541   0.002   1.980  0.1225 -0.4095 -0.4605
 2956SOL    HW120504   0.480   4.673   1.993  0.9148 -1.2604 -1.5190
 2956SOL    HW220505   0.526   0.057   2.057 -2.6523 -0.4370 -0.9679
 2957SOL     OW20506   0.849   1.370   3.059 -0.1536  0.4192 -0.1889
 2957SOL    HW120507   0.800   1.429   3.002 -1.2514  1.5183  1.8978
 2957SOL    HW220508   0.871   1.300   2.996 -0.5780 -0.7853  1.0046
 2958SOL     OW20509   3.580   3.827   5.901  0.5420  0.2420 -0.9589
 2958SOL    HW120510   3.553   3.735   5.892  1.1991 -0.1219  0.9694
 2958SOL    HW220511   3.615   3.844   5.814  1.1763  0.0700 -0.7347
 2959SOL     OW20512   0.168   2.546   6.046 -0.2515  0.3214  1.0226
 2959SOL    HW120513   0.163   2.605   6.122 -1.2033 -0.5543  1.6385
 2959SOL    HW220514   0.170   2.461   6.090  1.4296 -0.3151 -0.2955
 2960SOL     OW20515   4.542   1.854   2.260  0.3993 -0.7086  0.5035
 2960SOL    HW120516   4.589   1.772   2.274  2.8469  0.5735 -0.1867
 2960SOL    HW220517   4.495   1.865   2.343 -1.6779 -0.2825 -0.7241
 2961SOL     OW20518   1.739   3.566   3.191 -0.4488  0.2512 -0.0066
 2961SOL    HW120519   1.645   3.580   3.199 -0.5976 -1.0523  0.5009
 2961SOL    HW220520   1.743   3.539   3.099  0.9232  3.2067 -0.8237
 2962SOL     OW20521   0.735   0.378  14.404  0.3368  0.0859  0.5601
 2962SOL    HW120522   0.674   0.353  14.334  2.6593  1.4750 -1.9787
 2962SOL    HW220523   0.772   0.295  14.433  0.1742 -0.5973 -1.1656
 2963SOL     OW20524   2.924   3.589   7.453 -0.1342  0.5925  0.3519
 2963SOL    HW120525   2.842   3.546   7.427 -1.0239  1.1166  2.2278
 2963SOL    HW220526   2.958   3.528   7.519 -0.4419 -0.6463 -0.6436
 2964SOL     OW20527   3.608   2.321   7.564  0.2523 -0.0771 -0.1137
 2964SOL    HW120528   3.665   2.366   7.501 -1.2520  0.3489 -1.1685
 2964SOL    HW220529   3.608   2.235   7.523 -0.2881  0.2164 -0.7331
 2965SOL     OW20530   3.068   3.579   2.603 -0.3672 -0.3857  0.0845
 2965SOL    HW120531   3.131   3.542   2.664 -1.3956  2.0812  2.6488
 2965SOL    HW220532   3.072   3.505   2.542 -0.5672  1.1163 -1.7685
 2966SOL     OW20533   2.095   3.628   5.556 -0.2546 -0.4041  0.3663
 2966SOL    HW120534   2.167   3.591   5.605  0.8159  1.1238 -0.0405
 2966SOL    HW220535   2.129   3.663   5.474 -0.6058  0.1934  0.4716
 2967SOL     OW20536   0.893   2.119   5.685 -0.3565  0.3193  0.0037
 2967SOL    HW120537   0.968   2.169   5.716  0.0986 -0.5979  0.4024
 2967SOL    HW220538   0.921   2.034   5.720  2.1527  0.2265 -2.2008
 2968SOL     OW20539   2.013   2.312   6.474 -0.0235  0.7243 -0.1853
 2968SOL    HW120540   2.076   2.252   6.433  1.3747  1.0285  1.5402
 2968SOL    HW220541   2.047   2.397   6.445 -2.9431  1.7554 -0.5640
 2969SOL     OW20542   2.868   0.646   3.001  0.3536 -0.8104 -0.1747
 2969SOL    HW120543   2.956   0.609   3.010  1.4602  1.2104 -2.6016
 2969SOL    HW220544   2.862   0.653   2.906  0.4525  0.3219 -0.0995
 2970SOL     OW20545   4.588   3.031   6.397  0.0976  0.8295 -0.1271
 2970SOL    HW120546   4.548   3.014   6.482 -0.0429 -0.1319 -0.3875
 2970SOL    HW220547   4.578   3.126   6.398 -0.3305  0.8000 -0.9001
 2971SOL     OW20548   3.840   0.070   1.298  0.1439 -0.3377  0.1851
 2971SOL    HW120549   3.858   0.037   1.387  2.7044  0.3127 -0.1268
 2971SOL    HW220550   3.895   0.147   1.285 -0.2498 -0.1815 -0.5486
 2972SOL     OW20551   0.941   4.684   3.576  0.2818 -0.9197 -0.2797
 2972SOL    HW120552   0.869   4.667   3.637  1.3344 -1.0830  0.9119
 2972SOL    HW220553   0.900   4.703   3.492 -1.5959  0.6943  0.9968
 2973SOL     OW20554   3.250   0.055   1.743  0.1487  0.0145  0.1148
 2973SOL    HW120555   3.247   0.009   1.658  1.9451  0.1367 -0.0126
 2973SOL    HW220556   3.160   0.067   1.773  0.8722  3.2681  0.8865
 2974SOL     OW20557   2.772   3.580   6.667  0.3422 -0.5487  0.2640
 2974SOL    HW120558   2.797   3.559   6.577 -0.0555  2.1078 -0.4825
 2974SOL    HW220559   2.692   3.632   6.653  0.7782  0.2019  0.5351
 2975SOL     OW20560   3.366   0.100   5.170 -0.0608 -0.0164 -0.4825
 2975SOL    HW120561   3.323   0.074   5.251  0.1908  2.5548  0.4542
 2975SOL    HW220562   3.378   0.192   5.191  1.2839 -0.7138  1.7674
 2976SOL     OW20563   1.238   1.692  12.537  0.5239  0.8073  0.0572
 2976SOL    HW120564   1.310   1.657  12.484  0.7067 -2.3553  2.3656
 2976SOL    HW220565   1.181   1.615  12.536  0.3833  0.9015  0.6269
 2977SOL     OW20566   0.403   4.702  15.172 -0.3658 -0.4496  0.2127
 2977SOL    HW120567   0.361   4.616  15.181  0.7818 -1.1020 -0.7330
 2977SOL    HW220568   0.436   4.696  15.082 -0.9353  1.5876 -0.1321
 2978SOL     OW20569   4.128   1.884  11.971 -0.0280  0.2338 -0.1643
 2978SOL    HW120570   4.073   1.903  11.895 -0.3714  0.9558  0.2614
 2978SOL    HW220571   4.173   1.967  11.987 -0.4366  0.7363 -1.5794
 2979SOL     OW20572   2.140   0.785   6.721 -0.2213 -0.2542  0.4256
 2979SOL    HW120573   2.152   0.779   6.626  1.8820  0.3595  0.6519
 2979SOL    HW220574   2.049   0.814   6.727 -0.3303 -0.5512  0.1802
 2980SOL     OW20575   2.641   2.446   9.428 -0.0880 -0.6609  0.1662
 2980SOL    HW120576   2.605   2.436   9.516 -2.7604 -3.4027 -1.2405
 2980SOL    HW220577   2.733   2.420   9.442 -0.0236  0.0042  0.9834
 2981SOL     OW20578   1.056   0.989   9.129  0.2514 -0.7366 -0.0242
 2981SOL    HW120579   1.062   0.936   9.208 -1.8007  0.1661  0.7361
 2981SOL    HW220580   1.148   0.996   9.104 -0.0508 -2.2627 -1.6152
 2982SOL     OW20581   3.915   4.042   5.161 -0.6490  0.1659 -0.6440
 2982SOL    HW120582   3.947   4.041   5.251  3.1878  3.1175 -1.9910
 2982SOL    HW220583   3.820   4.051   5.172 -0.5939  0.2925 -0.2612
 2983SOL     OW20584   0.701   2.542   8.635  0.0507 -0.2241  0.0488
 2983SOL    HW120585   0.637   2.565   8.568  1.6536  2.4265 -0.5937
 2983SOL    HW220586   0.644   2.503   8.702 -1.6247  1.2530 -0.4958
 2984SOL     OW20587   2.427   0.938  12.013  0.0073 -0.1169 -0.0227
 2984SOL    HW120588   2.361   0.942  11.944 -0.0791 -0.8209  0.0222
 2984SOL    HW220589   2.497   0.988  11.970 -0.8774  0.2609 -1.0291
 2985SOL     OW20590   2.337   3.758   3.376  0.1000  0.2190 -0.3939
 2985SOL    HW120591   2.260   3.736   3.429 -0.1681  0.2579 -0.7745
 2985SOL    HW220592   2.305   3.751   3.287  0.7910 -1.3419 -0.5175
 2986SOL     OW20593   2.695   3.580  16.062 -0.8689 -0.0543 -0.1809
 2986SOL    HW120594   2.787   3.587  16.037 -0.7754  0.2607  0.2351
 2986SOL    HW220595   2.662   3.498  16.027 -0.6291  0.1508 -0.8942
 2987SOL     OW20596   4.648   2.225  11.836 -0.0424  0.0450 -0.4289
 2987SOL    HW120597   4.683   2.296  11.782 -1.0865  0.7001 -0.2501
 2987SOL    HW220598   4.565   2.225  11.788 -0.1126  2.5176 -0.3084
 2988SOL     OW20599   4.723   2.990   2.688  0.1559 -0.2732  0.1501
 2988SOL    HW120600   0.004   2.914   2.741 -3.0929 -1.6383 -0.2299
 2988SOL    HW220601   4.652   2.946   2.642 -0.1288 -0.5241  0.8342
 2989SOL     OW20602   1.105   3.719   4.888  1.1740 -0.5705 -0.7255
 2989SOL    HW120603   1.146   3.653   4.831 -0.4348 -2.0039 -0.2331
 2989SOL    HW220604   1.114   3.679   4.974 -1.6643  0.9222  0.2780
 2990SOL     OW20605   1.316   2.989   5.784  0.2798 -0.0362  0.3092
 2990SOL    HW120606   1.394   2.988   5.839 -0.1756 -2.5201  0.9394
 2990SOL    HW220607   1.356   2.935   5.715 -0.3236  0.9354 -0.7916
 2991SOL     OW20608   0.571   3.628   3.519 -0.2507 -0.2974 -0.2404
 2991SOL    HW120609   0.641   3.683   3.553  0.1870  0.3459 -2.1847
 2991SOL    HW220610   0.588   3.541   3.554 -1.2694 -0.4478 -0.1158
 2992SOL     OW20611   2.793   3.074  13.862  0.2956 -0.2885  0.1768
 2992SOL    HW120612   2.744   3.011  13.810  0.9292  0.1051 -0.8986
 2992SOL    HW220613   2.842   3.123  13.796 -3.2176  1.6546 -0.9635
 2993SOL     OW20614   4.235   1.978   8.375  0.0599  0.2744 -0.3633
 2993SOL    HW120615   4.239   2.052   8.315 -0.5944  0.6199  0.0304
 2993SOL    HW220616   4.328   1.956   8.381  0.0689  0.5240  0.3759
 2994SOL     OW20617   3.391   1.485   0.194 -0.1768 -0.1869 -0.7685
 2994SOL    HW120618   3.376   1.481   0.288 -0.0935  1.5295 -0.6879
 2994SOL    HW220619   3.315   1.536   0.166 -0.0612  0.8669  0.8559
 2995SOL     OW20620   1.098   0.225   8.385  0.2571 -0.3278  0.5019
 2995SOL    HW120621   1.158   0.292   8.351  1.5015 -1.5146  0.3413
 2995SOL    HW220622   1.170   0.162   8.390 -0.0790 -0.6972  0.7131
 2996SOL     OW20623   0.969   4.213  14.859  0.0350 -0.2071 -0.3069
 2996SOL    HW120624   1.021   4.252  14.789  0.9262 -0.1925  0.3625
 2996SOL    HW220625   0.898   4.277  14.870  0.3817 -0.0220  0.9212
 2997SOL     OW20626   3.211   1.171   9.932  0.8483 -0.0577  0.0337
 2997SOL    HW120627   3.260   1.145   9.854 -1.6974 -0.3730 -1.4460
 2997SOL    HW220628   3.181   1.087   9.967  0.5613  0.2727  0.5785
 2998SOL     OW20629   1.209   3.751   1.479 -0.8167 -0.2273  0.4147
 2998SOL    HW120630   1.148   3.802   1.427  0.3029  1.1964  0.4882
 2998SOL    HW220631   1.169   3.664   1.485  0.9870 -1.1538 -0.9236
 2999SOL     OW20632   0.503   1.983   0.980 -0.3451  0.3995  0.7172
 2999SOL    HW120633   0.526   1.989   1.073 -1.9251  1.0253  1.0633
 2999SOL    HW220634   0.409   1.997   0.972 -0.0504  1.4381 -1.0957
 3000SOL     OW20635   4.116   3.078   1.134  0.0986  0.2312 -0.2375
 3000SOL    HW120636   4.170   3.076   1.213 -2.8351 -1.6982  1.7272
 3000SOL    HW220637   4.112   3.170   1.109  0.5449  0.0088 -1.1184
 3001SOL     OW20638   1.591   3.258   8.177 -0.3587 -0.3476  0.3072
 3001SOL    HW120639   1.526   3.241   8.109  0.8494  0.5845 -1.0854
 3001SOL    HW220640   1.651   3.188   8.152 -1.4697 -1.6782  1.4007
 3002SOL     OW20641   1.354   0.828  12.691  0.3280 -0.4234  0.4161
 3002SOL    HW120642   1.354   0.747  12.741 -0.1602 -0.6540  0.0440
 3002SOL    HW220643   1.335   0.895  12.757  0.1547 -0.6376  0.5825
 3003SOL     OW20644   1.015   0.515  16.910  0.0672 -0.2274  0.3306
 3003SOL    HW120645   0.934   0.559  16.937 -0.7350 -0.6712 -1.3221
 3003SOL    HW220646   1.027   0.564  16.828  0.4830  0.4088  0.7748
 3004SOL     OW20647   4.145   4.210   8.536  0.3056 -0.3340 -0.4912
 3004SOL    HW120648   4.203   4.280   8.566 -1.3066  0.5830  0.4693
 3004SOL    HW220649   4.185   4.194   8.450  0.0111  0.4470 -0.7742
 3005SOL     OW20650   1.215   4.233   8.218 -0.1461 -0.6154 -0.6211
 3005SOL    HW120651   1.268   4.204   8.143 -1.4178  0.0732 -1.7920
 3005SOL    HW220652   1.232   4.327   8.208 -1.5546 -0.2055  0.8646
 3006SOL     OW20653   2.610   3.235   6.513  0.8211 -0.2005  0.0552
 3006SOL    HW120654   2.532   3.290   6.502  0.8983 -0.2975 -0.9249
 3006SOL    HW220655   2.629   3.262   6.603 -1.0485 -0.2070  0.4585
 3007SOL     OW20656   3.022   1.821   2.373 -0.5778 -0.2325 -0.2320
 3007SOL    HW120657   3.038   1.746   2.430  0.4584 -0.9995 -1.5273
 3007SOL    HW220658   2.926   1.824   2.378 -0.6274  0.1000 -1.3912
 3008SOL     OW20659   1.782   2.684   7.198  0.1493 -0.2234 -0.3683
 3008SOL    HW120660   1.751   2.770   7.227 -1.7941 -1.2884  0.6896
 3008SOL    HW220661   1.805   2.641   7.280  0.2349  1.3011  0.4012
 3009SOL     OW20662   2.359   3.911   6.716 -0.2713 -1.0565 -0.2092
 3009SOL    HW120663   2.342   3.945   6.628  0.7772 -0.5149 -0.2040
 3009SOL    HW220664   2.272   3.921   6.756  0.9519 -0.3790  2.3403
 3010SOL     OW20665   2.038   0.363   4.228  0.1113 -0.0827 -0.7266
 3010SOL    HW120666   1.997   0.362   4.315 -4.9523 -2.7017 -3.1524
 3010SOL    HW220667   1.969   0.391   4.169  1.0945  3.5064 -0.1817
 3011SOL     OW20668   0.271   1.986   7.286 -0.0244  0.2393 -0.3684
 3011SOL    HW120669   0.224   1.913   7.245  0.2619 -0.8436  1.2363
 3011SOL    HW220670   0.324   1.937   7.349  0.5331  1.3652  0.0457
 3012SOL     OW20671   4.292   0.171   0.890  0.0568  0.0193 -0.2666
 3012SOL    HW120672   4.350   0.221   0.947 -0.1445  1.0615 -0.9688
 3012SOL    HW220673   4.305   0.220   0.808 -1.2911  1.8977  0.6254
 3013SOL     OW20674   4.497   3.115   8.761  0.4179  0.3600  0.5291
 3013SOL    HW120675   4.413   3.138   8.720  1.7028 -0.1084 -2.3465
 3013SOL    HW220676   4.532   3.060   8.691 -0.3775 -0.1237  0.5007
 3014SOL     OW20677   3.000   2.660   8.890 -0.5117 -0.5035 -0.1657
 3014SOL    HW120678   3.063   2.609   8.838  1.1757  0.6950  0.6833
 3014SOL    HW220679   3.032   2.748   8.872 -1.1670 -0.5146 -1.3917
 3015SOL     OW20680   3.115   0.875  16.730  0.3818  0.5820 -0.2076
 3015SOL    HW120681   3.127   0.953  16.784  0.9207 -0.2497  0.8656
 3015SOL    HW220682   3.023   0.854  16.745  0.7894 -0.7089  0.4727
 3016SOL     OW20683   0.171   1.298   5.593 -0.0493  0.1881  0.0349
 3016SOL    HW120684   0.246   1.252   5.632 -0.8777 -1.0864  0.1159
 3016SOL    HW220685   0.098   1.256   5.638  0.4354  1.6598  2.1855
 3017SOL     OW20686   0.366   1.736   8.581  0.0003  0.2531 -0.1057
 3017SOL    HW120687   0.332   1.717   8.668  0.9819 -0.4619  0.1314
 3017SOL    HW220688   0.382   1.647   8.550  1.9149  0.6632 -0.3230
 3018SOL     OW20689   0.696   3.723  13.879 -0.4414  0.4466 -0.4524
 3018SOL    HW120690   0.700   3.641  13.929 -0.1522  0.3297 -0.6689
 3018SOL    HW220691   0.664   3.784  13.945  4.0609  1.2833  0.9554
 3019SOL     OW20692   1.280   1.664   6.355 -0.2558  0.6490  0.2875
 3019SOL    HW120693   1.297   1.735   6.293  0.2945  0.5296  0.3030
 3019SOL    HW220694   1.188   1.661   6.326 -0.1085  1.6722 -0.3111
 3020SOL     OW20695   3.009   2.695   4.345 -0.2644  0.5413 -0.8973
 3020SOL    HW120696   3.072   2.729   4.408 -0.3406  0.4957 -0.7955
 3020SOL    HW220697   2.936   2.686   4.406 -0.8040 -0.4201 -1.6779
 3021SOL     OW20698   2.236   3.447   9.531  0.0390 -0.0075 -0.3509
 3021SOL    HW120699   2.169   3.492   9.583  0.5420  1.0742 -0.6376
 3021SOL    HW220700   2.313   3.437   9.587 -0.3217  1.3576  0.3885
 3022SOL     OW20701   3.773   3.412   7.195  0.2814  0.2507 -0.5026
 3022SOL    HW120702   3.821   3.396   7.113 -1.1261 -0.6758 -1.1535
 3022SOL    HW220703   3.717   3.482   7.163 -2.4624 -0.3349  3.0258
 3023SOL     OW20704   3.666   3.479   6.058  0.0441 -0.6481 -0.0280
 3023SOL    HW120705   3.621   3.486   5.974  0.1066  0.8456  0.0546
 3023SOL    HW220706   3.603   3.433   6.113 -0.4892 -1.5049 -1.3618
 3024SOL     OW20707   0.264   2.514   4.831  0.5035  0.0225 -0.2347
 3024SOL    HW120708   0.252   2.423   4.804  1.9974 -0.6249  1.2922
 3024SOL    HW220709   0.336   2.542   4.775  1.3477 -0.1312  0.7741
 3025SOL     OW20710   3.411   2.974   5.990 -0.3780 -0.3134  0.0161
 3025SOL    HW120711   3.406   2.994   5.897  0.2562  1.8820  0.4573
 3025SOL    HW220712   3.326   3.004   6.023  0.0741 -2.3185  2.9788
 3026SOL     OW20713   0.482   1.609   9.333  0.0700 -0.3581  0.4235
 3026SOL    HW120714   0.560   1.661   9.315 -1.4018  2.3765  2.0456
 3026SOL    HW220715   0.421   1.657   9.276 -0.0405 -1.1976 -0.1617
 3027SOL     OW20716   0.325   4.568  12.470  0.2960  0.1631  0.1745
 3027SOL    HW120717   0.386   4.518  12.415 -0.5755  1.0651 -1.6212
 3027SOL    HW220718   0.364   4.560  12.557  0.4531  0.9920  0.1749
 3028SOL     OW20719   1.608   3.858   5.173  0.3104  0.1746  0.1202
 3028SOL    HW120720   1.565   3.936   5.207 -0.8932 -0.7363  0.6855
 3028SOL    HW220721   1.553   3.851   5.094 -0.0800 -0.7546  0.4767
 3029SOL     OW20722   0.847   1.914  12.524  0.6142  0.0708  0.2316
 3029SOL    HW120723   0.844   1.960  12.608  1.8473 -2.0450  1.4380
 3029SOL    HW220724   0.937   1.933  12.495  0.9376 -0.4117  0.9291
 3030SOL     OW20725   2.807   4.168   0.200  0.0146  0.1045  0.8796
 3030SOL    HW120726   2.808   4.075   0.224 -1.9363 -0.1052  0.1665
 3030SOL    HW220727   2.894   4.199   0.224  0.7270  0.4042 -2.0895
 3031SOL     OW20728   2.515   4.224  15.630  0.1258  0.2834  0.0098
 3031SOL    HW120729   2.441   4.172  15.663  1.9537 -1.4200  1.4219
 3031SOL    HW220730   2.478   4.280  15.562  0.3951 -0.0770 -0.4367
 3032SOL     OW20731   2.174   1.667   5.898  0.3186 -0.0893 -0.8413
 3032SOL    HW120732   2.146   1.582   5.863  0.1943 -0.1222 -0.6606
 3032SOL    HW220733   2.084   1.688   5.921  1.5391  3.6678  0.4757
 3033SOL     OW20734   3.858   4.004  15.984  0.3973  0.5040 -0.3753
 3033SOL    HW120735   3.780   3.969  15.940  0.7259  0.7832 -1.1937
 3033SOL    HW220736   3.811   4.069  16.037 -0.6167 -0.0820 -0.5648
 3034SOL     OW20737   1.711   3.687   9.200 -0.1143  0.3114  0.7803
 3034SOL    HW120738   1.705   3.606   9.250  2.5316 -0.4632 -0.1183
 3034SOL    HW220739   1.806   3.700   9.195 -0.1567  0.4555  0.3654
 3035SOL     OW20740   3.526   3.211   9.811  0.3685 -0.0410  0.5278
 3035SOL    HW120741   3.434   3.207   9.785  0.4242 -1.2009  0.4984
 3035SOL    HW220742   3.541   3.118   9.827 -0.6495 -0.1814  0.6929
 3036SOL     OW20743   4.051   2.978   9.471 -0.3813  0.4005 -0.2313
 3036SOL    HW120744   4.093   2.968   9.557 -1.8291  1.0691  0.5490
 3036SOL    HW220745   4.066   2.892   9.433  1.6049  0.8487 -0.4721
 3037SOL     OW20746   3.180   1.245   5.277  0.7159 -0.2480 -0.6973
 3037SOL    HW120747   3.185   1.330   5.322  0.4384 -0.2977 -0.5732
 3037SOL    HW220748   3.252   1.255   5.215  0.3210  0.6289 -1.0187
 3038SOL     OW20749   2.233   2.310   8.419 -0.4442  0.4968  0.2960
 3038SOL    HW120750   2.218   2.247   8.490  0.4919  0.7762  0.7400
 3038SOL    HW220751   2.275   2.246   8.361  0.8639  1.7090 -0.0852
 3039SOL     OW20752   0.015   3.345  15.826 -0.0360 -0.1822  0.3013
 3039SOL    HW120753   4.735   3.290  15.751 -0.1593  1.9054 -1.1936
 3039SOL    HW220754   0.100   3.379  15.796  0.5335  0.6927  2.9162
 3040SOL     OW20755   0.636   1.554   0.541 -0.6465  0.0277 -0.4068
 3040SOL    HW120756   0.648   1.648   0.557  1.2189 -0.1053 -1.0017
 3040SOL    HW220757   0.613   1.524   0.629  2.9034  0.5798  0.7048
 3041SOL     OW20758   2.885   0.873  10.954  0.4817  0.3854  0.1948
 3041SOL    HW120759   2.973   0.881  10.991  1.1847 -3.1719 -0.6718
 3041SOL    HW220760   2.833   0.949  10.980 -1.3683 -0.9858  0.4713
 3042SOL     OW20761   1.692   3.596   4.874 -0.0934 -0.6607  0.5053
 3042SOL    HW120762   1.612   3.631   4.914  0.4102 -0.0166  0.9513
 3042SOL    HW220763   1.713   3.641   4.793 -1.3798 -0.8613  0.0655
 3043SOL     OW20764   3.500   1.000  10.484 -0.0228  0.0935  0.1978
 3043SOL    HW120765   3.583   1.042  10.463  1.2713 -1.8851  1.3528
 3043SOL    HW220766   3.526   0.921  10.531 -1.4953 -0.5208 -0.0084
 3044SOL     OW20767   4.432   3.590   8.323 -0.8345  0.4888 -0.0470
 3044SOL    HW120768   4.446   3.499   8.351 -2.0738  1.3999  3.4998
 3044SOL    HW220769   4.496   3.591   8.252  1.3784  0.0636  1.9022
 3045SOL     OW20770   2.064   1.220  13.589  0.4901 -0.2895 -0.4486
 3045SOL    HW120771   2.009   1.298  13.593  1.4353  0.3863 -0.8886
 3045SOL    HW220772   2.003   1.156  13.553  0.8716  1.6868 -4.5682
 3046SOL     OW20773   2.211   2.010  16.518 -0.0271 -0.2671  0.0697
 3046SOL    HW120774   2.147   1.999  16.448 -2.0110 -2.1835  2.1598
 3046SOL    HW220775   2.273   1.948  16.480 -0.6500 -0.9659  0.1911
 3047SOL     OW20776   0.317   1.756   6.521  0.4103 -0.2632 -0.3662
 3047SOL    HW120777   0.370   1.698   6.576  2.0265  0.9756 -0.6262
 3047SOL    HW220778   0.226   1.726   6.530 -0.7398  2.9113 -1.5521
 3048SOL     OW20779   1.517   0.068  16.460  0.4222  0.2962 -0.6364
 3048SOL    HW120780   1.524   0.061  16.365  1.8238  1.8591 -0.6409
 3048SOL    HW220781   1.594   0.017  16.486  0.5186  0.7206 -0.1041
 3049SOL     OW20782   0.602   4.062   5.828 -0.1410  0.5448 -0.1892
 3049SOL    HW120783   0.543   4.089   5.899  0.2124 -1.3108  0.7986
 3049SOL    HW220784   0.634   4.149   5.804  3.0780 -0.7140 -0.3219
 3050SOL     OW20785   3.690   3.810   3.176 -0.7134 -0.0258 -0.1648
 3050SOL    HW120786   3.714   3.736   3.232 -1.0277 -1.0618 -1.4075
 3050SOL    HW220787   3.666   3.876   3.241  2.3082 -0.2328  1.1536
 3051SOL     OW20788   0.169   3.152   2.606  0.6918  0.0758  0.1495
 3051SOL    HW120789   0.246   3.098   2.624  0.3748  0.1776  1.8446
 3051SOL    HW220790   0.104   3.091   2.642 -0.4478 -0.1426 -2.2728
 3052SOL     OW20791   0.012   3.156  12.532 -0.8149  0.0394  0.7186
 3052SOL    HW120792   4.716   3.080  12.489  1.5719 -1.3897  0.9940
 3052SOL    HW220793   0.102   3.122  12.539 -0.4883  0.2782 -2.1131
 3053SOL     OW20794   0.847   0.346   8.258 -0.2983  0.4813 -0.3326
 3053SOL    HW120795   0.867   0.296   8.337 -1.0037  0.2486 -0.3008
 3053SOL    HW220796   0.800   0.421   8.293  0.8030  0.3188  1.4770
 3054SOL     OW20797   2.484   2.256   3.092  0.1107  0.1327 -0.4392
 3054SOL    HW120798   2.429   2.307   3.151  0.5580 -0.2720  0.3273
 3054SOL    HW220799   2.430   2.235   3.015 -1.2814  0.4038  0.4721
 3055SOL     OW20800   2.414   0.827   7.658 -0.3126 -0.0972  0.5024
 3055SOL    HW120801   2.417   0.792   7.747  0.2708 -0.5251  0.3164
 3055SOL    HW220802   2.507   0.818   7.637 -0.1817 -2.7219  2.2290
 3056SOL     OW20803   2.768   2.662   5.295 -0.0411 -0.0872 -0.0682
 3056SOL    HW120804   2.803   2.665   5.383 -0.7456  0.1035  0.2085
 3056SOL    HW220805   2.831   2.707   5.239  1.1497 -1.3324  0.2952
 3057SOL     OW20806   4.152   3.301   9.584  0.3391  0.4494  0.0134
 3057SOL    HW120807   4.146   3.363   9.511  0.2695  2.5555  1.7920
 3057SOL    HW220808   4.067   3.310   9.628 -0.0435 -1.3125 -0.3748
 3058SOL     OW20809   1.510   4.118  10.923  0.3790  0.0881  1.0760
 3058SOL    HW120810   1.546   4.041  10.967 -1.5234  0.9608  4.1113
 3058SOL    HW220811   1.533   4.085  10.836 -1.6784 -1.5976  1.1944
 3059SOL     OW20812   1.782   1.643   3.982 -0.6593 -0.5408 -0.2933
 3059SOL    HW120813   1.802   1.569   4.039 -1.8363  0.8477  1.9269
 3059SOL    HW220814   1.863   1.693   3.995 -2.3059  2.2677 -0.8246
 3060SOL     OW20815   4.498   1.069  14.570  0.1564 -0.2941  0.4414
 3060SOL    HW120816   4.555   1.071  14.493  0.2725 -0.5054  0.5213
 3060SOL    HW220817   4.435   1.004  14.540 -0.0493  1.7459 -3.5703
 3061SOL     OW20818   4.334   3.940   8.088  0.8416  0.1864 -0.1465
 3061SOL    HW120819   4.266   3.946   8.021 -0.3921  0.4813  1.1486
 3061SOL    HW220820   4.412   3.938   8.032  0.3506  1.0434 -0.8764
 3062SOL     OW20821   1.529   2.679  13.126  0.4839  0.1647 -0.1909
 3062SOL    HW120822   1.467   2.744  13.158  0.7715  0.0915  0.5187
 3062SOL    HW220823   1.607   2.734  13.115  0.4425  0.0774 -0.9376
 3063SOL     OW20824   1.453   3.111   6.338 -0.3155 -0.3700  0.4276
 3063SOL    HW120825   1.372   3.090   6.291 -0.7808  0.0004  1.0533
 3063SOL    HW220826   1.489   3.184   6.288 -2.6477  0.8466  0.4767
 3064SOL     OW20827   1.975   0.427   6.008 -0.3185  0.4282  0.6399
 3064SOL    HW120828   2.047   0.451   5.950 -0.4299 -1.4642 -0.2814
 3064SOL    HW220829   1.918   0.393   5.940 -0.3324  0.6127  0.5577
 3065SOL     OW20830   2.347   0.878   3.688 -0.2747  0.3136  0.0213
 3065SOL    HW120831   2.413   0.814   3.714  0.2382 -0.0670 -2.1801
 3065SOL    HW220832   2.271   0.820   3.687  0.8953 -1.2121 -0.6514
 3066SOL     OW20833   1.499   0.206  15.787  0.3815 -0.6440  0.2335
 3066SOL    HW120834   1.465   0.190  15.698  0.5814  0.7397 -0.0794
 3066SOL    HW220835   1.484   0.121  15.829  1.4235 -0.9190  0.0681
 3067SOL     OW20836   0.882   1.610  12.038  0.6535  0.7368  0.0158
 3067SOL    HW120837   0.873   1.579  12.128  1.6226  0.1959 -0.0670
 3067SOL    HW220838   0.794   1.598  12.002 -1.0861  1.8553  3.8573
 3068SOL     OW20839   3.153   4.248   8.384 -0.0316  0.6128  0.5273
 3068SOL    HW120840   3.190   4.178   8.330 -0.9820  1.8762 -1.7492
 3068SOL    HW220841   3.128   4.192   8.457  0.4360  0.3390  0.4756
 3069SOL     OW20842   2.844   3.685   1.516  0.0657 -0.1673  0.0737
 3069SOL    HW120843   2.858   3.666   1.609  0.9547  1.7161  0.3347
 3069SOL    HW220844   2.897   3.610   1.488  1.7390  1.8184 -2.0893
 3070SOL     OW20845   0.939   3.849   8.032  0.1129  0.2879 -0.2607
 3070SOL    HW120846   0.982   3.873   7.950 -0.7659  1.7462 -0.2979
 3070SOL    HW220847   0.936   3.753   8.027  0.5207  0.2187  0.9012
 3071SOL     OW20848   2.335   1.962   5.640  0.8998  0.2657 -0.0955
 3071SOL    HW120849   2.297   1.968   5.552 -0.3218 -0.2755  0.3922
 3071SOL    HW220850   2.250   1.955   5.683  0.9928 -2.3111 -0.3785
 3072SOL     OW20851   1.991   4.251   2.680  0.5903  0.4094  0.5155
 3072SOL    HW120852   1.973   4.321   2.618  0.5569  0.8034  0.9694
 3072SOL    HW220853   2.072   4.284   2.720  1.1364 -2.1800  1.5465
 3073SOL     OW20854   0.252   1.247  17.194 -0.1281  0.0605 -0.3475
 3073SOL    HW120855   0.273   1.266  17.103 -0.1510 -3.1080 -1.0277
 3073SOL    HW220856   0.182   1.181  17.189  1.2362 -1.3500 -1.0023
 3074SOL     OW20857   0.738   1.179   3.384  0.7708 -0.2597  0.4572
 3074SOL    HW120858   0.752   1.155   3.292 -0.6462 -0.7532  0.3692
 3074SOL    HW220859   0.824   1.155   3.417  1.4930 -0.9232 -1.8793
 3075SOL     OW20860   1.431   2.788   2.610  0.2819 -0.0459  0.2325
 3075SOL    HW120861   1.498   2.722   2.629 -1.3706 -0.9522  2.9126
 3075SOL    HW220862   1.472   2.872   2.631  1.7477 -1.0580  1.4250
 3076SOL     OW20863   0.721   1.355   8.350 -0.0057  0.3992 -0.0268
 3076SOL    HW120864   0.762   1.281   8.307  1.4445  1.7230 -0.9321
 3076SOL    HW220865   0.665   1.312   8.414 -1.5060  1.5247 -0.5714
 3077SOL     OW20866   0.641   1.707   8.807  0.3987  0.5041  0.8174
 3077SOL    HW120867   0.643   1.784   8.750  2.2362 -1.1938 -1.4275
 3077SOL    HW220868   0.726   1.665   8.788  0.5284  0.3818  1.6720
 3078SOL     OW20869   3.485   3.155   3.708 -0.5948  0.2740  0.2122
 3078SOL    HW120870   3.539   3.222   3.666 -0.8153  0.7753  0.7323
 3078SOL    HW220871   3.552   3.086   3.710 -2.1405 -1.1319  3.1297
 3079SOL     OW20872   0.537   1.313   6.193  0.1073 -0.1748  0.1591
 3079SOL    HW120873   0.589   1.380   6.236 -0.6480  0.5672 -0.0918
 3079SOL    HW220874   0.477   1.289   6.264 -1.1730 -0.2926 -0.9383
 3080SOL     OW20875   4.600   0.852   0.903  0.1743  0.3100 -0.0994
 3080SOL    HW120876   4.592   0.799   0.982  1.8210 -1.4936 -1.1312
 3080SOL    HW220877   4.536   0.819   0.840  0.8643  0.7514 -1.0446
 3081SOL     OW20878   0.454   1.374  10.833  0.6795  0.4556  0.0258
 3081SOL    HW120879   0.423   1.436  10.900 -0.1546  1.3063 -1.1510
 3081SOL    HW220880   0.375   1.335  10.794  0.3563 -1.2140  2.3318
 3082SOL     OW20881   2.530   0.267   1.446  0.3442  0.0030 -0.2457
 3082SOL    HW120882   2.590   0.332   1.409 -1.3905 -0.0390 -3.1538
 3082SOL    HW220883   2.468   0.262   1.373  0.7220  3.9383 -0.8562
 3083SOL     OW20884   0.148   0.476   3.388 -0.2058  0.4585  0.2219
 3083SOL    HW120885   0.242   0.481   3.373  0.0878  0.0310  1.9291
 3083SOL    HW220886   0.131   0.392   3.346 -1.5912  1.2405 -0.7710
 3084SOL     OW20887   2.241   2.514   9.167  0.2811  0.3245  0.4012
 3084SOL    HW120888   2.255   2.565   9.087 -2.0989  0.5038  0.0801
 3084SOL    HW220889   2.293   2.559   9.232  1.9397 -1.6357  0.4232
 3085SOL     OW20890   4.145   2.878  13.091 -0.1270 -0.2620  0.4505
 3085SOL    HW120891   4.081   2.950  13.090  1.6353  1.3105  1.3522
 3085SOL    HW220892   4.141   2.855  13.184  0.7611 -1.1073  0.2834
 3086SOL     OW20893   1.872   2.120   2.723  0.1402  0.5299 -0.2729
 3086SOL    HW120894   1.827   2.130   2.807  1.2880  0.8927  0.3073
 3086SOL    HW220895   1.966   2.101   2.726  0.0701 -0.1279 -2.5644
 3087SOL     OW20896   3.604   4.396   1.876  0.0064  0.0633  0.0999
 3087SOL    HW120897   3.544   4.326   1.850 -1.4262  1.4753 -0.3647
 3087SOL    HW220898   3.568   4.476   1.838 -0.7377 -0.7797 -0.9629
 3088SOL     OW20899   4.449   1.406   5.103  0.5152 -0.0201  0.1176
 3088SOL    HW120900   4.498   1.331   5.072 -0.6120 -2.3662  3.9181
 3088SOL    HW220901   4.366   1.363   5.125 -0.0127  0.5646 -0.7142
 3089SOL     OW20902   3.615   0.715   8.348  0.3459 -0.2656 -0.3954
 3089SOL    HW120903   3.592   0.676   8.263 -0.2048 -0.0143 -0.3599
 3089SOL    HW220904   3.539   0.760   8.383  1.3781  1.2032 -0.0431
 3090SOL     OW20905   1.310   4.317  10.498 -0.2737 -0.0570  0.0559
 3090SOL    HW120906   1.273   4.388  10.446 -0.4782 -0.0168  0.2560
 3090SOL    HW220907   1.305   4.257  10.423 -2.8246 -0.8478  0.8674
 3091SOL     OW20908   3.662   3.629   3.569  0.5965 -0.2934  0.1396
 3091SOL    HW120909   3.693   3.668   3.651  0.0706  0.7786 -0.1825
 3091SOL    HW220910   3.568   3.644   3.574  0.5346 -0.5287 -0.3567
 3092SOL     OW20911   2.750   2.664   3.938  0.0663  0.0667  1.1293
 3092SOL    HW120912   2.694   2.734   3.904  0.5630 -0.2389 -0.3452
 3092SOL    HW220913   2.745   2.599   3.867 -2.2360  0.8591  0.5444
 3093SOL     OW20914   0.033   2.708   8.046  0.5269  0.4501 -0.2447
 3093SOL    HW120915   0.111   2.656   8.068 -0.3123  0.0832  1.8565
 3093SOL    HW220916   4.741   2.651   7.977  1.6692  2.0262 -2.1315
 3094SOL     OW20917   2.489   4.303  11.043 -0.0324  0.4098 -0.7451
 3094SOL    HW120918   2.566   4.259  11.078 -1.3170 -1.8385 -0.7558
 3094SOL    HW220919   2.525   4.392  11.041 -0.4310  0.5894  0.3142
 3095SOL     OW20920   3.914   1.496   0.847 -0.2529 -0.4989  0.2679
 3095SOL    HW120921   3.952   1.581   0.826  0.0524 -0.5690  0.5383
 3095SOL    HW220922   3.843   1.535   0.897 -1.5468 -1.7603 -0.5825
 3096SOL     OW20923   0.357   3.547   9.156  0.3018  0.1359  0.6024
 3096SOL    HW120924   0.372   3.510   9.069  0.0948 -0.5469  0.8603
 3096SOL    HW220925   0.336   3.466   9.202  0.1393 -0.5449 -0.6437
 3097SOL     OW20926   4.393   3.534  17.603  0.0656 -0.3024  0.5643
 3097SOL    HW120927   4.370   3.536  17.696 -0.8723 -2.2144  0.3633
 3097SOL    HW220928   4.388   3.623  17.568 -1.5746 -0.6423 -0.0489
 3098SOL     OW20929   3.986   1.005   9.844  0.1109  0.2271  0.2537
 3098SOL    HW120930   4.038   0.948   9.900 -0.7990 -1.2278 -0.3861
 3098SOL    HW220931   3.949   1.069   9.904  0.4623 -0.9132  1.6695
 3099SOL     OW20932   0.271   1.621   6.143  0.0922 -0.6135  0.0832
 3099SOL    HW120933   0.362   1.595   6.129 -0.0944 -1.0157 -0.3578
 3099SOL    HW220934   0.242   1.582   6.061  0.6357  1.6986 -1.1988
 3100SOL     OW20935   2.766   3.038  15.428  0.0831 -0.3372 -0.1777
 3100SOL    HW120936   2.803   3.078  15.349  2.2375 -0.8033  0.5991
 3100SOL    HW220937   2.835   2.974  15.445 -1.4822 -1.9791 -0.0849
 3101SOL     OW20938   3.026   0.091   9.313  0.0205 -0.0035  0.4780
 3101SOL    HW120939   2.971   0.018   9.284  1.7694 -1.5275  1.0135
 3101SOL    HW220940   3.081   0.108   9.237 -0.7805  1.3721  0.2054
 3102SOL     OW20941   3.900   3.691   6.364 -0.1859  0.0409  0.2591
 3102SOL    HW120942   3.880   3.683   6.457 -1.4190 -1.8724 -0.1718
 3102SOL    HW220943   3.996   3.687   6.371 -0.2744 -0.0056  1.4267
 3103SOL     OW20944   4.584   2.710   7.148  0.0254 -0.1974 -0.2594
 3103SOL    HW120945   4.616   2.679   7.233  1.2710  0.5237 -0.4578
 3103SOL    HW220946   4.590   2.625   7.105 -0.3373 -0.1215 -0.4583
 3104SOL     OW20947   2.347   4.615   5.121  0.2632  0.0779  0.1412
 3104SOL    HW120948   2.322   4.663   5.200  0.6608 -0.6626  0.7277
 3104SOL    HW220949   2.292   4.537   5.124 -0.1917  0.2908 -2.6061
 3105SOL     OW20950   1.564   4.386  12.274 -0.1324  0.1216  0.1649
 3105SOL    HW120951   1.586   4.451  12.207 -0.5135 -1.4724 -1.4892
 3105SOL    HW220952   1.601   4.309  12.230  0.1308  0.6204 -0.4919
 3106SOL     OW20953   0.641   2.394   6.329  0.7138  0.1076  0.0204
 3106SOL    HW120954   0.650   2.484   6.297  3.0468  0.1543  0.7696
 3106SOL    HW220955   0.553   2.385   6.366 -0.6757  0.1554 -3.3440
 3107SOL     OW20956   3.003   1.242   4.628 -0.1053 -0.0176  0.1907
 3107SOL    HW120957   2.959   1.326   4.616 -0.1442 -0.1242 -0.4598
 3107SOL    HW220958   2.983   1.198   4.545  4.4497 -1.6315 -0.0610
 3108SOL     OW20959   4.527   1.956  11.916  0.8180 -0.3515 -0.4206
 3108SOL    HW120960   4.583   2.034  11.915  0.2584  0.0922  2.4330
 3108SOL    HW220961   4.458   1.979  11.978  0.0389 -1.3403 -0.9274
 3109SOL     OW20962   2.981   2.214   1.488 -0.0623  0.0073 -0.6782
 3109SOL    HW120963   2.967   2.287   1.548 -2.5291 -0.7197 -0.3687
 3109SOL    HW220964   2.897   2.215   1.441 -0.4412 -0.1690 -0.0068
 3110SOL     OW20965   1.749   1.579   3.244  0.0741  0.0379 -1.0538
 3110SOL    HW120966   1.836   1.557   3.210  0.1751 -0.4380 -0.5015
 3110SOL    HW220967   1.758   1.674   3.257  1.6391 -0.1743 -0.5240
 3111SOL     OW20968   2.191   1.624   7.550  0.0294  0.3152 -0.3320
 3111SOL    HW120969   2.166   1.690   7.614 -0.0547  0.5063 -0.5610
 3111SOL    HW220970   2.229   1.567   7.617  3.1779  2.1382 -0.5666
 3112SOL     OW20971   0.314   0.975   9.012 -0.1035  0.2764 -0.3161
 3112SOL    HW120972   0.267   1.020   9.082  0.6525  0.0065  0.3793
 3112SOL    HW220973   0.390   1.032   8.996  0.6981 -0.9674 -0.9847
 3113SOL     OW20974   3.133   3.099   6.930 -0.1970  0.1980 -0.4432
 3113SOL    HW120975   3.201   3.150   6.886 -0.6263  0.2814 -1.0117
 3113SOL    HW220976   3.156   3.021   6.880 -2.8129  0.0052 -1.3323
 3114SOL     OW20977   1.675   1.428   8.498  0.1028  0.2158  0.1197
 3114SOL    HW120978   1.645   1.359   8.556 -0.4505  1.8575  1.7931
 3114SOL    HW220979   1.614   1.497   8.523 -0.2802 -0.2323  0.3990
 3115SOL     OW20980   2.941   3.527   8.924  0.4338  0.0335  0.0513
 3115SOL    HW120981   2.865   3.471   8.937  0.7017 -0.3696 -0.1367
 3115SOL    HW220982   2.966   3.510   8.834 -1.3340 -1.3797 -0.1619
 3116SOL     OW20983   4.472   1.984   6.437  0.1962 -0.3933 -0.5014
 3116SOL    HW120984   4.483   1.928   6.514  2.2035  1.4502  0.5556
 3116SOL    HW220985   4.481   2.073   6.472  0.0777  0.7017 -3.2892
 3117SOL     OW20986   1.905   2.559   1.630  0.3859 -0.5630  0.6597
 3117SOL    HW120987   1.932   2.469   1.613 -0.4318 -0.6863  0.0260
 3117SOL    HW220988   1.830   2.571   1.571 -0.1492  0.5235  1.5622
 3118SOL     OW20989   1.245   1.372   3.922 -0.8784 -0.1506 -0.0194
 3118SOL    HW120990   1.275   1.281   3.922 -2.6282 -0.7355 -0.2818
 3118SOL    HW220991   1.327   1.422   3.916 -0.4485 -0.8882 -0.2442
 3119SOL     OW20992   2.454   4.135   1.608 -0.1023  0.0712  0.0792
 3119SOL    HW120993   2.413   4.183   1.537 -0.6238 -0.4840  0.0041
 3119SOL    HW220994   2.544   4.116   1.582  0.5384 -0.6984  2.8890
 3120SOL     OW20995   2.198   1.498   8.523 -0.3981  0.5754 -0.4935
 3120SOL    HW120996   2.153   1.542   8.451  0.0631 -0.6446 -1.5149
 3120SOL    HW220997   2.208   1.409   8.491 -0.2904 -0.2016  1.7101
 3121SOL     OW20998   2.227   0.416  16.335  0.3877  0.2650 -0.0401
 3121SOL    HW120999   2.164   0.485  16.358  1.5828  1.8066 -1.4406
 3121SOL    HW221000   2.310   0.463  16.329  2.7343 -3.9287 -0.5966
 3122SOL     OW21001   4.470   2.532   9.358 -0.3120  0.5127  0.9477
 3122SOL    HW121002   4.424   2.508   9.277  0.4006 -0.6894  0.9034
 3122SOL    HW221003   4.558   2.557   9.331  0.2812 -1.6619  0.9120
 3123SOL     OW21004   1.073   3.943   9.734 -0.3104 -0.9420  0.2954
 3123SOL    HW121005   1.156   3.901   9.711  0.1566 -1.1300  2.2605
 3123SOL    HW221006   1.109   3.994   9.806 -2.1119 -0.6854  1.0059
 3124SOL     OW21007   3.653   0.596   9.017  0.0436 -0.0675 -0.1707
 3124SOL    HW121008   3.568   0.602   9.062  0.6265 -2.3111  1.2192
 3124SOL    HW221009   3.624   0.606   8.926  0.6858 -0.3798 -0.4082
 3125SOL     OW21010   4.367   0.010   8.708 -0.0658  0.1096  0.2091
 3125SOL    HW121011   4.459   4.732   8.722 -0.2455  0.9217  2.6545
 3125SOL    HW221012   4.358   4.724   8.618  2.3655  0.3550 -0.1196
 3126SOL     OW21013   4.465   4.293   8.267 -0.1234  0.3484 -0.0930
 3126SOL    HW121014   4.492   4.259   8.182 -0.7467  2.2291 -1.0292
 3126SOL    HW221015   4.496   4.383   8.268  1.2811 -0.1179 -3.2316
 3127SOL     OW21016   3.332   1.775   6.103  0.5751  0.2979  0.6008
 3127SOL    HW121017   3.252   1.731   6.134  1.1126 -1.8937 -1.1311
 3127SOL    HW221018   3.399   1.714   6.133 -0.6281 -0.6314  1.4527
 3128SOL     OW21019   0.209   0.400   1.792 -0.0948  0.2497 -0.5001
 3128SOL    HW121020   0.213   0.480   1.844  0.1669 -0.0053 -0.1285
 3128SOL    HW221021   0.152   0.430   1.720  0.6716  0.1947 -1.1248
 3129SOL     OW21022   0.161   2.349  15.421 -0.4497 -0.6858 -0.6376
 3129SOL    HW121023   0.222   2.392  15.362 -0.4153  3.0726  2.1214
 3129SOL    HW221024   0.156   2.259  15.386 -1.1769 -1.0010  0.2659
 3130SOL     OW21025   1.283   2.346  13.479  0.5101  0.1649  0.0277
 3130SOL    HW121026   1.377   2.356  13.493  0.3788 -1.2611  1.9239
 3130SOL    HW221027   1.275   2.406  13.405 -0.0114 -0.3810 -0.3593
 3131SOL     OW21028   0.817   3.731  12.908 -0.0626 -0.0713 -0.0641
 3131SOL    HW121029   0.823   3.806  12.967 -2.0183  0.4387 -0.5086
 3131SOL    HW221030   0.856   3.657  12.954  1.3539 -0.2352 -1.5093
 3132SOL     OW21031   0.356   0.229   4.930 -0.5961 -0.2320 -0.4167
 3132SOL    HW121032   0.287   0.295   4.921 -0.1589  0.3584  0.5564
 3132SOL    HW221033   0.314   0.147   4.954  2.0140 -1.4794 -0.0791
 3133SOL     OW21034   0.781   2.836   2.755  0.3256 -0.0406 -0.1458
 3133SOL    HW121035   0.851   2.787   2.712  0.4412 -0.6785  0.7775
 3133SOL    HW221036   0.706   2.780   2.733 -0.2238  0.7076 -0.1848
 3134SOL     OW21037   0.510   1.808   4.604  0.8760  0.3002 -0.3199
 3134SOL    HW121038   0.469   1.776   4.684  0.3166 -0.1900 -0.8091
 3134SOL    HW221039   0.592   1.759   4.614  0.9220  0.4020 -0.1854
 3135SOL     OW21040   3.241   4.741   2.421  0.2369 -0.1288 -0.3378
 3135SOL    HW121041   3.208   0.081   2.389  0.6772 -0.3309 -1.3272
 3135SOL    HW221042   3.292   4.721   2.342  0.4322  1.3882 -0.6025
 3136SOL     OW21043   1.849   1.267   0.987 -0.2656 -0.3494  0.6234
 3136SOL    HW121044   1.760   1.297   0.968  0.4562  0.8273 -0.8936
 3136SOL    HW221045   1.836   1.194   1.046 -1.0429 -1.5241 -0.9941
 3137SOL     OW21046   4.576   1.777   4.035 -0.2359  0.0894 -0.5017
 3137SOL    HW121047   4.667   1.781   4.063 -1.2887  1.4274  2.7449
 3137SOL    HW221048   4.566   1.863   3.992  0.6266 -0.0996 -1.0724
 3138SOL     OW21049   2.938   1.094   2.815  0.0006  0.3606  0.0051
 3138SOL    HW121050   2.980   1.039   2.881 -0.6598 -1.7561 -1.3346
 3138SOL    HW221051   2.954   1.047   2.733  0.7161 -0.0112  0.3659
 3139SOL     OW21052   1.185   4.227   2.361 -0.4479  0.4370  0.1382
 3139SOL    HW121053   1.171   4.211   2.268 -1.8817  3.0966 -0.0956
 3139SOL    HW221054   1.181   4.140   2.401 -2.7854  0.6812  0.3952
 3140SOL     OW21055   3.305   0.660   3.410  0.1747  0.2585  0.3388
 3140SOL    HW121056   3.237   0.592   3.409  0.1219  0.3069  1.1119
 3140SOL    HW221057   3.360   0.615   3.474  0.1584 -0.0311  0.1548
 3141SOL     OW21058   2.836   0.303   5.417 -0.3359 -0.2573  0.0634
 3141SOL    HW121059   2.850   0.338   5.329  1.5779 -2.8070 -0.6407
 3141SOL    HW221060   2.783   0.224   5.414  1.9877 -1.8182  0.0384
 3142SOL     OW21061   3.282   2.809   1.454  0.3715 -0.4485 -0.2574
 3142SOL    HW121062   3.202   2.799   1.506 -0.7269  0.3905 -1.7760
 3142SOL    HW221063   3.246   2.781   1.370 -1.0624  0.4132  0.0703
 3143SOL     OW21064   4.478   0.770   2.067  0.4558 -0.1376  0.6415
 3143SOL    HW121065   4.573   0.761   2.058  0.4128  1.3338 -1.3826
 3143SOL    HW221066   4.450   0.733   1.983 -1.2534  1.1301  0.6415
 3144SOL     OW21067   4.631   4.682   2.524 -0.0827  0.0532 -0.4705
 3144SOL    HW121068   4.668   4.742   2.460  1.8657 -0.9180 -0.2595
 3144SOL    HW221069   4.609   4.602   2.475 -1.4647  0.6230 -0.7649
 3145SOL     OW21070   1.459   1.510   6.044 -0.1792  0.2605 -0.0037
 3145SOL    HW121071   1.492   1.421   6.029  0.5304  0.0650  2.8893
 3145SOL    HW221072   1.497   1.534   6.128  2.2450  0.4009 -1.1610
 3146SOL     OW21073   1.580   2.706  10.518 -0.4305 -0.1519 -0.3652
 3146SOL    HW121074   1.501   2.705  10.573  0.3547 -1.3273  0.7224
 3146SOL    HW221075   1.645   2.670  10.578 -0.4385 -1.4158 -1.1188
 3147SOL     OW21076   0.134   1.897   8.735 -0.5100 -0.0408  0.6010
 3147SOL    HW121077   0.184   1.927   8.811 -0.5640  2.2281 -0.2643
 3147SOL    HW221078   0.102   1.815   8.773  0.9838 -1.0486 -0.3055
 3148SOL     OW21079   2.570   2.070   6.276 -0.1845  0.0595 -0.0135
 3148SOL    HW121080   2.650   2.023   6.257  1.0033  2.3834 -0.7299
 3148SOL    HW221081   2.548   2.105   6.189  2.4768 -0.5915 -0.9385
 3149SOL     OW21082   0.798   3.084   7.402 -0.1381  0.3453  0.3775
 3149SOL    HW121083   0.864   3.034   7.354  1.1548 -1.3509  3.8992
 3149SOL    HW221084   0.804   3.174   7.368  0.6235  0.4525  0.7957
 3150SOL     OW21085   3.127   1.306  15.638  0.0409  0.2017 -0.2286
 3150SOL    HW121086   3.033   1.321  15.626 -0.2641  0.1750  2.0675
 3150SOL    HW221087   3.129   1.269  15.726  0.7487 -1.0335 -0.7634
 3151SOL     OW21088   2.912   2.075   8.348  0.2628 -0.3977 -0.1342
 3151SOL    HW121089   2.945   2.157   8.310  1.6140 -0.7440  0.2754
 3151SOL    HW221090   2.870   2.121   8.420 -0.6827  1.4275 -1.8479
 3152SOL     OW21091   2.341   3.779  12.407  0.8006 -0.2830 -0.2896
 3152SOL    HW121092   2.424   3.800  12.450 -0.2312 -0.2164  1.6574
 3152SOL    HW221093   2.375   3.718  12.342  3.0212  2.1340 -1.4153
 3153SOL     OW21094   0.803   1.604   7.718 -0.7491  0.0864  0.9040
 3153SOL    HW121095   0.844   1.544   7.780 -2.4277 -1.0243  0.9236
 3153SOL    HW221096   0.773   1.682   7.765 -0.5980  0.0308  1.0903
 3154SOL     OW21097   1.468   2.331  12.506 -0.0277  0.3530 -0.2184
 3154SOL    HW121098   1.449   2.425  12.508 -0.1928  0.2704  2.0466
 3154SOL    HW221099   1.498   2.311  12.418  1.2981  0.0477  0.3039
 3155SOL     OW21100   2.877   0.930  10.556 -0.0055 -0.3325  0.1364
 3155SOL    HW121101   2.919   0.985  10.621  0.9926  0.4026 -1.1171
 3155SOL    HW221102   2.928   0.958  10.480  1.3088 -2.4866  0.2325
 3156SOL     OW21103   4.684   1.240   8.773 -0.9647 -0.5035 -0.2129
 3156SOL    HW121104   4.695   1.163   8.829 -1.7867  0.2271  0.9818
 3156SOL    HW221105   4.592   1.262   8.790 -0.5716  1.5810 -0.7769
 3157SOL     OW21106   0.957   2.422   9.850  0.5653  0.2152  0.0767
 3157SOL    HW121107   0.878   2.430   9.904  1.6539 -1.8258  1.9634
 3157SOL    HW221108   0.988   2.512   9.837  0.0695  0.3613 -0.0944
 3158SOL     OW21109   3.333   1.864   5.568 -0.1938  0.4833  0.0052
 3158SOL    HW121110   3.380   1.899   5.644 -2.0481 -1.9123  2.3006
 3158SOL    HW221111   3.291   1.782   5.597 -0.5576  0.0190 -1.8598
 3159SOL     OW21112   3.494   3.466   9.113  0.1421 -0.3870 -0.0392
 3159SOL    HW121113   3.565   3.504   9.166 -0.0905  2.7739 -1.9825
 3159SOL    HW221114   3.459   3.395   9.166 -0.6831  0.0079 -0.0619
 3160SOL     OW21115   0.297   3.004   8.150 -0.2615  0.1599 -0.9345
 3160SOL    HW121116   0.348   2.988   8.071  0.5439  0.0439 -0.3871
 3160SOL    HW221117   0.210   3.030   8.119 -0.6227 -0.2897 -0.2901
 3161SOL     OW21118   2.454   3.844   9.040  0.1904  0.3428  0.0885
 3161SOL    HW121119   2.413   3.931   9.042 -0.6715 -0.0763  0.9689
 3161SOL    HW221120   2.511   3.869   9.113 -0.1407  0.7419  0.2105
 3162SOL     OW21121   2.736   3.576   8.022  0.0673 -0.3617  0.2252
 3162SOL    HW121122   2.825   3.541   8.026  0.4438  0.3598 -1.5528
 3162SOL    HW221123   2.760   3.656   7.974 -0.7970  0.1889  0.7133
 3163SOL     OW21124   1.810   1.966  15.624 -0.3234 -1.4047 -0.0458
 3163SOL    HW121125   1.718   1.978  15.650 -0.0925 -0.4197  0.3085
 3163SOL    HW221126   1.819   1.871  15.624  0.7693 -1.2973 -0.3333
 3164SOL     OW21127   1.737   1.812   3.006  0.1515  0.9283 -0.3315
 3164SOL    HW121128   1.784   1.730   3.019 -1.2716  0.5722  2.5387
 3164SOL    HW221129   1.661   1.803   3.064  1.2656 -0.3465  0.9459
 3165SOL     OW21130   1.961   1.442   8.031 -0.6523 -0.1486  0.1583
 3165SOL    HW121131   1.909   1.368   8.001 -1.0162 -0.2544  1.0407
 3165SOL    HW221132   1.933   1.503   7.963  0.8544 -0.8145 -1.0469
 3166SOL     OW21133   2.569   0.257   7.406 -0.5913  0.1808  0.0068
 3166SOL    HW121134   2.528   0.257   7.320  2.0653  1.8652 -1.2455
 3166SOL    HW221135   2.496   0.307   7.443 -1.2812 -0.8277  0.0117
 3167SOL     OW21136   4.214   4.055   9.823  0.1181 -0.2511  0.8118
 3167SOL    HW121137   4.165   4.114   9.765  0.5579  0.5925  1.2908
 3167SOL    HW221138   4.286   4.025   9.767  0.3175  0.9673  0.3952
 3168SOL     OW21139   2.777   2.284   3.476 -0.0396 -0.1012  0.1996
 3168SOL    HW121140   2.715   2.357   3.482 -1.0982 -0.8626 -1.4384
 3168SOL    HW221141   2.724   2.219   3.523 -2.2634  1.9846  0.5682
 3169SOL     OW21142   3.393   1.261   3.004 -0.0802  0.2663 -0.0474
 3169SOL    HW121143   3.428   1.184   3.049 -1.1832 -0.5257 -0.5451
 3169SOL    HW221144   3.303   1.234   2.988  0.3812 -2.5457  2.0393
 3170SOL     OW21145   2.141   3.237   7.942  0.3220 -0.0565 -0.2214
 3170SOL    HW121146   2.231   3.260   7.962  0.7708 -0.6020 -1.6100
 3170SOL    HW221147   2.091   3.249   8.023  1.5861 -1.1763  0.7101
 3171SOL     OW21148   0.723   2.649   6.351  0.4495  0.3246 -0.9651
 3171SOL    HW121149   0.688   2.648   6.441  2.9641 -1.4870 -0.0246
 3171SOL    HW221150   0.716   2.744   6.342  1.7602  0.4948 -0.2088
 3172SOL     OW21151   1.402   0.871   2.562 -0.4993  0.1161  0.1101
 3172SOL    HW121152   1.362   0.957   2.559 -0.2311  0.3325  2.1721
 3172SOL    HW221153   1.491   0.896   2.586  0.1507 -1.2909 -0.8664
 3173SOL     OW21154   1.731   4.404   6.944  0.3729 -0.0735  0.2787
 3173SOL    HW121155   1.807   4.455   6.971  0.5587 -0.2906  0.1694
 3173SOL    HW221156   1.673   4.474   6.916 -0.9981 -1.4218 -0.2541
 3174SOL     OW21157   3.464   0.215  17.254 -0.4064 -0.1005  0.6802
 3174SOL    HW121158   3.506   0.208  17.340 -0.7866 -2.5403  0.6812
 3174SOL    HW221159   3.447   0.309  17.248  1.1063  0.1266  0.1295
 3175SOL     OW21160   2.514   4.228   8.200 -0.1466 -0.4895  0.1019
 3175SOL    HW121161   2.427   4.269   8.199  0.0188 -0.1247  0.9462
 3175SOL    HW221162   2.529   4.197   8.289 -0.7553 -1.5160 -0.1498
 3176SOL     OW21163   1.799   4.657   7.561 -0.1219 -0.1498 -0.2736
 3176SOL    HW121164   1.879   4.707   7.580  0.4402 -0.0392 -2.9548
 3176SOL    HW221165   1.750   4.704   7.629  2.3471  1.2266  0.5635
 3177SOL     OW21166   3.434   2.487   1.507  0.4510 -0.3936  0.2568
 3177SOL    HW121167   3.452   2.568   1.460  1.4383 -0.9938 -0.3965
 3177SOL    HW221168   3.344   2.469   1.481  0.5387 -0.0602 -0.2829
 3178SOL     OW21169   0.989   0.245   6.012 -0.2345  0.1232  0.0031
 3178SOL    HW121170   1.029   0.242   5.926  0.3505  1.4758  0.2311
 3178SOL    HW221171   1.044   0.196   6.073 -0.3129 -0.3823 -0.3391
 3179SOL     OW21172   4.346   2.102   8.160  0.4114 -0.2474  0.0972
 3179SOL    HW121173   4.423   2.131   8.110 -0.3177 -1.2063 -1.5442
 3179SOL    HW221174   4.370   2.010   8.165 -0.8551 -0.5709  0.1034
 3180SOL     OW21175   0.758   0.649   7.840 -0.0605  0.0190  0.7125
 3180SOL    HW121176   0.799   0.658   7.926  1.1339 -0.7829  0.2184
 3180SOL    HW221177   0.838   0.630   7.791  0.0396  0.6880  0.6203
 3181SOL     OW21178   2.093   3.211   0.212 -0.6921  0.2669 -0.4487
 3181SOL    HW121179   2.043   3.176   0.285  2.3807 -0.9075  1.1012
 3181SOL    HW221180   2.178   3.167   0.212 -0.4133  0.8002 -0.7554
 3182SOL     OW21181   2.283   0.259  11.036 -0.0183 -0.2426 -0.0847
 3182SOL    HW121182   2.253   0.169  11.024 -3.6827  0.9680  0.0758
 3182SOL    HW221183   2.254   0.278  11.125 -0.5704  2.4776 -0.8576
 3183SOL     OW21184   3.020   0.672   5.658  0.3685  0.4397  0.1696
 3183SOL    HW121185   3.041   0.756   5.616 -0.7145 -0.0064 -1.2608
 3183SOL    HW221186   2.925   0.681   5.658  0.2352 -0.9855 -3.7086
 3184SOL     OW21187   2.237   1.730   8.633 -0.0042 -0.5081  0.1376
 3184SOL    HW121188   2.220   1.639   8.609 -0.0148 -0.3843 -0.3281
 3184SOL    HW221189   2.273   1.763   8.551  2.9860 -1.6461  1.0023
 3185SOL     OW21190   2.873   4.480  11.653 -0.1572 -0.3974  0.0335
 3185SOL    HW121191   2.908   4.550  11.598  0.5648 -1.1010 -0.3900
 3185SOL    HW221192   2.893   4.517  11.739  2.7657  0.9093 -1.2226
 3186SOL     OW21193   4.623   3.706   2.007 -0.3785 -0.4360  0.3469
 3186SOL    HW121194   4.583   3.783   2.045  2.4353  2.1218 -1.8401
 3186SOL    HW221195   4.657   3.738   1.923  0.0749  0.5086  0.8945
 3187SOL     OW21196   2.476   0.380   7.767 -0.1241  0.2322  0.6020
 3187SOL    HW121197   2.517   0.309   7.817  0.3504  0.1858  0.1392
 3187SOL    HW221198   2.548   0.440   7.746  1.3411 -1.5833  0.3868
 3188SOL     OW21199   1.742   4.281  16.975 -0.4273  0.3179 -0.6287
 3188SOL    HW121200   1.738   4.228  16.896 -1.1780  2.1612 -1.8139
 3188SOL    HW221201   1.685   4.356  16.958 -2.2245 -1.1232 -1.0779
 3189SOL     OW21202   0.546   0.648   3.542  0.1088  0.2063 -0.3008
 3189SOL    HW121203   0.475   0.662   3.605 -0.0585  0.7129 -0.6047
 3189SOL    HW221204   0.496   0.640   3.461 -1.2364  1.8298  0.3776
 3190SOL     OW21205   0.602   1.723   7.337  0.0318 -0.5877  0.3577
 3190SOL    HW121206   0.524   1.718   7.282  0.6126 -0.0771 -0.5145
 3190SOL    HW221207   0.582   1.648   7.393  0.9354  0.7084  2.4249
 3191SOL     OW21208   0.562   3.778   6.262  0.0315 -0.1835 -0.1007
 3191SOL    HW121209   0.497   3.708   6.255 -0.0917 -0.1396  0.5665
 3191SOL    HW221210   0.614   3.757   6.185 -0.7278  1.9069 -1.1838
 3192SOL     OW21211   1.436   0.998  11.878 -0.0982  0.9071 -0.1921
 3192SOL    HW121212   1.520   0.961  11.905 -0.5515 -1.7506 -2.4196
 3192SOL    HW221213   1.463   1.070  11.821 -0.3672  0.9518 -0.2622
 3193SOL     OW21214   0.469   3.543   6.855 -0.0302 -0.4141 -0.5485
 3193SOL    HW121215   0.519   3.604   6.910 -0.4717 -3.5592  3.3503
 3193SOL    HW221216   0.467   3.464   6.909  0.8009  0.0616  0.1714
 3194SOL     OW21217   3.055   2.952   9.770 -0.2304  0.2089  0.7430
 3194SOL    HW121218   3.114   2.966   9.845  3.6454 -1.4564 -1.9960
 3194SOL    HW221219   3.085   3.020   9.710  2.1357 -2.4936 -1.1324
 3195SOL     OW21220   2.861   0.607   4.265 -0.6661  0.1163  0.2226
 3195SOL    HW121221   2.811   0.688   4.278  1.6033  1.0726  3.0255
 3195SOL    HW221222   2.860   0.611   4.170 -1.9592 -1.3557  0.1702
 3196SOL     OW21223   1.712   2.092   3.315 -0.7776  0.1299  0.4533
 3196SOL    HW121224   1.653   2.123   3.247 -1.1356 -0.0317  0.6908
 3196SOL    HW221225   1.645   2.079   3.382  0.1051 -1.0585  1.1136
 3197SOL     OW21226   2.519   3.971   1.882 -0.1804 -0.7243  0.3127
 3197SOL    HW121227   2.484   4.048   1.836 -5.0626 -2.5509  0.9443
 3197SOL    HW221228   2.568   4.010   1.954  2.7230  1.5869 -2.9190
 3198SOL     OW21229   0.713   2.479  10.003  0.8171 -0.4865 -0.1085
 3198SOL    HW121230   0.653   2.410   9.976 -3.0241  1.8804  2.3116
 3198SOL    HW221231   0.673   2.553   9.957 -0.6583 -0.9983  0.3364
 3199SOL     OW21232   2.815   0.925  14.738 -0.2401  0.6253 -0.5034
 3199SOL    HW121233   2.833   0.831  14.746 -0.2189  0.8390  1.8448
 3199SOL    HW221234   2.765   0.937  14.819 -1.6612  2.3767 -1.6452
 3200SOL     OW21235   0.470   2.371   9.131 -0.4948  0.2206  0.2425
 3200SOL    HW121236   0.394   2.313   9.117  0.3852 -1.3890  2.0602
 3200SOL    HW221237   0.438   2.415   9.210  0.6284  1.0736  0.2127
 3201SOL     OW21238   4.359   1.664   4.240 -0.3736  0.0965  0.6593
 3201SOL    HW121239   4.409   1.707   4.309 -0.1328  1.3203 -0.2719
 3201SOL    HW221240   4.417   1.679   4.166 -0.9486  2.0163  0.6030
 3202SOL     OW21241   2.747   3.064  11.289  0.1799 -0.1253 -0.0906
 3202SOL    HW121242   2.659   3.099  11.306  0.2181 -0.3818  0.6287
 3202SOL    HW221243   2.796   3.085  11.368 -1.6376  0.4526  0.8727
 3203SOL     OW21244   2.779   2.188   2.332  0.3507  0.1737  0.2348
 3203SOL    HW121245   2.725   2.119   2.370 -3.5095  1.2034 -3.3226
 3203SOL    HW221246   2.838   2.197   2.406  3.2591 -0.2996 -2.0581
 3204SOL     OW21247   1.442   4.505   4.160  0.6357 -0.1235 -0.3724
 3204SOL    HW121248   1.493   4.543   4.232 -1.4762 -0.3944  1.2552
 3204SOL    HW221249   1.368   4.565   4.151 -1.3153 -2.5506 -0.3920
 3205SOL     OW21250   2.563   0.781  17.134 -0.3637  0.5052 -0.1099
 3205SOL    HW121251   2.604   0.738  17.210 -1.1431 -1.5058 -0.8384
 3205SOL    HW221252   2.488   0.825  17.173  0.1080  0.6387  0.6655
 3206SOL     OW21253   1.052   4.588   4.411  0.0282 -0.2142  0.1965
 3206SOL    HW121254   0.975   4.646   4.416 -0.9342 -1.4442 -0.4736
 3206SOL    HW221255   1.010   4.520   4.359 -0.1430  1.6813 -2.1283
 3207SOL     OW21256   2.459   4.676  12.086 -0.3217 -0.2809  1.0325
 3207SOL    HW121257   2.522   4.630  12.142 -1.0197 -1.2143  1.0650
 3207SOL    HW221258   2.380   4.657  12.138 -1.1413  0.8811  0.2039
 3208SOL     OW21259   4.436   4.479  12.290  0.3950  0.1048  0.0079
 3208SOL    HW121260   4.454   4.488  12.383  2.9757 -0.8658 -0.3918
 3208SOL    HW221261   4.499   4.543  12.256  1.2941 -0.2285  1.0628
 3209SOL     OW21262   2.246   4.120   0.536  0.8048  0.6793 -0.6733
 3209SOL    HW121263   2.199   4.090   0.459  0.5151  0.2731 -0.3421
 3209SOL    HW221264   2.168   4.126   0.592  2.7689  0.4908  2.0987
 3210SOL     OW21265   2.634   2.631  15.290  0.8699 -0.1897  0.4420
 3210SOL    HW121266   2.669   2.707  15.245 -1.5652  0.6486 -0.0050
 3210SOL    HW221267   2.711   2.575  15.282 -0.1650 -1.1352 -2.6546
 3211SOL     OW21268   1.651   4.685   8.291  0.3911  0.5367  0.1448
 3211SOL    HW121269   1.718   4.637   8.339 -0.0796  0.9722  1.2218
 3211SOL    HW221270   1.706   4.731   8.227 -1.1360 -0.3406 -1.8180
 3212SOL     OW21271   4.653   1.208   1.877 -0.2168  0.1357 -0.0288
 3212SOL    HW121272   4.698   1.240   1.956  0.2327 -1.0168  0.1788
 3212SOL    HW221273   4.703   1.256   1.811 -0.3438  1.2610  0.6881
 3213SOL     OW21274   3.012   0.812  17.149  0.0631 -0.7008  0.3331
 3213SOL    HW121275   3.102   0.790  17.124 -0.6169  0.2228 -2.9000
 3213SOL    HW221276   2.995   0.899  17.114  1.9201  0.0754  1.3678
 3214SOL     OW21277   1.342   2.141   1.727  0.0099  0.2046  0.0189
 3214SOL    HW121278   1.303   2.092   1.800 -0.5445  1.7721  0.7773
 3214SOL    HW221279   1.296   2.225   1.733 -2.6521 -1.1189 -2.0838
 3215SOL     OW21280   2.142   2.340   3.610  0.3789  0.2883  0.0801
 3215SOL    HW121281   2.234   2.342   3.634  0.5698  0.5861 -0.6768
 3215SOL    HW221282   2.123   2.431   3.633  1.7502  0.9158 -1.2798
 3216SOL     OW21283   2.240   0.651   1.979  0.1135 -0.1750 -0.3608
 3216SOL    HW121284   2.154   0.649   1.938 -0.0573  1.8658 -0.1115
 3216SOL    HW221285   2.245   0.740   2.014 -0.9727 -0.2404 -0.0378
 3217SOL     OW21286   2.477   0.879   8.154 -0.0557  0.0247  0.7410
 3217SOL    HW121287   2.555   0.920   8.118 -0.0870  1.7549  2.6469
 3217SOL    HW221288   2.442   0.950   8.207 -0.3801 -1.3675  2.3868
 3218SOL     OW21289   3.317   1.766  10.251  0.2794  0.1231  0.3307
 3218SOL    HW121290   3.373   1.688  10.259  0.0188 -0.1454 -0.4314
 3218SOL    HW221291   3.372   1.816  10.191 -0.0146 -2.1466 -1.8574
 3219SOL     OW21292   4.166   2.120   7.508 -0.0036  0.4476 -0.6352
 3219SOL    HW121293   4.165   2.181   7.582  1.9143 -0.4627  0.1384
 3219SOL    HW221294   4.167   2.037   7.556 -1.4161  0.1641 -1.1123
 3220SOL     OW21295   1.129   2.157   4.972 -0.0556 -0.1505  0.2765
 3220SOL    HW121296   1.119   2.062   4.979 -2.2952  0.0005 -0.8407
 3220SOL    HW221297   1.061   2.172   4.907 -1.9100 -3.1632  1.4917
 3221SOL     OW21298   3.048   0.052  17.295  0.1718 -0.5703 -0.6949
 3221SOL    HW121299   3.137   0.026  17.319  0.9888  3.4435  0.6971
 3221SOL    HW221300   3.065   0.102  17.215  0.6591  2.0641  1.0495
 3222SOL     OW21301   0.210   1.686   9.918 -0.2339 -0.2867  0.1194
 3222SOL    HW121302   0.123   1.703   9.882  1.3122 -0.6944 -3.8282
 3222SOL    HW221303   0.191   1.696  10.011  1.2218 -0.2202  0.4195
 3223SOL     OW21304   0.802   2.716  11.524  0.2434  0.3320  0.5165
 3223SOL    HW121305   0.806   2.811  11.537 -1.7962  1.0065 -3.5879
 3223SOL    HW221306   0.868   2.702  11.457 -0.5774  0.6250 -0.3658
 3224SOL     OW21307   0.515   0.813  11.435  0.3017  0.5570 -0.1490
 3224SOL    HW121308   0.537   0.847  11.348 -0.5071 -0.0422 -0.5896
 3224SOL    HW221309   0.542   0.882  11.495  4.1819 -1.1999  0.1519
 3225SOL     OW21310   3.702   2.741   3.268 -0.1153  0.1784  0.2925
 3225SOL    HW121311   3.705   2.759   3.174 -0.4677 -0.5817  0.1397
 3225SOL    HW221312   3.712   2.826   3.311 -0.4388  0.9058 -1.0434
 3226SOL     OW21313   2.977   1.476   2.073  0.2021  0.3306  0.0453
 3226SOL    HW121314   2.887   1.484   2.105  0.2038 -1.9690  0.6328
 3226SOL    HW221315   2.988   1.380   2.071 -1.0176  0.1795  0.9327
 3227SOL     OW21316   2.750   2.621  12.795  0.3705 -0.2193 -0.1486
 3227SOL    HW121317   2.714   2.542  12.754  0.3058  0.4356 -1.3819
 3227SOL    HW221318   2.763   2.580  12.880 -4.2054  0.2873  0.7769
 3228SOL     OW21319   3.116   2.056   6.208 -0.1714 -1.0820  0.6436
 3228SOL    HW121320   3.145   2.147   6.205 -2.2129 -0.4731 -0.2649
 3228SOL    HW221321   3.176   2.028   6.277  0.9041  1.4278  0.7404
 3229SOL     OW21322   1.785   0.052   4.173  0.2453 -0.3865  0.3032
 3229SOL    HW121323   1.860   0.040   4.231  1.4090  2.5205 -0.5899
 3229SOL    HW221324   1.795   4.735   4.100  0.2941  0.9484 -0.8013
 3230SOL     OW21325   3.303   3.746   9.336  0.6639 -0.2490 -0.5030
 3230SOL    HW121326   3.258   3.781   9.412 -0.3152 -0.9974 -0.7483
 3230SOL    HW221327   3.230   3.722   9.280 -0.6959 -0.8115  1.5259
 3231SOL     OW21328   0.384   4.588  16.610  0.2291 -0.5375 -0.0866
 3231SOL    HW121329   0.411   4.539  16.532 -0.5426  0.0933 -0.7419
 3231SOL    HW221330   0.311   4.643  16.583 -0.6429 -2.3962 -1.4674
 3232SOL     OW21331   2.869   4.059   8.324  0.5185  1.0711  0.3709
 3232SOL    HW121332   2.907   4.026   8.405 -0.5038 -1.5156 -0.2034
 3232SOL    HW221333   2.889   4.152   8.332 -1.5295  1.5393  0.1785
 3233SOL     OW21334   3.891   0.731   8.997  0.4914  0.2123  0.3419
 3233SOL    HW121335   3.882   0.745   9.091 -0.5274 -0.1963  0.3068
 3233SOL    HW221336   3.813   0.677   8.986  1.0466 -0.9873  2.2235
 3234SOL     OW21337   1.579   2.336   8.683  0.2291 -0.3403 -0.5165
 3234SOL    HW121338   1.583   2.242   8.664 -3.0131 -0.3302 -1.3048
 3234SOL    HW221339   1.624   2.333   8.767  0.1816  1.2642 -0.4427
 3235SOL     OW21340   0.245   1.861   7.917  0.2301  0.6532  0.1568
 3235SOL    HW121341   0.271   1.890   7.829  0.6325 -0.6927 -0.1677
 3235SOL    HW221342   0.333   1.859   7.955  0.6661  1.7376 -0.7911
 3236SOL     OW21343   2.981   0.315  10.614  0.2120 -0.3827  0.6963
 3236SOL    HW121344   3.041   0.372  10.663  1.5276 -1.3650  0.2158
 3236SOL    HW221345   3.008   0.328  10.524 -0.9244 -1.5855  0.1777
 3237SOL     OW21346   4.268   3.540   4.300 -0.0521  0.3510 -0.5255
 3237SOL    HW121347   4.267   3.629   4.334  0.7371 -0.0998  0.6635
 3237SOL    HW221348   4.207   3.507   4.366  0.8194 -0.9319 -0.3630
 3238SOL     OW21349   0.774   3.995  16.556 -0.2297 -0.2331 -0.3444
 3238SOL    HW121350   0.714   3.955  16.619  0.3678 -0.6415 -0.0249
 3238SOL    HW221351   0.720   4.063  16.516 -0.1831 -0.1180 -0.2131
 3239SOL     OW21352   1.653   0.445  13.549  0.2655  0.7108 -0.2008
 3239SOL    HW121353   1.723   0.407  13.602  1.9504  3.2922 -0.5249
 3239SOL    HW221354   1.690   0.430  13.462 -1.9915 -0.3624 -0.9792
 3240SOL     OW21355   3.526   3.525   8.702  0.7942 -0.0298  0.4055
 3240SOL    HW121356   3.545   3.432   8.717 -2.8811 -1.1062 -1.5058
 3240SOL    HW221357   3.508   3.529   8.608 -0.1996 -1.2126  0.5360
 3241SOL     OW21358   1.298   2.622   8.410 -0.3889 -0.0342 -0.0288
 3241SOL    HW121359   1.283   2.548   8.469  0.2476 -1.1116 -1.2349
 3241SOL    HW221360   1.236   2.608   8.339 -0.3013 -2.1330  0.3254
 3242SOL     OW21361   0.541   0.872   3.725  0.2374  0.5520  0.0648
 3242SOL    HW121362   0.557   0.948   3.669 -0.0586 -0.7652 -1.8058
 3242SOL    HW221363   0.446   0.860   3.712  0.6488 -2.0312 -0.6016
 3243SOL     OW21364   3.924   3.770   3.545 -0.3308  0.4671  0.0379
 3243SOL    HW121365   3.904   3.825   3.470 -2.4840  0.2313  0.4186
 3243SOL    HW221366   3.923   3.831   3.619  1.9705 -0.5868  0.9229
 3244SOL     OW21367   3.590   4.328   7.682 -0.4574 -0.1956 -0.9357
 3244SOL    HW121368   3.524   4.309   7.615 -1.1256  0.5253 -0.4852
 3244SOL    HW221369   3.569   4.263   7.749 -1.4544  3.4626  2.2903
 3245SOL     OW21370   2.277   2.600  15.856 -0.3389 -0.4187  0.2117
 3245SOL    HW121371   2.298   2.649  15.936 -1.0220  2.2799 -1.2448
 3245SOL    HW221372   2.183   2.618  15.849 -0.0420  1.2144  0.2863
 3246SOL     OW21373   1.432   4.692  15.880 -0.2984 -0.0960 -0.0465
 3246SOL    HW121374   1.411   4.672  15.972  0.4165 -2.4573 -0.3863
 3246SOL    HW221375   1.408   4.605  15.849  0.4699  0.3782 -1.9329
 3247SOL     OW21376   4.039   3.291   8.699  0.1295 -0.5254 -0.2347
 3247SOL    HW121377   4.033   3.198   8.723  1.2292 -0.0406  1.8999
 3247SOL    HW221378   4.125   3.291   8.657  0.9390  0.3143  1.4707
 3248SOL     OW21379   4.565   4.610   7.773 -0.5108 -0.0258  0.3554
 3248SOL    HW121380   4.647   4.620   7.724  0.2389 -0.5752  1.4957
 3248SOL    HW221381   4.501   4.602   7.703 -0.5107 -0.7981  0.4414
 3249SOL     OW21382   0.897   4.661   7.292 -0.0867 -0.2100 -0.4542
 3249SOL    HW121383   0.860   4.619   7.215  0.5076  0.2888 -1.0091
 3249SOL    HW221384   0.817   4.687   7.337 -0.2332 -0.6518 -0.4632
 3250SOL     OW21385   0.067   2.571  10.526 -0.0706 -0.5403 -0.7026
 3250SOL    HW121386   0.159   2.568  10.502 -0.1883 -2.0674 -0.9030
 3250SOL    HW221387   0.047   2.483  10.558  2.1766 -2.1183 -3.7236
 3251SOL     OW21388   3.846   1.780   9.079 -0.4604  0.9656 -0.2526
 3251SOL    HW121389   3.894   1.791   9.161 -0.4731 -2.3276  0.1852
 3251SOL    HW221390   3.785   1.708   9.093 -2.2133  2.6650  0.8223
 3252SOL     OW21391   4.272   2.952  16.850 -0.0031 -0.2491 -0.4104
 3252SOL    HW121392   4.183   2.917  16.861 -0.9172  2.2874  0.3236
 3252SOL    HW221393   4.274   3.017  16.921 -1.3413 -0.0309 -0.5725
 3253SOL     OW21394   0.322   1.824   9.688 -1.0071  0.1068 -0.3639
 3253SOL    HW121395   0.267   1.789   9.758 -0.0378  0.7772  0.7442
 3253SOL    HW221396   0.265   1.849   9.616  0.3350  0.2415 -1.3693
 3254SOL     OW21397   3.162   3.339   2.730  0.0733 -0.4442  0.1521
 3254SOL    HW121398   3.254   3.313   2.736 -0.1127 -0.5303  2.9139
 3254SOL    HW221399   3.115   3.256   2.723  0.0631 -0.5190  1.1155
 3255SOL     OW21400   2.559   4.452  12.261  0.2231 -0.0671  0.1954
 3255SOL    HW121401   2.628   4.500  12.307  0.0963  0.1030  0.2060
 3255SOL    HW221402   2.609   4.441  12.180 -0.7994 -0.8233 -0.3426
 3256SOL     OW21403   1.387   1.233  15.537 -0.9441  0.3097  0.3105
 3256SOL    HW121404   1.348   1.158  15.493 -1.4846  1.1819 -0.7083
 3256SOL    HW221405   1.312   1.292  15.548 -0.7163  0.6188  0.2116
 3257SOL     OW21406   3.668   3.115   6.344 -0.7485 -0.0669  0.0300
 3257SOL    HW121407   3.646   3.050   6.277 -0.5783 -2.9081  2.7577
 3257SOL    HW221408   3.750   3.157   6.316 -1.0769  1.6267  1.6648
 3258SOL     OW21409   3.507   3.552  14.253 -0.9683  0.3126 -0.3171
 3258SOL    HW121410   3.564   3.534  14.178  0.4207 -0.3357  0.8956
 3258SOL    HW221411   3.426   3.510  14.225 -0.4916 -1.1024  0.4481
 3259SOL     OW21412   0.514   3.262   5.160 -0.7706  0.3324  0.0170
 3259SOL    HW121413   0.496   3.184   5.213  1.4343  0.3439  0.7850
 3259SOL    HW221414   0.581   3.312   5.207 -1.6643  0.7486  0.8274
 3260SOL     OW21415   2.577   0.114   4.776  0.2741  0.3039  0.3387
 3260SOL    HW121416   2.564   0.139   4.685  0.2488  0.8346  0.4868
 3260SOL    HW221417   2.490   0.079   4.795 -0.0828  1.6243  1.1588
 3261SOL     OW21418   1.145   3.503   4.739  0.3756 -0.3730 -0.3091
 3261SOL    HW121419   1.087   3.518   4.664 -1.2794  1.3080  1.3068
 3261SOL    HW221420   1.197   3.426   4.717 -1.8549 -2.7500  2.8340
 3262SOL     OW21421   3.361   2.130   1.504  0.1596  0.0835 -0.1975
 3262SOL    HW121422   3.445   2.156   1.544  0.5604 -0.3994 -0.7298
 3262SOL    HW221423   3.310   2.104   1.580 -0.1363  0.8587 -0.1268
 3263SOL     OW21424   1.225   1.008   4.941  0.4206 -0.2499  0.4999
 3263SOL    HW121425   1.263   0.963   5.017  2.7639 -0.3728 -0.7421
 3263SOL    HW221426   1.212   0.936   4.880 -1.4976  0.8840 -0.4194
 3264SOL     OW21427   1.285   0.756  14.778 -0.2606  1.1128 -0.3989
 3264SOL    HW121428   1.354   0.819  14.756  0.4729  1.0218  1.6684
 3264SOL    HW221429   1.251   0.732  14.692 -0.4095  2.1381 -0.6279
 3265SOL     OW21430   0.675   1.309  15.072 -0.0820 -0.2669  0.4093
 3265SOL    HW121431   0.621   1.309  14.992 -0.8771  1.8443  0.9187
 3265SOL    HW221432   0.730   1.232  15.061 -0.0419 -0.2772  0.6967
 3266SOL     OW21433   2.681   3.228  17.190  0.5049  0.1203 -1.1262
 3266SOL    HW121434   2.724   3.310  17.165 -1.5859  1.3373 -0.6908
 3266SOL    HW221435   2.692   3.228  17.285 -0.5448  3.5163 -0.9790
 3267SOL     OW21436   3.459   0.002  10.187  0.2022 -0.3566  0.2756
 3267SOL    HW121437   3.518   0.003  10.111  2.1241 -0.6147  1.7810
 3267SOL    HW221438   3.525   0.023  10.253  0.7580 -0.3357 -0.2765
 3268SOL     OW21439   1.787   1.644   6.538  0.2307 -0.2220 -0.1358
 3268SOL    HW121440   1.775   1.732   6.574  1.8300 -0.2396  0.4369
 3268SOL    HW221441   1.696   1.616   6.537  0.7376 -1.8646 -1.0486
 3269SOL     OW21442   3.053   3.295   8.309  0.0136 -0.5910 -0.0536
 3269SOL    HW121443   3.105   3.268   8.234  0.3380 -0.5439  0.1550
 3269SOL    HW221444   2.970   3.249   8.297  0.1040 -0.6901 -0.2963
 3270SOL     OW21445   3.486   0.085   8.245 -0.2294  0.3491  0.1979
 3270SOL    HW121446   3.440   0.093   8.329  1.4713 -0.3413  1.1965
 3270SOL    HW221447   3.444   0.007   8.208  0.1598 -0.8258  2.2196
 3271SOL     OW21448   2.841   3.974   5.804 -0.2027 -0.0822 -0.0976
 3271SOL    HW121449   2.885   3.922   5.872 -2.4152  1.0782  2.2232
 3271SOL    HW221450   2.908   3.954   5.738  0.6951  0.7325  0.5605
 3272SOL     OW21451   0.856   3.378   2.920  0.2421  0.4849  0.5981
 3272SOL    HW121452   0.862   3.404   2.829  2.0755 -1.3895  0.1686
 3272SOL    HW221453   0.838   3.284   2.915 -0.7827  0.6576  1.0804
 3273SOL     OW21454   1.862   0.307   6.674 -0.4077  0.0666 -0.0573
 3273SOL    HW121455   1.842   0.316   6.767 -0.8634 -0.6406 -0.0884
 3273SOL    HW221456   1.777   0.271   6.647 -0.0285 -0.4347 -0.5911
 3274SOL     OW21457   1.558   3.367  16.481  0.3809 -0.2825 -0.5667
 3274SOL    HW121458   1.624   3.373  16.550  1.0695 -0.9373 -1.1691
 3274SOL    HW221459   1.621   3.343  16.413 -0.0526 -1.1857 -0.6535
 3275SOL     OW21460   4.401   1.679  15.073 -0.0340  0.0667 -0.2509
 3275SOL    HW121461   4.478   1.646  15.121 -1.8511  0.4193  2.8722
 3275SOL    HW221462   4.399   1.617  15.000 -0.4716 -0.2022 -0.0144
 3276SOL     OW21463   2.224   0.706   7.508  0.0536 -0.5746  0.9036
 3276SOL    HW121464   2.277   0.767   7.558 -0.6921  0.3599  0.5570
 3276SOL    HW221465   2.141   0.701   7.557 -0.2447  0.0060  0.4549
 3277SOL     OW21466   0.019   2.009  11.490 -0.5470  0.1789  0.3172
 3277SOL    HW121467   0.070   2.060  11.552  2.1243 -0.0010 -1.7168
 3277SOL    HW221468   4.685   1.984  11.539  0.9623 -2.1650  1.5772
 3278SOL     OW21469   2.250   4.599   9.099  0.2037 -1.0304 -0.4925
 3278SOL    HW121470   2.159   4.627   9.100  0.9119  1.3845 -3.1527
 3278SOL    HW221471   2.237   4.513   9.139 -2.0689 -0.6201 -0.3704
 3279SOL     OW21472   1.437   3.122   8.007 -0.4806 -0.0270  0.4951
 3279SOL    HW121473   1.366   3.151   7.950 -0.3730 -0.0975  0.3240
 3279SOL    HW221474   1.418   3.029   8.015  0.9517 -0.4275 -0.6265
 3280SOL     OW21475   0.346   2.064   0.069  0.2464 -0.2521  0.0167
 3280SOL    HW121476   0.316   2.153   0.052 -1.9846 -0.9040  0.5053
 3280SOL    HW221477   0.314   2.012  17.766 -1.8037  1.1486 -0.0721
 3281SOL     OW21478   4.305   0.389   6.702 -0.1850  0.2176 -0.2451
 3281SOL    HW121479   4.220   0.427   6.724  0.1430  1.0230 -0.3756
 3281SOL    HW221480   4.350   0.396   6.786 -2.2985  0.8808  0.8374
 3282SOL     OW21481   2.571   3.106   8.744 -0.1023  0.2277 -0.3359
 3282SOL    HW121482   2.508   3.119   8.815  1.0511  1.5681  0.4439
 3282SOL    HW221483   2.534   3.169   8.681 -0.3094 -1.4111 -1.8479
 3283SOL     OW21484   2.321   1.847   4.271  0.3991  0.3932  0.3557
 3283SOL    HW121485   2.299   1.940   4.269 -0.3321  0.1971 -0.7528
 3283SOL    HW221486   2.391   1.851   4.336 -0.7456 -0.1174  1.6050
 3284SOL     OW21487   3.795   1.837   4.201 -0.0243  0.1151  0.2657
 3284SOL    HW121488   3.874   1.855   4.150 -0.4573 -0.0318 -0.4537
 3284SOL    HW221489   3.835   1.833   4.288  1.4222 -1.4935 -0.4776
 3285SOL     OW21490   3.522   0.786  11.405 -0.1288 -0.2263 -0.0967
 3285SOL    HW121491   3.511   0.866  11.354  1.1573 -0.2775 -0.4457
 3285SOL    HW221492   3.616   0.778  11.419  0.0114 -0.7933 -1.3106
 3286SOL     OW21493   4.465   1.485   7.167 -0.3888 -0.2631 -0.3744
 3286SOL    HW121494   4.392   1.513   7.222 -1.3261  1.1147 -2.3167
 3286SOL    HW221495   4.530   1.447   7.226  0.2145  3.6337  1.4815
 3287SOL     OW21496   2.138   1.636  16.618 -0.0581  0.1266 -0.2502
 3287SOL    HW121497   2.065   1.580  16.644 -0.4464  1.1747  0.8754
 3287SOL    HW221498   2.144   1.701  16.688 -1.5273 -1.7187  1.5999
 3288SOL     OW21499   2.191   0.250   1.487  0.4561  0.6385 -0.4040
 3288SOL    HW121500   2.204   0.280   1.577  2.0821 -0.8011 -0.1643
 3288SOL    HW221501   2.209   0.320   1.424  1.3604 -0.2030 -1.0770
 3289SOL     OW21502   4.735   0.304   6.018 -0.3405 -0.2458  0.1421
 3289SOL    HW121503   4.672   0.369   6.050 -0.5423  0.3371 -1.4564
 3289SOL    HW221504   0.067   0.330   6.071  1.7491 -3.1088 -1.4569
 3290SOL     OW21505   2.597   3.624   3.836 -0.0628 -0.0841 -0.1060
 3290SOL    HW121506   2.577   3.533   3.860  1.3594 -0.2246  0.5618
 3290SOL    HW221507   2.605   3.607   3.742 -1.7009 -1.8576  0.0734
 3291SOL     OW21508   0.501   3.232  17.155  0.1736  0.6926 -0.0408
 3291SOL    HW121509   0.569   3.228  17.088  1.1680  0.3520  0.9904
 3291SOL    HW221510   0.423   3.234  17.100  0.9046  1.9403 -1.0386
 3292SOL     OW21511   3.843   3.253   2.125 -0.4058  0.2640 -0.2112
 3292SOL    HW121512   3.841   3.347   2.143 -0.7825  0.2042  0.0580
 3292SOL    HW221513   3.749   3.238   2.125 -0.2367 -0.7551 -0.3318
 3293SOL     OW21514   1.906   3.122   6.361  0.4575 -0.1600  0.5868
 3293SOL    HW121515   1.837   3.113   6.427  0.1056 -1.4772  0.0357
 3293SOL    HW221516   1.979   3.153   6.414  0.6327 -0.3206  0.4374
 3294SOL     OW21517   3.123   4.609   4.324 -0.0039 -0.3307  0.0692
 3294SOL    HW121518   3.048   4.653   4.286  0.2851 -0.7531 -0.9885
 3294SOL    HW221519   3.182   4.681   4.347  0.1527  0.2350 -2.1281
 3295SOL     OW21520   2.055   2.385   9.269 -0.4213  0.3798 -0.9060
 3295SOL    HW121521   2.060   2.301   9.224  1.0503  0.7860 -1.4960
 3295SOL    HW221522   2.116   2.447   9.228  1.9694 -1.4372 -0.0815
 3296SOL     OW21523   4.679   2.726  15.582  0.4111  0.3763  0.2293
 3296SOL    HW121524   4.591   2.761  15.574  0.4055  0.3227  0.0569
 3296SOL    HW221525   4.691   2.766  15.669  0.7020 -0.6173  0.6424
 3297SOL     OW21526   3.907   2.922   5.986  0.4385  0.1479 -0.1333
 3297SOL    HW121527   3.865   2.840   6.014  0.5511  0.4632  0.9671
 3297SOL    HW221528   3.941   2.957   6.068  0.6915  0.6507 -0.4563
 3298SOL     OW21529   0.586   3.347   9.011  0.7523 -0.1069 -0.2056
 3298SOL    HW121530   0.532   3.283   9.058 -0.3878  0.2795 -1.0032
 3298SOL    HW221531   0.521   3.391   8.957 -0.9441 -1.8201  0.4510
 3299SOL     OW21532   2.976   4.498   1.683 -0.1537  0.5886  0.1665
 3299SOL    HW121533   2.931   4.577   1.711  0.0027  1.2054 -1.3057
 3299SOL    HW221534   2.917   4.465   1.615 -0.8027  2.5834 -0.2185
 3300SOL     OW21535   4.229   0.683   5.438 -0.5774  0.1011  0.0216
 3300SOL    HW121536   4.261   0.596   5.461 -2.3551 -1.0443 -1.7917
 3300SOL    HW221537   4.240   0.672   5.343 -5.7998 -1.1908 -0.4183
 3301SOL     OW21538   3.196   0.781  16.437 -0.4920 -0.3336  0.4753
 3301SOL    HW121539   3.130   0.785  16.506 -1.5668 -0.7906 -0.5226
 3301SOL    HW221540   3.256   0.717  16.476 -0.2596 -0.4740 -0.1125
 3302SOL     OW21541   0.533   1.899  15.016  0.0631 -0.1400  0.1640
 3302SOL    HW121542   0.613   1.850  15.034 -0.7795 -1.3873  0.5172
 3302SOL    HW221543   0.467   1.837  15.047  1.1574 -0.7029  1.3787
 3303SOL     OW21544   4.376   4.278   7.777 -1.1110  0.2055 -0.1316
 3303SOL    HW121545   4.294   4.321   7.803 -1.7685  0.2330 -2.2176
 3303SOL    HW221546   4.344   4.196   7.739  1.3303  0.5470 -2.8796
 3304SOL     OW21547   2.938   2.796   9.360  0.1188  0.0015 -0.3804
 3304SOL    HW121548   2.959   2.753   9.443 -0.1902 -0.0955 -0.3545
 3304SOL    HW221549   2.916   2.723   9.301 -2.8806  0.6426 -0.0515
 3305SOL     OW21550   2.754   2.246   3.791  0.2460 -0.0038  0.0519
 3305SOL    HW121551   2.811   2.278   3.861 -0.9605 -2.1843  2.0463
 3305SOL    HW221552   2.758   2.151   3.802  0.8230 -0.3372 -2.9523
 3306SOL     OW21553   0.351   1.780  10.395  0.6976  0.3860 -0.5331
 3306SOL    HW121554   0.382   1.744  10.312  0.9193 -1.6548  0.4363
 3306SOL    HW221555   0.430   1.827  10.422  1.1453 -0.1113 -0.9781
 3307SOL     OW21556   1.394   4.583   4.943 -0.0184 -0.4967 -0.3846
 3307SOL    HW121557   1.415   4.580   4.850 -0.3325  0.7677 -0.4862
 3307SOL    HW221558   1.310   4.537   4.947 -0.8336  1.0168 -0.1075
 3308SOL     OW21559   3.954   3.176   8.397  0.2555 -0.0390 -0.0198
 3308SOL    HW121560   4.026   3.117   8.376 -0.9691 -1.7039  0.5376
 3308SOL    HW221561   3.997   3.261   8.387 -0.0307  0.2057  0.8546
 3309SOL     OW21562   1.229   3.942   5.101  0.6046  0.6674  0.3703
 3309SOL    HW121563   1.273   4.025   5.121  0.8464  0.7243 -0.4005
 3309SOL    HW221564   1.153   3.975   5.053 -0.9519 -1.0576  1.6520
 3310SOL     OW21565   1.539   1.186   1.732 -0.1376  0.2357  0.1901
 3310SOL    HW121566   1.607   1.145   1.785 -0.2499  0.0323  0.1754
 3310SOL    HW221567   1.473   1.117   1.726 -1.6904  1.7313  0.0321
 3311SOL     OW21568   4.461   4.199   5.600  0.1015 -0.0277 -0.4629
 3311SOL    HW121569   4.468   4.109   5.631 -0.2913  0.1500  0.1271
 3311SOL    HW221570   4.537   4.238   5.644  0.3344 -1.7077  0.6026
 3312SOL     OW21571   4.128   2.609   6.847 -0.1094 -0.3487  0.3389
 3312SOL    HW121572   4.102   2.685   6.899  1.3360  0.5292 -0.2177
 3312SOL    HW221573   4.070   2.538   6.876 -0.7078  0.2495  0.5900
 3313SOL     OW21574   1.492   1.928   4.456  0.4207  0.3763  0.0788
 3313SOL    HW121575   1.464   1.877   4.533  1.7962 -2.2642 -1.1444
 3313SOL    HW221576   1.444   2.010   4.458 -1.1505 -0.5435  0.4906
 3314SOL     OW21577   0.293   4.206   8.640  0.1369 -0.6752 -0.3244
 3314SOL    HW121578   0.231   4.192   8.711 -0.2914  1.2931 -0.3078
 3314SOL    HW221579   0.261   4.292   8.614 -0.7742 -0.8231  0.3196
 3315SOL     OW21580   3.443   1.373   6.478 -0.6883  0.1386 -0.1534
 3315SOL    HW121581   3.531   1.372   6.440 -0.3086 -0.9038  0.7399
 3315SOL    HW221582   3.460   1.399   6.568 -0.8451 -0.3433  0.0150
 3316SOL     OW21583   3.322   3.699  14.642 -0.2303  0.8054 -0.0837
 3316SOL    HW121584   3.399   3.755  14.650  1.5220 -1.6264  0.0362
 3316SOL    HW221585   3.321   3.652  14.726 -1.4417  1.5446  0.3182
 3317SOL     OW21586   3.870   3.598   9.828  0.6559  0.0797  0.0916
 3317SOL    HW121587   3.834   3.687   9.830 -0.4183 -0.3682  0.7451
 3317SOL    HW221588   3.965   3.610   9.835  0.4795 -0.3522  3.3408
 3318SOL     OW21589   1.439   4.128   3.897  0.7931 -0.5483  0.1969
 3318SOL    HW121590   1.431   4.100   3.806  0.2074  0.3563 -0.0239
 3318SOL    HW221591   1.352   4.107   3.931  1.0542 -2.5627 -0.3908
 3319SOL     OW21592   2.713   0.129   0.284 -0.5595  0.1326  1.0864
 3319SOL    HW121593   2.624   0.115   0.252 -0.7694  0.7632  1.3884
 3319SOL    HW221594   2.733   0.215   0.248  1.6188 -1.3455 -1.2531
 3320SOL     OW21595   3.804   2.581   1.612  0.2264 -0.4756 -0.7667
 3320SOL    HW121596   3.809   2.492   1.644 -3.2663 -0.3074  0.2521
 3320SOL    HW221597   3.889   2.623   1.626  0.1900 -1.1398  1.4555
 3321SOL     OW21598   3.143   3.013   8.644 -0.0943 -0.1179 -0.4999
 3321SOL    HW121599   3.092   2.964   8.708 -0.5533  1.5351  0.4201
 3321SOL    HW221600   3.196   2.943   8.607 -1.4220 -0.8075 -1.0596
 3322SOL     OW21601   0.759   4.523   7.060  0.3486  0.2546 -0.1136
 3322SOL    HW121602   0.672   4.564   7.054  0.6597  0.8802 -0.2913
 3322SOL    HW221603   0.742   4.441   7.107  3.0433 -0.8414 -1.0971
 3323SOL     OW21604   3.084   1.183  16.733 -0.3920  0.6011 -0.3507
 3323SOL    HW121605   3.034   1.163  16.654  1.7979 -0.1702 -1.5505
 3323SOL    HW221606   3.172   1.201  16.702 -0.4424  0.9513 -0.2932
 3324SOL     OW21607   4.688   4.191  16.404 -0.0864  0.1196  0.6563
 3324SOL    HW121608   4.701   4.112  16.456 -1.1441 -0.1113  0.5714
 3324SOL    HW221609   4.736   4.171  16.324 -2.2720 -0.3848 -0.5245
 3325SOL     OW21610   0.784   1.838   3.994  0.8694 -0.5087  0.3750
 3325SOL    HW121611   0.717   1.823   3.928  1.1326  0.2431 -0.0658
 3325SOL    HW221612   0.851   1.776   3.963 -0.1518 -0.5793 -1.6905
 3326SOL     OW21613   1.669   0.876   4.588 -0.0143  0.3672 -0.2853
 3326SOL    HW121614   1.603   0.861   4.655 -0.7455  1.3102 -0.8033
 3326SOL    HW221615   1.732   0.924   4.643  0.4864 -0.1000 -0.4510
 3327SOL     OW21616   0.027   1.248   5.157  0.3815  0.8055 -0.3069
 3327SOL    HW121617   4.743   1.157   5.165 -1.1636  1.0811 -2.4478
 3327SOL    HW221618   4.717   1.293   5.223  0.8234  2.6114 -1.1674
 3328SOL     OW21619   0.660   4.015   3.094 -0.3249 -0.1231 -0.3111
 3328SOL    HW121620   0.572   4.035   3.062 -0.1460 -0.8757 -1.2429
 3328SOL    HW221621   0.632   3.961   3.168  1.9038  0.7083  1.1496
 3329SOL     OW21622   3.086   0.687  12.548 -0.0008 -0.6259 -0.2340
 3329SOL    HW121623   3.052   0.737  12.474 -0.4086 -0.9636 -0.2741
 3329SOL    HW221624   3.114   0.753  12.611 -1.9052  0.4925 -0.5773
 3330SOL     OW21625   4.619   1.572   2.607  0.2422  0.4074  0.0326
 3330SOL    HW121626   4.569   1.491   2.594 -1.1591  1.1404  0.8288
 3330SOL    HW221627   4.550   1.632   2.636  0.9804  0.2472  2.0912
 3331SOL     OW21628   0.673   2.937  12.369 -0.4099  0.2102 -0.2354
 3331SOL    HW121629   0.657   3.028  12.345 -2.5557  0.4540  2.1753
 3331SOL    HW221630   0.655   2.892  12.286  1.2391  1.7278 -1.4033
 3332SOL     OW21631   0.132   0.922   4.569 -0.0585 -0.9210 -0.2704
 3332SOL    HW121632   0.145   0.916   4.474  0.4724  0.2646 -0.2777
 3332SOL    HW221633   0.040   0.947   4.573  1.0094  2.8341  1.1198
 3333SOL     OW21634   2.243   1.213   7.626 -1.1427 -0.2224 -0.5706
 3333SOL    HW121635   2.148   1.217   7.619 -1.1629  0.6919  0.1793
 3333SOL    HW221636   2.256   1.232   7.533 -2.8885 -1.6078 -1.0945
 3334SOL     OW21637   4.272   4.071   7.637 -0.3781 -0.0837  0.2045
 3334SOL    HW121638   4.209   4.124   7.588 -0.0412  1.3204  1.2820
 3334SOL    HW221639   4.274   3.985   7.594  0.7174 -0.4092  0.9138
 3335SOL     OW21640   0.979   3.278   5.844 -0.4569 -0.1129 -0.3020
 3335SOL    HW121641   1.061   3.263   5.797  1.0145 -0.2921  2.3156
 3335SOL    HW221642   0.924   3.211   5.803 -0.5481 -1.5527  2.1841
 3336SOL     OW21643   4.362   4.740  15.263  0.0883  0.5297  0.3655
 3336SOL    HW121644   4.373   0.090  15.278 -0.0644  0.6030  0.0119
 3336SOL    HW221645   4.273   4.740  15.299 -0.5153 -0.5053 -1.0798
 3337SOL     OW21646   0.237   3.423   0.652 -0.4353  0.1985  0.0460
 3337SOL    HW121647   0.286   3.348   0.686  2.0190  2.8560  2.4686
 3337SOL    HW221648   0.306   3.475   0.609  0.8196 -2.0033 -0.6188
 3338SOL     OW21649   2.790   1.904   6.267 -1.2170 -0.2246  0.5181
 3338SOL    HW121650   2.787   1.837   6.335  0.5403 -0.7367  0.1121
 3338SOL    HW221651   2.862   1.870   6.213 -1.2248  2.0191 -0.9330
 3339SOL     OW21652   1.634   2.208   2.106  0.3138  0.2965 -0.3049
 3339SOL    HW121653   1.571   2.271   2.142 -0.0875  0.5500 -1.4435
 3339SOL    HW221654   1.696   2.197   2.178 -0.2382  1.4638  0.3474
 3340SOL     OW21655   0.987   3.407   7.643 -0.8565 -0.8331 -0.3677
 3340SOL    HW121656   0.963   3.320   7.675 -0.5941 -1.0548 -0.7828
 3340SOL    HW221657   1.047   3.432   7.714 -0.4430  1.2928 -1.4615
 3341SOL     OW21658   4.396   0.442  12.003  0.0927 -0.5152 -0.0392
 3341SOL    HW121659   4.452   0.435  12.081  0.7046  0.7806 -0.3545
 3341SOL    HW221660   4.422   0.531  11.978 -1.9714 -0.3068 -1.4317
 3342SOL     OW21661   0.996   1.509   2.119  0.0103  0.5236  0.3013
 3342SOL    HW121662   0.923   1.494   2.059 -0.7649  0.6872  1.2078
 3342SOL    HW221663   0.953   1.504   2.204 -0.7815 -1.1120 -0.1804
 3343SOL     OW21664   3.136   3.828  15.583  0.5708  0.0631  0.8748
 3343SOL    HW121665   3.082   3.886  15.529 -0.9740  0.3038  2.6919
 3343SOL    HW221666   3.095   3.840  15.668  2.0953  2.3025  1.3160
 3344SOL     OW21667   3.020   2.046  11.042  0.0227  0.5902 -0.3114
 3344SOL    HW121668   2.977   2.104  11.105  0.5839  1.1126 -0.4098
 3344SOL    HW221669   3.103   2.027  11.086  0.5946  0.5626 -1.3904
 3345SOL     OW21670   2.051   1.649   2.231 -0.0530 -0.1230 -0.7278
 3345SOL    HW121671   2.014   1.587   2.168 -1.7369  0.9283 -0.7641
 3345SOL    HW221672   2.030   1.597   2.309 -0.4707  1.5567  0.2678
 3346SOL     OW21673   0.418   4.612   7.687  0.7341  0.4480 -0.2388
 3346SOL    HW121674   0.458   4.668   7.621  1.1328  0.0477 -0.3385
 3346SOL    HW221675   0.452   4.531   7.649 -0.7782 -0.1737 -0.2762
 3347SOL     OW21676   2.063   1.991   8.078 -0.0738 -0.6680  0.0451
 3347SOL    HW121677   2.106   1.918   8.122 -0.4252 -1.1341 -0.3795
 3347SOL    HW221678   2.010   2.032   8.146  2.1131  0.4800  1.0731
 3348SOL     OW21679   3.028   3.402   2.390 -0.2155  0.4523 -0.0585
 3348SOL    HW121680   3.037   3.317   2.345 -4.1981 -0.8629  1.6707
 3348SOL    HW221681   3.000   3.457   2.317  1.0191  1.0350 -0.0855
 3349SOL     OW21682   3.094   1.409   7.889  0.2930 -0.2071 -0.2579
 3349SOL    HW121683   3.152   1.439   7.820  1.9662 -2.0934  0.3247
 3349SOL    HW221684   3.083   1.318   7.861 -2.2858  0.3720 -1.1218
 3350SOL     OW21685   4.668   4.719   9.701 -0.1621 -0.6066 -0.2371
 3350SOL    HW121686   4.591   0.014   9.741  0.2444  0.4927 -0.5365
 3350SOL    HW221687   4.622   4.636   9.687 -1.1959 -0.1888  0.7680
 3351SOL     OW21688   0.834   1.121   5.753 -0.7250 -0.4382 -0.5631
 3351SOL    HW121689   0.809   1.183   5.821  0.5875  0.4214 -0.8529
 3351SOL    HW221690   0.754   1.069   5.761 -0.2653 -1.1377 -0.5033
 3352SOL     OW21691   2.803   2.150   7.421 -0.0841 -0.4941  0.2406
 3352SOL    HW121692   2.893   2.180   7.411  0.8216 -2.0493  3.9279
 3352SOL    HW221693   2.768   2.211   7.485  1.8751  0.7981  0.0541
 3353SOL     OW21694   3.003   3.148   2.262 -0.3081 -0.3332 -0.2104
 3353SOL    HW121695   3.009   3.054   2.249 -0.8775 -0.2850 -0.8058
 3353SOL    HW221696   2.913   3.166   2.236 -0.5365  0.7511  1.3198
 3354SOL     OW21697   2.407   0.418   8.689 -0.0732  0.4714  0.2327
 3354SOL    HW121698   2.481   0.359   8.674  1.0163  1.8432  0.1776
 3354SOL    HW221699   2.388   0.432   8.596  0.2830  1.0686  0.2496
 3355SOL     OW21700   1.525   0.305   5.152 -0.0140 -0.4415 -0.1391
 3355SOL    HW121701   1.556   0.273   5.237  1.8408  1.1324 -0.2126
 3355SOL    HW221702   1.542   0.236   5.089 -1.3022 -1.7411  0.9422
 3356SOL     OW21703   3.908   0.043   2.933 -0.2577  0.4482 -0.1374
 3356SOL    HW121704   3.979   0.028   2.870 -2.6926 -1.7046 -2.3750
 3356SOL    HW221705   3.835   0.013   2.879  0.0764  1.8121 -1.3458
 3357SOL     OW21706   2.105   3.753   6.354  0.7403  0.4611  0.4382
 3357SOL    HW121707   2.015   3.770   6.327  0.2916 -0.2610  1.5004
 3357SOL    HW221708   2.101   3.782   6.445  1.6487  2.5766 -0.1857
 3358SOL     OW21709   1.691   2.681   3.709  0.4887 -0.1210 -0.7836
 3358SOL    HW121710   1.694   2.773   3.736 -2.5095  0.0479 -1.0332
 3358SOL    HW221711   1.722   2.634   3.786  0.6638  0.4010 -0.5367
 3359SOL     OW21712   0.900   0.890  17.267  0.9657 -0.2459 -0.2875
 3359SOL    HW121713   0.905   0.891  17.363  0.9451 -0.7395 -0.2819
 3359SOL    HW221714   0.898   0.984  17.248  0.4599 -0.2251 -0.1237
 3360SOL     OW21715   1.170   1.354   2.954  0.5120  0.5111 -0.1112
 3360SOL    HW121716   1.254   1.314   2.930  0.6759  0.6124  0.3031
 3360SOL    HW221717   1.185   1.369   3.047  0.3989  0.3131 -0.0613
 3361SOL     OW21718   2.881   0.496   3.515 -0.3188 -0.3545 -0.5159
 3361SOL    HW121719   2.801   0.463   3.473 -0.0871  0.3481 -1.5129
 3361SOL    HW221720   2.912   0.553   3.445 -0.1677 -1.1784 -1.1246
 3362SOL     OW21721   2.312   4.416   5.517 -0.4224 -0.4401  0.0029
 3362SOL    HW121722   2.263   4.425   5.436  2.1096 -0.3649 -1.5475
 3362SOL    HW221723   2.252   4.352   5.555  0.1604 -1.7474 -1.2518
 3363SOL     OW21724   0.773   3.748   8.713 -0.3063 -0.1270  0.0982
 3363SOL    HW121725   0.777   3.696   8.794 -1.2944  1.1846  0.9849
 3363SOL    HW221726   0.848   3.717   8.662 -1.9821 -1.6803 -1.4557
 3364SOL     OW21727   1.423   1.740   7.582 -0.7683  0.1088 -0.1539
 3364SOL    HW121728   1.379   1.700   7.508  0.8315 -1.5379 -0.2039
 3364SOL    HW221729   1.398   1.831   7.566 -1.1104 -0.1010 -0.7836
 3365SOL     OW21730   2.619   0.998   6.164 -1.5198 -0.0275  0.7413
 3365SOL    HW121731   2.688   1.040   6.215 -1.2440  0.2093  0.1820
 3365SOL    HW221732   2.630   0.908   6.194 -0.0678 -0.0219  0.2467
 3366SOL     OW21733   0.803   0.833   2.862  1.0539 -0.6362 -0.2435
 3366SOL    HW121734   0.800   0.742   2.830  0.1878 -1.9859  3.6831
 3366SOL    HW221735   0.716   0.841   2.900  1.8461 -0.0258  1.4326
 3367SOL     OW21736   0.707   0.624  14.574  0.4212 -0.0943 -0.2878
 3367SOL    HW121737   0.648   0.548  14.572 -0.5595  0.6602 -0.0484
 3367SOL    HW221738   0.651   0.668  14.510 -0.1757 -1.9235 -1.0293
 3368SOL     OW21739   3.788   1.931  16.633 -0.0828 -0.5423 -0.8144
 3368SOL    HW121740   3.830   1.950  16.550  2.5375 -0.8036  0.4445
 3368SOL    HW221741   3.864   1.921  16.691  1.2744 -0.8222 -2.6561
 3369SOL     OW21742   0.080   1.716  10.170 -0.5009  0.3658  0.0134
 3369SOL    HW121743   4.734   1.699  10.140 -0.6832  3.5457 -1.2813
 3369SOL    HW221744   0.069   1.795  10.223 -0.3649  0.7067 -0.4621
 3370SOL     OW21745   3.471   3.759   7.765  0.3362  0.1811  0.2465
 3370SOL    HW121746   3.542   3.696   7.752  1.2846  1.0421  1.1956
 3370SOL    HW221747   3.393   3.704   7.757 -0.2189  0.8957  0.8300
 3371SOL     OW21748   3.405   4.561  11.818  0.0661 -0.2400 -0.2022
 3371SOL    HW121749   3.356   4.505  11.758  1.5313  0.6155 -2.1928
 3371SOL    HW221750   3.472   4.495  11.837  1.3007  0.7165 -1.2106
 3372SOL     OW21751   3.918   2.095   2.542  0.4837  0.2640  0.4750
 3372SOL    HW121752   3.845   2.059   2.593  1.9362 -0.6337  1.9389
 3372SOL    HW221753   3.947   2.022   2.487  0.4256 -1.2728  2.4924
 3373SOL     OW21754   4.699   2.937  16.579 -0.2855 -0.2978 -0.2457
 3373SOL    HW121755   4.706   2.852  16.534 -1.4899 -0.3151 -0.4118
 3373SOL    HW221756   4.740   2.927  16.665  0.0516 -1.0396 -0.4899
 3374SOL     OW21757   4.597   1.496   6.677 -0.1594 -0.0121  0.3915
 3374SOL    HW121758   4.518   1.447   6.701  1.4057 -2.2677  1.0155
 3374SOL    HW221759   4.642   1.437   6.616  2.0085  1.7146  0.3312
 3375SOL     OW21760   3.912   4.064   6.487 -0.1021 -0.4759  0.1748
 3375SOL    HW121761   3.895   4.158   6.497 -0.2965 -0.5561  0.5876
 3375SOL    HW221762   3.893   4.031   6.575 -0.6745 -0.4695  0.0468
 3376SOL     OW21763   3.401   2.284  15.183  0.2821 -0.4303 -0.3697
 3376SOL    HW121764   3.427   2.269  15.092 -0.2154  0.1985 -0.6085
 3376SOL    HW221765   3.484   2.253  15.220  0.3793  1.4260  0.9720
 3377SOL     OW21766   2.531   2.521   7.749  0.4715 -0.0704 -0.2808
 3377SOL    HW121767   2.506   2.599   7.699  0.2282 -0.4804 -0.8005
 3377SOL    HW221768   2.520   2.565   7.833 -4.2464  2.5614 -2.2441
 3378SOL     OW21769   1.109   1.714   2.666 -0.2084 -0.3294  0.0142
 3378SOL    HW121770   1.161   1.665   2.730 -0.2170 -0.4150 -0.0430
 3378SOL    HW221771   1.147   1.800   2.681  1.5445 -1.1064  0.0438
 3379SOL     OW21772   2.498   1.274   4.345  0.4951  0.0845  0.2591
 3379SOL    HW121773   2.585   1.292   4.308  0.5854  0.7084  0.7644
 3379SOL    HW221774   2.462   1.360   4.366  1.1959  0.4633 -0.0843
 3380SOL     OW21775   0.754   4.546  11.145  1.4203  0.0164 -0.1892
 3380SOL    HW121776   0.748   4.497  11.227 -0.7855 -0.1023 -0.4182
 3380SOL    HW221777   0.755   4.637  11.173 -1.7708 -0.8963  2.9044
 3381SOL     OW21778   3.161   2.281  10.168 -0.5364  0.6384  0.2788
 3381SOL    HW121779   3.105   2.244  10.236  0.9666  0.4469  1.4186
 3381SOL    HW221780   3.167   2.371  10.199 -2.4085  1.1892 -0.9351
 3382SOL     OW21781   3.370   2.997   4.332 -0.4840  0.2882 -0.3170
 3382SOL    HW121782   3.396   2.927   4.391 -1.5510  2.0677  2.2279
 3382SOL    HW221783   3.351   2.944   4.254  0.3374  0.3115 -0.5341
 3383SOL     OW21784   0.928   3.167  11.988  0.5189 -0.4096  0.6735
 3383SOL    HW121785   0.901   3.259  11.984 -0.3116 -0.7935 -2.9049
 3383SOL    HW221786   0.936   3.151  11.894  1.6412  1.0408  0.5153
 3384SOL     OW21787   2.062   4.677   2.894  0.1405 -0.3499  0.4849
 3384SOL    HW121788   1.995   4.690   2.826  1.1543  1.9140 -0.0568
 3384SOL    HW221789   2.118   0.008   2.876 -0.0428 -0.2143  0.4837
 3385SOL     OW21790   4.737   0.495  16.677 -0.1788 -0.4038 -0.3254
 3385SOL    HW121791   4.671   0.539  16.624 -0.2532 -1.9504 -1.5070
 3385SOL    HW221792   0.068   0.547  16.648 -0.2927 -0.2176 -0.2833
 3386SOL     OW21793   0.702   0.337   9.139 -0.6066 -0.3863 -0.0532
 3386SOL    HW121794   0.635   0.367   9.078 -0.4731 -1.5852 -0.7851
 3386SOL    HW221795   0.689   0.243   9.124 -1.9907  0.0769 -1.6967
 3387SOL     OW21796   1.599   0.135   6.447  0.1441  0.0398  0.1642
 3387SOL    HW121797   1.566   0.070   6.385  0.5642  0.7624 -0.8249
 3387SOL    HW221798   1.687   0.133   6.409  0.5110 -1.4066  1.0682
 3388SOL     OW21799   0.578   1.402   4.049  0.0471 -0.0299 -0.1533
 3388SOL    HW121800   0.503   1.376   3.994  0.3749 -0.6521 -0.3146
 3388SOL    HW221801   0.610   1.318   4.082 -0.4266 -0.1021  0.1252
 3389SOL     OW21802   0.645   2.594   6.023 -0.0337 -0.0187 -0.3394
 3389SOL    HW121803   0.645   2.611   6.117 -0.7637 -1.2400 -0.1213
 3389SOL    HW221804   0.607   2.674   5.987 -0.0302 -0.7203 -1.9327
 3390SOL     OW21805   2.853   4.632  16.221 -0.1395 -0.1440  0.5379
 3390SOL    HW121806   2.849   4.679  16.304  0.2191  0.2014  0.3617
 3390SOL    HW221807   2.945   4.608  16.230  0.0804  0.3777 -0.2962
 3391SOL     OW21808   0.119   2.089  16.943  0.0115  0.4253 -0.1693
 3391SOL    HW121809   0.177   2.079  17.019  1.0458  0.3981 -0.9625
 3391SOL    HW221810   0.077   2.003  16.939 -0.1834  0.6447 -2.6119
 3392SOL     OW21811   3.227   2.433   2.315  0.6911 -0.5106  0.1348
 3392SOL    HW121812   3.266   2.520   2.322  0.1062 -0.2641  0.3350
 3392SOL    HW221813   3.204   2.405   2.403  2.0558  0.4984  0.8137
 3393SOL     OW21814   0.231   2.105   2.701  0.3600  0.4510  0.0171
 3393SOL    HW121815   0.210   2.158   2.777 -0.5953 -0.1510  0.1761
 3393SOL    HW221816   0.324   2.125   2.696  0.6355 -1.1493 -1.4386
 3394SOL     OW21817   0.540   1.598   1.688 -0.4274 -0.1549  0.1370
 3394SOL    HW121818   0.566   1.690   1.679  1.9721 -0.8086  0.2720
 3394SOL    HW221819   0.491   1.622   1.767  0.3099 -0.5684  0.7294
 3395SOL     OW21820   2.327   3.109   6.197 -0.2164  0.1554  0.1031
 3395SOL    HW121821   2.373   3.078   6.119  0.1868  0.2371  0.3075
 3395SOL    HW221822   2.246   3.136   6.155  0.9985 -1.0522 -3.0198
 3396SOL     OW21823   1.956   1.917   9.395  0.1900  0.7409  0.3147
 3396SOL    HW121824   1.888   1.953   9.337 -0.6637 -0.9083  0.3091
 3396SOL    HW221825   1.925   1.828   9.408  0.0589  0.3510 -2.6103
 3397SOL     OW21826   0.566   3.603  11.396  0.0041 -0.4113  0.0812
 3397SOL    HW121827   0.590   3.657  11.472 -1.3561 -1.1756  1.0627
 3397SOL    HW221828   0.590   3.669  11.332 -1.8371  1.5137  1.3239
 3398SOL     OW21829   0.409   0.216   1.693  0.4733  0.4594  0.5832
 3398SOL    HW121830   0.360   0.281   1.744  1.2480  0.9289  0.7301
 3398SOL    HW221831   0.371   0.225   1.606  0.6875  0.2707  0.4686
 3399SOL     OW21832   1.894   0.546   3.586 -0.1081  0.1512 -0.2227
 3399SOL    HW121833   1.806   0.585   3.586 -1.0269 -1.9434 -0.5037
 3399SOL    HW221834   1.895   0.517   3.677 -0.2927  1.2538  0.1391
 3400SOL     OW21835   2.430   4.726   8.944  0.1536  0.2297  0.5891
 3400SOL    HW121836   2.403   4.660   8.881  1.9934  0.8882 -0.8604
 3400SOL    HW221837   2.349   4.705   8.992  0.1342 -0.7262  0.1241
 3401SOL     OW21838   1.683   2.909   8.634  0.9602 -0.4057 -0.4919
 3401SOL    HW121839   1.623   2.931   8.562  1.8696  0.2931 -1.0364
 3401SOL    HW221840   1.650   2.957   8.710 -3.4123  1.6185 -3.6629
 3402SOL     OW21841   2.442   3.214  11.695 -0.4689  0.3201 -0.3746
 3402SOL    HW121842   2.476   3.149  11.757  1.4787  1.8810  0.1870
 3402SOL    HW221843   2.477   3.289  11.742  2.5789 -0.8319 -0.8007
 3403SOL     OW21844   2.367   0.017  11.853 -0.0841  0.0747  0.2308
 3403SOL    HW121845   2.404   4.723  11.933  1.6001 -1.2785 -1.2068
 3403SOL    HW221846   2.421   4.719  11.786 -0.4413  1.1843 -0.7565
 3404SOL     OW21847   2.860   3.872   8.547 -0.0631  0.0126 -0.1941
 3404SOL    HW121848   2.795   3.909   8.607  1.7259  1.6747  0.7137
 3404SOL    HW221849   2.843   3.778   8.554 -0.0732 -0.0298 -0.7833
 3405SOL     OW21850   1.094   0.561   9.847 -0.5482 -0.7786  0.8428
 3405SOL    HW121851   1.137   0.551   9.762  1.9820 -0.5649  2.0918
 3405SOL    HW221852   1.119   0.649   9.875  0.7247 -0.9573  0.2838
 3406SOL     OW21853   4.320   4.406  11.369 -0.2055 -0.2997  0.0686
 3406SOL    HW121854   4.294   4.317  11.344  1.4180 -0.7672  0.0123
 3406SOL    HW221855   4.311   4.395  11.463 -0.1146  0.9613  0.2240
 3407SOL     OW21856   4.698   0.722   6.907  0.5699  0.0202 -0.0121
 3407SOL    HW121857   4.656   0.807   6.896  0.6045  0.1726  1.0183
 3407SOL    HW221858   4.698   0.706   6.813 -1.8991  1.1995 -0.2085
 3408SOL     OW21859   2.418   1.613   3.681 -0.7830 -0.1711  0.0342
 3408SOL    HW121860   2.428   1.524   3.646 -1.8928 -0.1040 -0.4271
 3408SOL    HW221861   2.326   1.635   3.683 -0.2233  2.1114  0.2056
 3409SOL     OW21862   0.318   1.681  10.658  0.7030  0.1228 -0.2684
 3409SOL    HW121863   0.358   1.751  10.710  3.2252 -0.8611 -0.8814
 3409SOL    HW221864   0.302   1.724  10.575  0.6044 -1.1596 -0.9060
 3410SOL     OW21865   1.451   3.119   2.518  0.1241  0.2917  0.0968
 3410SOL    HW121866   1.512   3.192   2.520  0.5056  0.0228 -1.4897
 3410SOL    HW221867   1.431   3.114   2.611 -3.8452 -1.3732 -0.8464
 3411SOL     OW21868   3.441   0.888   9.848 -0.3186 -0.1462  0.2743
 3411SOL    HW121869   3.469   0.830   9.919  0.6459  0.7542  0.6389
 3411SOL    HW221870   3.528   0.907   9.810  0.5605 -3.1290  0.7704
 3412SOL     OW21871   0.120   4.451   5.073 -0.2046  0.6647 -0.0918
 3412SOL    HW121872   0.026   4.461   5.062 -0.2613  0.4264  0.1838
 3412SOL    HW221873   0.129   4.365   5.113  1.1165  0.0236 -1.7972
 3413SOL     OW21874   1.723   1.651   6.127  0.1174  0.0485 -0.0125
 3413SOL    HW121875   1.803   1.686   6.166 -0.1229 -0.3224  0.8092
 3413SOL    HW221876   1.742   1.557   6.125 -0.6988 -0.1052 -0.3788
 3414SOL     OW21877   1.819   4.411   3.465  0.2269  0.4232 -0.0677
 3414SOL    HW121878   1.814   4.423   3.370 -1.1620  0.8156  0.0561
 3414SOL    HW221879   1.908   4.444   3.480 -0.2400  1.6653 -0.0375
 3415SOL     OW21880   1.719   4.109   0.369  0.0250  0.2379 -0.0845
 3415SOL    HW121881   1.700   4.155   0.451 -1.8795 -1.6211  0.5197
 3415SOL    HW221882   1.790   4.049   0.394 -1.2049 -0.9423  0.6078
 3416SOL     OW21883   1.976   2.017   3.144 -0.4767 -0.1041  0.1057
 3416SOL    HW121884   2.013   1.961   3.076  0.6238  0.8835 -0.1067
 3416SOL    HW221885   2.055   2.034   3.194 -0.9313  2.6261 -0.0973
 3417SOL     OW21886   0.882   4.437  14.515  0.4827 -0.0492  0.4692
 3417SOL    HW121887   0.812   4.454  14.451  0.5644 -1.7765 -0.0789
 3417SOL    HW221888   0.885   4.507  14.580 -0.2246  0.0523  0.3907
 3418SOL     OW21889   3.661   4.506   8.625 -0.3835  0.7255 -0.3987
 3418SOL    HW121890   3.630   4.416   8.611 -0.2218  0.4711  0.8876
 3418SOL    HW221891   3.731   4.518   8.561  0.0487 -2.0398 -0.4383
 3419SOL     OW21892   2.188   0.724   8.928  0.2387  0.0699 -0.1758
 3419SOL    HW121893   2.186   0.670   8.849 -2.7406 -0.4735  0.2725
 3419SOL    HW221894   2.137   0.668   8.986  0.3574  0.4959  0.3332
 3420SOL     OW21895   1.398   3.851   8.813 -0.1274 -0.1352 -0.2512
 3420SOL    HW121896   1.363   3.772   8.773  1.0216  0.0353 -1.6012
 3420SOL    HW221897   1.481   3.856   8.765  0.5558  1.4175  1.0759
 3421SOL     OW21898   3.208   3.197   6.176 -0.0539  0.2999  0.5463
 3421SOL    HW121899   3.148   3.125   6.158  0.4128 -0.4326  1.9270
 3421SOL    HW221900   3.149   3.257   6.222 -0.5565 -0.4600  0.9032
 3422SOL     OW21901   4.033   0.220   4.389 -0.0399 -0.2792 -0.0187
 3422SOL    HW121902   3.961   0.270   4.427 -0.3946  0.7894 -2.0953
 3422SOL    HW221903   3.978   0.174   4.325 -2.0980  0.2387  1.3944
 3423SOL     OW21904   0.113   0.071   4.123 -0.3845 -0.1335 -0.2070
 3423SOL    HW121905   0.171   0.082   4.198  0.9269 -0.2670 -1.1945
 3423SOL    HW221906   0.063   4.738   4.151  0.9699 -0.8486  0.2354
 3424SOL     OW21907   3.450   4.556   1.352  0.1017  0.0021  0.2863
 3424SOL    HW121908   3.513   4.509   1.407  1.0938  0.9925  0.0018
 3424SOL    HW221909   3.517   4.598   1.298  0.6119  0.0159  0.9243
 3425SOL     OW21910   3.928   1.019   3.054  0.0190  0.2624  0.4843
 3425SOL    HW121911   3.947   1.105   3.016 -1.0930  0.4022  0.2512
 3425SOL    HW221912   3.995   0.960   3.020  1.5110  0.9730  2.2092
 3426SOL     OW21913   0.661   4.451   5.177 -0.1527  0.3294  0.6186
 3426SOL    HW121914   0.609   4.489   5.247  0.0829  1.5469  0.1288
 3426SOL    HW221915   0.732   4.516   5.174  0.3789 -0.2162  1.3851
 3427SOL     OW21916   3.297   4.467   1.093  0.3141  0.0606 -0.1973
 3427SOL    HW121917   3.262   4.549   1.058 -1.6958 -0.7502 -0.1267
 3427SOL    HW221918   3.348   4.502   1.166  0.6403  1.1779 -0.9665
 3428SOL     OW21919   2.292   2.667   8.064 -0.0266 -0.6102  0.0066
 3428SOL    HW121920   2.301   2.703   7.976 -0.8033 -0.2143  0.0938
 3428SOL    HW221921   2.212   2.618   8.048 -0.3156  0.2057 -1.0381
 3429SOL     OW21922   2.895   2.068   7.118 -0.0212 -0.1756  0.0792
 3429SOL    HW121923   2.979   2.024   7.102  0.7092  0.0765  3.1613
 3429SOL    HW221924   2.848   2.017   7.184 -0.4486  1.3009  0.9292
 3430SOL     OW21925   2.913   3.714   9.848  0.7218  0.4795 -0.4546
 3430SOL    HW121926   2.889   3.757   9.930 -3.5403 -2.1667 -0.2646
 3430SOL    HW221927   2.900   3.784   9.784 -1.6579  0.8659  0.4483
 3431SOL     OW21928   3.884   1.429   8.102 -0.1057  0.8356 -0.4576
 3431SOL    HW121929   3.893   1.445   8.196 -2.4007  1.6000 -0.3619
 3431SOL    HW221930   3.801   1.475   8.088 -0.4482  0.4187  0.2482
 3432SOL     OW21931   2.764   4.057   9.325  0.4064  0.0513 -0.2313
 3432SOL    HW121932   2.683   4.099   9.353 -1.2920 -2.2984 -1.6054
 3432SOL    HW221933   2.744   3.965   9.340 -0.5875  0.4669  0.9396
 3433SOL     OW21934   1.180   4.660  15.645  0.0338 -0.3000  0.5150
 3433SOL    HW121935   1.220   4.662  15.732 -2.4710 -0.4311  1.6452
 3433SOL    HW221936   1.224   4.586  15.603 -1.4823  0.1011 -1.7540
 3434SOL     OW21937   0.718   4.050   7.081 -0.0859 -0.0477  0.1568
 3434SOL    HW121938   0.774   4.007   7.017  0.5097 -0.5300  1.0053
 3434SOL    HW221939   0.760   4.021   7.162 -1.0201  2.7763  1.6674
 3435SOL     OW21940   2.757   0.495   7.716  0.4600 -0.3641  0.2592
 3435SOL    HW121941   2.781   0.445   7.638 -2.7415 -1.9197  0.2742
 3435SOL    HW221942   2.819   0.467   7.784 -0.6509 -2.2484  0.5174
 3436SOL     OW21943   2.679   3.922   3.881 -0.3142  0.1374  0.2233
 3436SOL    HW121944   2.640   3.836   3.862 -0.7923  0.8095 -1.9189
 3436SOL    HW221945   2.711   3.944   3.793 -0.8573 -2.3601 -0.5900
 3437SOL     OW21946   1.652   1.621   7.979  0.1868  0.5695  0.0314
 3437SOL    HW121947   1.621   1.601   8.068 -0.9639 -0.9556 -0.7186
 3437SOL    HW221948   1.585   1.688   7.963 -0.9650 -0.8460 -1.1340
 3438SOL     OW21949   4.136   4.484  13.901  0.5809 -0.4241 -0.3566
 3438SOL    HW121950   4.047   4.503  13.870  0.4383 -1.1693 -0.4094
 3438SOL    HW221951   4.181   4.491  13.817  2.8507  1.7043  1.0392
 3439SOL     OW21952   0.477   3.595  13.368 -0.9219  0.2901  0.1867
 3439SOL    HW121953   0.532   3.644  13.306 -0.9077 -0.6762 -0.5560
 3439SOL    HW221954   0.518   3.509  13.377  1.6704  1.3737 -1.0623
 3440SOL     OW21955   2.071   3.262   6.533  0.1556  0.1797 -0.6129
 3440SOL    HW121956   2.063   3.332   6.597 -1.3529 -0.2154 -0.3691
 3440SOL    HW221957   2.022   3.193   6.577  1.2908 -1.2679 -1.5824
 3441SOL     OW21958   1.664   4.589   5.225 -0.4047 -0.2137 -0.1327
 3441SOL    HW121959   1.725   4.650   5.185  0.4529 -2.4937 -2.2919
 3441SOL    HW221960   1.728   4.518   5.228 -0.3070 -0.1123  0.1181
 3442SOL     OW21961   3.669   1.725  17.283  0.4158 -0.2896 -0.0775
 3442SOL    HW121962   3.703   1.711  17.372 -0.4288 -1.8417  0.0036
 3442SOL    HW221963   3.751   1.732  17.235 -0.4061 -2.1941 -1.7570
 3443SOL     OW21964   3.959   2.988   1.750  0.5613  0.1508 -0.4120
 3443SOL    HW121965   3.975   3.054   1.682 -1.6922  0.2433 -0.8610
 3443SOL    HW221966   3.873   2.950   1.733  1.7058 -2.3622 -0.7172
 3444SOL     OW21967   2.980   3.472   9.779 -0.3120 -0.0054 -0.9022
 3444SOL    HW121968   2.981   3.566   9.799 -1.2806 -0.1097 -0.3648
 3444SOL    HW221969   3.048   3.444   9.840  2.0398  0.7246 -3.2104
 3445SOL     OW21970   1.646   2.647   5.189 -0.2481 -0.0457  0.2954
 3445SOL    HW121971   1.723   2.595   5.213  0.3477  0.6654 -0.0714
 3445SOL    HW221972   1.679   2.671   5.102  1.4882 -0.9224  0.7142
 3446SOL     OW21973   3.307   1.525   5.795 -0.0893 -0.1760  0.4785
 3446SOL    HW121974   3.250   1.593   5.759  1.6495 -0.6586 -3.1731
 3446SOL    HW221975   3.307   1.472   5.716 -2.5948  1.4205 -0.5977
 3447SOL     OW21976   3.655   1.658   5.329 -0.2865  0.0741  0.3756
 3447SOL    HW121977   3.567   1.622   5.320  0.5561 -1.2314 -2.9055
 3447SOL    HW221978   3.701   1.608   5.397 -1.9968  2.3845  3.1689
 3448SOL     OW21979   1.099   0.189   7.715 -0.0226 -0.6812  0.1183
 3448SOL    HW121980   1.057   0.104   7.703  0.7021 -1.1533  0.9105
 3448SOL    HW221981   1.191   0.164   7.720  0.1052 -0.2600 -0.1162
 3449SOL     OW21982   0.181   0.610   2.557 -0.0685  0.9847 -0.0202
 3449SOL    HW121983   0.180   0.575   2.468  0.1553 -2.1084  1.2057
 3449SOL    HW221984   0.174   0.704   2.538  0.4846  1.5151  2.4502
 3450SOL     OW21985   3.989   4.558   4.718  0.4051 -0.1257  0.1902
 3450SOL    HW121986   3.905   4.602   4.712 -0.4108 -1.5098  1.5858
 3450SOL    HW221987   3.967   4.469   4.690  0.6020 -0.2281  0.3562
 3451SOL     OW21988   4.118   2.230   5.678  0.0677 -0.7249 -0.2778
 3451SOL    HW121989   4.049   2.173   5.643 -0.4197 -1.1606  1.3821
 3451SOL    HW221990   4.125   2.295   5.608  0.6248 -0.8139 -0.3049
 3452SOL     OW21991   2.097   4.215   9.821  0.3792  0.1259 -0.0472
 3452SOL    HW121992   2.099   4.307   9.794 -1.3161  0.6805  1.7079
 3452SOL    HW221993   2.011   4.180   9.800  0.7768  0.8153 -2.7388
 3453SOL     OW21994   3.065   2.763  16.649  0.3755 -0.2047  0.0473
 3453SOL    HW121995   3.059   2.715  16.732 -0.7309  1.7693  1.1040
 3453SOL    HW221996   3.129   2.703  16.610  1.5586 -0.6347  2.6847
 3454SOL     OW21997   3.595   3.753   0.913  0.2607 -0.2982  0.4380
 3454SOL    HW121998   3.560   3.700   0.984 -2.2452  0.5502 -0.1629
 3454SOL    HW221999   3.519   3.741   0.856 -1.0865  0.0350  2.1702
 3455SOL     OW22000   3.181   2.029   0.765 -0.5550  0.8889  0.6527
 3455SOL    HW122001   3.223   1.948   0.796  2.5287  2.3959  0.4464
 3455SOL    HW222002   3.136   2.058   0.844  1.5870  2.0817  1.4370
 3456SOL     OW22003   3.161   1.193   6.905  0.4820 -0.2929  0.1593
 3456SOL    HW122004   3.182   1.267   6.962 -2.3759 -0.8793  1.9579
 3456SOL    HW222005   3.111   1.238   6.838  2.4953  1.1031 -0.4104
 3457SOL     OW22006   2.107   4.450  10.992 -0.3819 -0.2128  0.2336
 3457SOL    HW122007   2.157   4.392  10.934 -1.3203  0.1199 -0.8890
 3457SOL    HW222008   2.139   4.409  11.072 -2.0376  0.5915  1.2913
 3458SOL     OW22009   4.594   3.287   5.197  0.3418  0.0171  0.1267
 3458SOL    HW122010   4.670   3.231   5.182  1.0318  1.3316 -1.4109
 3458SOL    HW222011   4.524   3.241   5.152  0.3524  0.6676 -0.5596
 3459SOL     OW22012   0.039   4.162  10.290 -0.6247  0.0953 -0.5956
 3459SOL    HW122013   4.707   4.152  10.347  0.3047  0.2619  0.6868
 3459SOL    HW222014   0.012   4.100  10.223  2.1401 -1.9732  0.1829
 3460SOL     OW22015   3.894   3.629  16.448 -0.0635  0.1114 -0.0265
 3460SOL    HW122016   3.982   3.602  16.475  1.3357  1.3577 -3.3565
 3460SOL    HW222017   3.909   3.723  16.457  0.0687  0.1310 -0.4618
 3461SOL     OW22018   0.157   0.496   9.038 -0.0550  0.3778 -0.1227
 3461SOL    HW122019   0.209   0.416   9.048  3.0090  2.4379  0.2639
 3461SOL    HW222020   0.219   0.567   9.021 -0.1286  0.0988 -1.6170
 3462SOL     OW22021   1.925   2.927   1.895  0.4636  0.2927  0.3320
 3462SOL    HW122022   1.990   2.873   1.939 -0.1746 -1.2835 -0.6477
 3462SOL    HW222023   1.855   2.866   1.870  0.4990  0.9662 -1.4253
 3463SOL     OW22024   0.517   1.750   8.264  0.4525 -0.3490 -0.4268
 3463SOL    HW122025   0.467   1.669   8.271  0.8593 -0.7465 -1.9938
 3463SOL    HW222026   0.585   1.741   8.331 -1.1840 -0.0853  1.2464
 3464SOL     OW22027   0.021   0.577  10.585  0.1784  0.3160 -0.0228
 3464SOL    HW122028   4.714   0.640  10.533 -1.9041  0.5246  2.2950
 3464SOL    HW222029   0.045   0.622  10.666 -1.2502 -2.3026  1.8590
 3465SOL     OW22030   2.501   1.438   0.777  0.5471 -0.4107  0.0162
 3465SOL    HW122031   2.467   1.454   0.865  0.9141  1.0463 -0.1120
 3465SOL    HW222032   2.594   1.460   0.783  0.8869 -1.0114 -3.2101
 3466SOL     OW22033   0.250   4.106   7.269  0.6432  0.5870 -0.1849
 3466SOL    HW122034   0.298   4.062   7.340  1.8745 -0.2974 -1.5471
 3466SOL    HW222035   0.291   4.052   7.201  3.3398  0.9198  1.1600
 3467SOL     OW22036   0.636   2.290   1.989 -0.0488 -0.1184  0.0495
 3467SOL    HW122037   0.636   2.330   2.076 -1.3112 -0.4362  0.1954
 3467SOL    HW222038   0.674   2.205   2.013  0.0793 -0.1827 -0.3832
 3468SOL     OW22039   1.887   3.735  14.666 -0.4628  0.8603 -0.3065
 3468SOL    HW122040   1.884   3.776  14.580  0.4809 -0.2344 -0.8650
 3468SOL    HW222041   1.960   3.676  14.647 -1.5022  0.8541 -4.2066
 3469SOL     OW22042   3.207   2.516   1.192 -0.3772  0.7331 -0.4765
 3469SOL    HW122043   3.221   2.480   1.279 -0.9312 -0.6378 -0.9674
 3469SOL    HW222044   3.177   2.604   1.216  0.4668  1.5732 -2.5312
 3470SOL     OW22045   3.866   1.204   8.865  0.2690  0.0982 -0.5176
 3470SOL    HW122046   3.798   1.189   8.930  0.4905 -1.9173 -0.7591
 3470SOL    HW222047   3.861   1.127   8.808  0.4337 -0.6200  0.4318
 3471SOL     OW22048   3.259   3.702   3.338  0.0504  0.3423 -0.4750
 3471SOL    HW122049   3.184   3.643   3.347 -0.8235  1.0264 -3.3068
 3471SOL    HW222050   3.338   3.649   3.331 -0.4175 -0.7342  2.5833
 3472SOL     OW22051   3.766   2.287   2.940 -0.4546  0.0995 -0.4371
 3472SOL    HW122052   3.785   2.238   3.020 -1.4249 -0.7992 -0.7457
 3472SOL    HW222053   3.728   2.224   2.877 -1.8062 -0.5133  0.9879
 3473SOL     OW22054   0.586   4.152  13.729  0.2765  0.3108  0.2350
 3473SOL    HW122055   0.578   4.057  13.734  1.2379  0.1263 -1.8964
 3473SOL    HW222056   0.588   4.171  13.823 -1.9265 -1.8303  0.7109
 3474SOL     OW22057   0.170   4.235  13.207  0.2805  0.3259 -0.1329
 3474SOL    HW122058   0.112   4.161  13.190  1.1445 -0.6382  1.1564
 3474SOL    HW222059   0.253   4.211  13.166  0.5129  2.5746 -1.0037
 3475SOL     OW22060   1.295   2.609  12.758  0.0978 -0.2628  0.0632
 3475SOL    HW122061   1.219   2.605  12.700  0.5689  0.2819 -0.5913
 3475SOL    HW222062   1.297   2.528  12.808  1.5868  1.3381  2.6181
 3476SOL     OW22063   1.655   1.932   7.881 -0.3189 -0.0118 -0.1118
 3476SOL    HW122064   1.582   1.873   7.904 -0.3902 -0.0199 -0.3675
 3476SOL    HW222065   1.594   2.002   7.859  0.1913 -0.3409 -2.4906
 3477SOL     OW22066   2.975   2.873   8.123 -0.6158 -0.6264  0.0225
 3477SOL    HW122067   2.921   2.951   8.134  1.6468  0.9950 -0.1391
 3477SOL    HW222068   2.916   2.814   8.077 -1.2990  1.3081 -1.5606
 3478SOL     OW22069   3.183   4.684   0.980  0.3459 -0.1153 -0.5508
 3478SOL    HW122070   3.104   4.708   0.931 -1.1440 -1.4332  1.2497
 3478SOL    HW222071   3.238   0.019   0.983  1.3384 -0.7869 -1.0831
 3479SOL     OW22072   2.657   2.817   1.656 -0.1770 -0.1394  0.0585
 3479SOL    HW122073   2.572   2.810   1.614  0.2663  0.0987 -0.8670
 3479SOL    HW222074   2.690   2.730   1.632 -0.2098  0.0810 -0.7764
 3480SOL     OW22075   0.850   0.517  14.088 -0.1663 -0.0900  0.4654
 3480SOL    HW122076   0.764   0.483  14.112  0.0118  0.7510  2.2583
 3480SOL    HW222077   0.879   0.564  14.166 -0.6929  0.6747  0.2063
 3481SOL     OW22078   0.739   3.794  11.291 -0.2821  0.0504  0.2116
 3481SOL    HW122079   0.771   3.815  11.204 -0.7399 -1.2742 -0.2823
 3481SOL    HW222080   0.801   3.723  11.309 -2.3354 -0.9237  3.6924
 3482SOL     OW22081   0.497   0.500   5.452 -0.1988  0.0534  0.0055
 3482SOL    HW122082   0.548   0.438   5.504  2.8777  1.0364 -1.8132
 3482SOL    HW222083   0.555   0.575   5.469 -0.6007  0.3365  0.1140
 3483SOL     OW22084   0.428   0.768   3.278 -0.8086  0.0659 -0.1868
 3483SOL    HW122085   0.334   0.754   3.285 -0.7843  0.6297  1.2352
 3483SOL    HW222086   0.444   0.850   3.324  3.3897 -0.4118 -0.7306
 3484SOL     OW22087   2.827   2.041   6.787  0.2670  0.0847  0.5870
 3484SOL    HW122088   2.918   2.017   6.806 -0.5193 -3.8925 -0.7691
 3484SOL    HW222089   2.841   2.134   6.806  0.7684  0.0901  0.1966
 3485SOL     OW22090   2.714   3.314   4.892 -0.2867 -0.0720 -0.1564
 3485SOL    HW122091   2.793   3.347   4.935 -0.9608 -1.2770  1.9635
 3485SOL    HW222092   2.740   3.222   4.896  2.8374  0.8014  0.0363
 3486SOL     OW22093   1.410   3.772   4.011  0.1034 -0.2325 -0.7946
 3486SOL    HW122094   1.400   3.832   3.936  1.8734  0.0999 -0.7803
 3486SOL    HW222095   1.328   3.784   4.058 -0.2607 -0.1023 -1.4653
 3487SOL     OW22096   2.297   3.604   6.153 -1.0240  0.2717  0.0539
 3487SOL    HW122097   2.258   3.625   6.068 -0.9140 -0.5697 -0.2036
 3487SOL    HW222098   2.223   3.632   6.207 -1.0873 -2.4098  1.3078
 3488SOL     OW22099   0.744   4.539  16.777 -0.1422  0.2577 -0.0090
 3488SOL    HW122100   0.718   4.491  16.698  0.2569 -2.0207  1.2254
 3488SOL    HW222101   0.799   4.606  16.737 -0.2854 -0.1415 -0.8577
 3489SOL     OW22102   0.692   1.072   3.113 -0.2555  0.1680 -0.4092
 3489SOL    HW122103   0.689   1.152   3.062  0.1305 -1.3177 -2.7473
 3489SOL    HW222104   0.642   1.009   3.061 -0.1974  0.5482 -0.9143
 3490SOL     OW22105   0.100   3.147   4.664  0.1351 -0.5384  0.7077
 3490SOL    HW122106   0.080   3.153   4.571 -1.4035  0.6524  1.1284
 3490SOL    HW222107   0.021   3.173   4.711  1.5353  0.5276  2.5101
 3491SOL     OW22108   4.234   0.439  14.236  0.3544 -0.3269 -0.2178
 3491SOL    HW122109   4.327   0.436  14.258  0.7788 -1.2854 -2.1547
 3491SOL    HW222110   4.234   0.481  14.150  0.7985 -0.4356 -0.2711
 3492SOL     OW22111   3.476   0.615   4.826  0.2043  0.0180  0.1195
 3492SOL    HW122112   3.565   0.649   4.836  0.0057  0.4750  0.3177
 3492SOL    HW222113   3.481   0.533   4.876 -0.0218  0.6855  1.2414
 3493SOL     OW22114   1.403   1.706  12.246 -0.3258  0.4550 -0.2563
 3493SOL    HW122115   1.474   1.706  12.310 -1.3314  1.5090  0.8636
 3493SOL    HW222116   1.376   1.615  12.253  0.7996  0.0534 -1.1158
 3494SOL     OW22117   1.200   1.811   0.807  0.6676  0.0538 -0.0841
 3494SOL    HW122118   1.195   1.878   0.876  1.4778 -0.0835  0.1050
 3494SOL    HW222119   1.106   1.810   0.786  0.8146 -0.5387 -0.6973
 3495SOL     OW22120   4.161   3.694   8.142 -0.2509  0.1100  0.3189
 3495SOL    HW122121   4.224   3.629   8.173 -1.7164 -0.7378  1.5785
 3495SOL    HW222122   4.179   3.766   8.204 -0.3381  0.8060 -0.4694
 3496SOL     OW22123   2.189   0.834  15.744  0.1014 -0.0609  0.0996
 3496SOL    HW122124   2.099   0.818  15.769  0.1880 -3.3843 -1.7672
 3496SOL    HW222125   2.242   0.794  15.813  1.7416 -0.8667 -1.6137
 3497SOL     OW22126   4.210   2.530   6.203  0.0725 -0.2283  0.6976
 3497SOL    HW122127   4.153   2.589   6.252  0.0837  1.6572 -1.5361
 3497SOL    HW222128   4.233   2.583   6.126 -3.0411  0.7013  0.4031
 3498SOL     OW22129   3.147   0.982   1.330  0.4811  0.5237  0.4966
 3498SOL    HW122130   3.140   1.027   1.415  0.7664 -1.1082  1.3870
 3498SOL    HW222131   3.240   0.993   1.310  0.7060  1.1445  1.8669
 3499SOL     OW22132   0.130   4.505   8.321  0.3114 -0.1870  0.0484
 3499SOL    HW122133   0.134   4.590   8.279 -0.6687 -0.3675 -0.4138
 3499SOL    HW222134   0.191   4.448   8.274  0.6801 -0.1334  0.4573
 3500SOL     OW22135   2.059   2.369  16.341 -0.3741 -0.6405  0.0900
 3500SOL    HW122136   1.993   2.345  16.407 -1.5775  0.9974 -0.5225
 3500SOL    HW222137   2.136   2.329  16.381 -0.8881 -0.2004  1.5189
 3501SOL     OW22138   3.774   2.596   6.325 -0.3730 -0.1714 -0.3937
 3501SOL    HW122139   3.699   2.582   6.267 -0.3772  3.9092 -1.3933
 3501SOL    HW222140   3.742   2.539   6.395 -0.3150  1.2666  0.7922
 3502SOL     OW22141   1.088   2.591   5.108 -0.4662 -0.5627 -0.1674
 3502SOL    HW122142   1.169   2.543   5.128 -0.5411 -0.7128 -0.2230
 3502SOL    HW222143   1.024   2.529   5.145  1.3228 -2.8005 -0.8166
 3503SOL     OW22144   4.357   1.565   7.466 -0.1324  0.7630 -0.5658
 3503SOL    HW122145   4.312   1.591   7.547  0.4382 -0.9951  0.3134
 3503SOL    HW222146   4.281   1.568   7.408 -1.7382  0.3278  1.4931
 3504SOL     OW22147   4.162   2.079  16.415  0.0897 -0.0585 -0.1493
 3504SOL    HW122148   4.110   2.158  16.430 -1.2575 -1.2278  1.4057
 3504SOL    HW222149   4.236   2.119  16.370  0.6384 -1.9119 -0.8757
 3505SOL     OW22150   0.428   4.527  13.153  0.2950  0.6670  0.5477
 3505SOL    HW122151   0.390   4.481  13.078 -1.6902 -0.1481  2.0479
 3505SOL    HW222152   0.521   4.529  13.130  0.5594  2.9124  1.8471
 3506SOL     OW22153   4.525   3.277  10.451  0.2566  0.8336 -0.1948
 3506SOL    HW122154   4.602   3.232  10.485 -1.3011 -1.0025  0.9122
 3506SOL    HW222155   4.507   3.227  10.371  0.3316  1.7028 -0.7506
 3507SOL     OW22156   3.575   3.141  13.596  0.4819  0.2125 -0.7776
 3507SOL    HW122157   3.648   3.106  13.545  0.4035 -2.3228  0.8310
 3507SOL    HW222158   3.542   3.058  13.629  1.3264  0.4341  0.6251
 3508SOL     OW22159   4.191   2.979   8.119 -0.1404  0.4281  0.6442
 3508SOL    HW122160   4.265   2.929   8.154  0.2916  1.6014  1.3961
 3508SOL    HW222161   4.210   3.072   8.131  0.0952  0.2570  1.5730
 3509SOL     OW22162   3.997   1.138  17.600 -0.0114  0.5283 -0.2180
 3509SOL    HW122163   3.909   1.135  17.637  0.0000 -1.1184 -0.3053
 3509SOL    HW222164   3.999   1.050  17.562 -0.1756 -0.2647  1.6077
 3510SOL     OW22165   1.795   2.960  15.622  0.2868  0.3099  0.5019
 3510SOL    HW122166   1.724   2.925  15.569  1.8560 -2.3405  0.1916
 3510SOL    HW222167   1.758   2.967  15.710 -1.3193  0.1597 -0.1550
 3511SOL     OW22168   0.163   2.205   6.736 -0.0167 -0.1811 -0.0161
 3511SOL    HW122169   0.165   2.110   6.752 -1.7613  0.1616  2.3626
 3511SOL    HW222170   0.234   2.228   6.676  0.4465  1.1080  1.0305
 3512SOL     OW22171   0.796   1.909   2.860  0.0331 -0.7609 -0.0954
 3512SOL    HW122172   0.716   1.918   2.809  0.1605 -3.9358 -0.8673
 3512SOL    HW222173   0.858   1.945   2.796 -0.3886  0.8136  0.3979
 3513SOL     OW22174   3.059   3.582  13.029 -0.7697  0.1562  0.5085
 3513SOL    HW122175   2.997   3.562  12.959 -2.0648  1.7309  1.1972
 3513SOL    HW222176   3.035   3.508  13.085  0.6182 -0.3730  0.3937
 3514SOL     OW22177   4.736   2.773   9.123 -0.2584  0.0122  0.6807
 3514SOL    HW122178   4.716   2.702   9.063  1.2345 -0.4982  0.7920
 3514SOL    HW222179   4.687   2.844   9.081  0.1979 -0.0163  0.1081
 3515SOL     OW22180   3.850   0.705   8.097  0.1034  0.0836  0.5711
 3515SOL    HW122181   3.852   0.636   8.163  0.7584  1.0938  1.6057
 3515SOL    HW222182   3.817   0.659   8.020  0.5958  0.6201  0.0406
 3516SOL     OW22183   2.261   2.557   1.995 -0.0819 -0.1482 -0.1162
 3516SOL    HW122184   2.331   2.622   1.991  0.8669 -1.4392 -4.8182
 3516SOL    HW222185   2.304   2.501   2.059 -0.0280  0.8090  0.6759
 3517SOL     OW22186   3.878   1.270   5.245  0.6256  0.3412 -0.7633
 3517SOL    HW122187   3.789   1.261   5.210  1.6538  0.8616 -3.5598
 3517SOL    HW222188   3.873   1.185   5.288  0.7236  1.7494  2.0632
 3518SOL     OW22189   3.063   4.327   4.038 -0.3553  0.6250 -0.4599
 3518SOL    HW122190   3.053   4.247   4.090  1.2727  1.2949  0.8853
 3518SOL    HW222191   3.149   4.360   4.065 -0.8364  0.5189  1.2072
 3519SOL     OW22192   4.532   0.667   3.589 -0.4678 -0.0371  0.7119
 3519SOL    HW122193   4.476   0.617   3.529 -1.7243 -2.3282  3.7744
 3519SOL    HW222194   4.506   0.757   3.571 -2.8114 -0.8768 -0.1758
 3520SOL     OW22195   4.248   4.210  17.296  0.6787  0.0813 -0.4441
 3520SOL    HW122196   4.314   4.159  17.344 -0.2935  0.7415  1.6063
 3520SOL    HW222197   4.239   4.269  17.371  0.5334 -0.8247  0.2527
 3521SOL     OW22198   1.952   1.990   1.533 -0.3832  0.7074 -0.9003
 3521SOL    HW122199   1.980   1.956   1.448 -1.2511 -1.0058 -0.4967
 3521SOL    HW222200   1.968   1.918   1.594 -2.4616  1.7544  0.8631
 3522SOL     OW22201   0.904   3.321  10.337 -0.4605 -0.0838 -0.0210
 3522SOL    HW122202   0.911   3.374  10.257 -3.4435 -1.0495 -0.9468
 3522SOL    HW222203   0.810   3.329  10.352 -0.7858 -0.6552 -1.7036
 3523SOL     OW22204   0.043   3.034   4.191 -0.0172 -0.0255  0.2382
 3523SOL    HW122205   0.024   3.097   4.122  2.7705  0.2757 -0.2593
 3523SOL    HW222206   4.726   2.961   4.182  0.4834 -0.4519  0.3453
 3524SOL     OW22207   1.263   4.241   6.295  0.2397 -0.6080  0.5827
 3524SOL    HW122208   1.208   4.255   6.372 -1.1783 -0.3450 -0.4839
 3524SOL    HW222209   1.346   4.209   6.332  0.3198  0.2412  1.1302
 3525SOL     OW22210   0.537   3.331   3.441  0.0854 -0.0052  0.0854
 3525SOL    HW122211   0.459   3.385   3.425 -0.0911  0.3226  2.0362
 3525SOL    HW222212   0.581   3.359   3.361 -1.5300 -0.9364 -1.1174
 3526SOL     OW22213   2.963   0.960   5.574 -0.2965  0.7109 -0.5308
 3526SOL    HW122214   2.937   0.949   5.483  0.6274  1.1992 -0.8620
 3526SOL    HW222215   3.001   1.048   5.580 -1.7624  1.2787  0.3214
 3527SOL     OW22216   3.773   1.268   0.329  0.4260 -0.2011  0.0750
 3527SOL    HW122217   3.824   1.197   0.368  0.0540 -0.1802  0.6103
 3527SOL    HW222218   3.779   1.330   0.402  1.9021  2.0686 -1.9890
 3528SOL     OW22219   4.376   2.350   3.187 -0.4028  0.0335  0.5532
 3528SOL    HW122220   4.406   2.262   3.211 -1.2804 -1.1881 -2.7757
 3528SOL    HW222221   4.284   2.333   3.170 -0.4584  0.8786 -0.0010
 3529SOL     OW22222   2.350   3.315   6.459 -0.1529  0.1723 -0.1663
 3529SOL    HW122223   2.272   3.370   6.450 -1.2413 -1.1554  1.0275
 3529SOL    HW222224   2.321   3.235   6.504  1.0123  1.1776  2.4064
 3530SOL     OW22225   1.543   1.531   9.221  0.3543 -0.0778  0.1560
 3530SOL    HW122226   1.607   1.462   9.239  0.2637 -0.2755 -0.2846
 3530SOL    HW222227   1.463   1.482   9.240 -0.0924  0.0120 -1.4787
 3531SOL     OW22228   1.079   1.831   0.030  0.0211 -0.1689  0.0573
 3531SOL    HW122229   1.068   1.775  17.725  1.7830 -1.3595  0.6877
 3531SOL    HW222230   1.068   1.767   0.099 -0.6821  0.8433  0.8796
 3532SOL     OW22231   0.136   4.091   8.421 -0.0066  0.4693 -0.3702
 3532SOL    HW122232   0.196   4.146   8.471 -0.5693  1.4018 -0.7162
 3532SOL    HW222233   0.177   4.005   8.422  1.8366  1.3721  0.8855
 3533SOL     OW22234   0.031   3.804   9.181 -0.0022 -0.0773 -0.2240
 3533SOL    HW122235   0.098   3.871   9.182  2.1970 -2.3175  2.7757
 3533SOL    HW222236   0.043   3.765   9.094  2.4694 -1.6655  0.8258
 3534SOL     OW22237   2.125   2.071   4.286  0.2902 -0.0111  0.7357
 3534SOL    HW122238   2.038   2.096   4.256 -0.0487  0.1306  1.8279
 3534SOL    HW222239   2.170   2.155   4.273  2.7567 -1.3471  0.5706
 3535SOL     OW22240   2.981   0.643   1.534  0.0714 -0.3208  0.1417
 3535SOL    HW122241   2.908   0.644   1.596 -2.6705  3.3391 -3.2024
 3535SOL    HW222242   3.052   0.604   1.585  0.4026  2.4729  1.8575
 3536SOL     OW22243   0.330   1.934   7.663  0.0375  0.3545 -0.5412
 3536SOL    HW122244   0.335   1.874   7.588 -1.4763 -1.8480  1.1112
 3536SOL    HW222245   0.371   2.012   7.627  0.0730 -0.5259 -2.4278
 3537SOL     OW22246   1.869   0.689   4.857 -0.1108  0.1176  0.6831
 3537SOL    HW122247   1.851   0.777   4.824  2.9557  0.0709 -1.0784
 3537SOL    HW222248   1.941   0.712   4.916 -0.5692  1.4079  0.7285
 3538SOL     OW22249   2.226   3.348   2.174 -0.3346  0.1247 -0.4475
 3538SOL    HW122250   2.213   3.437   2.208  1.1185  0.1025  0.1586
 3538SOL    HW222251   2.147   3.318   2.129 -0.4130  1.8478 -1.4509
 3539SOL     OW22252   2.742   0.027   5.952 -0.5913 -0.1071 -0.0834
 3539SOL    HW122253   2.733   4.700   6.015  0.3181  0.4729  0.7011
 3539SOL    HW222254   2.784   4.718   5.884 -1.5999 -0.7243 -0.2204
 3540SOL     OW22255   3.368   0.341   6.583  0.1077 -0.8063 -1.0297
 3540SOL    HW122256   3.408   0.307   6.503  3.2898 -0.7609  0.5497
 3540SOL    HW222257   3.308   0.400   6.538  0.0353  0.5481  0.8649
 3541SOL     OW22258   0.968   2.313   8.721 -0.6939  0.0210  0.3756
 3541SOL    HW122259   0.946   2.234   8.770  2.0995 -1.6117 -1.0263
 3541SOL    HW222260   0.996   2.367   8.794  0.4981 -1.9374  1.3628
 3542SOL     OW22261   2.538   0.145   5.160  0.0707 -0.5482 -0.2191
 3542SOL    HW122262   2.558   0.224   5.209  0.9568  0.7249 -2.6169
 3542SOL    HW222263   2.621   0.107   5.131  0.0183 -1.0890  0.3509
 3543SOL     OW22264   1.512   3.707  12.042  0.0507  0.1168  0.0710
 3543SOL    HW122265   1.506   3.661  12.126  0.6378 -0.9877 -0.5012
 3543SOL    HW222266   1.563   3.642  11.993 -1.8653  0.6001 -2.5101
 3544SOL     OW22267   2.240   4.301  14.654 -0.6634  0.7626 -0.2576
 3544SOL    HW122268   2.288   4.342  14.726 -1.5649 -1.4615  1.6424
 3544SOL    HW222269   2.171   4.246  14.691  0.7115 -1.4234 -0.9658
 3545SOL     OW22270   3.771   2.574  15.159  0.2463 -0.3628 -0.1806
 3545SOL    HW122271   3.734   2.619  15.082 -0.2616 -1.2591 -0.4548
 3545SOL    HW222272   3.856   2.545  15.127 -0.8672 -2.3780 -1.3262
 3546SOL     OW22273   4.256   4.412   4.511 -0.0906 -0.7194  0.1034
 3546SOL    HW122274   4.346   4.414   4.543 -0.3629 -1.2340  0.8892
 3546SOL    HW222275   4.228   4.504   4.508  0.9763 -0.3342  2.1398
 3547SOL     OW22276   3.169   2.495   8.736  0.1463 -0.1463  0.1077
 3547SOL    HW122277   3.253   2.489   8.689  0.2300 -0.1645  0.2608
 3547SOL    HW222278   3.154   2.403   8.758 -0.0517  0.0780  0.8798
 3548SOL     OW22279   1.608   3.036   5.266 -0.3618 -0.3222  0.9322
 3548SOL    HW122280   1.516   3.022   5.243  0.5852 -2.0052 -1.7976
 3548SOL    HW222281   1.649   3.025   5.180  0.2815 -0.5159  1.2618
 3549SOL     OW22282   0.899   2.432   2.115  0.0459  0.4646 -0.4210
 3549SOL    HW122283   0.911   2.397   2.204 -0.2300 -1.0867 -0.9884
 3549SOL    HW222284   0.907   2.358   2.055  3.3487 -0.0297  0.5981
 3550SOL     OW22285   3.357   3.530   4.170  0.1164 -0.1588  0.8591
 3550SOL    HW122286   3.296   3.458   4.187 -1.4883  0.0382 -3.9570
 3550SOL    HW222287   3.430   3.508   4.227  0.7124 -0.3154  0.0283
 3551SOL     OW22288   0.432   3.841  10.296  0.0607 -0.6007 -0.1871
 3551SOL    HW122289   0.396   3.916  10.344  0.6408 -1.4974  1.6111
 3551SOL    HW222290   0.432   3.887  10.212  1.4089  0.2140  0.2549
 3552SOL     OW22291   3.530   1.400   3.667  0.0344 -0.1074 -0.4239
 3552SOL    HW122292   3.590   1.357   3.607 -0.9081  0.7355 -1.9713
 3552SOL    HW222293   3.555   1.492   3.669  0.1873 -0.0965 -2.6043
 3553SOL     OW22294   4.076   4.310   3.782  0.2406  0.6124  0.1621
 3553SOL    HW122295   4.062   4.263   3.864 -3.8738  1.4571 -0.0520
 3553SOL    HW222296   4.122   4.387   3.814  0.2244  1.1846 -1.1996
 3554SOL     OW22297   1.995   0.040   4.359 -0.4347 -0.6826  0.2791
 3554SOL    HW122298   2.074   0.064   4.311  0.2388 -3.3000  0.1061
 3554SOL    HW222299   2.003   0.097   4.435 -0.4902 -0.8260  0.3915
 3555SOL     OW22300   4.300   4.038   1.564 -0.2856  0.0362 -0.8351
 3555SOL    HW122301   4.315   3.956   1.516 -0.3411 -1.5087  1.7794
 3555SOL    HW222302   4.283   4.097   1.491  0.5120  1.7409  0.3589
 3556SOL     OW22303   2.756   3.289  17.455  0.0276  0.2739 -0.0851
 3556SOL    HW122304   2.798   3.372  17.478 -1.3591  1.3201 -1.3411
 3556SOL    HW222305   2.669   3.326  17.444 -0.1079 -0.2285 -0.7049
 3557SOL     OW22306   2.893   3.182   7.246 -0.1484  0.1673 -0.5372
 3557SOL    HW122307   2.873   3.133   7.326  0.1160 -1.9620 -1.7850
 3557SOL    HW222308   2.987   3.171   7.234  0.3941  2.7821  1.1247
 3558SOL     OW22309   2.001   0.765   5.108 -0.4745 -0.1617  0.4279
 3558SOL    HW122310   2.040   0.753   5.194  0.4651  0.7918  0.1275
 3558SOL    HW222311   1.979   0.858   5.112  0.5133  0.1713 -1.9430
 3559SOL     OW22312   0.853   3.903   9.598 -0.0905 -0.1709 -0.2400
 3559SOL    HW122313   0.846   3.994   9.569  0.6909 -0.1103 -0.2425
 3559SOL    HW222314   0.937   3.907   9.644 -0.1746  0.4253 -0.1307
 3560SOL     OW22315   4.657   4.326  11.366 -0.2803 -0.3845 -0.4791
 3560SOL    HW122316   4.690   4.352  11.452 -2.7609  2.6854 -0.4385
 3560SOL    HW222317   4.604   4.258  11.409 -0.8171  1.6815  2.0833
 3561SOL     OW22318   4.573   2.554  11.344  0.1154  0.3624  0.1965
 3561SOL    HW122319   4.621   2.588  11.269  1.2663  0.1311  0.8200
 3561SOL    HW222320   4.639   2.532  11.410 -1.2856 -0.1487  1.4499
 3562SOL     OW22321   4.251   4.639   4.953  0.1189  0.3197  0.1198
 3562SOL    HW122322   4.203   4.663   5.032 -0.0564  2.3927 -0.6282
 3562SOL    HW222323   4.275   4.550   4.979 -0.7102 -0.3241 -1.3094
 3563SOL     OW22324   0.273   3.348   9.338 -0.4755  0.1983  0.0564
 3563SOL    HW122325   0.332   3.358   9.413 -0.1579 -1.1790 -0.0040
 3563SOL    HW222326   0.209   3.282   9.365 -0.7458  0.9416  1.2480
 3564SOL     OW22327   1.252   1.004   3.300 -0.2696 -0.4562 -0.2446
 3564SOL    HW122328   1.277   1.068   3.233  3.5213 -2.9412 -1.2221
 3564SOL    HW222329   1.342   0.974   3.315 -0.4869  0.1409  2.2318
 3565SOL     OW22330   2.154   3.602   6.745 -0.4957  0.5482 -0.3112
 3565SOL    HW122331   2.249   3.613   6.752 -0.6385  2.4889 -1.3854
 3565SOL    HW222332   2.115   3.689   6.756 -0.8884  0.5365 -1.5638
 3566SOL     OW22333   2.851   2.231   8.553  0.4637 -0.0432 -0.2974
 3566SOL    HW122334   2.783   2.233   8.620 -1.5453  1.2297 -2.3764
 3566SOL    HW222335   2.872   2.322   8.534  1.1843  0.3237  2.1987
 3567SOL     OW22336   3.345   0.365   5.213 -0.4636  0.0301 -0.1469
 3567SOL    HW122337   3.264   0.414   5.228 -0.3878  0.3999 -0.9470
 3567SOL    HW222338   3.409   0.436   5.213  0.9949 -1.2849 -0.7512
 3568SOL     OW22339   0.175   1.484  17.444 -0.2364 -0.7318 -0.0822
 3568SOL    HW122340   0.201   1.417  17.381  2.0718  1.1968 -1.1694
 3568SOL    HW222341   0.181   1.429  17.522 -0.4213 -1.8482 -0.8648
 3569SOL     OW22342   1.290   3.574   8.766  0.2176 -0.2311  0.2679
 3569SOL    HW122343   1.197   3.566   8.787  0.7470 -0.9468  2.2778
 3569SOL    HW222344   1.294   3.497   8.710  3.5309 -1.4280  2.1675
 3570SOL     OW22345   3.932   0.112   2.545  0.2768  0.4026  0.3695
 3570SOL    HW122346   3.997   0.162   2.496  1.4956 -2.8439 -1.3251
 3570SOL    HW222347   3.858   0.172   2.535 -0.7729 -0.6957  1.4903
 3571SOL     OW22348   4.392   1.188   0.122 -0.8067  0.0217 -0.1754
 3571SOL    HW122349   4.385   1.253   0.051 -0.4964 -0.3772 -0.5699
 3571SOL    HW222350   4.314   1.134   0.106  0.6131 -2.2978  0.9450
 3572SOL     OW22351   3.418   1.450  13.157 -0.6149 -0.6744  0.0744
 3572SOL    HW122352   3.360   1.445  13.232 -1.2034 -1.4279 -0.4281
 3572SOL    HW222353   3.452   1.361  13.173  3.9222  1.1278  0.4708
 3573SOL     OW22354   2.968   4.510  12.295  0.0702  0.0775 -0.5154
 3573SOL    HW122355   3.049   4.472  12.260 -0.3912 -0.3680 -1.0775
 3573SOL    HW222356   2.990   4.603  12.298 -2.9168  0.7192  1.1950
 3574SOL     OW22357   0.118   4.377   5.979 -0.0190  0.3424  0.5144
 3574SOL    HW122358   0.142   4.463   6.013  0.9959 -0.1089  0.9296
 3574SOL    HW222359   0.028   4.371   6.013  0.3616 -1.6544  1.2127
 3575SOL     OW22360   1.883   2.338   2.580  0.2102  0.3536  0.5700
 3575SOL    HW122361   1.893   2.409   2.643 -0.5934 -0.9791  2.2237
 3575SOL    HW222362   1.867   2.265   2.640 -0.6079  1.7271  2.0091
 3576SOL     OW22363   3.831   3.000   8.565  0.7048 -0.0483  0.0636
 3576SOL    HW122364   3.738   3.021   8.575  0.2547 -2.9797  1.7998
 3576SOL    HW222365   3.847   3.051   8.485 -0.7779  0.7942  0.2932
 3577SOL     OW22366   0.080   2.505  10.989  0.0210  0.0704  0.3248
 3577SOL    HW122367   0.029   2.567  11.042  0.0454  1.3992 -1.2187
 3577SOL    HW222368   0.015   2.485  10.921 -0.0167 -0.4363  0.5141
 3578SOL     OW22369   2.927   4.033   5.096 -0.0341 -0.0506 -0.3619
 3578SOL    HW122370   2.890   3.959   5.144 -0.7046  0.6330  0.1855
 3578SOL    HW222371   2.970   3.986   5.025  0.9891  0.1980  0.0955
 3579SOL     OW22372   3.260   0.753   2.852  0.4257  0.3128  0.0152
 3579SOL    HW122373   3.237   0.690   2.784 -0.1284 -0.4139  0.8728
 3579SOL    HW222374   3.348   0.780   2.825  0.3211  0.6375 -0.0028
 3580SOL     OW22375   1.441   0.413   2.532  0.6169 -0.4070  0.6591
 3580SOL    HW122376   1.402   0.330   2.560  1.8713 -1.3182 -0.2442
 3580SOL    HW222377   1.405   0.470   2.600 -1.2897 -2.4423  1.3532
 3581SOL     OW22378   2.366   4.260   1.346 -0.0623  0.1824  0.6307
 3581SOL    HW122379   2.315   4.202   1.290  0.6039  2.0765 -1.9594
 3581SOL    HW222380   2.308   4.337   1.345 -0.4831 -0.0854  2.6989
 3582SOL     OW22381   1.017   4.701  13.024 -0.2133  0.5326  0.0781
 3582SOL    HW122382   0.943   0.003  13.064 -0.4685  0.7448 -0.6351
 3582SOL    HW222383   1.055   0.025  12.968  1.2599  0.4813  1.0265
 3583SOL     OW22384   0.486   0.693  14.082 -0.1729  0.2473  0.6872
 3583SOL    HW122385   0.577   0.720  14.068  0.2557 -0.5173  1.9938
 3583SOL    HW222386   0.447   0.756  14.023  0.5662 -2.0087 -2.2286
 3584SOL     OW22387   1.776   1.412   3.829  0.0411 -0.0842 -0.1436
 3584SOL    HW122388   1.825   1.425   3.748 -0.9716  1.0558 -0.5809
 3584SOL    HW222389   1.775   1.500   3.868 -1.1401 -1.0767  2.0946
 3585SOL     OW22390   4.223   2.101   1.102  0.2376  0.3389 -0.0218
 3585SOL    HW122391   4.189   2.141   1.023 -2.0145 -2.4784 -0.4767
 3585SOL    HW222392   4.311   2.139   1.105 -0.2826  1.5400 -0.4915
 3586SOL     OW22393   3.043   0.235   1.526 -0.4102 -0.0278  0.0412
 3586SOL    HW122394   3.009   0.169   1.466  2.1560 -2.8492  1.7042
 3586SOL    HW222395   3.046   0.183   1.607  0.4974 -2.4430 -1.5482
 3587SOL     OW22396   3.000   0.968  16.217 -0.2524 -0.2691 -0.3944
 3587SOL    HW122397   2.924   0.942  16.268  2.1592 -1.3425  2.6002
 3587SOL    HW222398   2.976   1.059  16.200  0.0461 -0.7171 -3.2156
 3588SOL     OW22399   2.119   4.741   2.584 -0.0019  0.0455 -0.1317
 3588SOL    HW122400   2.125   0.059   2.512  1.7656 -0.7795 -0.6978
 3588SOL    HW222401   2.110   0.051   2.663 -0.4203 -3.0263  1.9587
 3589SOL     OW22402   2.227   2.041   6.570 -0.1105 -0.1505 -0.0099
 3589SOL    HW122403   2.292   2.009   6.507  0.0113 -2.2368  1.1724
 3589SOL    HW222404   2.189   1.959   6.601  0.4476  0.3896  2.0803
 3590SOL     OW22405   2.105   3.658   3.516  0.1013 -0.0446 -0.4817
 3590SOL    HW122406   2.025   3.613   3.543 -0.6090  1.3474 -0.2487
 3590SOL    HW222407   2.159   3.644   3.594 -0.8705  2.7206  0.6975
 3591SOL     OW22408   0.759   2.217   3.575 -0.4442 -0.6361 -0.0214
 3591SOL    HW122409   0.799   2.185   3.495  0.2227 -0.6121  0.3016
 3591SOL    HW222410   0.832   2.215   3.637 -0.8577 -0.4457  0.4715
 3592SOL     OW22411   1.928   1.249  12.773  0.7677  0.7694 -0.3054
 3592SOL    HW122412   1.903   1.211  12.689  0.2064  3.1852 -1.2352
 3592SOL    HW222413   2.009   1.202  12.790  0.7424  0.6927 -0.3937
 3593SOL     OW22414   4.258   2.678   2.928  0.2590 -0.0977 -0.4639
 3593SOL    HW122415   4.349   2.650   2.937  0.3428  0.2699 -0.1225
 3593SOL    HW222416   4.223   2.690   3.017  0.2161  0.3408 -0.5396
 3594SOL     OW22417   0.090   0.664   5.392  0.3074 -0.6696 -0.0708
 3594SOL    HW122418   0.162   0.726   5.379 -1.7371  1.4110 -1.4844
 3594SOL    HW222419   0.039   0.677   5.313 -0.6419  0.0688  0.6660
 3595SOL     OW22420   1.864   3.341   4.736  0.7698 -0.2185  0.0492
 3595SOL    HW122421   1.770   3.358   4.730  0.9519  0.2443 -1.3791
 3595SOL    HW222422   1.875   3.247   4.723  1.3954  0.2254 -2.6856
 3596SOL     OW22423   2.959   4.515   6.615 -0.2030 -0.3820 -0.4118
 3596SOL    HW122424   2.977   4.478   6.702 -1.4826  0.0075  0.0201
 3596SOL    HW222425   2.875   4.556   6.635  0.0886 -0.5127  1.1481
 3597SOL     OW22426   0.683   2.200   9.096 -0.0840 -0.0753 -0.8039
 3597SOL    HW122427   0.627   2.275   9.112  0.9746 -0.0398  2.8384
 3597SOL    HW222428   0.762   2.223   9.144 -1.4225  0.3403  1.2161
 3598SOL     OW22429   3.196   1.607   2.179 -0.4783  0.2148  0.5694
 3598SOL    HW122430   3.120   1.549   2.174 -0.0691 -0.2990  0.2874
 3598SOL    HW222431   3.162   1.692   2.151 -1.2650  0.2551  1.6404
 3599SOL     OW22432   1.604   1.488   5.365  0.2694  0.1638 -0.3656
 3599SOL    HW122433   1.629   1.538   5.287  0.8015 -1.5785 -1.3121
 3599SOL    HW222434   1.517   1.526   5.378  0.9896  0.3766  3.6749
 3600SOL     OW22435   1.728   2.076  16.605 -0.0926  0.1066  0.1472
 3600SOL    HW122436   1.708   2.073  16.699 -1.7452  0.0291 -0.2068
 3600SOL    HW222437   1.773   2.159  16.593 -0.6175  0.3289 -0.2803
 3601SOL     OW22438   1.383   1.256   8.074  0.2720  0.2329  0.0410
 3601SOL    HW122439   1.388   1.166   8.108 -1.2876  0.2632  0.3447
 3601SOL    HW222440   1.476   1.258   8.054  0.3798  1.4470  0.6217
 3602SOL     OW22441   2.678   2.518  17.081 -0.0891 -0.1110  0.5277
 3602SOL    HW122442   2.637   2.489  17.163 -0.2671  2.6938  1.4313
 3602SOL    HW222443   2.721   2.603  17.094 -1.6784  0.7317  0.2249
 3603SOL     OW22444   1.001   3.324   4.922 -0.4211 -0.3299 -0.2371
 3603SOL    HW122445   0.917   3.305   4.880  0.3741  2.6136 -3.1289
 3603SOL    HW222446   1.047   3.358   4.845  0.5254 -2.8154 -0.7724
 3604SOL     OW22447   1.459   1.126   6.619 -0.0816 -0.3502 -0.2568
 3604SOL    HW122448   1.538   1.073   6.608  1.2146  1.2579  1.3628
 3604SOL    HW222449   1.494   1.213   6.601 -1.1449 -0.1062 -1.1533
 3605SOL     OW22450   4.522   4.510  15.854 -0.6298 -0.6004 -0.0504
 3605SOL    HW122451   4.574   4.447  15.904  0.6369 -0.0049 -0.6232
 3605SOL    HW222452   4.581   4.584  15.844 -0.1114 -0.9856  0.1385
 3606SOL     OW22453   0.505   0.092   8.868 -0.5813  0.2781 -0.0910
 3606SOL    HW122454   0.453   0.017   8.840  1.7283 -1.4231  0.1880
 3606SOL    HW222455   0.470   0.155   8.805 -0.3930  1.2043  0.7433
 3607SOL     OW22456   2.746   3.287  12.972 -0.6909 -0.3768 -0.2524
 3607SOL    HW122457   2.768   3.336  12.893 -2.0692  1.8927  0.7648
 3607SOL    HW222458   2.800   3.336  13.034 -0.2512 -0.7766 -0.3261
 3608SOL     OW22459   2.925   3.218   0.045 -0.2280 -0.4581 -1.0202
 3608SOL    HW122460   3.009   3.175   0.058  0.1907  0.3071 -1.1769
 3608SOL    HW222461   2.859   3.157   0.078  0.7763 -0.3998  1.1022
 3609SOL     OW22462   0.402   1.685   2.797 -0.4673  0.2822 -0.1911
 3609SOL    HW122463   0.327   1.743   2.792 -0.3006  0.5501  0.3627
 3609SOL    HW222464   0.456   1.702   2.720 -1.0647  1.2291 -0.3911
 3610SOL     OW22465   1.860   1.051  11.421 -0.9263 -0.0749  0.0105
 3610SOL    HW122466   1.792   1.030  11.486 -0.5476 -1.2967  0.0013
 3610SOL    HW222467   1.821   1.110  11.357 -0.4748  0.2328  0.0180
 3611SOL     OW22468   1.575   4.678   6.254 -0.1777 -0.1198  0.0511
 3611SOL    HW122469   1.648   4.616   6.255 -1.7081 -1.9170  0.2514
 3611SOL    HW222470   1.503   4.619   6.229  1.5989 -1.2490 -2.3281
 3612SOL     OW22471   4.711   1.874  16.901 -0.3854 -0.4498  0.4447
 3612SOL    HW122472   4.697   1.782  16.880  0.4498 -0.6538  0.7982
 3612SOL    HW222473   4.620   1.900  16.915 -0.3117  0.0082  0.0883
 3613SOL     OW22474   0.279   1.460   2.854  0.5725 -0.5120 -0.5849
 3613SOL    HW122475   0.196   1.506   2.843  1.3530  0.9592 -0.4232
 3613SOL    HW222476   0.344   1.530   2.858  0.0940  0.0236 -2.1023
 3614SOL     OW22477   3.160   0.776   4.693  0.0712 -0.1105 -0.8690
 3614SOL    HW122478   3.089   0.739   4.642 -0.3734  0.8987 -0.9797
 3614SOL    HW222479   3.170   0.847   4.630 -2.5206  1.2294  0.2559
 3615SOL     OW22480   0.991   3.089   7.178  0.4304 -0.1133  0.1163
 3615SOL    HW122481   1.073   3.041   7.188 -0.4509 -1.6831 -0.3031
 3615SOL    HW222482   1.032   3.168   7.143 -0.6561  0.9322  1.1786
 3616SOL     OW22483   3.434   0.986   2.411  0.0920 -0.1528  0.0622
 3616SOL    HW122484   3.513   0.984   2.465 -0.7157 -2.4472  1.1635
 3616SOL    HW222485   3.468   1.035   2.336  2.8788 -2.8102 -0.4191
 3617SOL     OW22486   2.917   4.189  12.661  0.1010 -0.3363 -0.0356
 3617SOL    HW122487   2.944   4.281  12.655 -0.8185 -0.0818 -0.2265
 3617SOL    HW222488   2.983   4.148  12.718 -0.0056  0.6154  0.7875
 3618SOL     OW22489   1.241   0.756  15.079 -0.2374 -0.2688 -0.4800
 3618SOL    HW122490   1.275   0.777  14.992  0.7370  0.3055  0.0428
 3618SOL    HW222491   1.209   0.666  15.070  1.1982 -0.8341  0.0850
 3619SOL     OW22492   0.882   2.209   1.800  0.0452 -0.1671 -0.9112
 3619SOL    HW122493   0.789   2.207   1.825  0.2268 -1.0795 -0.2963
 3619SOL    HW222494   0.882   2.299   1.769  2.9109 -0.7460 -2.5697
 3620SOL     OW22495   3.856   2.848   7.717 -0.7648  0.6258 -0.1825
 3620SOL    HW122496   3.939   2.811   7.689 -0.1974  0.6016  1.5413
 3620SOL    HW222497   3.856   2.846   7.813  0.1870 -2.0374 -0.2281
 3621SOL     OW22498   1.695   1.025  17.190  0.5689 -0.2288 -0.6058
 3621SOL    HW122499   1.761   1.027  17.121  1.8453  0.5339  0.6532
 3621SOL    HW222500   1.707   1.115  17.221 -1.1690  0.0509 -0.6959
 3622SOL     OW22501   4.265   2.799   7.158  1.0217  0.5370  0.3527
 3622SOL    HW122502   4.248   2.753   7.240  1.7993 -0.7730 -0.2206
 3622SOL    HW222503   4.332   2.863   7.184  1.5389 -0.0403  0.4352
 3623SOL     OW22504   3.178   0.966  15.986  0.0191 -0.3368  0.3603
 3623SOL    HW122505   3.128   0.957  16.067  0.3259 -0.6397  0.5096
 3623SOL    HW222506   3.159   0.882  15.944  0.3145 -1.6410  2.8258
 3624SOL     OW22507   2.092   3.775  13.860  0.2954  0.6375 -0.3257
 3624SOL    HW122508   2.151   3.839  13.900  1.2590 -0.8390  0.5996
 3624SOL    HW222509   2.150   3.748  13.789  1.0896 -2.1100  1.3681
 3625SOL     OW22510   4.324   0.631   2.409 -0.2734  0.4359  0.3068
 3625SOL    HW122511   4.331   0.719   2.446  0.2072 -0.6213  2.7596
 3625SOL    HW222512   4.312   0.638   2.314  1.2139  2.0042  0.2498
 3626SOL     OW22513   2.459   2.195   6.611 -0.1743 -0.1522 -0.4362
 3626SOL    HW122514   2.479   2.220   6.521 -0.1435 -3.2356 -1.2839
 3626SOL    HW222515   2.365   2.191   6.597 -0.1611 -2.8801  0.2486
 3627SOL     OW22516   4.649   3.043   6.743  0.1505  0.1545 -0.2848
 3627SOL    HW122517   4.643   2.974   6.809 -0.4407  0.7680  0.3076
 3627SOL    HW222518   4.588   3.009   6.678 -0.8777 -0.8072  1.1742
 3628SOL     OW22519   2.718   2.718   8.441  0.3164  0.1098 -0.0713
 3628SOL    HW122520   2.633   2.717   8.397  1.5733  0.4625 -2.5109
 3628SOL    HW222521   2.738   2.811   8.426 -0.3653  0.6736  2.6689
 3629SOL     OW22522   1.025   0.604   9.353  0.5993  0.3487  0.2130
 3629SOL    HW122523   0.982   0.538   9.408 -1.3022  0.9610 -0.5556
 3629SOL    HW222524   0.962   0.625   9.284  1.1614  0.9221 -0.1195
 3630SOL     OW22525   2.360   1.864   9.254  0.4371 -0.1642 -0.0875
 3630SOL    HW122526   2.310   1.871   9.173  0.0826 -0.5834  0.0940
 3630SOL    HW222527   2.367   1.769   9.268 -1.2879  0.2461  3.4596
 3631SOL     OW22528   1.170   2.936   3.477  0.3399 -0.4139 -0.1141
 3631SOL    HW122529   1.085   2.952   3.518  0.1606  1.9882 -1.4367
 3631SOL    HW222530   1.184   2.843   3.495  1.5609 -0.5655 -1.8814
 3632SOL     OW22531   1.710   4.580  10.879 -0.5329 -0.3533 -0.0565
 3632SOL    HW122532   1.684   4.612  10.793 -2.5485 -0.6598  0.4342
 3632SOL    HW222533   1.642   4.520  10.912  0.3899 -1.0955  0.4966
 3633SOL     OW22534   1.740   4.296   4.746 -0.1522  0.4817  0.2609
 3633SOL    HW122535   1.697   4.306   4.831 -2.0077 -1.7277 -0.3970
 3633SOL    HW222536   1.830   4.300   4.778  0.5675  1.0374 -1.8385
 3634SOL     OW22537   2.723   1.337   2.197  0.7722  0.2068  0.1322
 3634SOL    HW122538   2.691   1.300   2.115  1.1542 -0.2836  0.2052
 3634SOL    HW222539   2.643   1.330   2.250 -1.6791 -2.3659 -3.9093
 3635SOL     OW22540   3.508   3.995  16.068 -0.4057 -0.1718  0.3882
 3635SOL    HW122541   3.579   3.939  16.099 -1.8844 -1.7389  0.9959
 3635SOL    HW222542   3.536   4.015  15.979 -0.8127  3.1680  1.0213
 3636SOL     OW22543   1.952   1.539  14.347 -0.0771  0.0398  0.6476
 3636SOL    HW122544   1.954   1.613  14.286  2.0165 -0.2169  0.4196
 3636SOL    HW222545   1.859   1.516  14.351  0.9801 -4.3808 -0.6658
 3637SOL     OW22546   3.785   0.313  10.049 -0.1502 -0.3641  0.1531
 3637SOL    HW122547   3.849   0.252  10.083  0.8170  1.5385  1.7206
 3637SOL    HW222548   3.736   0.272   9.977 -1.5955 -0.3609  1.1292
 3638SOL     OW22549   1.035   2.627   5.763  0.0368  0.0972  0.2571
 3638SOL    HW122550   1.005   2.713   5.795  1.3983 -0.2576  2.5353
 3638SOL    HW222551   1.117   2.613   5.811 -1.0269  0.5190  2.2116
 3639SOL     OW22552   3.083   1.555  12.071  0.2261  0.1922 -0.2265
 3639SOL    HW122553   3.066   1.546  11.977  2.1251 -2.0025 -0.3820
 3639SOL    HW222554   3.040   1.638  12.088  0.7559  0.3513  0.3049
 3640SOL     OW22555   4.372   1.504  14.798 -0.8109 -0.0631  0.3729
 3640SOL    HW122556   4.397   1.414  14.780 -1.0675 -0.0922  0.1652
 3640SOL    HW222557   4.368   1.531  14.706  0.2714 -0.7086  0.1417
 3641SOL     OW22558   3.955   2.582   1.332 -0.1516 -0.4352 -0.1369
 3641SOL    HW122559   3.892   2.529   1.380  0.3111 -0.9963 -0.1446
 3641SOL    HW222560   3.891   2.637   1.287  1.2563  0.8903 -0.5146
 3642SOL     OW22561   2.546   3.276  15.332  0.8237  0.0721 -0.3748
 3642SOL    HW122562   2.612   3.294  15.265  0.8982 -0.8036 -0.5354
 3642SOL    HW222563   2.537   3.181  15.334 -0.4728  0.1828 -0.8470
 3643SOL     OW22564   1.626   1.594  16.258  0.7247  0.1706  0.4000
 3643SOL    HW122565   1.530   1.592  16.248  1.0858  0.8968 -3.0751
 3643SOL    HW222566   1.651   1.532  16.190  0.1052 -2.0897  2.2388
 3644SOL     OW22567   4.654   1.026   5.400  0.1135 -0.1503  0.2282
 3644SOL    HW122568   4.689   1.013   5.489  1.3727  1.6614 -0.0099
 3644SOL    HW222569   4.711   0.964   5.355 -1.5525 -1.6518  0.1607
 3645SOL     OW22570   3.977   4.028   4.589  0.0990 -0.3097  0.1122
 3645SOL    HW122571   3.998   4.082   4.666  0.9377 -0.0972 -0.2779
 3645SOL    HW222572   4.051   4.045   4.531  0.2350  1.3180  0.7491
 3646SOL     OW22573   0.299   0.341  11.444 -0.3573 -0.2561  0.1464
 3646SOL    HW122574   0.328   0.409  11.384  0.2807  1.1818  2.0959
 3646SOL    HW222575   0.229   0.298  11.395 -1.1643  3.4735 -1.9397
 3647SOL     OW22576   2.309   0.704   3.180 -0.0735 -0.0034  0.1053
 3647SOL    HW122577   2.318   0.768   3.109 -2.5472 -1.1975 -1.2759
 3647SOL    HW222578   2.391   0.656   3.194 -0.2510 -0.4561 -0.4026
 3648SOL     OW22579   2.558   2.925  15.801  0.2946  0.1820  0.0111
 3648SOL    HW122580   2.494   2.914  15.731  0.8723 -0.1964 -0.4521
 3648SOL    HW222581   2.522   2.976  15.873  1.0600  0.7199  0.0126
 3649SOL     OW22582   2.143   0.549   7.870  0.1844 -0.3769 -0.2252
 3649SOL    HW122583   2.085   0.558   7.795 -0.6843  0.6057  0.5737
 3649SOL    HW222584   2.172   0.457   7.871 -1.3538 -0.8802 -2.9908
 3650SOL     OW22585   4.608   0.313   7.291  0.2493 -0.5124 -0.1694
 3650SOL    HW122586   4.661   0.282   7.218  0.1239 -0.8352 -0.1233
 3650SOL    HW222587   4.547   0.239   7.297  0.0720 -0.3708 -0.2309
 3651SOL     OW22588   1.157   4.363   7.025 -0.4038  0.1680  0.1256
 3651SOL    HW122589   1.239   4.343   7.070  1.1130 -0.6756 -2.9890
 3651SOL    HW222590   1.111   4.280   7.020  2.0063 -1.0640 -1.5330
 3652SOL     OW22591   4.616   1.008   3.053  0.1637  0.0114  0.6306
 3652SOL    HW122592   4.679   1.077   3.034  0.7909 -0.5438  0.6954
 3652SOL    HW222593   4.630   0.997   3.147  2.7103  0.3250  0.2934
 3653SOL     OW22594   0.862   2.724  13.779 -0.1677 -0.0631  0.5824
 3653SOL    HW122595   0.913   2.695  13.855 -2.6558 -1.4632  1.7045
 3653SOL    HW222596   0.915   2.716  13.700  0.9073 -0.0149  1.2988
 3654SOL     OW22597   1.782   4.208   4.370 -0.3070  0.3661 -0.2905
 3654SOL    HW122598   1.797   4.301   4.387 -0.7575  0.2572  0.7226
 3654SOL    HW222599   1.722   4.199   4.296  0.8210  1.2441 -1.2979
 3655SOL     OW22600   0.089   3.791   7.993 -0.4659  0.1281 -0.3299
 3655SOL    HW122601   0.046   3.833   8.067  0.5131 -0.4136  0.5446
 3655SOL    HW222602   0.132   3.868   7.957 -0.7155 -0.2621 -1.4778
 3656SOL     OW22603   1.460   0.400   7.359  0.2876 -0.0116  0.5142
 3656SOL    HW122604   1.527   0.416   7.293  0.5060  0.8774  0.9512
 3656SOL    HW222605   1.392   0.349   7.316  0.1525  0.3227  0.3299
 3657SOL     OW22606   1.573   2.859   9.495  0.3891  0.2541  0.3187
 3657SOL    HW122607   1.541   2.886   9.409  2.6274 -1.0948 -0.9025
 3657SOL    HW222608   1.534   2.771   9.503 -3.0135  1.6016 -1.2005
 3658SOL     OW22609   0.451   2.074   5.068 -0.0236 -0.0998 -0.0210
 3658SOL    HW122610   0.466   2.168   5.056 -0.6749 -0.0602 -0.5333
 3658SOL    HW222611   0.378   2.067   5.131  1.0251 -0.4428  1.1573
 3659SOL     OW22612   3.248   1.621  12.811 -0.0463  0.1907  0.2228
 3659SOL    HW122613   3.163   1.587  12.839  0.1572 -0.9816 -0.5496
 3659SOL    HW222614   3.236   1.639  12.718  0.9716 -0.0780  0.0373
 3660SOL     OW22615   1.250   3.514   3.657 -0.0048  0.2636  0.7480
 3660SOL    HW122616   1.315   3.572   3.617 -1.3313 -1.4816 -4.0512
 3660SOL    HW222617   1.247   3.457   3.580 -1.6724 -1.2531  1.9383
 3661SOL     OW22618   0.880   2.411   5.168  0.0058  0.0911  0.5296
 3661SOL    HW122619   0.856   2.389   5.258 -0.2657 -0.5769  0.2900
 3661SOL    HW222620   0.900   2.324   5.134 -0.7299  1.1119 -2.5437
 3662SOL     OW22621   1.427   0.156   4.757 -0.3960  0.1257  0.1092
 3662SOL    HW122622   1.427   0.064   4.730 -1.4121  0.1576  0.0082
 3662SOL    HW222623   1.451   0.144   4.849 -0.5638  0.9118  0.2533
 3663SOL     OW22624   3.261   2.211   6.932  0.0620 -0.0164 -0.1534
 3663SOL    HW122625   3.225   2.275   6.993  2.6716 -1.0965  2.5404
 3663SOL    HW222626   3.343   2.188   6.975  0.6777  1.5590 -0.4965
 3664SOL     OW22627   0.990   0.891   5.375  0.4616  0.0500  0.1263
 3664SOL    HW122628   1.065   0.899   5.434 -1.1704  1.2795  2.0261
 3664SOL    HW222629   1.021   0.829   5.308  2.0542  0.0048  0.8983
 3665SOL     OW22630   2.546   0.689   1.076 -0.1797 -0.1392 -0.0738
 3665SOL    HW122631   2.536   0.657   0.986 -1.8070  0.4547 -0.1072
 3665SOL    HW222632   2.640   0.703   1.078 -0.4071  1.2662  1.1421
 3666SOL     OW22633   3.987   2.064   1.910  0.4984 -0.6294 -0.1684
 3666SOL    HW122634   3.967   2.063   2.004  3.0868 -3.2111  0.3552
 3666SOL    HW222635   3.961   1.979   1.874 -1.4890  0.2237 -0.7342
 3667SOL     OW22636   3.110   2.882   2.489  0.5839  0.0447  0.1931
 3667SOL    HW122637   3.164   2.847   2.418  0.3484 -0.7174  0.3894
 3667SOL    HW222638   3.176   2.937   2.532  2.0448 -1.9762  0.5624
 3668SOL     OW22639   2.204   2.157  14.134  0.1807 -0.3111 -0.2765
 3668SOL    HW122640   2.282   2.198  14.172 -1.5794  1.8429  1.0509
 3668SOL    HW222641   2.171   2.224  14.074  1.5484 -0.4850 -1.2139
 3669SOL     OW22642   1.070   3.937   7.799 -0.7098 -0.2630 -0.0050
 3669SOL    HW122643   1.037   4.025   7.820 -4.5068 -1.4171 -1.0507
 3669SOL    HW222644   1.152   3.958   7.754  0.1802  1.3942  2.4138
 3670SOL     OW22645   4.702   0.107   5.684 -0.1640 -0.3585  0.2637
 3670SOL    HW122646   0.032   0.068   5.638 -1.1677 -0.6858 -1.0649
 3670SOL    HW222647   4.634   0.094   5.618  1.4356 -0.3074 -1.3874
 3671SOL     OW22648   4.060   2.462   3.948  0.1002  0.3847 -0.2801
 3671SOL    HW122649   4.071   2.514   3.868  0.1962  0.6683 -0.0780
 3671SOL    HW222650   4.149   2.429   3.943  0.4896  1.2912  0.8624
 3672SOL     OW22651   0.607   1.230   2.881  0.3953  0.5443  0.3168
 3672SOL    HW122652   0.618   1.322   2.857 -1.2414  0.3983 -0.9840
 3672SOL    HW222653   0.615   1.187   2.796 -0.5890 -0.0172  0.5068
 3673SOL     OW22654   2.596   3.106   7.005  0.2831 -0.2681  0.2183
 3673SOL    HW122655   2.632   3.020   7.026  1.9023  0.6827  1.3138
 3673SOL    HW222656   2.675   3.137   6.959 -0.6418 -1.0950 -1.9383
 3674SOL     OW22657   0.195   3.690   8.289 -0.4805  0.2733  0.0838
 3674SOL    HW122658   0.182   3.642   8.208 -1.7416 -0.6141  0.8071
 3674SOL    HW222659   0.106   3.691   8.325  0.0281 -1.0206  1.4030
 3675SOL     OW22660   4.658   1.007   4.955 -0.1209  0.3865 -0.6941
 3675SOL    HW122661   0.008   1.025   4.944  0.0971 -1.8027 -2.6535
 3675SOL    HW222662   4.648   0.913   4.935  0.5553  0.1572  0.0368
 3676SOL     OW22663   1.780   1.054   1.837 -0.0317 -0.0737 -0.4636
 3676SOL    HW122664   1.811   1.073   1.926  0.4335  1.0698 -0.8745
 3676SOL    HW222665   1.733   0.973   1.856  1.9319 -0.1426  4.1248
 3677SOL     OW22666   1.700   0.614  15.823 -0.1837  0.4633 -0.0105
 3677SOL    HW122667   1.739   0.543  15.773 -1.8295 -1.5746  1.6017
 3677SOL    HW222668   1.619   0.569  15.848 -0.4221  0.1200 -1.4154
 3678SOL     OW22669   0.748   0.360   6.055 -0.3008  0.3974  0.8970
 3678SOL    HW122670   0.708   0.278   6.084 -2.1218  1.1039  0.3332
 3678SOL    HW222671   0.841   0.334   6.055 -0.9490 -1.9883  0.5472
 3679SOL     OW22672   2.942   1.351   4.342  0.7412  0.5732 -0.3693
 3679SOL    HW122673   3.006   1.282   4.359 -0.9274 -0.3801  2.0266
 3679SOL    HW222674   2.859   1.319   4.378  1.5285 -0.4419  0.5359
 3680SOL     OW22675   0.792   2.661  12.433  0.2171  0.4458 -0.0580
 3680SOL    HW122676   0.876   2.679  12.389 -0.9291  1.3044 -1.8672
 3680SOL    HW222677   0.748   2.741  12.405  1.8236  1.5530  0.5566
 3681SOL     OW22678   1.812   0.021   5.056 -0.2731  0.0788  0.2432
 3681SOL    HW122679   1.886   4.708   5.077 -2.0560 -1.9958  0.8366
 3681SOL    HW222680   1.854   0.107   5.046  0.0098 -0.0794  0.0598
 3682SOL     OW22681   3.470   0.232  13.013  0.4664 -0.1681 -0.1001
 3682SOL    HW122682   3.406   0.220  13.083  1.5121  0.5682  0.9798
 3682SOL    HW222683   3.554   0.254  13.054  0.5851 -0.1035 -0.3723
 3683SOL     OW22684   2.813   4.426   2.445 -0.3787 -0.2103 -0.8421
 3683SOL    HW122685   2.806   4.337   2.410 -0.4977 -0.1230 -1.0440
 3683SOL    HW222686   2.897   4.452   2.406  0.5040  0.2902  1.4331
 3684SOL     OW22687   0.752   1.538  10.508  0.1351 -0.5816  0.1252
 3684SOL    HW122688   0.793   1.452  10.517 -0.1922 -1.3777 -5.8085
 3684SOL    HW222689   0.659   1.514  10.508 -0.4666  1.7969  1.5178
 3685SOL     OW22690   1.202   1.334  16.238 -0.1131  0.4073  0.1896
 3685SOL    HW122691   1.126   1.281  16.214  0.5221 -0.0648 -0.7954
 3685SOL    HW222692   1.247   1.329  16.153 -0.7681  0.8216 -0.1770
 3686SOL     OW22693   3.582   0.320   1.409 -0.3436  0.4569 -0.1583
 3686SOL    HW122694   3.668   0.353   1.384 -0.2395  0.1553 -0.1979
 3686SOL    HW222695   3.537   0.333   1.326 -3.3161  2.7790  1.7853
 3687SOL     OW22696   1.265   4.697   3.830  0.2961 -0.3529 -0.6122
 3687SOL    HW122697   1.259   4.735   3.918  2.4846  3.8670 -2.2905
 3687SOL    HW222698   1.360   4.685   3.828  0.4811  0.8300  0.5352
 3688SOL     OW22699   2.136   4.400  12.383  0.0901  0.1350 -0.4444
 3688SOL    HW122700   2.095   4.344  12.317 -1.4600  1.4231 -0.5712
 3688SOL    HW222701   2.227   4.372  12.378 -0.4890 -1.2571 -3.1859
 3689SOL     OW22702   0.376   0.113   8.325  0.2166  0.1280 -0.4085
 3689SOL    HW122703   0.305   0.056   8.354  1.2602  0.2378  2.3527
 3689SOL    HW222704   0.448   0.080   8.380 -0.9369 -3.1264 -0.9033
 3690SOL     OW22705   0.897   2.101   8.885 -0.0057 -0.0724 -0.4717
 3690SOL    HW122706   0.819   2.115   8.938 -0.4930 -0.0237 -1.2031
 3690SOL    HW222707   0.955   2.076   8.957 -0.0752  0.1147 -0.3520
 3691SOL     OW22708   1.957   3.105  17.141 -0.1568 -0.0083 -0.5215
 3691SOL    HW122709   1.862   3.118  17.140 -0.2599 -0.7786 -0.6851
 3691SOL    HW222710   1.978   3.052  17.218 -0.7017  1.9451  0.9608
 3692SOL     OW22711   3.615   0.409   7.920  0.1578 -0.0349  0.7208
 3692SOL    HW122712   3.644   0.489   7.877  0.9913 -1.0543 -0.6419
 3692SOL    HW222713   3.700   0.367   7.933 -0.3847 -1.2836  0.2294
 3693SOL     OW22714   2.423   3.561   6.825  0.8403 -0.1486 -0.0620
 3693SOL    HW122715   2.436   3.563   6.920 -0.7433  0.3453  0.1349
 3693SOL    HW222716   2.460   3.473   6.818 -1.5300 -1.2118  0.8743
 3694SOL     OW22717   1.452   3.582   3.272 -0.3478  0.2165 -0.5761
 3694SOL    HW122718   1.421   3.666   3.238 -1.8299  0.7693  2.1184
 3694SOL    HW222719   1.509   3.604   3.345 -1.5413  2.0677 -0.1861
 3695SOL     OW22720   2.800   3.827   6.149 -0.1027 -0.5288 -0.2166
 3695SOL    HW122721   2.732   3.759   6.148 -2.5477  1.8878  0.1996
 3695SOL    HW222722   2.861   3.791   6.085  3.2433  2.7853  1.1476
 3696SOL     OW22723   4.358   2.249   4.743  0.3129 -0.3902  0.4831
 3696SOL    HW122724   4.381   2.202   4.663 -0.5098 -0.1508  0.1046
 3696SOL    HW222725   4.303   2.176   4.771 -2.7155  0.6078 -2.8574
 3697SOL     OW22726   0.227   1.252   2.696  0.0759 -0.1003 -0.1567
 3697SOL    HW122727   0.315   1.232   2.665 -0.2680  0.2964 -1.4043
 3697SOL    HW222728   0.239   1.325   2.757 -0.1155 -2.1084  2.2891
 3698SOL     OW22729   0.258   4.740   1.793  0.2334 -0.0535 -0.3737
 3698SOL    HW122730   0.241   4.662   1.741  1.2200 -0.8662  0.5334
 3698SOL    HW222731   0.320   0.050   1.743  0.7778  1.0793  1.4984
 3699SOL     OW22732   1.220   2.691   7.176  0.1047  0.5301  0.0914
 3699SOL    HW122733   1.289   2.634   7.209 -0.6704  0.5191  1.7294
 3699SOL    HW222734   1.268   2.770   7.152  2.7080 -1.6362 -1.7687
 3700SOL     OW22735   3.677   1.171   8.318  0.3753  0.2441  0.4762
 3700SOL    HW122736   3.600   1.136   8.363  1.0875  1.1257  2.3593
 3700SOL    HW222737   3.691   1.106   8.250  2.9604 -0.5343  1.7748
 3701SOL     OW22738   1.928   1.374  16.943 -0.3844 -0.4942  0.2883
 3701SOL    HW122739   1.865   1.307  16.969 -2.5495  1.3475 -0.2666
 3701SOL    HW222740   1.967   1.399  17.028 -1.2426 -1.3925  0.9425
 3702SOL     OW22741   0.496   4.202   1.857  0.1715 -0.0310  0.0742
 3702SOL    HW122742   0.521   4.131   1.916 -2.4296 -0.2273  0.9430
 3702SOL    HW222743   0.581   4.216   1.814  0.5703 -2.8380 -0.0161
 3703SOL     OW22744   3.962   1.973   5.399 -0.0528 -0.3780 -0.5857
 3703SOL    HW122745   4.048   1.932   5.389 -0.9616 -1.8508 -2.3681
 3703SOL    HW222746   3.983   2.065   5.415  2.3224 -0.7684 -1.5693
 3704SOL     OW22747   3.866   4.723   4.307  0.2379  0.3562  0.6626
 3704SOL    HW122748   3.811   0.007   4.380 -1.0252 -1.9175  0.5667
 3704SOL    HW222749   3.857   4.629   4.317  3.5113 -0.0345 -0.2001
 3705SOL     OW22750   2.135   0.712   3.660  0.4349  0.0578  0.0310
 3705SOL    HW122751   2.040   0.704   3.656  0.4021  1.3943 -1.7557
 3705SOL    HW222752   2.165   0.637   3.608 -1.3364 -1.7137  1.5716
 3706SOL     OW22753   2.195   3.606   8.132  0.2109  0.1047 -0.1879
 3706SOL    HW122754   2.123   3.620   8.193  1.0030 -1.9401  1.2100
 3706SOL    HW222755   2.266   3.658   8.170  0.8761  0.1016 -1.4266
 3707SOL     OW22756   2.859   4.393   6.379 -0.0554  0.0873 -0.9158
 3707SOL    HW122757   2.895   4.428   6.461 -0.5826 -1.8204  0.1351
 3707SOL    HW222758   2.807   4.470   6.354  1.0192  0.7247 -1.1720
 3708SOL     OW22759   3.822   0.736   2.840  0.3962  0.1998 -0.0220
 3708SOL    HW122760   3.904   0.756   2.885  0.2126 -1.2467  0.9232
 3708SOL    HW222761   3.760   0.728   2.912  2.3199 -3.1281  1.2458
 3709SOL     OW22762   1.670   0.659   3.794 -0.3751  0.4806 -0.1173
 3709SOL    HW122763   1.676   0.625   3.883  1.8037 -0.8157 -0.7751
 3709SOL    HW222764   1.660   0.579   3.743  0.0820  1.3375 -1.5545
 3710SOL     OW22765   1.622   4.220   3.371 -0.4347  0.4514 -0.1937
 3710SOL    HW122766   1.670   4.295   3.406  0.9777 -1.2967  1.5589
 3710SOL    HW222767   1.659   4.215   3.283 -2.3942  0.7164 -1.0373
 3711SOL     OW22768   3.129   4.636   8.322  0.3653  0.2080 -0.0547
 3711SOL    HW122769   3.210   4.593   8.293 -0.3735 -0.4369 -1.1594
 3711SOL    HW222770   3.169   4.712   8.364 -0.3685 -0.1646  1.3075
 3712SOL     OW22771   0.570   0.659   4.900 -0.7085 -0.3785  0.2328
 3712SOL    HW122772   0.629   0.734   4.887 -1.8249  0.6495  1.1512
 3712SOL    HW222773   0.527   0.676   4.983  0.7307 -1.9982  1.3198
 3713SOL     OW22774   4.185   4.415   3.552 -0.0547 -0.2673 -0.2437
 3713SOL    HW122775   4.136   4.371   3.621 -1.3032 -0.4577 -1.2439
 3713SOL    HW222776   4.105   4.449   3.511  0.3031 -1.4480 -1.9344
 3714SOL     OW22777   3.340   0.447  12.541  0.4238  0.1423  0.6239
 3714SOL    HW122778   3.385   0.436  12.625  2.5386  0.3694 -0.5040
 3714SOL    HW222779   3.258   0.486  12.573 -1.1594 -4.3268  2.0893
 3715SOL     OW22780   0.574   0.507   9.335  0.9838  0.2228 -0.2952
 3715SOL    HW122781   0.531   0.586   9.303  0.8936 -0.0952 -0.9585
 3715SOL    HW222782   0.647   0.491   9.275 -0.3954 -2.7592 -1.1723
 3716SOL     OW22783   1.901   0.462   5.569 -0.3739 -0.6662  0.7339
 3716SOL    HW122784   1.980   0.503   5.607  0.5088 -1.3367 -0.3808
 3716SOL    HW222785   1.936   0.389   5.518  0.9162  0.3073  0.2194
 3717SOL     OW22786   1.277   4.437  15.532  0.7231 -0.0884 -0.1756
 3717SOL    HW122787   1.242   4.351  15.509 -0.8241 -0.1813  2.5375
 3717SOL    HW222788   1.338   4.450  15.459 -0.0311  1.2857 -0.5636
 3718SOL     OW22789   0.035   1.989   0.203 -0.4456  0.4271 -0.2890
 3718SOL    HW122790   0.079   2.052   0.261 -0.4558  1.0757 -0.9795
 3718SOL    HW222791   4.737   2.047   0.139  1.3764 -0.6930 -2.4824
 3719SOL     OW22792   4.426   4.497  16.177  0.0029 -0.0204 -0.1427
 3719SOL    HW122793   4.481   4.470  16.104 -0.3404 -2.5590  0.5223
 3719SOL    HW222794   4.435   4.422  16.237 -0.2731 -0.2457 -0.3791
 3720SOL     OW22795   1.132   0.428  15.534 -0.6854  0.2205 -0.2709
 3720SOL    HW122796   1.095   0.393  15.453 -0.7650  0.5278 -0.3663
 3720SOL    HW222797   1.123   0.346  15.583  0.0570  0.3506  0.0740
 3721SOL     OW22798   0.137   1.171   7.980  0.2319 -0.5247 -0.1582
 3721SOL    HW122799   0.106   1.150   8.068  1.6447  0.4889  0.5861
 3721SOL    HW222800   0.135   1.087   7.935  0.6966 -0.1014 -0.9638
 3722SOL     OW22801   2.409   3.025   5.749 -0.6349  0.0497  0.3737
 3722SOL    HW122802   2.396   3.118   5.732  1.9633 -0.3246 -3.7635
 3722SOL    HW222803   2.347   2.984   5.689 -0.0878  1.2814 -1.0384
 3723SOL     OW22804   2.569   1.467   6.869  0.1172  0.0991 -0.4363
 3723SOL    HW122805   2.527   1.421   6.942  2.1376  0.2468  0.8168
 3723SOL    HW222806   2.565   1.560   6.894 -0.6920  0.1906 -0.8880
 3724SOL     OW22807   4.290   3.089  14.786 -0.5070 -1.0219 -0.2120
 3724SOL    HW122808   4.258   3.149  14.718  1.7579 -0.0148 -0.4005
 3724SOL    HW222809   4.284   3.142  14.866 -1.2553 -1.5977  0.1076
 3725SOL     OW22810   3.425   0.732  15.032  0.0083 -0.0322 -0.0328
 3725SOL    HW122811   3.346   0.779  15.060 -0.6328 -0.3459 -1.3244
 3725SOL    HW222812   3.389   0.654  14.991 -2.0518  2.3738 -2.7688
 3726SOL     OW22813   3.124   0.020  10.623 -0.5191  0.2263  0.3754
 3726SOL    HW122814   3.078   0.070  10.556 -0.8463 -0.5079  0.0566
 3726SOL    HW222815   3.098   4.678  10.588  0.0569  1.4357 -2.9894
 3727SOL     OW22816   2.797   4.624   5.624  0.5197 -0.3196 -0.1204
 3727SOL    HW122817   2.712   4.580   5.617 -0.3934  1.4063  0.1191
 3727SOL    HW222818   2.852   4.557   5.666 -0.1978 -0.0561  1.2578
 3728SOL     OW22819   2.135   3.963  10.010 -0.4763  0.0500 -0.2167
 3728SOL    HW122820   2.141   4.030   9.941 -1.3259 -1.2150 -1.5378
 3728SOL    HW222821   2.040   3.953  10.010 -0.7471  2.6146 -0.0940
 3729SOL     OW22822   2.290   3.383   7.736  0.0617 -0.1391  0.3516
 3729SOL    HW122823   2.365   3.377   7.795  1.8002 -1.5779 -2.0152
 3729SOL    HW222824   2.250   3.467   7.758  1.2064  0.4354  0.2834
 3730SOL     OW22825   3.566   3.332   4.301  0.1581  0.1751  0.0842
 3730SOL    HW122826   3.652   3.371   4.281  0.4692  0.2624  1.6116
 3730SOL    HW222827   3.587   3.246   4.338  1.1303 -0.4155 -1.8165
 3731SOL     OW22828   0.342   0.127   2.502 -0.4630 -0.1452  0.0590
 3731SOL    HW122829   0.360   0.208   2.551 -1.2655  0.3298 -0.4312
 3731SOL    HW222830   0.251   0.141   2.474 -0.7512 -3.6665 -0.6947
 3732SOL     OW22831   0.161   1.116   3.041  0.5627 -0.5537  0.0716
 3732SOL    HW122832   0.148   1.095   3.134 -1.4617  0.6995  0.0627
 3732SOL    HW222833   0.230   1.182   3.046 -1.2067  1.1934  1.6297
 3733SOL     OW22834   3.670   4.524   6.981 -0.1747 -0.5299 -0.4717
 3733SOL    HW122835   3.729   4.553   6.911  0.2816 -0.7328 -0.1651
 3733SOL    HW222836   3.584   4.530   6.937 -0.8486  1.8849  1.1825
 3734SOL     OW22837   3.897   1.708  12.439 -0.4352 -0.1046 -0.2635
 3734SOL    HW122838   3.968   1.666  12.390  0.2457  0.3426  0.3522
 3734SOL    HW222839   3.909   1.673  12.527  2.1736 -1.7895 -1.3047
 3735SOL     OW22840   4.165   0.011   1.595 -0.5603  0.3109 -0.6268
 3735SOL    HW122841   4.080   0.015   1.552  0.0829 -1.4443 -2.0300
 3735SOL    HW222842   4.218   4.740   1.517 -0.9611 -1.3016 -0.5844
 3736SOL     OW22843   3.797   0.464   7.102 -0.3877  0.9368 -0.1601
 3736SOL    HW122844   3.714   0.418   7.098 -0.4280  1.0379 -0.5266
 3736SOL    HW222845   3.792   0.519   7.180 -1.0304 -0.0203  0.4628
 3737SOL     OW22846   1.675   0.639   7.689 -0.1683 -0.5290  0.0802
 3737SOL    HW122847   1.716   0.723   7.705 -1.3033 -0.0649  0.5276
 3737SOL    HW222848   1.606   0.620   7.752 -0.3854  0.5121  0.1401
 3738SOL     OW22849   0.854   2.769   9.715 -0.6806 -0.2267  0.2855
 3738SOL    HW122850   0.769   2.810   9.731 -1.5993 -1.6388 -0.8815
 3738SOL    HW222851   0.905   2.793   9.792 -1.3153 -2.4055  1.4066
 3739SOL     OW22852   3.642   3.505   9.341 -0.0937  0.1202  0.4852
 3739SOL    HW122853   3.669   3.448   9.413 -3.1193  1.6301  2.7647
 3739SOL    HW222854   3.692   3.581   9.369 -0.4662  1.1824 -1.6879
 3740SOL     OW22855   1.014   3.687   5.812  0.4986  0.0437  0.0647
 3740SOL    HW122856   1.064   3.704   5.733  1.9484  1.5217  1.2839
 3740SOL    HW222857   0.953   3.761   5.812  0.3573 -0.0724  0.5563
 3741SOL     OW22858   3.536   2.322  15.915  0.7965 -0.3947  0.1885
 3741SOL    HW122859   3.567   2.370  15.992  1.0672 -1.5358  0.7939
 3741SOL    HW222860   3.441   2.327  15.922  0.5818 -3.7813 -0.1421
 3742SOL     OW22861   1.761   4.666  15.126  0.6471 -0.7868  0.2058
 3742SOL    HW122862   1.776   4.673  15.032 -0.7466  2.4198  0.2248
 3742SOL    HW222863   1.841   4.628  15.161  0.1248 -1.5995  0.5293
 3743SOL     OW22864   1.643   1.357   3.098  0.7000 -0.3415  0.6722
 3743SOL    HW122865   1.651   1.309   3.180 -0.8422  1.2060  1.7377
 3743SOL    HW222866   1.675   1.442   3.130 -2.8284  0.6355  1.5877
 3744SOL     OW22867   3.925   0.095   8.855 -0.3897  0.3083 -0.1073
 3744SOL    HW122868   3.979   0.019   8.832 -0.0314 -0.0410  1.8613
 3744SOL    HW222869   3.939   0.101   8.950  0.1991 -1.9677 -0.0451
 3745SOL     OW22870   1.239   1.782   5.581 -0.2202 -0.2122  0.3909
 3745SOL    HW122871   1.203   1.851   5.526  0.3932  0.0044  0.2626
 3745SOL    HW222872   1.308   1.834   5.621  0.7355 -0.2323 -1.2341
 3746SOL     OW22873   3.433   0.057  13.757 -0.3207 -0.2482 -0.4783
 3746SOL    HW122874   3.352   0.022  13.718 -1.4570  0.8048  0.9481
 3746SOL    HW222875   3.431   0.131  13.697  1.0339 -0.0000 -0.2150
 3747SOL     OW22876   0.559   0.838   1.318  0.1925 -0.4310 -0.0860
 3747SOL    HW122877   0.599   0.811   1.235 -0.7495 -2.6173  0.1506
 3747SOL    HW222878   0.557   0.751   1.358  2.7746 -0.0007  0.9739
 3748SOL     OW22879   2.058   4.044   9.238 -0.1295 -0.7867  0.6807
 3748SOL    HW122880   2.061   3.949   9.227 -2.7203 -0.6870 -0.9756
 3748SOL    HW222881   1.984   4.059   9.297 -0.8200  0.1029 -0.4239
 3749SOL     OW22882   2.778   1.343   6.732  0.3561  0.3102  0.4443
 3749SOL    HW122883   2.867   1.354   6.767  0.3619 -1.0668  0.8710
 3749SOL    HW222884   2.720   1.393   6.789  0.3440 -1.2195  1.7825
 3750SOL     OW22885   0.742   0.732   5.390 -0.1021  0.5662  0.0175
 3750SOL    HW122886   0.766   0.680   5.467 -0.5333 -0.3305 -0.4483
 3750SOL    HW222887   0.792   0.686   5.322 -0.5230  0.7906 -0.4399
 3751SOL     OW22888   1.331   2.091  12.387 -0.5137  0.2249 -1.0806
 3751SOL    HW122889   1.322   2.138  12.304  2.7924  1.9046 -0.4534
 3751SOL    HW222890   1.372   2.158  12.441  1.5561 -0.5006 -1.7679
 3752SOL     OW22891   2.618   1.373  16.063 -0.4016 -0.2950 -0.2748
 3752SOL    HW122892   2.537   1.409  16.098 -0.9714 -1.7821 -0.0568
 3752SOL    HW222893   2.599   1.298  16.006 -1.7095 -1.1453  1.2635
 3753SOL     OW22894   4.150   0.439   9.294  0.0611 -0.1898 -0.2733
 3753SOL    HW122895   4.150   0.378   9.367 -0.3917  2.0969  1.6215
 3753SOL    HW222896   4.238   0.476   9.297 -0.8728  2.1908 -2.2800
 3754SOL     OW22897   4.621   2.817   5.097  0.1122  0.3629  0.1950
 3754SOL    HW122898   4.632   2.735   5.145  0.6281  0.4823  0.2826
 3754SOL    HW222899   4.527   2.827   5.113  0.2747 -0.4817  1.6448
 3755SOL     OW22900   2.520   2.831   3.566 -0.7795  0.4189  0.5172
 3755SOL    HW122901   2.614   2.846   3.577 -0.6134 -1.5053  1.7716
 3755SOL    HW222902   2.507   2.811   3.474 -2.2704 -1.1641  1.0740
 3756SOL     OW22903   2.997   0.779   0.469  0.2517  0.5809  1.0079
 3756SOL    HW122904   3.014   0.824   0.386  0.2714  0.8564  1.1587
 3756SOL    HW222905   3.068   0.812   0.524  1.6486 -0.4251 -0.1897
 3757SOL     OW22906   0.356   1.419   3.490  0.6751 -0.1949 -0.5201
 3757SOL    HW122907   0.318   1.489   3.437 -0.9274 -0.0199  0.8644
 3757SOL    HW222908   0.276   1.385   3.529  0.5501  2.3152  1.4101
 3758SOL     OW22909   2.386   2.622   9.390  0.0280 -0.0659 -0.4087
 3758SOL    HW122910   2.458   2.607   9.329  0.0030 -1.8851  0.0206
 3758SOL    HW222911   2.416   2.604   9.479  2.3196 -1.2633 -1.4361
 3759SOL     OW22912   3.646   3.841   9.172 -0.3881  0.3252 -0.3716
 3759SOL    HW122913   3.734   3.808   9.190 -0.3919 -0.5953 -2.0626
 3759SOL    HW222914   3.624   3.778   9.103  2.7463 -0.1869 -0.8922
 3760SOL     OW22915   1.165   1.058   7.790 -0.0413 -0.4954 -0.9910
 3760SOL    HW122916   1.079   1.076   7.828  0.0579  0.6503 -1.2950
 3760SOL    HW222917   1.150   1.046   7.696 -0.5633  1.2869 -1.1487
 3761SOL     OW22918   1.990   4.668  10.918  0.5027 -0.0282  0.2417
 3761SOL    HW122919   2.035   4.585  10.932  2.5241  0.8717 -0.9009
 3761SOL    HW222920   1.906   4.629  10.894 -0.9640  1.5562  2.8787
 3762SOL     OW22921   3.496   2.704  16.701 -0.5425 -0.0644 -0.4356
 3762SOL    HW122922   3.575   2.671  16.744 -2.4907 -1.6407  1.9270
 3762SOL    HW222923   3.482   2.787  16.746 -0.1787  0.5439 -1.4475
 3763SOL     OW22924   3.629   1.085   4.815  0.2875 -0.4819 -0.5471
 3763SOL    HW122925   3.629   1.178   4.791 -0.7450 -1.1717 -3.2296
 3763SOL    HW222926   3.534   1.075   4.819  0.1742  1.3993  1.1403
 3764SOL     OW22927   2.810   1.566  15.976 -0.0461  0.7110 -1.3297
 3764SOL    HW122928   2.838   1.518  15.898 -3.9097 -0.8709 -1.7615
 3764SOL    HW222929   2.743   1.506  16.008  0.1543  0.5067 -1.2944
 3765SOL     OW22930   3.109   2.152   9.743  0.2931  0.2761 -0.7800
 3765SOL    HW122931   3.065   2.175   9.825  1.4319  2.7230 -0.8291
 3765SOL    HW222932   3.036   2.145   9.681 -0.4094  0.1937  0.0611
 3766SOL     OW22933   1.505   4.090   6.313  0.9747 -0.3854 -0.3120
 3766SOL    HW122934   1.503   4.001   6.278  2.4782 -1.7924  3.1297
 3766SOL    HW222935   1.489   4.070   6.405 -2.4117  0.1481 -0.8083
 3767SOL     OW22936   2.237   3.912   1.316 -0.3375 -0.2519  0.1633
 3767SOL    HW122937   2.298   3.861   1.370  1.3159  1.1797 -0.3637
 3767SOL    HW222938   2.204   3.973   1.382 -0.2469  0.0570 -0.0756
 3768SOL     OW22939   1.623   3.334   2.557 -0.1111 -0.3875 -0.6106
 3768SOL    HW122940   1.658   3.416   2.522 -0.2414 -0.4484 -0.8814
 3768SOL    HW222941   1.702   3.297   2.596  1.1276  2.0041 -0.9045
 3769SOL     OW22942   3.725   0.715  11.119  0.2532 -0.0796 -0.0199
 3769SOL    HW122943   3.753   0.703  11.210 -0.7161 -0.5969  0.2132
 3769SOL    HW222944   3.638   0.677  11.133  1.1720 -1.6816  1.2548
 3770SOL     OW22945   3.813   0.559   9.417  0.5535  0.3973  0.0675
 3770SOL    HW122946   3.816   0.486   9.355 -0.3826 -0.1955  0.7164
 3770SOL    HW222947   3.739   0.524   9.467  0.7649 -0.7474 -0.4053
 3771SOL     OW22948   2.365   0.325   5.653  0.2209  0.3109 -0.1395
 3771SOL    HW122949   2.455   0.343   5.679  0.2020  1.0921 -0.6119
 3771SOL    HW222950   2.314   0.357   5.726 -0.2732 -1.5617  0.3313
 3772SOL     OW22951   3.555   0.320  16.251  0.0341 -0.2510  0.1112
 3772SOL    HW122952   3.647   0.328  16.227  0.0249 -2.3931 -0.6838
 3772SOL    HW222953   3.537   0.227  16.238 -0.5934 -0.4898  2.8741
 3773SOL     OW22954   2.480   0.067   2.173 -0.0628 -0.3789  0.2486
 3773SOL    HW122955   2.413   0.015   2.128 -2.0753  2.5252 -0.1168
 3773SOL    HW222956   2.557   0.013   2.156 -0.3639 -1.5389  2.6735
 3774SOL     OW22957   0.765   3.845   9.097  0.0310 -0.0222  0.5362
 3774SOL    HW122958   0.846   3.850   9.046  0.1140 -2.6735  0.4203
 3774SOL    HW222959   0.762   3.929   9.144  0.2021 -1.0344  2.3625
 3775SOL     OW22960   4.025   2.088   8.007 -1.0148  0.3558 -0.4565
 3775SOL    HW122961   4.009   2.130   8.092  0.5003  1.0474 -0.5032
 3775SOL    HW222962   3.944   2.116   7.965 -2.4213  1.2422  2.8377
 3776SOL     OW22963   3.062   2.538   1.893  0.1254  0.5106  1.0172
 3776SOL    HW122964   3.144   2.555   1.846 -0.2973 -1.0695 -0.2796
 3776SOL    HW222965   3.085   2.565   1.982 -1.1601 -0.7645  1.7337
 3777SOL     OW22966   2.881   3.597   5.364  0.7139 -0.3174  0.1198
 3777SOL    HW122967   2.962   3.547   5.376  1.5235  0.7582 -0.8679
 3777SOL    HW222968   2.847   3.573   5.450  0.6786 -0.1447  0.1536
 3778SOL     OW22969   4.056   1.925  12.652 -0.1200 -0.7440  0.0736
 3778SOL    HW122970   4.065   1.895  12.743 -0.2472  1.2129  0.7205
 3778SOL    HW222971   4.038   1.842  12.608 -1.1797 -0.6994  0.4380
 3779SOL     OW22972   3.284   0.321   7.456  0.3197 -0.4229  0.1134
 3779SOL    HW122973   3.199   0.310   7.415  0.8312  0.5035 -1.1739
 3779SOL    HW222974   3.251   0.344   7.543 -0.4614 -2.9487  0.4651
 3780SOL     OW22975   4.202   1.104   7.939  0.2752  0.5094  0.2193
 3780SOL    HW122976   4.173   1.096   8.030  0.1868  1.5090  0.2761
 3780SOL    HW222977   4.145   1.031   7.915  0.4668  0.4943 -0.1899
 3781SOL     OW22978   1.298   2.056   1.468 -0.1672  0.1992  0.2119
 3781SOL    HW122979   1.271   2.071   1.559 -0.0814  0.6948  0.1572
 3781SOL    HW222980   1.385   2.021   1.487 -0.9257 -1.0471  1.3780
 3782SOL     OW22981   4.142   1.061   5.437 -0.3489  0.1738 -0.6194
 3782SOL    HW122982   4.083   0.986   5.434 -1.4335  0.8862  2.2045
 3782SOL    HW222983   4.220   1.034   5.390  0.3847  0.4024  0.4504
 3783SOL     OW22984   2.901   3.198   5.561 -0.4376 -0.2787 -0.1962
 3783SOL    HW122985   2.884   3.226   5.471 -0.4138 -1.9281 -0.6943
 3783SOL    HW222986   2.960   3.124   5.550  1.3473  1.3295 -1.4292
 3784SOL     OW22987   3.870   4.321   4.629 -0.2346 -0.0553  0.1252
 3784SOL    HW122988   3.862   4.231   4.661  0.2856  0.2595  1.1292
 3784SOL    HW222989   3.782   4.328   4.592  0.8409 -1.2617 -2.6841
 3785SOL     OW22990   0.397   3.737   3.344  0.3205  0.2407 -0.7799
 3785SOL    HW122991   0.454   3.727   3.420 -1.4085 -0.7987  0.3763
 3785SOL    HW222992   0.470   3.744   3.282 -0.7796  0.0778 -2.0958
 3786SOL     OW22993   3.500   1.478   1.635 -0.7118 -0.3494  0.1728
 3786SOL    HW122994   3.569   1.413   1.624 -1.3927 -0.9664 -0.4213
 3786SOL    HW222995   3.539   1.565   1.627 -0.2808 -0.6521 -0.9502
 3787SOL     OW22996   4.718   0.218   3.629 -0.7779 -0.4068  0.7049
 3787SOL    HW122997   4.737   0.220   3.535 -1.4571  0.4076  0.5872
 3787SOL    HW222998   4.629   0.185   3.639 -0.6919 -1.2558 -1.3616
 3788SOL     OW22999   2.900   4.295  11.469  0.3697 -0.1779  0.0953
 3788SOL    HW123000   2.838   4.322  11.401 -0.5278 -1.3790  0.4474
 3788SOL    HW223001   2.879   4.349  11.545  0.2851 -0.2515  0.1245
 3789SOL     OW23002   2.552   3.635   2.167 -0.4935  0.5037 -0.5132
 3789SOL    HW123003   2.492   3.702   2.199  0.4086  0.3416  1.5024
 3789SOL    HW223004   2.589   3.610   2.252 -0.1605 -1.1434 -1.1342
 3790SOL     OW23005   1.601   4.402   2.916 -0.1683 -0.0150  0.0890
 3790SOL    HW123006   1.635   4.469   2.857 -1.2488  1.0896  0.7308
 3790SOL    HW223007   1.623   4.443   3.000  0.6250  2.8525 -1.5363
 3791SOL     OW23008   1.010   1.792   8.012 -0.0124 -0.3855 -0.3499
 3791SOL    HW123009   1.061   1.855   7.962  1.8903 -0.2526  1.7676
 3791SOL    HW223010   0.926   1.802   7.967  1.2154 -0.4095 -2.6857
 3792SOL     OW23011   3.951   0.037   6.253 -0.1800 -0.3008  0.3835
 3792SOL    HW123012   3.990   0.007   6.335 -1.1624 -1.3836  0.4598
 3792SOL    HW223013   3.859   0.017   6.270 -0.3393  2.5433  3.0029
 3793SOL     OW23014   2.298   0.216  10.755 -0.1400 -0.2732 -0.1556
 3793SOL    HW123015   2.239   0.162  10.704  0.3938  0.2164 -1.2896
 3793SOL    HW223016   2.281   0.193  10.847  0.6467 -1.0482 -0.1980
 3794SOL     OW23017   2.581   3.314   7.224 -0.3299 -0.7809 -0.0245
 3794SOL    HW123018   2.624   3.243   7.177 -0.4940 -0.7366 -0.2414
 3794SOL    HW223019   2.601   3.299   7.317 -0.8045 -1.6444 -0.0639
 3795SOL     OW23020   3.252   4.466   7.776 -0.2866 -0.2862  0.8699
 3795SOL    HW123021   3.251   4.376   7.743 -0.0507 -0.5433  1.5596
 3795SOL    HW223022   3.339   4.479   7.813  0.9989  0.2533 -2.3719
 3796SOL     OW23023   1.756   4.019   1.971  0.1276  0.1494 -0.1566
 3796SOL    HW123024   1.679   4.020   2.028 -0.3390  0.1695 -0.7792
 3796SOL    HW223025   1.790   3.934   1.995 -0.8330 -0.8023 -2.0897
 3797SOL     OW23026   0.484   1.582   6.646  0.3462 -0.1484  0.5192
 3797SOL    HW123027   0.570   1.625   6.648 -0.6074  1.6956  2.0948
 3797SOL    HW223028   0.484   1.512   6.710  1.9966 -0.5385  0.1082
 3798SOL     OW23029   4.377   1.077   9.589 -1.1143  0.1743  0.0898
 3798SOL    HW123030   4.386   1.033   9.505 -1.8236  1.4077 -0.6336
 3798SOL    HW223031   4.361   1.005   9.650 -0.6742 -0.1125 -0.1390
 3799SOL     OW23032   0.913   1.238   2.846 -0.2693 -0.4723 -0.2783
 3799SOL    HW123033   0.999   1.277   2.858 -0.3153 -1.4519  3.1759
 3799SOL    HW223034   0.942   1.159   2.800 -1.5511 -1.1396  0.0693
 3800SOL     OW23035   1.651   0.832   6.957 -0.0491  0.0092 -0.3394
 3800SOL    HW123036   1.688   0.893   7.021 -2.1406  0.0599  0.8252
 3800SOL    HW223037   1.667   0.750   7.003 -1.6971  0.7877  1.6115
 3801SOL     OW23038   2.377   0.116   8.375  0.4932  0.5537  0.0173
 3801SOL    HW123039   2.423   0.133   8.457 -0.0787 -1.5375  0.7627
 3801SOL    HW223040   2.451   0.091   8.319  0.9244 -0.3896  1.0346
 3802SOL     OW23041   2.007   2.482  15.959  0.3599  0.3897  0.1569
 3802SOL    HW123042   2.085   2.433  15.985  1.7109  1.4945 -1.7957
 3802SOL    HW223043   2.037   2.573  15.962  0.2753  0.3929  1.0258
 3803SOL     OW23044   1.666   2.046   2.555 -0.0498  0.4480 -0.0583
 3803SOL    HW123045   1.640   1.954   2.564 -1.0234  0.9913  2.7526
 3803SOL    HW223046   1.705   2.066   2.641 -1.3507  1.0901  0.3879
 3804SOL     OW23047   0.902   4.072   9.208 -0.4882 -0.5220  0.1788
 3804SOL    HW123048   0.918   4.120   9.126  3.2274 -0.8853  0.6772
 3804SOL    HW223049   0.985   4.026   9.222 -0.1458  0.3951  1.1166
 3805SOL     OW23050   1.418   2.254  14.964 -0.3155  0.1140 -0.1660
 3805SOL    HW123051   1.393   2.311  14.892  3.1265 -0.3802 -1.7220
 3805SOL    HW223052   1.488   2.306  15.003 -0.8349  0.1263  0.7601
 3806SOL     OW23053   3.730   0.501   1.754  0.5084 -0.3520  0.4662
 3806SOL    HW123054   3.775   0.563   1.697 -0.3024  1.4355  1.7601
 3806SOL    HW223055   3.795   0.431   1.753  1.8708  0.8866  1.0368
 3807SOL     OW23056   4.542   3.848   8.332 -0.3940  0.0414 -0.0240
 3807SOL    HW123057   4.569   3.792   8.405  1.1430 -1.0912 -1.4515
 3807SOL    HW223058   4.461   3.807   8.301 -1.0588  1.0517  0.4073
 3808SOL     OW23059   1.180   3.347  17.677 -0.3339  0.1817 -0.7082
 3808SOL    HW123060   1.084   3.348  17.673 -0.4198  1.4679  1.0898
 3808SOL    HW223061   1.184   3.304  17.763  0.8861 -0.5640 -1.1434
 3809SOL     OW23062   4.355   4.279   0.557 -0.5501 -0.4424 -0.1371
 3809SOL    HW123063   4.429   4.220   0.574 -0.8702 -0.7695  0.1169
 3809SOL    HW223064   4.353   4.322   0.643  0.1113  0.6716 -0.6807
 3810SOL     OW23065   1.801   2.090   3.730 -0.4765 -0.1189  0.2438
 3810SOL    HW123066   1.832   2.081   3.820 -0.1673 -0.3939  0.1073
 3810SOL    HW223067   1.797   1.998   3.704 -1.7037 -0.2994  1.0826
 3811SOL     OW23068   3.434   0.096   9.684 -0.0972 -0.3463  0.4913
 3811SOL    HW123069   3.355   0.043   9.689 -1.7724  2.1333  0.6718
 3811SOL    HW223070   3.423   0.123   9.593 -2.8706  3.9406  2.0796
 3812SOL     OW23071   0.645   2.441  14.673 -0.4115  0.3916 -0.5706
 3812SOL    HW123072   0.642   2.460  14.580  1.6745  0.5067 -0.6239
 3812SOL    HW223073   0.551   2.436  14.690 -0.4501 -0.3386 -1.0380
 3813SOL     OW23074   1.351   4.615   8.980  0.3316  0.6042 -0.0343
 3813SOL    HW123075   1.322   4.539   9.030  0.1538  0.8301  0.2063
 3813SOL    HW223076   1.306   4.605   8.895 -3.0775  0.2528  1.8052
 3814SOL     OW23077   4.741   1.172   2.839 -0.4138 -0.6506  0.1408
 3814SOL    HW123078   0.045   1.168   2.921 -0.1537 -1.7171 -0.0662
 3814SOL    HW223079   0.073   1.184   2.782  0.3959 -0.3827  1.2800
 3815SOL     OW23080   3.298   0.052   4.418  0.1527 -0.1458 -0.0434
 3815SOL    HW123081   3.390   0.072   4.399  0.2278 -0.6501 -0.2115
 3815SOL    HW223082   3.282   0.077   4.509 -0.2499  2.3446 -0.7807
 3816SOL     OW23083   2.049   2.136  16.686  0.2951  0.2037  0.3015
 3816SOL    HW123084   2.025   2.050  16.721 -2.1303  0.1121 -1.5719
 3816SOL    HW223085   2.124   2.105  16.635  0.1922  2.5877 -1.3040
 3817SOL     OW23086   0.542   1.778   2.547 -0.5441 -0.5584  0.5213
 3817SOL    HW123087   0.469   1.820   2.502 -0.7223 -0.0829  1.2422
 3817SOL    HW223088   0.614   1.836   2.522 -1.9663  0.0065 -2.1354
 3818SOL     OW23089   3.357   0.158   6.334  0.6704 -0.0999 -0.0855
 3818SOL    HW123090   3.442   0.172   6.292  1.3358 -2.8929  0.3550
 3818SOL    HW223091   3.335   0.070   6.306 -0.0246  0.5899 -1.6945
 3819SOL     OW23092   1.517   3.765  15.390 -0.2886 -0.2895 -0.0799
 3819SOL    HW123093   1.501   3.776  15.484 -0.3553  0.7477 -0.2107
 3819SOL    HW223094   1.437   3.722  15.361 -0.3001 -0.3475  0.0370
 3820SOL     OW23095   1.073   0.945   6.303 -0.6580  0.2459 -0.1796
 3820SOL    HW123096   1.026   0.927   6.385  0.1269  0.6229  0.3467
 3820SOL    HW223097   1.142   1.009   6.323  0.7278 -0.9565 -1.1532
 3821SOL     OW23098   2.859   2.469  11.925  0.3466 -0.3823 -0.4231
 3821SOL    HW123099   2.954   2.456  11.919  0.5939  1.0851  0.5685
 3821SOL    HW223100   2.852   2.532  11.996  1.0429 -1.0749  0.2595
 3822SOL     OW23101   2.778   3.474   2.913  0.4779 -0.1624  0.0123
 3822SOL    HW123102   2.700   3.488   2.967 -0.2326 -1.5158 -0.6675
 3822SOL    HW223103   2.838   3.422   2.966 -0.5509 -1.1300  0.2329
 3823SOL     OW23104   2.366   3.602   4.721 -0.6098 -0.3521 -0.0330
 3823SOL    HW123105   2.370   3.692   4.688 -1.1640  0.2027  1.4155
 3823SOL    HW223106   2.271   3.587   4.722 -0.5172 -0.9014  1.2105
 3824SOL     OW23107   4.608   3.869  13.386 -0.0007 -0.3309  0.4521
 3824SOL    HW123108   4.632   3.840  13.297 -1.1148  1.8011 -0.5455
 3824SOL    HW223109   4.669   3.822  13.443  0.9654  0.8901  0.4276
 3825SOL     OW23110   3.339   1.067   3.993 -0.5459  0.1525 -0.0140
 3825SOL    HW123111   3.311   1.029   3.910 -3.4804  0.9410  0.6144
 3825SOL    HW223112   3.341   1.161   3.976 -0.1071 -0.2717 -2.3513
 3826SOL     OW23113   0.688   0.884   0.231  0.1602  0.1153  0.7441
 3826SOL    HW123114   0.673   0.972   0.195  5.1753  0.0057 -1.6950
 3826SOL    HW223115   0.651   0.827   0.164 -3.4581  3.1952  0.0948
 3827SOL     OW23116   2.955   4.228   2.142 -0.5571  0.0442 -0.0573
 3827SOL    HW123117   3.013   4.279   2.199 -0.4495  0.6447 -0.7053
 3827SOL    HW223118   3.010   4.212   2.066  0.4597  1.5252  0.3661
 3828SOL     OW23119   0.197   4.599   6.125  0.0012  0.1890  0.5157
 3828SOL    HW123120   0.155   4.665   6.070  1.3012  0.3706 -0.2625
 3828SOL    HW223121   0.125   4.588   6.187 -0.6706 -4.2927 -1.0715
 3829SOL     OW23122   1.549   2.959   2.324  0.3125  0.4022  0.6027
 3829SOL    HW123123   1.488   2.886   2.314  2.2355 -1.1885  0.3308
 3829SOL    HW223124   1.509   3.016   2.389 -0.2241  0.2523  0.4049
 3830SOL     OW23125   0.274   1.375  14.945 -0.2184 -0.3435 -0.4321
 3830SOL    HW123126   0.364   1.353  14.918 -0.0610 -1.2266  0.8712
 3830SOL    HW223127   0.277   1.371  15.040 -1.8022 -0.7452 -0.4121
 3831SOL     OW23128   3.183   4.381   6.164  0.0592 -0.4150 -0.5165
 3831SOL    HW123129   3.133   4.317   6.215  0.7449 -0.8580 -0.3994
 3831SOL    HW223130   3.265   4.332   6.170 -0.2559 -0.9633 -0.6585
 3832SOL     OW23131   0.772   4.211  16.881  0.2613  0.6306  0.1927
 3832SOL    HW123132   0.812   4.127  16.904 -1.8492 -0.6300 -0.6968
 3832SOL    HW223133   0.753   4.200  16.788  0.5756 -1.0576  0.3326
 3833SOL     OW23134   2.727   3.506   9.646  0.0929  0.1026  0.4158
 3833SOL    HW123135   2.684   3.439   9.700  0.0758 -2.7733 -3.1523
 3833SOL    HW223136   2.812   3.512   9.691  1.4106  0.6644 -2.1606
 3834SOL     OW23137   1.614   4.251   8.262  0.4061  0.2704  0.2650
 3834SOL    HW123138   1.704   4.254   8.229  0.2601  1.8797  0.0227
 3834SOL    HW223139   1.598   4.157   8.256  0.9266  0.1170  1.2566
 3835SOL     OW23140   1.097   3.525   9.532 -0.1356 -0.4263  0.6763
 3835SOL    HW123141   1.112   3.615   9.561 -3.3196  0.0983  0.6831
 3835SOL    HW223142   1.005   3.537   9.510  0.2958 -1.8535 -1.9577
 3836SOL     OW23143   3.988   3.352   9.784 -0.9129 -0.0838  0.4410
 3836SOL    HW123144   3.924   3.422   9.797  0.7974  1.1579  1.9767
 3836SOL    HW223145   4.052   3.387   9.846  0.2989  0.4094 -1.0930
 3837SOL     OW23146   4.711   2.513   4.299 -0.1416 -0.0988  0.2964
 3837SOL    HW123147   4.695   2.469   4.216 -0.0627  0.4311 -0.0035
 3837SOL    HW223148   4.716   2.444   4.364 -0.0010  1.0338  1.4954
 3838SOL     OW23149   3.535   0.058   6.512 -0.5395 -0.4596  0.2728
 3838SOL    HW123150   3.443   0.074   6.489  0.0370 -1.2069 -2.5435
 3838SOL    HW223151   3.566   0.140   6.551  2.1415 -0.8510 -1.0881
 3839SOL     OW23152   1.816   1.462   6.859 -0.3384 -0.2243 -0.0530
 3839SOL    HW123153   1.840   1.369   6.860 -0.7407 -0.3313 -0.4970
 3839SOL    HW223154   1.734   1.461   6.908 -0.7622  1.6490 -0.7451
 3840SOL     OW23155   4.176   2.065  17.204  0.0788 -0.1149 -0.1411
 3840SOL    HW123156   4.124   2.100  17.277  1.9023  0.2080  1.0000
 3840SOL    HW223157   4.248   2.128  17.196  0.8849 -1.5097 -3.7713
 3841SOL     OW23158   1.711   3.903   2.629  0.2779  0.4634 -0.1391
 3841SOL    HW123159   1.662   3.847   2.569 -0.1000  1.3552 -0.6697
 3841SOL    HW223160   1.681   3.992   2.607  3.4482  1.2293 -1.3631
 3842SOL     OW23161   3.203   2.117   5.697  0.1919 -0.0918 -0.1227
 3842SOL    HW123162   3.175   2.060   5.769 -0.5828 -1.3730 -1.4483
 3842SOL    HW223163   3.144   2.096   5.625  2.3243 -2.4255 -1.1558
 3843SOL     OW23164   4.730   4.285   5.249  0.8065 -0.3503 -0.1724
 3843SOL    HW123165   0.064   4.228   5.247  1.4726  0.4940  1.5697
 3843SOL    HW223166   4.657   4.227   5.269 -0.1395  0.4974 -1.2302
 3844SOL     OW23167   0.345   2.116   1.503 -0.4646 -0.2406  0.1802
 3844SOL    HW123168   0.294   2.168   1.566 -0.6105 -0.4115  0.2036
 3844SOL    HW223169   0.320   2.026   1.522 -1.3341  0.6704  3.4291
 3845SOL     OW23170   3.122   4.032   2.428  0.0899  0.4373 -0.2636
 3845SOL    HW123171   3.114   3.938   2.412  0.5851  0.3663 -0.1070
 3845SOL    HW223172   3.212   4.041   2.395  0.1072  0.0754 -0.3148
 3846SOL     OW23173   2.309   2.108   8.637  0.1347  0.5088  0.1959
 3846SOL    HW123174   2.390   2.069   8.601  0.7744  0.0842  2.1159
 3846SOL    HW223175   2.303   2.044   8.708  0.2878  0.7666  0.4417
 3847SOL     OW23176   3.855   0.386   4.254 -0.3869 -0.0790 -0.9896
 3847SOL    HW123177   3.861   0.419   4.343  0.2150  1.5817 -1.6533
 3847SOL    HW223178   3.806   0.459   4.218 -3.7790 -1.6258  0.5246
 3848SOL     OW23179   1.257   3.895   6.041  0.4323 -0.0304 -0.4497
 3848SOL    HW123180   1.299   3.835   5.980  1.0146 -1.9862  1.8777
 3848SOL    HW223181   1.258   3.842   6.120 -4.1859 -1.2825 -1.2424
 3849SOL     OW23182   2.728   0.332  13.856 -0.3289  0.0294  0.1826
 3849SOL    HW123183   2.634   0.349  13.868  0.0303  2.0793  0.1234
 3849SOL    HW223184   2.724   0.238  13.842  0.1335  0.2117 -1.1415
 3850SOL     OW23185   0.132   2.059   2.169  0.2839 -0.1988 -0.3293
 3850SOL    HW123186   0.095   2.005   2.239  0.5480  0.4285  0.2837
 3850SOL    HW223187   0.166   2.135   2.216 -0.8488  0.3115 -0.3475
 3851SOL     OW23188   2.560   1.612   4.360 -0.2101 -0.1181 -0.2081
 3851SOL    HW123189   2.474   1.569   4.356 -0.8415  1.0251  1.1188
 3851SOL    HW223190   2.585   1.595   4.269 -2.7305 -0.3098 -0.8592
 3852SOL     OW23191   2.813   0.923  16.380  0.1996  0.0211 -0.2055
 3852SOL    HW123192   2.753   0.849  16.368 -0.8182  0.6814  0.8168
 3852SOL    HW223193   2.772   0.951  16.462  1.8990 -1.8141  1.2729
 3853SOL     OW23194   0.869   2.223   5.394 -0.3534  0.1645  0.4783
 3853SOL    HW123195   0.854   2.135   5.428 -3.0157 -0.5627 -2.5405
 3853SOL    HW223196   0.780   2.258   5.407 -0.5916  1.2583 -3.7964
 3854SOL     OW23197   2.741   0.060  11.039 -0.5148  0.0164 -0.7687
 3854SOL    HW123198   2.674   0.127  11.028 -1.0971 -0.3416  0.6169
 3854SOL    HW223199   2.810   0.112  10.996  0.4037 -0.4531  0.1345
 3855SOL     OW23200   4.432   2.529  12.440  0.0594  0.2732  0.0415
 3855SOL    HW123201   4.505   2.504  12.497  0.1666 -0.8347 -0.5872
 3855SOL    HW223202   4.459   2.620  12.423  0.9799 -0.2135 -1.0577
 3856SOL     OW23203   1.511   0.344   7.611  0.0259  0.0503  0.3266
 3856SOL    HW123204   1.555   0.428   7.620 -1.0940  0.6674  0.0064
 3856SOL    HW223205   1.482   0.342   7.520  0.8626 -0.0037  0.0694
 3857SOL     OW23206   1.498   1.295   5.068 -0.1064 -0.1822 -0.4506
 3857SOL    HW123207   1.503   1.289   5.163  3.4346 -2.1917 -0.7766
 3857SOL    HW223208   1.404   1.302   5.048 -0.1475  1.0205  0.1564
 3858SOL     OW23209   1.138   1.846  15.462  0.0022  0.1864  0.0194
 3858SOL    HW123210   1.152   1.917  15.399 -1.2381 -0.6633 -1.2068
 3858SOL    HW223211   1.156   1.889  15.545  0.1180 -2.1245  1.2063
 3859SOL     OW23212   0.522   2.862  11.594  0.1416 -0.2899 -0.4489
 3859SOL    HW123213   0.509   2.854  11.499 -3.4655  1.5630 -0.1126
 3859SOL    HW223214   0.501   2.776  11.629 -2.7417  0.9847  0.9355
 3860SOL     OW23215   4.534   4.510   4.465 -0.6273  0.2416  0.1967
 3860SOL    HW123216   4.536   4.589   4.521 -0.6031 -2.0937  3.5027
 3860SOL    HW223217   4.617   4.469   4.488 -0.7122 -0.0437 -0.0098
 3861SOL     OW23218   2.278   1.342   1.125 -0.3131 -0.5883  0.0368
 3861SOL    HW123219   2.265   1.359   1.218 -1.5186 -0.5557 -0.1449
 3861SOL    HW223220   2.309   1.426   1.089  1.1013 -0.2240  2.0971
 3862SOL     OW23221   4.620   1.281   6.979 -0.0173 -0.1051  0.1056
 3862SOL    HW123222   4.597   1.281   7.072 -2.6148  0.3592 -0.5276
 3862SOL    HW223223   4.710   1.312   6.986 -0.1728  0.6228 -1.0559
 3863SOL     OW23224   4.303   1.699   2.896 -0.6450 -0.4116  0.3874
 3863SOL    HW123225   4.330   1.690   2.805  0.3925  1.7048  0.4823
 3863SOL    HW223226   4.269   1.788   2.896  1.7335  0.4737 -0.1907
 3864SOL     OW23227   3.496   1.403  17.458 -0.0411  0.1878 -0.0134
 3864SOL    HW123228   3.551   1.466  17.504  2.3827 -2.0231  0.0649
 3864SOL    HW223229   3.424   1.389  17.520 -1.4512  0.2411 -1.6269
 3865SOL     OW23230   0.645   3.972   8.738  0.0080  0.2911  0.4560
 3865SOL    HW123231   0.694   3.890   8.740  2.4195  1.6792 -0.7281
 3865SOL    HW223232   0.653   3.979   8.643 -0.4543  1.5933  0.5142
 3866SOL     OW23233   4.101   4.657   8.755 -0.6917  0.6414 -0.3705
 3866SOL    HW123234   4.195   4.666   8.769 -1.0619 -0.2819  2.5234
 3866SOL    HW223235   4.086   4.576   8.804 -2.0114  1.1706  0.1085
 3867SOL     OW23236   0.919   1.160  15.630  0.2120 -0.3369 -0.4796
 3867SOL    HW123237   0.984   1.097  15.662 -1.4956 -2.3405 -0.9475
 3867SOL    HW223238   0.884   1.114  15.554 -0.2852 -0.6842 -0.0341
 3868SOL     OW23239   4.203   4.149   4.500  0.3440 -0.9108  0.0412
 3868SOL    HW123240   4.267   4.155   4.571  1.5100 -2.3314 -0.8712
 3868SOL    HW223241   4.212   4.238   4.467 -0.3506 -0.9269 -0.2065
 3869SOL     OW23242   4.331   4.258   6.766 -0.7775  0.5252  0.2857
 3869SOL    HW123243   4.261   4.322   6.780 -2.3890 -1.1833  0.1105
 3869SOL    HW223244   4.285   4.201   6.703  1.2481 -0.4758 -0.2928
 3870SOL     OW23245   3.445   1.216   7.510  0.3512 -0.2511  0.0380
 3870SOL    HW123246   3.448   1.253   7.598  0.4078 -0.8258  0.2735
 3870SOL    HW223247   3.537   1.207   7.485  0.2536  1.9770 -1.2095
 3871SOL     OW23248   4.187   1.231   4.015 -0.1350 -0.6798  0.1401
 3871SOL    HW123249   4.151   1.144   4.029 -0.2024 -0.6950 -0.1253
 3871SOL    HW223250   4.125   1.280   4.069 -0.4557 -1.0047  0.0615
 3872SOL     OW23251   1.751   1.619  13.974  0.0794 -0.5276 -0.1268
 3872SOL    HW123252   1.697   1.598  14.050  1.5724 -0.2884  1.0076
 3872SOL    HW223253   1.689   1.587  13.909  0.7742 -1.4453 -0.3413
 3873SOL     OW23254   1.895   1.749   1.216  0.3362  0.1917  0.0716
 3873SOL    HW123255   1.974   1.745   1.271  0.8781  1.1030 -0.6337
 3873SOL    HW223256   1.918   1.680   1.154 -0.9172  0.3608 -0.5781
 3874SOL     OW23257   0.885   2.325   4.152 -0.1367  0.6473  0.0962
 3874SOL    HW123258   0.789   2.331   4.151  0.0627  3.2975 -1.2213
 3874SOL    HW223259   0.920   2.411   4.129  0.1755  0.9699  1.7488
 3875SOL     OW23260   2.461   0.023  12.758  0.6809  0.4204 -0.1894
 3875SOL    HW123261   2.389   0.069  12.713 -1.0901 -0.1545  2.0696
 3875SOL    HW223262   2.460   0.043  12.851 -0.0499 -0.8628  0.0843
 3876SOL     OW23263   4.560   4.169  11.985 -0.3205 -0.4331 -0.2754
 3876SOL    HW123264   4.533   4.255  11.951 -0.8966 -0.2422  0.6846
 3876SOL    HW223265   4.473   4.128  11.987 -0.0267 -1.0954 -0.9500
 3877SOL     OW23266   1.775   2.370   3.765  0.0041 -0.3282 -0.0246
 3877SOL    HW123267   1.856   2.370   3.816 -1.4209  0.0131  2.2207
 3877SOL    HW223268   1.770   2.275   3.760  0.0708 -0.4161  1.4799
 3878SOL     OW23269   1.598   2.065  14.290  0.7510  0.1066 -0.3951
 3878SOL    HW123270   1.580   2.154  14.318 -1.1756 -0.1063 -0.9250
 3878SOL    HW223271   1.508   2.035  14.277  1.4200 -1.8100 -0.6357
 3879SOL     OW23272   1.373   0.241  12.171 -0.1798 -0.3492  0.1200
 3879SOL    HW123273   1.313   0.302  12.128  1.5640  1.2592 -0.0312
 3879SOL    HW223274   1.309   0.179  12.203 -1.2710  1.2564  1.0352
 3880SOL     OW23275   4.551   1.413   4.575 -0.9488  0.0382 -0.1530
 3880SOL    HW123276   4.596   1.343   4.623 -1.8338 -1.8329 -2.0471
 3880SOL    HW223277   4.493   1.441   4.646  3.8614  2.0506  3.0033
 3881SOL     OW23278   4.616   4.359   6.103 -0.5923  0.0371  0.7573
 3881SOL    HW123279   4.673   4.334   6.176 -0.1078 -2.6311 -0.5385
 3881SOL    HW223280   4.567   4.433   6.139 -0.5626 -0.0398  0.9542
 3882SOL     OW23281   3.541   0.386   7.514  0.2474 -0.0962  0.8011
 3882SOL    HW123282   3.603   0.335   7.463  1.1113 -0.3901  2.1408
 3882SOL    HW223283   3.455   0.355   7.485 -0.2888  3.2142 -1.1487
 3883SOL     OW23284   1.518   4.622   4.700 -0.2273 -0.5617 -0.4610
 3883SOL    HW123285   1.603   4.613   4.656  0.0994 -1.6420  0.3921
 3883SOL    HW223286   1.461   4.600   4.627  0.7981 -0.2566 -1.3644
 3884SOL     OW23287   4.264   4.493   1.883 -0.8302  0.8820 -0.3577
 3884SOL    HW123288   4.259   4.398   1.877  1.1678  0.8925 -2.4738
 3884SOL    HW223289   4.332   4.509   1.817 -0.0191  0.1181  0.2992
 3885SOL     OW23290   4.148   4.481   2.546  0.2835 -0.1384 -0.5327
 3885SOL    HW123291   4.170   4.529   2.466  2.4875  0.2769  0.3293
 3885SOL    HW223292   4.134   4.394   2.510  0.1624 -0.3795  0.1047
 3886SOL     OW23293   4.505   4.519  16.896  0.7197  0.2710 -0.0820
 3886SOL    HW123294   4.448   4.448  16.927 -0.7064  0.2788 -2.6493
 3886SOL    HW223295   4.550   4.534  16.979  2.6156  1.5615 -1.3536
 3887SOL     OW23296   1.368   3.588   5.710 -0.0212 -0.7037  0.0658
 3887SOL    HW123297   1.451   3.622   5.677 -0.1724 -0.2946  0.1025
 3887SOL    HW223298   1.363   3.651   5.782  3.0940  1.3088 -1.4713
 3888SOL     OW23299   0.136   3.094  15.470 -0.2719 -0.2430 -0.7788
 3888SOL    HW123300   0.171   3.005  15.471 -1.4939 -0.7114  0.9634
 3888SOL    HW223301   0.218   3.143  15.481 -0.5696 -0.0247  0.4727
 3889SOL     OW23302   1.095   1.576   1.405  0.5081 -0.1047 -0.4535
 3889SOL    HW123303   1.183   1.562   1.371  1.4917  1.1493  1.6152
 3889SOL    HW223304   1.050   1.493   1.386 -0.4456  0.1641  0.6317
 3890SOL     OW23305   0.082   4.514  13.225  0.0445  0.6988 -0.3310
 3890SOL    HW123306   0.006   4.484  13.276  1.9624 -1.3344  1.3446
 3890SOL    HW223307   0.136   4.435  13.224 -1.6223 -0.4570  0.2294
 3891SOL     OW23308   1.803   0.905   7.651 -0.3405  0.1639 -0.3118
 3891SOL    HW123309   1.737   0.965   7.687  0.4023  0.8047 -0.0212
 3891SOL    HW223310   1.869   0.975   7.649 -1.8473  1.6035  0.6673
 3892SOL     OW23311   0.298   2.387   1.178  0.4501 -0.3427  0.7529
 3892SOL    HW123312   0.376   2.346   1.215  0.5689 -1.9429 -1.2571
 3892SOL    HW223313   0.334   2.443   1.109  0.5144 -2.5418 -0.9790
 3893SOL     OW23314   0.036   2.842   1.874 -0.2293 -0.3086 -0.0007
 3893SOL    HW123315   0.044   2.836   1.969 -1.6082 -2.6423 -0.0420
 3893SOL    HW223316   0.129   2.851   1.854 -0.5656  1.2854 -0.8534
 3894SOL     OW23317   4.455   4.452   5.371  0.0959  0.3511  0.2334
 3894SOL    HW123318   4.470   4.358   5.365  0.0227  0.3421  0.1963
 3894SOL    HW223319   4.360   4.456   5.381  0.4371  0.8796  3.2802
 3895SOL     OW23320   0.523   0.059  10.397 -0.0207 -0.2200  0.4470
 3895SOL    HW123321   0.442   0.105  10.374  0.5280 -0.2338 -1.5068
 3895SOL    HW223322   0.486   4.718  10.421  0.2274 -0.2927  0.5675
 3896SOL     OW23323   3.779   0.670   1.957  0.2032 -0.1851 -0.3368
 3896SOL    HW123324   3.770   0.611   1.882 -1.9314 -1.7583  1.1495
 3896SOL    HW223325   3.805   0.603   2.020  0.2667 -0.3536 -0.5403
 3897SOL     OW23326   3.532   4.689   1.785 -0.1123  0.1296 -0.1466
 3897SOL    HW123327   3.587   0.020   1.763 -0.6992  0.9594  1.2477
 3897SOL    HW223328   3.446   4.702   1.746 -0.2365 -0.9624 -0.2489
 3898SOL     OW23329   4.494   0.007   7.096 -0.3551  0.0269 -0.2564
 3898SOL    HW123330   4.474   4.658   7.102 -0.1733  0.0546  0.7728
 3898SOL    HW223331   4.482   0.051   7.181  0.4972 -0.8027  0.2915
 3899SOL     OW23332   2.662   4.717   8.520  0.1533  0.5234 -0.2279
 3899SOL    HW123333   2.689   4.688   8.607  1.6576 -1.8983 -1.5028
 3899SOL    HW223334   2.667   4.637   8.467  0.4817  0.5191 -0.1895
 3900SOL     OW23335   2.577   2.519   2.730  0.3586  0.3726 -0.0053
 3900SOL    HW123336   2.529   2.551   2.654  1.4132  0.8090 -0.4953
 3900SOL    HW223337   2.643   2.589   2.728  0.6192  0.0720 -1.9838
 3901SOL     OW23338   1.682   3.159   3.010 -0.0824  0.1790  0.0874
 3901SOL    HW123339   1.661   3.067   2.991 -0.3571  0.3519 -0.4547
 3901SOL    HW223340   1.633   3.207   2.944  1.4995  1.2528 -0.3053
 3902SOL     OW23341   0.347   2.286   8.234  0.4025 -0.3174  0.1948
 3902SOL    HW123342   0.291   2.216   8.268 -0.1750 -0.5714 -1.2680
 3902SOL    HW223343   0.432   2.262   8.269  0.8583  1.3384  0.2190
 3903SOL     OW23344   2.829   1.350   1.568  0.4159 -0.7563 -0.0570
 3903SOL    HW123345   2.743   1.361   1.528  0.1101  2.0989  1.3865
 3903SOL    HW223346   2.860   1.438   1.590  0.9290 -1.0315  0.3237
 3904SOL     OW23347   2.198   0.116  14.430  0.2722 -0.1451  0.2873
 3904SOL    HW123348   2.186   0.211  14.438 -0.4864 -0.0656 -1.7169
 3904SOL    HW223349   2.117   0.083  14.469  0.7282 -0.4832  0.9534
 3905SOL     OW23350   1.681   2.469   3.285 -0.6840  0.9498  0.1640
 3905SOL    HW123351   1.607   2.408   3.289 -0.6302  0.8473 -0.4321
 3905SOL    HW223352   1.721   2.468   3.372  0.1179  5.4847 -0.1673
 3906SOL     OW23353   3.172   1.423  13.333 -0.1688  0.0770 -0.3451
 3906SOL    HW123354   3.132   1.489  13.391 -1.7793 -1.7425  0.5980
 3906SOL    HW223355   3.142   1.337  13.362  0.0715 -0.4137 -1.5787
 3907SOL     OW23356   1.757   0.383  13.277  0.4779  0.9088 -0.5268
 3907SOL    HW123357   1.821   0.368  13.207 -0.6896 -1.1202 -1.1491
 3907SOL    HW223358   1.753   0.479  13.277 -1.1923  0.8528 -1.0322
 3908SOL     OW23359   4.399   3.384   7.509 -0.4539 -0.9833  0.5229
 3908SOL    HW123360   4.351   3.343   7.580 -3.5593  2.5281  0.4980
 3908SOL    HW223361   4.480   3.340   7.534  1.0517  0.9306 -1.0082
 3909SOL     OW23362   4.028   4.182   3.116  0.0587  0.6789  0.0720
 3909SOL    HW123363   3.995   4.141   3.036  0.0479  0.1049  0.3676
 3909SOL    HW223364   4.109   4.223   3.087 -0.0972  0.6667 -0.3797
 3910SOL     OW23365   4.470   0.760   9.640 -0.6917 -0.6260 -0.3287
 3910SOL    HW123366   4.476   0.675   9.685 -1.1163 -0.1735  0.5945
 3910SOL    HW223367   4.430   0.820   9.703  0.8744 -1.7758  1.7994
 3911SOL     OW23368   1.076   0.574   3.652 -0.1351  0.0874 -0.0978
 3911SOL    HW123369   1.034   0.489   3.664  0.6923 -0.1503  1.1190
 3911SOL    HW223370   1.022   0.619   3.587 -1.7780 -0.5213  0.8410
 3912SOL     OW23371   1.060   4.732   2.995  0.8605  0.2621  0.0657
 3912SOL    HW123372   1.074   4.685   3.077  0.6673  1.9342  1.0566
 3912SOL    HW223373   0.964   4.731   2.994  0.8524  0.1226  1.1807
 3913SOL     OW23374   1.769   3.795   7.707  0.0317 -0.3307  0.0152
 3913SOL    HW123375   1.820   3.723   7.667  0.0866  0.6741 -1.7157
 3913SOL    HW223376   1.719   3.756   7.779  0.8810  1.0810  1.3735
 3914SOL     OW23377   0.926   1.517   2.609  0.2651  0.0180 -0.1729
 3914SOL    HW123378   0.938   1.502   2.515 -1.1988 -1.8057 -0.0761
 3914SOL    HW223379   0.999   1.576   2.629  0.1126  0.6558 -1.4730
 3915SOL     OW23380   0.769   3.881   5.936  0.1114 -0.4602 -0.6007
 3915SOL    HW123381   0.709   3.806   5.937 -0.2853 -0.1321  0.0136
 3915SOL    HW223382   0.709   3.944   5.895 -0.6301 -1.8615 -1.6676
 3916SOL     OW23383   3.383   0.712   7.304 -0.2328  0.1105  0.0251
 3916SOL    HW123384   3.348   0.790   7.346  2.0457  0.9044  0.4801
 3916SOL    HW223385   3.477   0.732   7.303 -0.1458 -0.4707 -2.7927
 3917SOL     OW23386   0.282   0.790   3.705  0.8536 -0.4708 -0.2499
 3917SOL    HW123387   0.198   0.750   3.683  1.7560 -1.0902 -2.5501
 3917SOL    HW223388   0.307   0.738   3.781 -1.4065 -2.2776 -0.7310
 3918SOL     OW23389   4.314   4.528   6.549 -0.2178  0.1290 -0.3510
 3918SOL    HW123390   4.318   4.602   6.611 -1.2723  0.2228 -0.3951
 3918SOL    HW223391   4.237   4.481   6.580  0.5910 -0.2577  1.0509
 3919SOL     OW23392   0.536   4.388   7.568  0.5700  0.5720 -0.0965
 3919SOL    HW123393   0.603   4.436   7.617 -0.2558  0.8252  0.7964
 3919SOL    HW223394   0.587   4.309   7.552 -0.1537 -0.0459  0.6246
 3920SOL     OW23395   4.030   2.468  10.453  0.6714 -0.3364 -0.7482
 3920SOL    HW123396   4.026   2.505  10.365  0.1588 -0.3122 -0.7148
 3920SOL    HW223397   4.105   2.413  10.431  1.1242  0.1285 -0.3627
 3921SOL     OW23398   1.422   0.056   1.766  0.2620 -0.3562  0.1002
 3921SOL    HW123399   1.446   0.033   1.855  2.0672 -0.4288 -0.4140
 3921SOL    HW223400   1.450   4.725   1.714  0.1350  1.4119 -2.5247
 3922SOL     OW23401   2.083   4.307   4.404  0.2683  0.4147 -0.2125
 3922SOL    HW123402   2.140   4.351   4.341 -1.3295 -0.9815 -2.6352
 3922SOL    HW223403   2.000   4.314   4.358  0.4122  0.5410 -0.4552
 3923SOL     OW23404   3.784   2.244   8.601 -0.1627  0.2601 -0.3100
 3923SOL    HW123405   3.794   2.185   8.527 -1.1746  0.3658 -0.5352
 3923SOL    HW223406   3.878   2.245   8.618  0.0740  1.7439 -1.7856
 3924SOL     OW23407   3.050   4.724  12.607  0.3464 -0.5562 -0.0530
 3924SOL    HW123408   3.027   0.064  12.646  0.5540 -0.5972  0.1522
 3924SOL    HW223409   3.038   0.006  12.516 -0.7785  0.4652  0.3905
 3925SOL     OW23410   0.670   4.294   8.388  0.6137 -0.0746  0.2138
 3925SOL    HW123411   0.664   4.285   8.293  0.9522  1.2038  0.0761
 3925SOL    HW223412   0.595   4.240   8.413  0.9953 -1.6885 -2.1777
 3926SOL     OW23413   1.214   1.009   5.989 -0.5046  0.0124  0.3778
 3926SOL    HW123414   1.267   0.941   6.029 -1.9394 -0.8281  0.8545
 3926SOL    HW223415   1.151   0.952   5.946 -0.3428  0.0785  0.0549
 3927SOL     OW23416   4.222   0.956  16.989 -0.0735 -0.2134 -0.2302
 3927SOL    HW123417   4.290   0.923  17.047 -1.3943  3.2301  3.2356
 3927SOL    HW223418   4.144   0.933  17.039 -0.6848 -0.9277 -1.5015
 3928SOL     OW23419   2.198   3.469   1.596  0.2721  0.0350 -0.3523
 3928SOL    HW123420   2.210   3.382   1.634  0.3713 -0.1395 -0.7851
 3928SOL    HW223421   2.145   3.448   1.519 -0.9400 -3.0108  1.3229
 3929SOL     OW23422   1.232   0.888   1.438  0.0559  0.3956 -0.0454
 3929SOL    HW123423   1.263   0.813   1.487  0.2467  0.8715  0.5596
 3929SOL    HW223424   1.142   0.859   1.423  0.0773  0.6716 -0.7205
 3930SOL     OW23425   2.730   0.185   8.366  0.4194 -0.6523 -0.1023
 3930SOL    HW123426   2.808   0.214   8.413  0.4077 -0.6594 -0.0788
 3930SOL    HW223427   2.713   0.103   8.412 -2.0357  0.8687  1.6885
 3931SOL     OW23428   3.940   2.475  16.309 -0.2558 -0.0972 -0.1304
 3931SOL    HW123429   3.882   2.449  16.237 -0.5277 -1.8709  0.7153
 3931SOL    HW223430   3.943   2.393  16.359  0.4864 -0.6230 -1.0328
 3932SOL     OW23431   2.001   3.284   4.028  0.3781 -0.0341  0.1282
 3932SOL    HW123432   1.978   3.293   4.120  0.5792 -0.0420  0.1784
 3932SOL    HW223433   2.062   3.210   4.024  1.5185  0.9644 -1.1730
 3933SOL     OW23434   4.589   3.448   0.134  0.6703  0.1952 -0.5554
 3933SOL    HW123435   4.507   3.439   0.183  0.6873  0.9915 -0.3707
 3933SOL    HW223436   4.621   3.534   0.162 -1.6270  0.8259  0.1230
 3934SOL     OW23437   2.553   1.703  11.303  0.3044 -0.0212  0.5107
 3934SOL    HW123438   2.594   1.702  11.217 -0.4760 -2.1892  0.1595
 3934SOL    HW223439   2.577   1.618  11.340 -1.2401 -0.8805 -0.4426
 3935SOL     OW23440   3.737   4.352   1.229 -0.0838  0.0959 -0.4520
 3935SOL    HW123441   3.687   4.429   1.200  1.2486  1.6058  1.2756
 3935SOL    HW223442   3.819   4.399   1.242 -0.6564  1.0084 -0.1737
 3936SOL     OW23443   2.890   4.309  17.252  0.0686 -0.4080  0.5589
 3936SOL    HW123444   2.820   4.322  17.316  3.0979 -0.6229  3.8951
 3936SOL    HW223445   2.845   4.308  17.168 -0.5508 -0.5634  0.8910
 3937SOL     OW23446   0.710   1.712   6.725  0.2780 -0.3333 -0.0240
 3937SOL    HW123447   0.697   1.790   6.671  2.1580 -0.7765 -1.1218
 3937SOL    HW223448   0.784   1.738   6.780 -1.1178 -1.8939  2.5902
 3938SOL     OW23449   3.454   2.772   6.324 -0.0714 -0.4843 -0.1852
 3938SOL    HW123450   3.400   2.842   6.360  0.0353 -0.6724  0.3425
 3938SOL    HW223451   3.507   2.826   6.265  0.3384  0.5119  1.0769
 3939SOL     OW23452   0.282   4.133   4.293  0.6099 -0.1468 -0.6120
 3939SOL    HW123453   0.319   4.081   4.222  0.4555  0.1619 -0.9203
 3939SOL    HW223454   0.268   4.062   4.356  0.8882 -0.4847 -0.9315
 3940SOL     OW23455   1.709   2.946   7.255  0.0653  0.5229 -0.3683
 3940SOL    HW123456   1.743   2.993   7.179  0.8195 -0.6447 -0.7456
 3940SOL    HW223457   1.711   3.021   7.316  0.4498  1.4523 -1.5157
 3941SOL     OW23458   3.764   2.448   5.344  0.0307  0.4406 -0.0555
 3941SOL    HW123459   3.695   2.382   5.355 -0.7523  1.1791 -0.5250
 3941SOL    HW223460   3.785   2.457   5.437 -0.5305  3.1933 -0.2133
 3942SOL     OW23461   4.110   2.412   0.106 -0.0362 -0.0465  0.5064
 3942SOL    HW123462   4.162   2.476   0.156  0.0137 -0.8883  1.5343
 3942SOL    HW223463   4.047   2.472   0.067 -0.1227 -0.7372 -0.4256
 3943SOL     OW23464   4.661   0.513   3.980 -0.5161  0.5362  0.5376
 3943SOL    HW123465   4.596   0.511   3.909  0.1492  0.1765 -0.0534
 3943SOL    HW223466   4.657   0.421   4.007 -1.0082  0.8750  1.6289
 3944SOL     OW23467   2.326   4.453   6.242 -0.1147  0.5371  0.1894
 3944SOL    HW123468   2.314   4.548   6.240 -0.8689  0.3876 -2.6128
 3944SOL    HW223469   2.254   4.417   6.191  1.0674 -0.6641 -0.6307
 3945SOL     OW23470   1.200   1.935   7.880 -0.7766  0.7516  0.1758
 3945SOL    HW123471   1.294   1.947   7.889 -1.1073  4.0336 -0.4581
 3945SOL    HW223472   1.184   1.929   7.786  0.1940 -2.8664  0.2759
 3946SOL     OW23473   0.949   2.005   9.843  0.3148  0.5897  0.1519
 3946SOL    HW123474   0.939   1.918   9.804  2.7648 -0.3526  1.6409
 3946SOL    HW223475   0.860   2.037   9.832 -0.1520 -1.8147 -2.8705
 3947SOL     OW23476   1.398   1.789   3.505 -0.0048  0.4496  0.5675
 3947SOL    HW123477   1.355   1.766   3.587  0.8283  0.0667  0.9031
 3947SOL    HW223478   1.456   1.713   3.497  1.2302  1.5951 -1.4277
 3948SOL     OW23479   4.354   3.360  11.570  0.1269 -0.1195  0.1888
 3948SOL    HW123480   4.374   3.295  11.503 -0.4485  0.9739 -1.0459
 3948SOL    HW223481   4.259   3.351  11.579 -0.0365  1.3023 -0.0541
 3949SOL     OW23482   2.751   3.516   6.181  0.3377  0.3840 -0.1537
 3949SOL    HW123483   2.765   3.450   6.113 -0.2572  0.2430 -0.1471
 3949SOL    HW223484   2.659   3.493   6.199 -0.4578  0.5345 -4.0197
 3950SOL     OW23485   0.559   0.458   2.688 -0.6000 -0.2597  0.2698
 3950SOL    HW123486   0.545   0.472   2.595 -1.7175 -0.3933  0.4158
 3950SOL    HW223487   0.479   0.412   2.714 -0.8441 -0.9971 -1.8577
 3951SOL     OW23488   1.114   4.066  11.218 -0.4745  0.3836  0.2713
 3951SOL    HW123489   1.179   4.115  11.168 -1.4288  0.0334 -1.3260
 3951SOL    HW223490   1.171   4.010  11.270  1.9930  0.8123 -1.9752
 3952SOL     OW23491   0.536   0.776   8.772  0.4057 -0.8028  0.0323
 3952SOL    HW123492   0.499   0.694   8.740  2.3048 -1.3144 -0.8953
 3952SOL    HW223493   0.497   0.833   8.706 -1.5124 -0.7306  1.2668
 3953SOL     OW23494   0.038   4.726   7.264  0.1330 -0.1470  0.2088
 3953SOL    HW123495   0.039   0.002   7.358  1.3423 -1.6448  0.5096
 3953SOL    HW223496   4.687   4.721   7.253  0.3179 -2.5203 -0.2878
 3954SOL     OW23497   1.159   1.385   6.036  0.2898  0.1377  0.0596
 3954SOL    HW123498   1.176   1.451   5.969 -1.4061  0.3605 -0.1361
 3954SOL    HW223499   1.066   1.374   6.015  0.3653 -1.2013  0.4569
 3955SOL     OW23500   3.472   1.057  12.212 -0.3655  0.1068 -0.1871
 3955SOL    HW123501   3.394   1.016  12.250 -0.9064  1.5965  0.3045
 3955SOL    HW223502   3.532   1.053  12.286 -1.0505 -3.2949  0.1995
 3956SOL     OW23503   3.951   2.292   1.055  0.0027  0.5999  1.0083
 3956SOL    HW123504   3.867   2.285   1.101  0.3579 -0.7083  1.4506
 3956SOL    HW223505   3.933   2.247   0.973  2.8015  1.1432  0.0719
 3957SOL     OW23506   4.304   3.522   3.667  0.5957 -0.3105  0.0681
 3957SOL    HW123507   4.224   3.567   3.694  1.1047  0.0573  0.9435
 3957SOL    HW223508   4.367   3.592   3.685 -0.5749  0.4340  1.2323
 3958SOL     OW23509   2.638   4.573   7.729 -0.3293 -0.2909  0.6768
 3958SOL    HW123510   2.581   4.497   7.740 -0.4455 -0.0711  1.6068
 3958SOL    HW223511   2.637   4.598   7.822  1.6755 -2.3163  1.2498
 3959SOL     OW23512   2.015   2.488   4.239  0.0762  0.3646 -0.0127
 3959SOL    HW123513   2.017   2.436   4.320 -0.7137 -1.0682 -0.9204
 3959SOL    HW223514   2.055   2.571   4.265 -0.5620  1.8535 -3.8114
 3960SOL     OW23515   4.138   1.619   4.742 -1.1128  0.1387 -0.2601
 3960SOL    HW123516   4.139   1.611   4.646 -0.1828  1.8349 -0.3989
 3960SOL    HW223517   4.050   1.647   4.766 -1.2519 -0.2402 -0.3250
 3961SOL     OW23518   4.207   3.684   1.893  0.2387  0.3763 -0.1138
 3961SOL    HW123519   4.287   3.689   1.839 -0.2304  0.3632 -0.8097
 3961SOL    HW223520   4.156   3.754   1.853  1.4314 -0.8186 -3.7782
 3962SOL     OW23521   1.959   2.849   3.217 -0.1011  0.2087 -0.6202
 3962SOL    HW123522   1.893   2.788   3.184 -2.5765  1.1960  2.4648
 3962SOL    HW223523   1.927   2.884   3.300 -0.4009 -1.7162  0.0612
 3963SOL     OW23524   0.751   2.311   6.022  0.0977  0.2241  0.4411
 3963SOL    HW123525   0.789   2.399   6.026 -2.6296  1.4318  0.4960
 3963SOL    HW223526   0.662   2.342   6.044 -0.3212 -0.4330 -0.3294
 3964SOL     OW23527   1.778   1.908   4.438 -0.3762 -0.1770 -0.8816
 3964SOL    HW123528   1.683   1.910   4.443 -0.4481  1.1189 -2.5108
 3964SOL    HW223529   1.789   1.813   4.442  0.7885  0.0757  1.8894
 3965SOL     OW23530   4.322   4.450   8.065  0.2266 -0.3684  0.0395
 3965SOL    HW123531   4.399   4.408   8.028 -1.0785 -1.1326 -1.7991
 3965SOL    HW223532   4.354   4.533   8.102 -0.1088  0.2151 -0.9766
 3966SOL     OW23533   4.584   4.548   5.028 -0.4989 -0.2973  0.0755
 3966SOL    HW123534   4.535   4.562   5.109 -0.4078 -1.6000  0.3539
 3966SOL    HW223535   4.524   4.489   4.982  0.3656 -1.2604  0.1909
 3967SOL     OW23536   2.067   1.174   3.050  0.1073  0.0739 -0.0588
 3967SOL    HW123537   2.007   1.152   3.121 -2.4026  1.2249 -1.7951
 3967SOL    HW223538   2.089   1.263   3.077 -0.8845  0.9240 -2.0146
 3968SOL     OW23539   3.813   0.657   5.398 -0.4175  0.6588  0.3798
 3968SOL    HW123540   3.750   0.690   5.334  0.1097 -0.3038 -0.6378
 3968SOL    HW223541   3.758   0.588   5.435 -0.4523  0.2836 -0.3743
 3969SOL     OW23542   0.318   4.622   3.982  0.2463  0.5856  0.0292
 3969SOL    HW123543   0.239   4.648   3.935 -0.0769  1.2533  0.9428
 3969SOL    HW223544   0.299   4.528   3.992 -0.3227  0.6970 -0.0024
 3970SOL     OW23545   2.415   3.611   9.300  0.0967 -0.0956 -0.1104
 3970SOL    HW123546   2.350   3.544   9.279  0.5661 -0.8853  0.9454
 3970SOL    HW223547   2.497   3.562   9.292  1.7181  2.3771  1.5199
 3971SOL     OW23548   2.626   3.809   9.262  0.6793  0.0257 -0.1513
 3971SOL    HW123549   2.536   3.784   9.284  1.3818 -1.6508  0.8098
 3971SOL    HW223550   2.675   3.728   9.275  0.4375  0.2748  2.2831
 3972SOL     OW23551   2.876   2.350   7.933  0.3357 -0.2616  0.3027
 3972SOL    HW123552   2.907   2.352   8.024  1.0698 -1.0044  0.0637
 3972SOL    HW223553   2.956   2.320   7.889  0.7546  1.0893  0.1482
 3973SOL     OW23554   2.082   2.643   3.791 -0.2530 -0.3921  0.7823
 3973SOL    HW123555   2.054   2.552   3.799  2.4113 -1.6227 -3.6758
 3973SOL    HW223556   2.090   2.664   3.884 -1.3982  0.0826  0.7697
 3974SOL     OW23557   0.845   2.972  17.304 -0.3344  0.0082  0.0384
 3974SOL    HW123558   0.844   2.965  17.209  1.8849 -3.3056  0.2665
 3974SOL    HW223559   0.938   2.979  17.325 -0.3842 -0.9221  0.5695
 3975SOL     OW23560   1.606   0.211  12.049  0.2675 -0.0299  0.1282
 3975SOL    HW123561   1.533   0.199  12.110  0.3204 -1.7310 -0.1315
 3975SOL    HW223562   1.564   0.281  11.999  0.3591 -0.5442 -0.6610
 3976SOL     OW23563   3.873   1.857   3.053 -0.2690 -0.2552 -0.4985
 3976SOL    HW123564   3.834   1.781   3.009 -0.5228 -1.8476  2.4971
 3976SOL    HW223565   3.920   1.885   2.974  0.3055  0.9372  0.2664
 3977SOL     OW23566   1.820   1.061   9.804  0.5569 -0.1256  0.4027
 3977SOL    HW123567   1.793   0.977   9.766  0.3453 -0.6633  1.7438
 3977SOL    HW223568   1.742   1.110   9.778  1.3104  0.7687 -0.1393
 3978SOL     OW23569   0.346   4.560  14.274  0.6214  0.2541  0.1003
 3978SOL    HW123570   0.431   4.518  14.284  0.5276 -0.6222 -2.8715
 3978SOL    HW223571   0.286   4.494  14.308  0.7786 -0.9280 -1.9057
 3979SOL     OW23572   3.747   1.206  17.709  0.1958  0.0451 -0.3730
 3979SOL    HW123573   3.682   1.273  17.729  0.4070  0.1757 -0.1282
 3979SOL    HW223574   3.809   1.211   0.010 -1.1645  0.4727  0.7508
 3980SOL     OW23575   1.368   4.042   9.192 -0.2023  0.5935  0.1104
 3980SOL    HW123576   1.387   4.035   9.098 -0.1931  1.0941  0.0727
 3980SOL    HW223577   1.275   4.020   9.197  0.0851 -1.1863 -1.9852
 3981SOL     OW23578   2.443   2.682  15.538 -0.6730 -0.7123  0.6225
 3981SOL    HW123579   2.456   2.622  15.464  2.0664 -0.3958  0.8473
 3981SOL    HW223580   2.348   2.681  15.552 -1.1038  1.0292 -2.1193
 3982SOL     OW23581   1.810   1.380   7.227  0.7064  0.0452 -0.6572
 3982SOL    HW123582   1.879   1.438   7.195  1.8040 -0.5584  0.6128
 3982SOL    HW223583   1.732   1.435   7.219 -1.1855 -2.2871  1.5378
 3983SOL     OW23584   3.499   2.529   6.257  0.5629  0.3935 -0.3169
 3983SOL    HW123585   3.465   2.570   6.178 -1.8929  0.3213  0.7295
 3983SOL    HW223586   3.519   2.613   6.298  0.7245 -0.5926  1.6310
 3984SOL     OW23587   2.662   3.491   3.228  0.6708  0.8403 -0.1375
 3984SOL    HW123588   2.683   3.400   3.250 -2.0580  0.1672 -0.3855
 3984SOL    HW223589   2.585   3.478   3.174  1.0735 -0.7426 -0.3424
 3985SOL     OW23590   1.153   0.051  13.533 -0.3786  0.1055 -0.6792
 3985SOL    HW123591   1.207   0.129  13.549 -1.7095  1.2767 -1.9855
 3985SOL    HW223592   1.168   0.029  13.441  1.3956  0.1755 -0.4145
 3986SOL     OW23593   0.139   0.114   6.660 -0.1633 -0.2404  0.0383
 3986SOL    HW123594   0.190   0.137   6.582  1.1317 -2.0552  0.3512
 3986SOL    HW223595   0.087   0.036   6.638 -1.5114  0.3645  1.0829
 3987SOL     OW23596   1.873   0.522   5.153 -0.2725 -0.1496  0.2674
 3987SOL    HW123597   1.826   0.564   5.081  1.9076  1.8292  0.0332
 3987SOL    HW223598   1.885   0.596   5.213  2.5141 -0.6984  0.3811
 3988SOL     OW23599   3.266   1.814   5.115 -0.4300 -0.2921  0.1189
 3988SOL    HW123600   3.275   1.733   5.065  0.1893 -1.8040  2.7084
 3988SOL    HW223601   3.312   1.871   5.052  0.2806  0.5398  1.3799
 3989SOL     OW23602   4.288   2.972   7.778  0.1861 -0.1193 -0.2398
 3989SOL    HW123603   4.217   2.949   7.838  0.4515 -1.2353 -0.3603
 3989SOL    HW223604   4.344   2.901   7.811  0.9525 -0.2899 -1.9522
 3990SOL     OW23605   0.423   3.377   2.211  0.2994  0.0402  0.1558
 3990SOL    HW123606   0.427   3.473   2.211 -1.1918  0.0966  2.4252
 3990SOL    HW223607   0.390   3.368   2.301 -2.4105 -0.0977 -0.8615
 3991SOL     OW23608   4.483   0.707  16.686 -0.2683  0.1090 -0.8013
 3991SOL    HW123609   4.516   0.794  16.662  2.7541 -0.9152 -0.2983
 3991SOL    HW223610   4.478   0.661  16.602  0.2694 -2.0563  0.3420
 3992SOL     OW23611   0.717   0.670   6.453  0.9210 -0.4008 -0.9165
 3992SOL    HW123612   0.639   0.681   6.507  0.8731 -1.6037 -0.7406
 3992SOL    HW223613   0.751   0.759   6.464  0.6817 -0.1844 -1.9402
 3993SOL     OW23614   3.884   3.602   9.524  0.0032 -0.2193 -0.0133
 3993SOL    HW123615   3.863   3.526   9.578 -0.5923  0.5297  0.8183
 3993SOL    HW223616   3.968   3.581   9.483  0.0599 -1.1098  0.5778
 3994SOL     OW23617   0.493   3.657   4.418 -0.3583 -0.3401 -0.3796
 3994SOL    HW123618   0.539   3.697   4.344 -0.6328  0.8018  0.0723
 3994SOL    HW223619   0.562   3.629   4.479 -0.1374  1.3000  0.1208
 3995SOL     OW23620   1.867   3.319   2.177 -0.1621  0.6609 -0.1525
 3995SOL    HW123621   1.801   3.249   2.170  2.6247 -1.9066 -0.7690
 3995SOL    HW223622   1.925   3.276   2.240 -0.3704  1.3625  0.5144
 3996SOL     OW23623   2.220   2.634   5.131 -0.0793 -0.7045 -0.3055
 3996SOL    HW123624   2.222   2.690   5.053  2.0054 -1.0451 -0.4758
 3996SOL    HW223625   2.300   2.583   5.132  0.9387  0.8707 -0.5159
 3997SOL     OW23626   0.893   0.673   8.117  0.9191  0.2568  0.0200
 3997SOL    HW123627   0.833   0.653   8.188 -0.2771  1.8895 -0.5474
 3997SOL    HW223628   0.953   0.599   8.130  0.9016  0.1392 -0.5549
 3998SOL     OW23629   2.666   0.351   3.381 -0.5014 -0.5282  0.3011
 3998SOL    HW123630   2.648   0.257   3.374  1.8593 -1.0317  1.0585
 3998SOL    HW223631   2.585   0.381   3.422  1.4240  3.3072  1.3030
 3999SOL     OW23632   3.060   4.590   4.975  0.2924 -0.1171  0.3405
 3999SOL    HW123633   3.066   4.684   4.992 -0.0669  0.0342 -0.4234
 3999SOL    HW223634   2.973   4.573   5.010  0.5962 -0.7793  0.7774
 4000SOL     OW23635   4.075   4.490  14.927  0.6803 -0.6265  0.2397
 4000SOL    HW123636   4.053   4.413  14.873  1.9413 -0.4756 -0.4831
 4000SOL    HW223637   4.156   4.511  14.882  0.4023 -1.2439 -0.5491
 4001SOL     OW23638   3.951   2.404   6.223 -0.1849  0.4117  0.0739
 4001SOL    HW123639   3.898   2.474   6.262 -0.5005 -1.1738  2.4762
 4001SOL    HW223640   4.039   2.423   6.254  1.0270 -1.3481 -2.2464
 4002SOL     OW23641   3.842   2.600   7.135 -0.1873 -0.1931  0.0677
 4002SOL    HW123642   3.877   2.534   7.075 -0.5255  0.0365 -0.3831
 4002SOL    HW223643   3.846   2.677   7.078  0.0684 -1.4285 -1.5622
 4003SOL     OW23644   3.564   4.217  12.476 -0.1396  0.3529 -0.1058
 4003SOL    HW123645   3.635   4.197  12.537  0.3373 -0.7289 -1.0107
 4003SOL    HW223646   3.616   4.239  12.400  1.3259  0.3377  0.8931
 4004SOL     OW23647   3.508   0.566   6.996 -0.0546 -0.1678 -0.4009
 4004SOL    HW123648   3.539   0.504   6.930  0.2830  0.4924 -0.8505
 4004SOL    HW223649   3.508   0.510   7.075 -0.9973  1.1163  0.5033
 4005SOL     OW23650   2.958   1.147  10.766  0.1574  0.4228 -0.2611
 4005SOL    HW123651   2.958   1.197  10.847  0.5556 -0.6896  0.4286
 4005SOL    HW223652   3.043   1.104  10.764  0.6226  1.2631  1.7797
 4006SOL     OW23653   1.388   3.593   9.902  0.4515  0.0912  0.1241
 4006SOL    HW123654   1.446   3.639   9.841  0.3549 -2.1186 -1.6246
 4006SOL    HW223655   1.301   3.621   9.875  0.3211 -0.5044 -0.0779
 4007SOL     OW23656   3.299   3.303   6.776  0.3968  0.1357  0.4273
 4007SOL    HW123657   3.356   3.229   6.757  0.3544 -0.1790  1.5184
 4007SOL    HW223658   3.268   3.315   6.686  0.7916 -0.4994  0.2060
 4008SOL     OW23659   1.288   0.533   5.525  0.7785  0.0635 -0.0907
 4008SOL    HW123660   1.211   0.513   5.576 -0.0399  0.8181 -1.0210
 4008SOL    HW223661   1.290   0.627   5.543  0.1059  0.0622 -0.0371
 4009SOL     OW23662   2.159   1.305   9.159 -0.4878 -0.0384 -0.0744
 4009SOL    HW123663   2.119   1.287   9.244  0.3646 -3.4657 -0.4192
 4009SOL    HW223664   2.234   1.246   9.157  0.2000  0.8085  0.9638
 4010SOL     OW23665   3.029   0.153  11.079  0.3287  0.6712 -0.0139
 4010SOL    HW123666   3.093   0.156  11.008  0.6606 -1.2369  0.1979
 4010SOL    HW223667   3.007   0.244  11.098 -2.9378 -0.0079 -0.5108
 4011SOL     OW23668   2.506   1.700   7.458 -0.8023 -0.0014 -0.8852
 4011SOL    HW123669   2.427   1.658   7.423 -0.3930 -0.7795 -0.8819
 4011SOL    HW223670   2.574   1.664   7.401  0.2633  1.2809 -0.3816
 4012SOL     OW23671   2.935   0.682   9.241  0.2308  0.5224  0.4222
 4012SOL    HW123672   3.008   0.728   9.199 -0.0156  1.1577  0.6781
 4012SOL    HW223673   2.909   0.752   9.301 -1.3114  1.1163 -0.9349
 4013SOL     OW23674   0.126   1.334   4.356  0.3613  0.1093  0.5606
 4013SOL    HW123675   0.158   1.319   4.444  1.1484 -1.1972  0.0489
 4013SOL    HW223676   0.067   1.409   4.370  0.8143  0.4094  0.8600
 4014SOL     OW23677   0.514   1.247   8.515  0.2669 -0.3660 -0.9330
 4014SOL    HW123678   0.426   1.228   8.483  0.3963 -3.8333  0.7855
 4014SOL    HW223679   0.502   1.327   8.567  1.5337 -0.3496 -0.6617
 4015SOL     OW23680   1.612   3.345  13.427  0.7841  0.7868 -0.1253
 4015SOL    HW123681   1.670   3.282  13.471  1.3831  0.1586 -1.8242
 4015SOL    HW223682   1.614   3.414  13.494  2.8806  0.4930  0.0999
 4016SOL     OW23683   3.621   1.912  11.250 -0.2639 -0.5540 -0.3174
 4016SOL    HW123684   3.623   1.912  11.154  0.0446 -0.5621 -0.3102
 4016SOL    HW223685   3.633   2.003  11.277 -0.3804 -1.4112  2.6092
 4017SOL     OW23686   2.882   2.743   3.503  0.1110  0.0947 -0.7810
 4017SOL    HW123687   2.826   2.803   3.551 -0.6527 -2.1078  1.0924
 4017SOL    HW223688   2.959   2.736   3.561  0.1621 -2.4988 -1.1650
 4018SOL     OW23689   0.066   4.231   9.118 -0.6087  0.5000  0.9017
 4018SOL    HW123690   0.026   4.302   9.168 -1.8723  0.3627  0.1072
 4018SOL    HW223691   4.726   4.193   9.091  0.9590 -0.1270 -3.1294
 4019SOL     OW23692   0.872   2.791   6.566 -0.0345  0.5058  0.3999
 4019SOL    HW123693   0.838   2.875   6.598 -0.3938  1.4800 -2.4869
 4019SOL    HW223694   0.819   2.729   6.615  0.7148 -0.5519 -0.1351
 4020SOL     OW23695   2.100   1.345   2.672 -0.1651 -0.0658 -0.0981
 4020SOL    HW123696   2.060   1.261   2.651 -1.8153  0.8329 -0.5291
 4020SOL    HW223697   2.036   1.365   2.740  0.7464 -1.1983  1.1021
 4021SOL     OW23698   2.606   3.172   7.724  0.4907 -0.0867 -0.0055
 4021SOL    HW123699   2.517   3.192   7.694 -0.5333 -0.7313  2.6118
 4021SOL    HW223700   2.609   3.228   7.801 -0.4239  0.2563 -0.2208
 4022SOL     OW23701   1.350   4.288   4.520  0.2490  0.1210 -0.3292
 4022SOL    HW123702   1.377   4.205   4.559  0.5043 -0.0368 -0.8329
 4022SOL    HW223703   1.341   4.259   4.429 -2.3663 -1.5746  0.4764
 4023SOL     OW23704   0.678   3.917   8.131 -0.1188 -0.0993 -0.1870
 4023SOL    HW123705   0.671   3.846   8.196 -1.9212  0.8359  0.6355
 4023SOL    HW223706   0.746   3.883   8.073 -1.1352 -0.1371 -1.3342
 4024SOL     OW23707   3.627   4.576  13.749 -0.5576 -0.1076  0.5473
 4024SOL    HW123708   3.620   4.546  13.658  2.0419  2.1640 -0.4175
 4024SOL    HW223709   3.555   4.638  13.751 -0.4659  0.0152 -0.0391
 4025SOL     OW23710   0.301   0.125   6.426  0.0587  0.1480 -0.2223
 4025SOL    HW123711   0.315   0.032   6.445  1.5123  0.7787  1.8945
 4025SOL    HW223712   0.368   0.169   6.479  1.0207 -2.8960  1.1231
 4026SOL     OW23713   2.238   1.277   7.365  0.0291 -0.2130  0.8267
 4026SOL    HW123714   2.152   1.296   7.328  0.6180 -1.8806 -1.3944
 4026SOL    HW223715   2.277   1.365   7.359  1.1075 -0.6150  1.9823
 4027SOL     OW23716   1.895   1.701   5.647  0.5199 -0.3673 -0.2494
 4027SOL    HW123717   1.822   1.641   5.663 -0.7729  1.4524  0.6080
 4027SOL    HW223718   1.960   1.661   5.706  0.1831 -0.3587  0.1291
 4028SOL     OW23719   0.244   1.542   0.655 -0.1777  0.8456  0.5184
 4028SOL    HW123720   0.281   1.454   0.644  1.7077  1.5321  1.4156
 4028SOL    HW223721   0.234   1.542   0.750  0.5696  0.4782  0.5935
 4029SOL     OW23722   3.529   2.865   0.974  0.4087  0.8994  0.5494
 4029SOL    HW123723   3.582   2.797   0.932 -1.1131  0.3550 -0.4737
 4029SOL    HW223724   3.485   2.905   0.899  0.8513 -0.6593 -0.5354
 4030SOL     OW23725   3.243   0.671  16.841  0.8972 -0.3276  0.5083
 4030SOL    HW123726   3.184   0.735  16.802 -0.7682 -0.6629  2.4612
 4030SOL    HW223727   3.300   0.650  16.767  0.1291  1.1519 -0.5022
 4031SOL     OW23728   3.222   2.439   7.067 -0.0679 -0.4486 -0.0723
 4031SOL    HW123729   3.283   2.485   7.124 -0.0346 -2.2539  1.3473
 4031SOL    HW223730   3.140   2.479   7.094  0.1318  2.1458 -3.2761
 4032SOL     OW23731   3.127   1.146   9.475  0.0329  0.2496 -0.5399
 4032SOL    HW123732   3.066   1.172   9.405 -1.5391  1.7313  1.3775
 4032SOL    HW223733   3.116   1.228   9.523  2.6686 -0.2497  0.8908
 4033SOL     OW23734   2.506   1.520   6.617 -0.6964 -0.1772  0.2792
 4033SOL    HW123735   2.521   1.484   6.705  3.1518 -0.9905 -0.7196
 4033SOL    HW223736   2.594   1.549   6.593 -0.4885 -0.1404  1.0869
 4034SOL     OW23737   2.362   1.697   0.727 -0.6389  0.1229  0.1109
 4034SOL    HW123738   2.355   1.609   0.689  2.5311 -0.4645  0.8459
 4034SOL    HW223739   2.288   1.691   0.786 -1.7513  0.1912 -1.2780
 4035SOL     OW23740   1.731   0.245   3.097 -0.1223 -0.4204  0.6374
 4035SOL    HW123741   1.743   0.222   3.189 -1.5672  2.2878  1.5008
 4035SOL    HW223742   1.721   0.339   3.112 -2.3034 -0.4144 -0.8600
 4036SOL     OW23743   1.207   0.753   9.641  0.0099  0.1850 -0.1207
 4036SOL    HW123744   1.298   0.772   9.663 -0.4485  0.6783  1.3968
 4036SOL    HW223745   1.173   0.753   9.731 -0.3077  1.8928 -0.2405
 4037SOL     OW23746   1.196   4.699   2.056  0.4218  0.2373  0.0716
 4037SOL    HW123747   1.189   4.716   1.962 -2.0268 -2.0118 -0.1650
 4037SOL    HW223748   1.275   0.002   2.081  1.4769 -1.9295  0.8459
 4038SOL     OW23749   4.739   0.657  14.526 -0.4425  0.3685  0.1600
 4038SOL    HW123750   4.651   0.691  14.512  0.2559  1.6799 -1.0792
 4038SOL    HW223751   0.011   0.640  14.433  1.8960 -0.8785  0.7905
 4039SOL     OW23752   0.920   3.917   2.241  0.2844 -0.3440 -0.0865
 4039SOL    HW123753   1.002   3.890   2.200  0.9937  0.6985  0.6101
 4039SOL    HW223754   0.885   3.980   2.179 -0.6368 -0.7460  0.0255
 4040SOL     OW23755   4.509   0.465   5.449  0.2158  0.4997 -0.4026
 4040SOL    HW123756   4.552   0.493   5.530 -1.2252 -0.3502  0.6445
 4040SOL    HW223757   4.418   0.456   5.478 -0.0482 -2.3113 -2.1097
 4041SOL     OW23758   0.123   1.618   7.901 -0.0398 -0.1085 -0.6283
 4041SOL    HW123759   0.138   1.567   7.981  0.7346 -0.6711 -1.1270
 4041SOL    HW223760   0.140   1.707   7.932 -2.1037 -0.1650  0.6058
 4042SOL     OW23761   0.595   2.530  12.539 -0.0217  0.2025  0.4569
 4042SOL    HW123762   0.645   2.470  12.594  1.4074 -1.5250 -2.7319
 4042SOL    HW223763   0.672   2.571  12.499  0.3651 -1.9746 -1.0230
 4043SOL     OW23764   2.649   1.805   8.519 -0.4953  0.4949  0.3991
 4043SOL    HW123765   2.671   1.742   8.450 -2.7654 -0.7814  0.8200
 4043SOL    HW223766   2.738   1.797   8.552  0.0915  2.1628 -0.7825
 4044SOL     OW23767   1.692   1.714   6.823 -0.2089  0.6338 -0.3406
 4044SOL    HW123768   1.734   1.628   6.815 -0.7696  0.3014  0.3415
 4044SOL    HW223769   1.609   1.692   6.865  0.5533 -0.0123  0.8154
 4045SOL     OW23770   0.790   0.511   7.556 -0.0045  0.1523 -0.0493
 4045SOL    HW123771   0.763   0.601   7.571 -0.5321  0.1097 -0.7513
 4045SOL    HW223772   0.808   0.512   7.462  0.0866 -2.8793 -0.0746
 4046SOL     OW23773   2.646   2.797   1.133 -0.3100 -0.1569  0.4715
 4046SOL    HW123774   2.644   2.890   1.155  0.8189  0.6411 -2.8887
 4046SOL    HW223775   2.551   2.789   1.122  0.1210 -2.6724 -1.5017
 4047SOL     OW23776   2.679   3.683   5.749  0.0800 -0.3740 -0.2833
 4047SOL    HW123777   2.661   3.731   5.830  1.2385  1.4527 -1.1075
 4047SOL    HW223778   2.642   3.743   5.684 -0.5923 -0.4983 -0.0187
 4048SOL     OW23779   0.565   0.008   8.494  0.2374 -0.2566 -0.3083
 4048SOL    HW123780   0.633   4.718   8.436  1.6936 -0.6570  1.5955
 4048SOL    HW223781   0.559   4.680   8.557  1.3669  0.4886  0.6820
 4049SOL     OW23782   3.998   3.012   2.005 -0.1608 -0.0402 -0.3960
 4049SOL    HW123783   3.932   3.079   2.026  1.9081  1.2952  1.8363
 4049SOL    HW223784   3.988   3.011   1.910 -2.3326 -0.7201 -0.1757
 4050SOL     OW23785   2.498   0.829   4.448  0.4508 -0.1964  0.4567
 4050SOL    HW123786   2.454   0.911   4.424  0.8164 -0.7289 -2.0636
 4050SOL    HW223787   2.577   0.869   4.483 -1.0200 -0.1267  3.6911
 4051SOL     OW23788   3.490   3.937   9.356 -0.1635  0.1430 -0.1012
 4051SOL    HW123789   3.429   3.864   9.361 -1.8487  1.6010  0.9231
 4051SOL    HW223790   3.527   3.916   9.271 -1.2449  0.6718 -0.6964
 4052SOL     OW23791   0.651   4.037  13.003  0.8644  0.2569  0.4296
 4052SOL    HW123792   0.730   3.985  12.987  1.7110  1.2450  1.3717
 4052SOL    HW223793   0.592   3.977  13.047  0.8548  2.4795  3.4489
 4053SOL     OW23794   1.640   4.247   7.323 -0.0951  0.3637  0.3573
 4053SOL    HW123795   1.723   4.278   7.288 -1.9826  0.3150 -4.1280
 4053SOL    HW223796   1.651   4.152   7.331  0.3566  0.2358 -1.6247
 4054SOL     OW23797   1.641   3.967   9.053 -0.5069 -0.1892  0.8356
 4054SOL    HW123798   1.619   4.020   9.130 -0.7130  1.3747 -0.2798
 4054SOL    HW223799   1.671   3.889   9.098  0.6041 -1.4659 -2.1423
 4055SOL     OW23800   0.346   4.367   4.728 -0.2647  0.2076  0.2205
 4055SOL    HW123801   0.331   4.461   4.721  0.1637  0.4018  2.0147
 4055SOL    HW223802   0.435   4.356   4.762  0.5812  2.3453 -1.2860
 4056SOL     OW23803   0.671   4.408   1.143  0.2994 -0.0943  0.3315
 4056SOL    HW123804   0.762   4.439   1.137  0.6222 -1.1218  0.0064
 4056SOL    HW223805   0.616   4.486   1.153  1.7669  0.9591  0.3006
 4057SOL     OW23806   0.764   0.798   3.502 -0.7179  0.0643 -0.0213
 4057SOL    HW123807   0.683   0.755   3.529  0.7316 -2.0023  1.0036
 4057SOL    HW223808   0.736   0.885   3.474 -0.0432  0.1649 -0.3942
 4058SOL     OW23809   0.231   2.763   8.329 -0.7156 -0.1751  0.3829
 4058SOL    HW123810   0.164   2.831   8.343  2.2007  2.7997 -0.1576
 4058SOL    HW223811   0.307   2.816   8.306 -1.5944  0.5359 -0.8622
 4059SOL     OW23812   2.213   0.079   6.024  0.5104 -0.0747 -0.2740
 4059SOL    HW123813   2.270   0.149   5.992  2.1216 -1.5554 -0.6764
 4059SOL    HW223814   2.270   0.009   5.991  1.0794  0.5305 -0.5722
 4060SOL     OW23815   4.473   4.097  16.120  0.4113  0.4962  0.0327
 4060SOL    HW123816   4.428   4.080  16.037  0.4527 -1.7154  0.4646
 4060SOL    HW223817   4.550   4.040  16.124 -0.4947 -0.7884 -0.6372
 4061SOL     OW23818   4.625   2.363   3.059  0.7773  0.0907  0.0819
 4061SOL    HW123819   4.565   2.319   3.000 -0.4151  1.7137  0.0796
 4061SOL    HW223820   4.568   2.387   3.132 -2.0848 -2.0209 -1.4843
 4062SOL     OW23821   1.073   4.305   1.516 -0.0156 -0.0707  1.1250
 4062SOL    HW123822   1.154   4.300   1.464  0.2667  0.9831  1.4532
 4062SOL    HW223823   1.010   4.271   1.453 -0.8313  0.1588  1.8306
 4063SOL     OW23824   1.703   4.063   4.585 -0.4756 -0.5852  0.1745
 4063SOL    HW123825   1.716   4.135   4.647  1.5232 -2.6454  2.1378
 4063SOL    HW223826   1.727   4.107   4.504  3.5102  0.5680  2.0075
 4064SOL     OW23827   1.219   1.830   8.170  0.6077 -0.1229  1.0955
 4064SOL    HW123828   1.222   1.921   8.197 -1.2554  0.4092 -0.5248
 4064SOL    HW223829   1.140   1.826   8.116  0.3070 -0.2384  1.5459
 4065SOL     OW23830   1.007   2.159   2.113 -0.2235  0.6517  0.1261
 4065SOL    HW123831   1.069   2.116   2.055 -0.4225  1.4955 -0.7040
 4065SOL    HW223832   1.050   2.159   2.199  3.0817  0.7654 -1.5630
 4066SOL     OW23833   3.217   0.502  12.270  0.1069 -0.3686  0.0218
 4066SOL    HW123834   3.248   0.571  12.329 -2.0804  0.3151  0.3575
 4066SOL    HW223835   3.265   0.518  12.189 -1.0945 -1.1042 -0.8250
 4067SOL     OW23836   1.625   0.377  12.973  0.1567 -0.3075  0.2051
 4067SOL    HW123837   1.610   0.415  13.060  2.2359 -0.7754  0.7629
 4067SOL    HW223838   1.716   0.349  12.980 -0.4412 -2.1442  0.4720
 4068SOL     OW23839   3.035   0.906   3.680 -0.4572  0.9079 -0.2959
 4068SOL    HW123840   3.041   0.811   3.694 -1.2421  0.8095 -0.6242
 4068SOL    HW223841   3.099   0.912   3.610 -0.8901 -1.0283 -0.8785
 4069SOL     OW23842   3.455   1.824   1.549 -0.3631 -0.5072 -0.3573
 4069SOL    HW123843   3.470   1.903   1.601 -0.4082 -0.6184 -0.1760
 4069SOL    HW223844   3.524   1.829   1.482 -1.0271 -0.0834 -1.0143
 4070SOL     OW23845   2.293   4.380   4.243 -0.4030 -0.4351 -0.3881
 4070SOL    HW123846   2.256   4.321   4.177 -1.9200  0.2329 -0.1334
 4070SOL    HW223847   2.298   4.454   4.183 -1.2856 -0.3261 -0.3346
 4071SOL     OW23848   3.054   3.964   5.641 -0.2094  0.3889  0.7140
 4071SOL    HW123849   3.061   4.056   5.618 -2.2702  0.2122 -0.5967
 4071SOL    HW223850   3.044   3.918   5.557  2.3236 -1.4912  1.4391
 4072SOL     OW23851   1.438   0.088   7.275 -1.0016 -0.6276  0.3690
 4072SOL    HW123852   1.419   0.018   7.337 -2.5207  0.0116  0.6513
 4072SOL    HW223853   1.350   0.120   7.252 -0.2755  0.7158 -0.5032
 4073SOL     OW23854   3.879   0.468  17.017 -0.4839 -0.0389 -0.1515
 4073SOL    HW123855   3.784   0.466  17.027 -0.3967  0.7771  0.8246
 4073SOL    HW223856   3.883   0.375  16.998 -2.6452 -0.4666  1.4851
 4074SOL     OW23857   3.316   2.341   1.015  0.7850  0.0924 -0.2296
 4074SOL    HW123858   3.290   2.404   1.083  0.6531  3.0831 -3.0628
 4074SOL    HW223859   3.391   2.314   1.067  1.0230 -0.7265 -1.0161
 4075SOL     OW23860   0.593   4.067   1.365  0.3681 -0.5753 -0.1731
 4075SOL    HW123861   0.581   4.141   1.424 -1.5422  0.7661 -2.2751
 4075SOL    HW223862   0.532   4.080   1.293 -2.4119 -3.1266  1.7244
 4076SOL     OW23863   2.698   2.955   2.137  0.2238 -0.6418  0.7236
 4076SOL    HW123864   2.638   2.971   2.064  2.0514  0.2643 -0.5581
 4076SOL    HW223865   2.681   3.030   2.194 -2.1419 -1.9254  1.7315
 4077SOL     OW23866   4.477   0.594   5.157  0.1060  0.0684  0.4887
 4077SOL    HW123867   4.494   0.566   5.247  1.4418 -0.5415  0.0366
 4077SOL    HW223868   4.562   0.628   5.129 -0.2975  0.1408 -0.6527
 4078SOL     OW23869   2.185   0.557   5.658  0.5596 -0.0149  0.6990
 4078SOL    HW123870   2.204   0.649   5.641 -0.8084  0.5332  2.1662
 4078SOL    HW223871   2.236   0.504   5.596  1.6198  1.2873  0.4582
 4079SOL     OW23872   2.826   0.872   4.187 -0.6220 -0.1615  0.4289
 4079SOL    HW123873   2.790   0.942   4.133  1.7712  0.5299 -0.2914
 4079SOL    HW223874   2.906   0.849   4.139 -1.1742  1.3524 -1.2194
 4080SOL     OW23875   1.470   4.065   2.704 -0.0248  0.5981 -0.4257
 4080SOL    HW123876   1.388   4.112   2.715 -0.0664  0.6182 -0.8240
 4080SOL    HW223877   1.496   4.083   2.794  2.1991 -1.0243 -0.7121
 4081SOL     OW23878   2.450   3.858   2.582  0.3654 -0.0461 -0.0820
 4081SOL    HW123879   2.475   3.951   2.579 -1.6196  0.4851 -0.0086
 4081SOL    HW223880   2.513   3.813   2.639  1.6592  2.5961  0.5712
 4082SOL     OW23881   4.284   1.551   8.379  0.3018 -0.1014 -0.1105
 4082SOL    HW123882   4.232   1.492   8.324  1.8622 -1.4590 -0.1201
 4082SOL    HW223883   4.213   1.607   8.412  2.2845  1.7859  0.9588
 4083SOL     OW23884   4.121   0.820   1.458  0.4837  0.4513  0.5562
 4083SOL    HW123885   4.136   0.844   1.549  1.5162 -0.5784  0.6502
 4083SOL    HW223886   4.159   0.898   1.417 -0.9327  1.6161  1.4621
 4084SOL     OW23887   0.699   1.777   9.330 -0.1032 -0.4575 -0.0006
 4084SOL    HW123888   0.689   1.810   9.419 -0.6455 -0.5105 -0.0408
 4084SOL    HW223889   0.793   1.790   9.318 -0.2866  0.3528 -0.5284
 4085SOL     OW23890   0.359   4.107  17.615  0.1464 -0.3848  0.5652
 4085SOL    HW123891   0.344   4.013  17.608 -0.7807 -0.1995  0.0345
 4085SOL    HW223892   0.376   4.106  17.709 -4.1590 -0.6907  1.3406
 4086SOL     OW23893   2.890   0.882   1.230  0.0585  0.4642  0.2056
 4086SOL    HW123894   2.970   0.919   1.267  0.9437 -0.7275 -0.5058
 4086SOL    HW223895   2.827   0.954   1.238 -0.9434 -0.4909  0.7966
 4087SOL     OW23896   4.628   0.568   8.379 -0.0882  0.0760  0.2905
 4087SOL    HW123897   4.642   0.644   8.436 -1.7278  1.4437 -1.1377
 4087SOL    HW223898   4.620   0.611   8.294 -0.1395 -1.3160 -0.4054
 4088SOL     OW23899   1.385   4.623  16.154  0.0971  0.5907 -0.6232
 4088SOL    HW123900   1.437   4.589  16.228 -2.1554 -0.3053  0.5612
 4088SOL    HW223901   1.431   4.706  16.159 -0.0959  0.8131 -2.7736
 4089SOL     OW23902   0.213   4.134   6.105  0.3830 -0.4416  0.0561
 4089SOL    HW123903   0.190   4.227   6.103  2.4822  0.1272  1.7084
 4089SOL    HW223904   0.157   4.099   6.174 -1.7576  2.5438 -0.1872
 4090SOL     OW23905   4.039   4.361   7.067 -0.1167 -0.1647 -0.2017
 4090SOL    HW123906   4.057   4.446   7.107 -0.9673 -0.2188  0.2955
 4090SOL    HW223907   4.002   4.310   7.139  0.2121 -0.7424 -0.4404
 4091SOL     OW23908   3.337   1.157   1.899  0.0702 -0.6060 -0.0020
 4091SOL    HW123909   3.407   1.122   1.845  1.8801 -0.2382  2.0827
 4091SOL    HW223910   3.261   1.111   1.865 -1.1181 -0.4525  2.4274
 4092SOL     OW23911   3.379   4.299   8.771  0.0961  0.0850 -0.5053
 4092SOL    HW123912   3.400   4.282   8.679 -0.4635 -0.6425 -0.5005
 4092SOL    HW223913   3.445   4.252   8.821  1.5934  2.8658  0.0999
 4093SOL     OW23914   3.597   3.242   5.373 -0.4095 -0.4566  0.1708
 4093SOL    HW123915   3.609   3.326   5.329 -0.5714 -0.7601 -0.4588
 4093SOL    HW223916   3.678   3.197   5.349 -1.2395 -2.4456  1.0891
 4094SOL     OW23917   3.376   1.182   5.063 -0.2833  0.1244  0.0820
 4094SOL    HW123918   3.397   1.091   5.045  0.8947  0.7243 -1.6817
 4094SOL    HW223919   3.363   1.210   4.972 -2.1754  0.4579  0.4590
 4095SOL     OW23920   3.049   4.168   0.661 -0.1361 -0.2027 -0.1454
 4095SOL    HW123921   2.986   4.149   0.591 -0.6903  0.1363  0.2555
 4095SOL    HW223922   3.104   4.226   0.608 -0.8243  0.3238 -0.2931
 4096SOL     OW23923   2.094   1.959   4.544 -0.0651  0.0250  0.5315
 4096SOL    HW123924   2.036   1.884   4.530 -0.4377  0.5691 -0.8262
 4096SOL    HW223925   2.118   1.992   4.457  1.3169 -0.7955  0.5947
 4097SOL     OW23926   1.322   3.955  11.355  0.7192 -0.1992  0.1166
 4097SOL    HW123927   1.406   3.955  11.309  1.0905 -0.4610  0.7980
 4097SOL    HW223928   1.343   3.923  11.443  0.7134 -0.4492  0.0275
 4098SOL     OW23929   2.702   3.167  14.110  0.4848 -0.1600 -0.3735
 4098SOL    HW123930   2.716   3.152  14.017  0.5881 -0.5124 -0.3011
 4098SOL    HW223931   2.638   3.098  14.127  0.9927 -0.6417 -0.4310
 4099SOL     OW23932   3.991   1.761   9.913 -0.6963  0.2708 -0.3232
 4099SOL    HW123933   3.962   1.851   9.920  0.9003  0.8314 -0.7764
 4099SOL    HW223934   4.019   1.754   9.822  0.8639 -3.2894  0.4066
 4100SOL     OW23935   2.876   2.269  11.119 -0.3664  0.2441  0.3857
 4100SOL    HW123936   2.786   2.266  11.086 -0.6852  2.5555  1.0085
 4100SOL    HW223937   2.893   2.362  11.102  0.4016  0.0071 -0.1604
 4101SOL     OW23938   2.080   2.301   2.175 -0.1856  0.2960 -0.3645
 4101SOL    HW123939   2.021   2.263   2.109 -2.8485  2.2465  0.8675
 4101SOL    HW223940   2.063   2.251   2.255  0.5452  0.5069 -0.0764
 4102SOL     OW23941   1.286   0.527  13.765  0.3277 -0.2878  0.2587
 4102SOL    HW123942   1.325   0.508  13.679  0.0328 -0.7798  0.2314
 4102SOL    HW223943   1.212   0.581  13.737  0.7026 -0.4747 -1.1215
 4103SOL     OW23944   3.574   0.366   4.487  0.3178 -0.3058  0.2789
 4103SOL    HW123945   3.667   0.354   4.506  0.6083 -0.2330 -1.1238
 4103SOL    HW223946   3.526   0.339   4.566 -0.7033  0.1231 -0.2008
 4104SOL     OW23947   1.086   2.296   5.717 -0.0066  0.2421 -0.2101
 4104SOL    HW123948   1.046   2.380   5.694  0.1932  0.1589 -0.8545
 4104SOL    HW223949   1.179   2.315   5.726  0.0705 -0.5333  0.6624
 4105SOL     OW23950   3.175   1.236   2.797 -0.1851  0.0073  0.1470
 4105SOL    HW123951   3.091   1.192   2.784 -0.8417  1.0523  0.8371
 4105SOL    HW223952   3.239   1.166   2.788  1.7239  1.4680  2.3002
 4106SOL     OW23953   1.251   3.811   6.911  0.4140  0.1118  0.4199
 4106SOL    HW123954   1.331   3.781   6.954 -1.3957 -1.2284  2.8063
 4106SOL    HW223955   1.197   3.797   6.989 -1.2774 -0.6332 -0.8733
 4107SOL     OW23956   4.338   2.836   5.573 -0.1498  0.2618 -0.2179
 4107SOL    HW123957   4.282   2.798   5.641 -2.6858  3.4264 -0.4876
 4107SOL    HW223958   4.348   2.926   5.605 -0.1650 -0.0857  0.7375
 4108SOL     OW23959   2.230   0.953   0.871 -0.5866  0.6315  0.0637
 4108SOL    HW123960   2.258   0.913   0.789 -0.3316 -0.0758  0.4958
 4108SOL    HW223961   2.230   1.043   0.839 -0.3182  1.1464  1.4956
 4109SOL     OW23962   4.146   3.913   5.649  0.4305  0.2591  0.8760
 4109SOL    HW123963   4.063   3.958   5.636 -0.4548 -0.9513  2.2653
 4109SOL    HW223964   4.195   3.969   5.709  0.2025  1.3108  0.0660
 4110SOL     OW23965   1.890   4.470  10.493 -0.2370  0.3441 -0.4665
 4110SOL    HW123966   1.964   4.430  10.539  0.1628 -1.9754 -3.1744
 4110SOL    HW223967   1.909   4.563  10.510  0.3805  0.0172  0.6567
 4111SOL     OW23968   2.117   0.863   5.581 -0.1262 -0.3840 -0.2753
 4111SOL    HW123969   2.025   0.889   5.587 -0.3254 -1.1409 -0.0620
 4111SOL    HW223970   2.146   0.872   5.672 -0.7733  3.2418 -0.4218
 4112SOL     OW23971   2.391   3.394   2.682  0.2163 -0.1704 -0.3759
 4112SOL    HW123972   2.428   3.400   2.594 -1.0247  1.5019 -0.7652
 4112SOL    HW223973   2.465   3.438   2.724  0.0142 -0.6815  0.5273
 4113SOL     OW23974   0.885   4.147   8.917  0.0800  0.3465  0.0495
 4113SOL    HW123975   0.883   4.236   8.883  0.0360  0.1828 -0.3729
 4113SOL    HW223976   0.791   4.132   8.928 -0.0998  2.2434  1.0846
 4114SOL     OW23977   4.511   4.298  14.713 -0.1785  0.3064 -0.3104
 4114SOL    HW123978   4.422   4.300  14.748  0.4231 -2.5633  1.3821
 4114SOL    HW223979   4.505   4.232  14.643  5.0080  0.5199 -0.9639
 4115SOL     OW23980   0.752   4.662   5.706 -0.3317  0.1399 -0.0275
 4115SOL    HW123981   0.787   4.622   5.785 -2.9898  0.6341  1.4172
 4115SOL    HW223982   0.702   4.592   5.664 -1.7065  2.5642 -2.4708
 4116SOL     OW23983   4.205   1.193   3.744 -0.0527  0.1285  0.2936
 4116SOL    HW123984   4.212   1.286   3.726  0.9080 -0.3403 -1.7488
 4116SOL    HW223985   4.225   1.185   3.837 -0.1736  1.0686  0.3953
 4117SOL     OW23986   2.709   1.712   1.461 -0.9746  0.6131 -0.0039
 4117SOL    HW123987   2.790   1.703   1.512 -1.0805 -2.5501 -0.3542
 4117SOL    HW223988   2.726   1.796   1.419  0.5899  0.0119 -0.6003
 4118SOL     OW23989   3.816   3.605   6.648  0.2062 -0.6778 -0.3019
 4118SOL    HW123990   3.848   3.605   6.738  3.2918  0.5779 -1.4312
 4118SOL    HW223991   3.787   3.513   6.648  1.0940 -0.9533  0.5075
 4119SOL     OW23992   3.985   4.424   2.851 -0.2343 -1.0710 -0.2500
 4119SOL    HW123993   3.895   4.424   2.819  0.0170 -1.1693 -0.9512
 4119SOL    HW223994   4.020   4.341   2.817  0.1725 -1.2888  0.6933
 4120SOL     OW23995   1.856   4.305  10.830 -0.0410  0.0091 -0.1849
 4120SOL    HW123996   1.881   4.288  10.920  0.0824 -3.1584 -0.8004
 4120SOL    HW223997   1.802   4.383  10.841  2.1884  1.7126 -1.4222
 4121SOL     OW23998   1.789   2.849   6.754 -0.3328  0.5257 -0.8905
 4121SOL    HW123999   1.700   2.829   6.724 -0.6514  0.3842  0.1783
 4121SOL    HW224000   1.822   2.762   6.732  0.3799  0.5091  0.2410
 4122SOL     OW24001   4.429   1.947   4.334  0.5376  0.1880 -0.0969
 4122SOL    HW124002   4.443   1.994   4.252  1.1912 -0.0505 -0.1226
 4122SOL    HW224003   4.516   1.951   4.374  1.4333  0.1745 -2.0875
 4123SOL     OW24004   0.054   2.388   7.615 -0.0088 -0.1566  0.0128
 4123SOL    HW124005   0.090   2.337   7.687  0.0313 -0.4825 -0.2383
 4123SOL    HW224006   0.030   2.311   7.564 -0.4060  0.6350 -0.9936
 4124SOL     OW24007   1.436   2.690   5.502  0.2021 -0.6585  0.0719
 4124SOL    HW124008   1.444   2.596   5.486  0.0285 -0.8387  1.0903
 4124SOL    HW224009   1.520   2.713   5.543 -0.6282  4.4675 -1.1530
 4125SOL     OW24010   3.815   1.467   9.016  0.1064  0.1812 -0.6365
 4125SOL    HW124011   3.844   1.385   9.055 -1.8025 -0.4870 -0.6220
 4125SOL    HW224012   3.812   1.446   8.923  0.8464  1.2986 -0.9122
 4126SOL     OW24013   2.980   3.577   3.597 -0.0341  0.1155  0.0955
 4126SOL    HW124014   3.070   3.565   3.628  0.0686  2.5829  0.7304
 4126SOL    HW224015   2.944   3.610   3.680 -3.1434 -2.5045 -0.1903
 4127SOL     OW24016   4.135   0.019   8.112  0.1518  0.4046 -0.3141
 4127SOL    HW124017   4.229   0.038   8.119  0.1672  1.1137 -2.4189
 4127SOL    HW224018   4.100   0.085   8.172  1.4199  0.7312  0.0778
 4128SOL     OW24019   2.435   3.846   7.171  0.0358 -0.0597  0.1013
 4128SOL    HW124020   2.461   3.901   7.097  1.8690 -2.5193 -1.0847
 4128SOL    HW224021   2.519   3.803   7.185  0.8033  1.9209  1.7632
 4129SOL     OW24022   2.527   0.092   0.631  0.1291  0.1042 -0.0419
 4129SOL    HW124023   2.482   0.055   0.707  0.6725 -1.1840 -0.3429
 4129SOL    HW224024   2.605   0.037   0.635  0.5758  0.5904 -2.6525
 4130SOL     OW24025   4.284   0.664   2.800 -0.4963  0.2584  0.1964
 4130SOL    HW124026   4.293   0.729   2.870  3.8405  0.6427 -0.7274
 4130SOL    HW224027   4.237   0.590   2.839 -1.3334  1.0471  0.6612
 4131SOL     OW24028   0.231   1.495   0.027  0.3280  0.3265  0.2136
 4131SOL    HW124029   0.215   1.459   0.114  2.5010  1.1733  0.9685
 4131SOL    HW224030   0.150   1.536  17.768 -0.0047 -1.2401 -0.9942
 4132SOL     OW24031   1.944   4.372  17.117  0.3014 -0.0097  0.6467
 4132SOL    HW124032   1.880   4.356  17.048  0.4534  2.2780 -0.0482
 4132SOL    HW224033   1.892   4.380  17.197 -0.5945 -1.2395  0.1749
 4133SOL     OW24034   0.878   0.467   2.246 -0.1406 -0.5401  0.0074
 4133SOL    HW124035   0.810   0.407   2.277  0.8259 -1.2439  0.7658
 4133SOL    HW224036   0.834   0.545   2.214 -0.6581  0.5587  3.3750
 4134SOL     OW24037   0.272   2.255   4.725  0.1186  0.7412 -0.2529
 4134SOL    HW124038   0.227   2.191   4.780  1.0568  0.7245  0.4998
 4134SOL    HW224039   0.337   2.201   4.679 -1.3322 -2.2592  1.2378
 4135SOL     OW24040   2.547   1.338  14.973 -0.1727  0.2471  0.5129
 4135SOL    HW124041   2.472   1.397  14.978  0.4121  0.8254  2.5503
 4135SOL    HW224042   2.511   1.267  14.920 -3.3108  2.8645 -0.8622
 4136SOL     OW24043   1.341   4.102   8.017 -0.3240  0.1929  0.5481
 4136SOL    HW124044   1.421   4.058   8.044 -3.0906 -4.0363  1.8081
 4136SOL    HW224045   1.381   4.164   7.956 -1.1141 -0.0746 -0.2417
 4137SOL     OW24046   2.585   1.532   7.908 -0.0197 -0.3363 -0.0697
 4137SOL    HW124047   2.676   1.508   7.926  0.5323  2.3444  0.6388
 4137SOL    HW224048   2.554   1.459   7.855  0.3330  0.2433 -1.0625
 4138SOL     OW24049   4.048   0.839   5.062 -0.8577  0.5430 -0.1758
 4138SOL    HW124050   4.098   0.919   5.077 -0.5052 -0.2182  2.5549
 4138SOL    HW224051   4.033   0.800   5.147  0.6651 -0.4783 -0.3635
 4139SOL     OW24052   2.793   0.811   3.417  0.1278  0.2958  0.3167
 4139SOL    HW124053   2.773   0.826   3.509  0.2411 -1.4564  0.6415
 4139SOL    HW224054   2.744   0.883   3.377 -1.1712 -0.9688 -0.3841
 4140SOL     OW24055   0.553   3.092   5.427 -0.3799 -0.8530  0.7124
 4140SOL    HW124056   0.584   3.181   5.443 -0.7702 -0.6862  0.5470
 4140SOL    HW224057   0.640   3.058   5.409 -0.8638 -2.1109  0.7836
 4141SOL     OW24058   4.043   1.130   6.453 -0.2657  0.1726 -0.2229
 4141SOL    HW124059   4.102   1.203   6.434  0.3364 -0.2050  0.2254
 4141SOL    HW224060   3.976   1.173   6.506  0.0562  0.4986 -0.0836
 4142SOL     OW24061   4.187   4.441   9.203  0.0749  0.6984 -0.7524
 4142SOL    HW124062   4.188   4.537   9.201 -0.6817  0.7038 -0.9186
 4142SOL    HW224063   4.177   4.419   9.111 -0.5585 -1.3834 -0.1744
 4143SOL     OW24064   3.829   1.521   3.280  0.1903  0.3252  0.2673
 4143SOL    HW124065   3.781   1.556   3.355 -0.8055 -0.1299 -0.1603
 4143SOL    HW224066   3.780   1.550   3.204 -0.6330 -1.9017 -0.0564
 4144SOL     OW24067   4.678   2.242   3.941  0.0834  0.0373 -0.1871
 4144SOL    HW124068   4.693   2.336   3.931  0.0276 -0.0542 -1.1530
 4144SOL    HW224069   4.637   2.219   3.857 -3.5143 -1.3339  1.9614
 4145SOL     OW24070   3.694   2.296   6.814  0.2882 -0.5160  0.2587
 4145SOL    HW124071   3.627   2.231   6.835 -0.4098 -0.3701 -1.4808
 4145SOL    HW224072   3.752   2.254   6.750  0.5315 -0.1063  0.2058
 4146SOL     OW24073   2.560   0.222   8.609  0.0047  0.1227 -0.1884
 4146SOL    HW124074   2.638   0.270   8.581  0.8967 -1.5423 -0.5719
 4146SOL    HW224075   2.592   0.133   8.595  0.3451  0.3182 -0.6815
 4147SOL     OW24076   3.182   0.231   7.755  0.0941 -0.3966  0.1777
 4147SOL    HW124077   3.189   0.142   7.722 -0.6406 -0.2950 -0.2476
 4147SOL    HW224078   3.249   0.225   7.823  1.9634  0.4155 -1.5849
 4148SOL     OW24079   1.029   2.040   7.208 -0.1580 -0.2877 -0.5871
 4148SOL    HW124080   0.999   1.965   7.259 -0.8042 -0.1341 -0.7417
 4148SOL    HW224081   1.094   1.997   7.152  0.4422  1.0744 -0.9337
 4149SOL     OW24082   2.818   0.580  13.849 -0.2737 -0.0555  0.4366
 4149SOL    HW124083   2.800   0.486  13.854 -0.0943 -0.1306 -0.4126
 4149SOL    HW224084   2.791   0.601  13.939 -1.8083  1.1635 -0.3082
 4150SOL     OW24085   0.796   1.902  16.168  0.0451  0.2627  0.5355
 4150SOL    HW124086   0.804   1.910  16.263 -0.5741 -0.1685  0.6233
 4150SOL    HW224087   0.845   1.978  16.136  1.6354 -0.9426  0.0419
 4151SOL     OW24088   1.462   4.717   2.952  0.1717 -0.0245 -0.1108
 4151SOL    HW124089   1.424   4.663   3.021 -0.3538  0.7578  0.2103
 4151SOL    HW224090   1.422   0.059   2.964  2.6168  0.9343  1.1177
 4152SOL     OW24091   3.571   3.222   8.529  0.0738  0.3766 -0.1302
 4152SOL    HW124092   3.528   3.208   8.613  0.0418 -1.2271 -0.4104
 4152SOL    HW224093   3.642   3.281   8.554  1.1761 -1.0620  0.1770
 4153SOL     OW24094   2.527   4.308   3.939  0.3805 -0.1189 -0.6309
 4153SOL    HW124095   2.570   4.325   3.855  1.4889  0.1848  0.0014
 4153SOL    HW224096   2.536   4.212   3.936  0.3798 -0.2061  2.0580
 4154SOL     OW24097   0.752   4.150  13.322  0.3166  0.0899 -0.0033
 4154SOL    HW124098   0.756   4.173  13.415  0.8481  2.9561 -0.7156
 4154SOL    HW224099   0.659   4.171  13.324  0.6654  1.6610 -0.3226
 4155SOL     OW24100   2.689   0.358  12.570 -0.1623 -0.3968  0.4732
 4155SOL    HW124101   2.758   0.348  12.635  0.8688  1.2737 -0.3695
 4155SOL    HW224102   2.736   0.317  12.497 -1.0545  1.4055 -1.1028
 4156SOL     OW24103   1.243   1.225   7.013 -0.1431  0.8188 -0.0675
 4156SOL    HW124104   1.324   1.186   6.981 -1.3103 -1.9146  0.3289
 4156SOL    HW224105   1.194   1.244   6.933 -0.1981  2.7398  0.4174
 4157SOL     OW24106   1.155   2.989   2.413 -0.2978 -0.6436  0.5186
 4157SOL    HW124107   1.160   3.082   2.390 -0.0821 -0.0728  2.8187
 4157SOL    HW224108   1.120   2.997   2.502  1.1329  1.9292  0.8429
 4158SOL     OW24109   2.965   2.526  11.056 -0.3326 -0.7110  0.1738
 4158SOL    HW124110   2.873   2.553  11.059  0.1820  0.6734  3.2405
 4158SOL    HW224111   3.001   2.611  11.081  1.0000 -1.1998 -0.0609
 4159SOL     OW24112   2.554   4.175   9.389  0.4052  0.6131  0.0338
 4159SOL    HW124113   2.464   4.143   9.380  0.1355  1.1700  0.7274
 4159SOL    HW224114   2.540   4.269   9.377 -0.3814  0.4363 -0.4014
 4160SOL     OW24115   0.581   2.420   8.821  0.3415 -0.3191  0.0768
 4160SOL    HW124116   0.486   2.410   8.830  0.2329 -0.1568 -0.8409
 4160SOL    HW224117   0.590   2.346   8.761  1.1152 -0.2962  0.1695
 4161SOL     OW24118   2.498   1.519   8.161  0.4434 -0.0189 -0.0644
 4161SOL    HW124119   2.530   1.503   8.072  1.2918 -1.3057  0.4839
 4161SOL    HW224120   2.409   1.547   8.141  0.4121  0.3112  0.5559
 4162SOL     OW24121   2.191   0.098   8.829  0.2393  0.4227  0.1099
 4162SOL    HW124122   2.244   0.030   8.787 -1.5440 -0.8549 -0.0604
 4162SOL    HW224123   2.111   0.092   8.776  1.0127  2.6789 -1.3160
 4163SOL     OW24124   1.829   2.584   4.011 -0.7784  0.7804 -0.3383
 4163SOL    HW124125   1.738   2.564   4.032 -0.6060  0.3205 -0.0085
 4163SOL    HW224126   1.841   2.655   4.074  0.3633 -1.4518  1.9626
 4164SOL     OW24127   1.421   4.359   6.791  0.0640  0.9653  0.3951
 4164SOL    HW124128   1.392   4.280   6.837  1.8143 -1.4605 -2.7271
 4164SOL    HW224129   1.342   4.413   6.800 -0.8380 -0.4783  1.1501
 4165SOL     OW24130   1.493   1.042   9.668  0.1820 -0.2181  0.5188
 4165SOL    HW124131   1.436   1.083   9.733 -0.3140 -0.0389 -0.0337
 4165SOL    HW224132   1.474   0.951   9.687 -0.2916 -0.1638  0.3061
 4166SOL     OW24133   2.177   1.819   7.203 -0.3180 -0.8050  0.4413
 4166SOL    HW124134   2.222   1.807   7.119  0.8800 -2.9243  1.3736
 4166SOL    HW224135   2.222   1.897   7.237 -1.0333  0.4997 -1.5905
 4167SOL     OW24136   3.816   2.136  14.276  0.3151 -0.4195 -0.3928
 4167SOL    HW124137   3.790   2.174  14.359  2.7158 -0.0451  0.1837
 4167SOL    HW224138   3.908   2.163  14.272  0.2716 -0.2220  0.0810
 4168SOL     OW24139   1.363   3.060  17.321  0.4143 -0.2890 -0.4126
 4168SOL    HW124140   1.422   3.089  17.391 -1.0498  0.5630  0.4774
 4168SOL    HW224141   1.392   3.104  17.240  0.7563 -0.5962 -0.4543
 4169SOL     OW24142   2.742   3.134   4.174  0.0790  0.1453  0.2264
 4169SOL    HW124143   2.677   3.167   4.235  2.1007  1.1720  1.8391
 4169SOL    HW224144   2.792   3.216   4.174 -1.7583  1.2582 -0.5035
 4170SOL     OW24145   2.132   2.896   7.131 -0.1416 -0.0061  0.2874
 4170SOL    HW124146   2.216   2.880   7.174  1.7106  0.2856 -3.2328
 4170SOL    HW224147   2.081   2.928   7.205  0.0372 -0.5976  0.6648
 4171SOL     OW24148   0.230   4.465  15.138 -0.3157  0.6171  0.5678
 4171SOL    HW124149   0.293   4.417  15.191  1.4202  1.7550 -0.4547
 4171SOL    HW224150   0.208   4.388  15.085 -0.7159 -0.5109  2.3688
 4172SOL     OW24151   3.463   0.495   2.239 -0.0515 -0.2837  0.6669
 4172SOL    HW124152   3.396   0.431   2.213 -0.8845  0.9265 -0.1235
 4172SOL    HW224153   3.501   0.527   2.157 -2.0161 -0.1023 -0.1812
 4173SOL     OW24154   3.999   0.539   2.348 -0.1045 -0.5927 -0.3483
 4173SOL    HW124155   4.005   0.472   2.416 -0.8849  0.4805  0.7882
 4173SOL    HW224156   3.994   0.620   2.400 -0.4108  0.0795 -1.4356
 4174SOL     OW24157   3.257   4.547  10.012 -0.4370 -0.0278  0.4463
 4174SOL    HW124158   3.220   4.562   9.925  1.0727  0.3870 -0.1365
 4174SOL    HW224159   3.222   4.626  10.051 -0.3648 -0.8421  2.1516
 4175SOL     OW24160   3.580   4.730   5.040 -0.5894  0.3178 -0.0330
 4175SOL    HW124161   3.508   0.027   5.089  0.2903  0.4806  1.1392
 4175SOL    HW224162   3.657   0.036   5.068  1.0268 -2.5979  0.6859
 4176SOL     OW24163   0.898   2.492   1.073 -0.7288  0.5923 -0.1130
 4176SOL    HW124164   0.814   2.447   1.074 -0.1584 -0.4701 -0.4161
 4176SOL    HW224165   0.909   2.512   1.166 -1.0772  3.2333 -0.6469
 4177SOL     OW24166   2.545   0.155  13.675  0.4375  0.2041 -0.0385
 4177SOL    HW124167   2.589   0.126  13.754 -1.3415  1.2744  1.3294
 4177SOL    HW224168   2.529   0.076  13.622  1.5004 -0.2805  0.3562
 4178SOL     OW24169   0.788   0.577   5.617  0.4255 -0.6683  0.4342
 4178SOL    HW124170   0.881   0.564   5.633  0.1610 -0.5326  2.1332
 4178SOL    HW224171   0.754   0.572   5.707  1.5506 -3.7682  0.6683
 4179SOL     OW24172   3.016   4.333   9.679  0.3183  0.4051 -0.1913
 4179SOL    HW124173   2.957   4.313   9.752  0.6060 -3.0112 -0.9295
 4179SOL    HW224174   3.088   4.362   9.734 -0.3105  1.3511  0.1354
 4180SOL     OW24175   0.224   0.071   9.959  0.1857  0.2306  0.6586
 4180SOL    HW124176   0.158   0.004   9.944 -1.6894  1.9858  0.8938
 4180SOL    HW224177   0.178   0.145   9.918  0.6230 -0.4379 -1.0327
 4181SOL     OW24178   1.076   0.202   5.249  0.3762 -0.2874 -0.2762
 4181SOL    HW124179   1.153   0.175   5.300 -1.0147  0.5343  2.2443
 4181SOL    HW224180   1.123   0.241   5.175  2.4397 -2.4014 -0.0732
 4182SOL     OW24181   4.515   1.339   2.645  0.2621  0.2150 -0.1321
 4182SOL    HW124182   4.424   1.312   2.658 -0.2795  2.1324  0.0007
 4182SOL    HW224183   4.554   1.254   2.623  0.8790  0.9512 -1.7866
 4183SOL     OW24184   3.542   3.882  11.023 -0.4260  0.2241 -0.2156
 4183SOL    HW124185   3.555   3.974  11.001  0.5683  0.5244  1.5657
 4183SOL    HW224186   3.632   3.850  11.021  0.5530  2.8431  0.8892
 4184SOL     OW24187   0.401   1.193   5.715  0.0787  0.0211 -0.3301
 4184SOL    HW124188   0.411   1.261   5.782  5.1220 -1.3211  0.2402
 4184SOL    HW224189   0.474   1.212   5.657  1.5417 -1.4229  1.0391
 4185SOL     OW24190   1.033   3.149   3.821 -0.1958  0.1266  0.1381
 4185SOL    HW124191   1.076   3.154   3.907  0.6917 -1.3522 -0.2123
 4185SOL    HW224192   0.991   3.233   3.803 -0.6503 -0.3462 -1.0283
 4186SOL     OW24193   0.348   4.631  15.496  0.1835 -0.2180 -0.3855
 4186SOL    HW124194   0.365   4.724  15.483 -0.3455  0.1269  1.3376
 4186SOL    HW224195   0.255   4.613  15.502  0.0373  0.0190 -2.0465
 4187SOL     OW24196   1.512   4.625   3.792  0.1864 -0.0579 -0.2511
 4187SOL    HW124197   1.489   4.534   3.772  0.8126 -0.2387 -0.1653
 4187SOL    HW224198   1.581   4.664   3.739  1.3947  1.7773  2.6784
 4188SOL     OW24199   1.961   3.753   3.245 -0.3152 -0.1542 -0.1743
 4188SOL    HW124200   2.022   3.694   3.288  0.4022  0.9932  0.3954
 4188SOL    HW224201   1.894   3.691   3.217 -0.4565  0.0765 -0.3525
 4189SOL     OW24202   3.300   1.504   5.075  0.2481  0.0038  0.1123
 4189SOL    HW124203   3.373   1.457   5.035  0.2613 -0.3613  0.5599
 4189SOL    HW224204   3.245   1.533   5.003  1.2388 -0.7615 -0.9382
 4190SOL     OW24205   0.456   3.277   3.113  0.3254 -0.2962  0.3952
 4190SOL    HW124206   0.510   3.198   3.118  0.7096 -0.2049 -2.0394
 4190SOL    HW224207   0.515   3.345   3.146  0.1452 -0.1791  0.4701
 4191SOL     OW24208   2.211   3.253   8.799 -0.7570  0.4354  0.1266
 4191SOL    HW124209   2.182   3.162   8.796  1.0868 -0.1937  1.4513
 4191SOL    HW224210   2.186   3.269   8.890 -1.2031  0.5439 -0.0192
 4192SOL     OW24211   1.170   0.056   2.440  0.1289  0.3850  0.5865
 4192SOL    HW124212   1.158   0.099   2.355  2.1870  1.7467  0.9931
 4192SOL    HW224213   1.223   0.110   2.499 -0.5710 -1.3255  2.7781
 4193SOL     OW24214   2.895   3.173  15.253 -0.0280  0.4746  0.4914
 4193SOL    HW124215   2.841   3.235  15.205  2.8546 -0.0725 -3.4585
 4193SOL    HW224216   2.975   3.173  15.201  0.0800 -3.3828  0.6133
 4194SOL     OW24217   1.714   1.262  17.444  0.2124  0.1098 -1.3551
 4194SOL    HW124218   1.731   1.169  17.461  0.7794  0.5554  0.5266
 4194SOL    HW224219   1.696   1.286  17.535  2.3873  1.4567 -1.3018
 4195SOL     OW24220   0.996   1.081   3.852  0.2889 -0.0439  0.0168
 4195SOL    HW124221   0.921   1.128   3.818 -1.6788 -0.6303  3.5561
 4195SOL    HW224222   1.015   1.032   3.772 -0.9039 -0.3192 -0.0877
 4196SOL     OW24223   1.549   2.655  12.715 -0.1323  0.3956  0.8352
 4196SOL    HW124224   1.457   2.638  12.738 -0.4765  0.0470 -0.8045
 4196SOL    HW224225   1.566   2.722  12.781 -2.3179  1.0799  0.6996
 4197SOL     OW24226   1.761   2.522   8.610  0.3542 -0.2120  0.1001
 4197SOL    HW124227   1.690   2.459   8.617 -0.4217  0.5219 -1.1947
 4197SOL    HW224228   1.720   2.587   8.668 -0.7193 -1.2497  0.4932
 4198SOL     OW24229   4.329   2.576  15.508  0.2475 -0.0050 -0.2563
 4198SOL    HW124230   4.310   2.563  15.601 -0.6100 -4.5271 -1.0386
 4198SOL    HW224231   4.357   2.667  15.509  1.2976 -0.3599  1.9195
 4199SOL     OW24232   4.019   3.850   2.836 -0.6048  0.0852 -0.1696
 4199SOL    HW124233   4.113   3.853   2.853 -0.7947 -2.1179  1.2353
 4199SOL    HW224234   3.981   3.911   2.899  0.4149 -2.1625  2.6135
 4200SOL     OW24235   0.704   4.497   1.654  0.8156  0.0466 -0.3700
 4200SOL    HW124236   0.665   4.431   1.596  0.4224 -2.2599  2.5443
 4200SOL    HW224237   0.636   4.564   1.648  1.1478  0.4944  0.9387
 4201SOL     OW24238   1.889   1.633   4.415 -0.2448  0.2856 -0.0814
 4201SOL    HW124239   1.956   1.599   4.355 -1.0557 -0.1566 -0.7418
 4201SOL    HW224240   1.803   1.609   4.380 -0.6534 -0.7041  1.6110
 4202SOL     OW24241   2.534   0.065  10.698 -0.0312  0.1531 -0.0893
 4202SOL    HW124242   2.462   0.127  10.684  0.1897  0.4355  0.0275
 4202SOL    HW224243   2.551   0.063  10.792  0.0704  0.5120 -0.0978
 4203SOL     OW24244   1.629   1.321  12.597 -1.0604  0.4571 -0.8379
 4203SOL    HW124245   1.565   1.266  12.642 -1.3258  2.5711  1.3479
 4203SOL    HW224246   1.570   1.390  12.566 -1.4385  0.7929  0.6649
 4204SOL     OW24247   3.306   0.922  12.525  0.1167  0.1975 -0.2588
 4204SOL    HW124248   3.338   0.880  12.445  0.9271 -1.3323  0.8518
 4204SOL    HW224249   3.375   0.893  12.586 -0.1966  0.7640  0.3651
 4205SOL     OW24250   2.664   3.374   8.520  0.2478 -0.4200 -0.5073
 4205SOL    HW124251   2.699   3.455   8.483  0.3248 -0.6229 -0.8763
 4205SOL    HW224252   2.597   3.354   8.456  1.4081 -3.3341 -0.8495
 4206SOL     OW24253   1.674   3.471  16.126  0.6761  0.3205 -0.5083
 4206SOL    HW124254   1.646   3.394  16.077 -1.1717  1.2615 -0.9345
 4206SOL    HW224255   1.708   3.429  16.205 -0.5664  1.0823  0.4362
 4207SOL     OW24256   4.585   0.031   6.586  0.1534 -0.6024 -0.7458
 4207SOL    HW124257   4.493   0.053   6.599  0.9075  2.1449 -0.1468
 4207SOL    HW224258   4.603   0.090   6.513  1.8081 -0.4005 -0.1596
 4208SOL     OW24259   0.345   0.405   8.014  0.3625 -0.0747  0.2790
 4208SOL    HW124260   0.352   0.445   8.101 -1.2293  0.9991 -0.0909
 4208SOL    HW224261   0.329   0.480   7.957 -1.9497 -0.7302  0.0576
 4209SOL     OW24262   3.421   0.818   7.976 -0.2695 -0.0977 -0.2744
 4209SOL    HW124263   3.341   0.792   8.021  1.4644 -1.4306  2.0762
 4209SOL    HW224264   3.415   0.912   7.992 -2.3029 -0.1654 -0.7218
 4210SOL     OW24265   1.556   3.011   5.974  0.1833  0.2134  0.4664
 4210SOL    HW124266   1.573   3.105   5.967 -0.2854  0.3009  0.4981
 4210SOL    HW224267   1.625   2.985   6.035  0.1000  2.0972  1.3604
 4211SOL     OW24268   2.576   3.238   0.875 -0.2748 -0.1222 -0.3343
 4211SOL    HW124269   2.503   3.217   0.933  0.6674 -3.1083 -0.2434
 4211SOL    HW224270   2.645   3.214   0.936  0.4977  0.6225 -0.9049
 4212SOL     OW24271   0.903   2.927   8.666 -0.6682 -0.0305  0.1277
 4212SOL    HW124272   0.841   2.866   8.705 -2.2186  0.8260 -0.9650
 4212SOL    HW224273   0.913   2.994   8.734 -0.0890  2.3204 -2.2496
 4213SOL     OW24274   1.076   3.019   8.087 -0.0159  0.4844 -0.2830
 4213SOL    HW124275   1.106   3.011   8.178  1.1024  1.2582 -0.5839
 4213SOL    HW224276   1.088   3.114   8.081 -2.4382  0.8481  0.2435
 4214SOL     OW24277   2.906   2.522   5.545  0.0564  0.1123  0.0159
 4214SOL    HW124278   2.950   2.449   5.502  0.9645  0.4913  0.2997
 4214SOL    HW224279   2.871   2.479   5.623  1.3436  0.5219  0.8272
 4215SOL     OW24280   1.961   4.047  14.325 -0.3918  0.1312 -0.4154
 4215SOL    HW124281   1.957   3.970  14.268  0.1036  0.7810 -1.3408
 4215SOL    HW224282   2.007   4.006  14.398  0.6229 -0.2384 -1.2567
 4216SOL     OW24283   1.744   2.257   6.528 -0.3098 -0.0828  0.0577
 4216SOL    HW124284   1.835   2.281   6.511  0.0516 -0.7440  1.1040
 4216SOL    HW224285   1.710   2.339   6.566 -0.6775  0.3633 -1.2266
 4217SOL     OW24286   1.779   3.877   8.480 -0.3761 -0.7356  0.7930
 4217SOL    HW124287   1.813   3.965   8.462 -2.4616  0.2495  1.6154
 4217SOL    HW224288   1.854   3.819   8.497 -0.3447 -0.6267  1.0195
 4218SOL     OW24289   3.803   4.491   9.606 -0.2082  0.3355  0.2852
 4218SOL    HW124290   3.860   4.452   9.540  0.4152 -0.1799  1.1155
 4218SOL    HW224291   3.738   4.420   9.605 -0.0955  0.1754  2.7724
 4219SOL     OW24292   3.341   2.726   3.969 -0.1987 -0.2344 -0.0945
 4219SOL    HW124293   3.299   2.787   4.029 -1.0209  1.0096 -1.9081
 4219SOL    HW224294   3.335   2.648   4.023  0.2060 -0.5769 -0.5375
 4220SOL     OW24295   4.425   1.971   3.503 -0.4670  0.1188 -0.1899
 4220SOL    HW124296   4.334   1.972   3.532 -0.6438  1.6072 -0.7857
 4220SOL    HW224297   4.437   1.900   3.440  0.8274 -0.0210  0.2060
 4221SOL     OW24298   1.664   1.613   7.270  0.2474 -0.3408  0.2434
 4221SOL    HW124299   1.579   1.606   7.227 -1.3781  0.8436  3.2145
 4221SOL    HW224300   1.643   1.586   7.359 -0.2904  1.5446  0.6941
 4222SOL     OW24301   0.289   3.663   7.205  0.0504 -0.2224  0.6290
 4222SOL    HW124302   0.211   3.614   7.178 -0.0972  0.5065 -0.2565
 4222SOL    HW224303   0.246   3.719   7.270  2.3300  0.3749  1.6055
 4223SOL     OW24304   1.669   4.158   9.294  0.5061 -0.0165 -0.4847
 4223SOL    HW124305   1.601   4.147   9.360 -0.2629 -0.2153 -1.3068
 4223SOL    HW224306   1.743   4.139   9.351 -0.4194  1.3528  1.1804
 4224SOL     OW24307   3.657   2.345   3.886 -0.3649  0.3306  0.5475
 4224SOL    HW124308   3.567   2.371   3.906 -0.6214  0.1968 -0.4622
 4224SOL    HW224309   3.658   2.348   3.791  3.8640 -0.7422  0.5510
 4225SOL     OW24310   1.294   4.111   6.847  0.1521  0.1063  0.2061
 4225SOL    HW124311   1.293   4.018   6.873 -0.2202 -0.5259 -2.0449
 4225SOL    HW224312   1.211   4.135   6.887  1.9588  4.0002  1.6013
 4226SOL     OW24313   0.806   0.331   4.841 -0.0673 -0.0091 -0.2567
 4226SOL    HW124314   0.801   0.360   4.932  2.6335  1.6585 -0.6313
 4226SOL    HW224315   0.717   0.302   4.825  1.0011 -1.5087 -3.5863
 4227SOL     OW24316   0.898   0.563   4.541  0.1491 -0.2602 -0.4418
 4227SOL    HW124317   0.962   0.602   4.601 -0.1752 -0.0214 -0.2528
 4227SOL    HW224318   0.967   0.520   4.490  0.3784 -0.8504  0.3641
 4228SOL     OW24319   0.297   0.357   7.513 -0.0162 -0.5883 -0.2440
 4228SOL    HW124320   0.240   0.409   7.457 -1.3836 -2.0747 -0.2432
 4228SOL    HW224321   0.309   0.278   7.461  0.3055  0.0310 -1.1081
 4229SOL     OW24322   1.295   1.951   9.188 -0.0036  0.0249  0.5933
 4229SOL    HW124323   1.292   1.865   9.229 -2.7775 -0.0109  0.3733
 4229SOL    HW224324   1.272   2.013   9.258  2.9624  1.9815 -0.2040
 4230SOL     OW24325   2.983   3.261   1.662  0.5747  0.2274 -0.3650
 4230SOL    HW124326   2.974   3.189   1.599  2.2478  0.5306 -0.9790
 4230SOL    HW224327   3.018   3.213   1.737  3.1008 -0.0528 -1.7097
 4231SOL     OW24328   3.641   3.125   2.846  0.4831 -0.1387 -0.1886
 4231SOL    HW124329   3.674   3.212   2.866  0.8316 -0.0977 -0.9382
 4231SOL    HW224330   3.624   3.096   2.936 -0.8616  2.5656  0.4291
 4232SOL     OW24331   4.200   1.886   7.643 -0.3047 -0.1177  0.2932
 4232SOL    HW124332   4.263   1.898   7.715  0.7208 -1.5679 -0.3800
 4232SOL    HW224333   4.118   1.899   7.689 -2.1462 -1.4128 -2.6441
 4233SOL     OW24334   1.681   0.769  10.667  0.3825  0.0684  0.1606
 4233SOL    HW124335   1.663   0.708  10.595 -0.0791 -0.1423  0.4569
 4233SOL    HW224336   1.666   0.706  10.738  1.2428 -0.7311 -0.3585
 4234SOL     OW24337   2.881   3.844   2.057  0.1222 -0.6617 -0.0319
 4234SOL    HW124338   2.792   3.880   2.052  0.5119 -0.3133 -4.2185
 4234SOL    HW224339   2.865   3.764   2.107 -1.7450  1.1107  2.2446
 4235SOL     OW24340   0.416   4.068  12.803  0.0384  0.0457  0.2675
 4235SOL    HW124341   0.459   3.993  12.846  2.6420  1.5256  0.2177
 4235SOL    HW224342   0.378   4.025  12.727  2.6366 -1.0336 -0.4161
 4236SOL     OW24343   0.895   3.290   2.490 -0.1477 -0.5184 -0.5209
 4236SOL    HW124344   0.849   3.345   2.554 -1.3929 -1.9712 -0.1789
 4236SOL    HW224345   0.935   3.221   2.543 -0.0341  0.2752  0.4310
 4237SOL     OW24346   3.051   2.198   5.050  0.1233  0.0478  0.0658
 4237SOL    HW124347   2.991   2.195   4.976 -0.0219 -0.1734  0.1904
 4237SOL    HW224348   3.001   2.187   5.131 -1.1170 -0.3147 -0.7507
 4238SOL     OW24349   1.456   1.196   3.601  0.0728  0.5593 -0.2466
 4238SOL    HW124350   1.476   1.255   3.674 -2.0680 -0.3591  1.0838
 4238SOL    HW224351   1.463   1.122   3.661  0.6867  1.7884  1.2081
 4239SOL     OW24352   0.073   4.686   7.694 -0.0365  0.1817 -0.6581
 4239SOL    HW124353   0.133   4.699   7.768 -2.2719  2.0728  0.8317
 4239SOL    HW224354   0.090   4.593   7.678  0.8284  0.5474 -1.8408
 4240SOL     OW24355   2.810   1.253   8.937 -0.2994 -0.0815  0.3892
 4240SOL    HW124356   2.826   1.165   8.969  0.7388  0.6085  1.7644
 4240SOL    HW224357   2.894   1.290   8.964 -0.7164  0.9450  0.2891
 4241SOL     OW24358   1.211   0.711  14.537 -0.0457  0.4570 -0.3616
 4241SOL    HW124359   1.187   0.646  14.470  2.0136  0.1850 -0.8451
 4241SOL    HW224360   1.235   0.784  14.480 -0.0384  1.1920  0.5890
 4242SOL     OW24361   1.195   4.542  10.386  0.0962 -0.1148 -0.1662
 4242SOL    HW124362   1.115   4.593  10.393 -1.5114 -2.7152  0.3980
 4242SOL    HW224363   1.261   4.611  10.376 -0.3971  0.8748  3.4833
 4243SOL     OW24364   2.618   3.145   0.638  0.1781 -0.3332  0.6677
 4243SOL    HW124365   2.691   3.083   0.633  0.2296 -0.3037  1.0326
 4243SOL    HW224366   2.600   3.171   0.729  0.7609 -0.4853  0.8271
 4244SOL     OW24367   4.698   2.454  15.572 -0.3103  0.5313  0.1053
 4244SOL    HW124368   4.708   2.549  15.575 -4.3629  1.0389 -2.2029
 4244SOL    HW224369   0.042   2.427  15.544  0.0692  2.3997 -0.5638
 4245SOL     OW24370   4.201   4.382   8.950 -0.4042 -0.9236 -0.3632
 4245SOL    HW124371   4.253   4.388   8.871 -0.4618 -1.0322 -0.4107
 4245SOL    HW224372   4.190   4.287   8.955 -2.3337 -0.7149 -0.6799
 4246SOL     OW24373   4.181   3.691  15.334 -0.2427 -0.4262  0.0061
 4246SOL    HW124374   4.178   3.732  15.421 -0.7760  0.1581 -0.2910
 4246SOL    HW224375   4.186   3.769  15.278 -0.0915 -0.8054 -0.4988
 4247SOL     OW24376   1.948   3.596  10.863 -0.1883 -0.2547 -0.1917
 4247SOL    HW124377   1.918   3.684  10.840 -1.0630 -0.4205  0.3030
 4247SOL    HW224378   1.936   3.551  10.779 -1.1185  0.6513 -0.5440
 4248SOL     OW24379   0.773   3.433   7.054  0.3579  0.2785  0.6991
 4248SOL    HW124380   0.775   3.369   6.982  3.4145  2.2517 -0.9549
 4248SOL    HW224381   0.743   3.509   7.005 -0.2748 -0.0471  0.5729
 4249SOL     OW24382   0.178   1.903   9.488  0.3482  0.0651 -0.4607
 4249SOL    HW124383   0.091   1.944   9.488  0.8788  1.1851 -0.3463
 4249SOL    HW224384   0.200   1.909   9.395  1.6816  1.4209 -0.0661
 4250SOL     OW24385   1.963   3.917   2.678  0.6552 -0.1046 -1.1613
 4250SOL    HW124386   1.872   3.889   2.685  0.9447 -0.8636 -0.3830
 4250SOL    HW224387   1.962   3.980   2.607 -1.7938 -1.5942 -2.4435
 4251SOL     OW24388   0.890   1.019   8.897 -0.1709 -0.0077  1.1248
 4251SOL    HW124389   0.937   1.032   8.980 -0.8069  1.8576  1.2058
 4251SOL    HW224390   0.953   0.978   8.838 -1.2708 -0.3296  0.1746
 4252SOL     OW24391   2.816   1.012   6.354  0.0188  0.1506 -0.0697
 4252SOL    HW124392   2.876   1.013   6.280 -4.7927 -0.3716 -3.9411
 4252SOL    HW224393   2.862   1.073   6.412 -1.7366  1.3743  0.0345
 4253SOL     OW24394   2.473   1.262   6.163 -1.0274 -0.8504 -0.4855
 4253SOL    HW124395   2.414   1.228   6.231 -0.5324 -1.1858 -0.2275
 4253SOL    HW224396   2.521   1.185   6.133 -1.4983 -1.1038 -0.5921
 4254SOL     OW24397   4.387   4.363  17.104  0.0161  0.3384  0.4964
 4254SOL    HW124398   4.342   4.299  17.158  0.5841 -0.4912 -0.0225
 4254SOL    HW224399   4.360   4.446  17.144  0.5803  0.8607 -0.2017
 4255SOL     OW24400   4.654   0.531   1.941 -0.2061  0.4232 -0.0426
 4255SOL    HW124401   0.001   0.560   1.932  0.7885 -2.3781  0.9187
 4255SOL    HW224402   4.677   0.458   1.998  3.8506  2.8881  1.4952
 4256SOL     OW24403   4.409   1.138   2.442  0.3746  0.0970 -0.1610
 4256SOL    HW124404   4.419   1.072   2.373  0.1308  0.9253 -0.9934
 4256SOL    HW224405   4.454   1.094   2.514 -0.5055  0.4849  0.6242
 4257SOL     OW24406   4.519   1.047   4.407 -0.0300  0.3903  0.5009
 4257SOL    HW124407   4.561   1.004   4.481  2.3255  1.9082  0.0502
 4257SOL    HW224408   4.454   0.987   4.370 -0.3343 -1.0945  3.5082
 4258SOL     OW24409   1.937   4.129   6.181 -0.1503 -0.1251 -0.5053
 4258SOL    HW124410   1.859   4.148   6.129 -0.3399  1.2973  0.2745
 4258SOL    HW224411   1.902   4.131   6.270  0.7439  0.3187 -0.1596
 4259SOL     OW24412   0.351   2.827  13.584 -0.2920 -0.2537  0.1628
 4259SOL    HW124413   0.290   2.758  13.559 -1.9822  1.4185 -0.3077
 4259SOL    HW224414   0.422   2.772  13.616 -1.4646 -1.6196  0.3708
 4260SOL     OW24415   1.020   2.000  16.670  0.2058  0.1464 -0.2993
 4260SOL    HW124416   1.057   2.088  16.669  0.9770 -0.1723  1.7710
 4260SOL    HW224417   0.936   2.011  16.715  0.4982  0.3719  0.1937
 4261SOL     OW24418   2.727   1.068   3.013  0.8345  0.0642 -0.1168
 4261SOL    HW124419   2.803   1.086   2.958  1.1566 -0.7118  0.0812
 4261SOL    HW224420   2.662   1.137   2.997  1.1605  0.4534  0.2290
 4262SOL     OW24421   0.557   2.039   7.994  0.4083  0.1116 -0.1781
 4262SOL    HW124422   0.529   1.947   7.998  2.1005 -0.4234 -0.8297
 4262SOL    HW224423   0.623   2.039   8.063  1.5444  0.7855 -1.2669
 4263SOL     OW24424   3.714   1.581  12.068 -0.5049 -0.0747 -0.0859
 4263SOL    HW124425   3.700   1.589  12.163 -1.0420  1.5705 -0.3052
 4263SOL    HW224426   3.636   1.624  12.033 -0.3844 -1.8932 -2.5483
 4264SOL     OW24427   4.118   3.498   6.701  0.1685  0.2490 -0.0534
 4264SOL    HW124428   4.063   3.558   6.752 -2.5482 -1.1969 -1.2475
 4264SOL    HW224429   4.137   3.549   6.623  2.3946 -2.3026 -1.1898
 4265SOL     OW24430   2.752   1.059   4.611  0.1960 -0.1868 -0.4037
 4265SOL    HW124431   2.719   0.974   4.640 -2.1608  0.9842  0.3068
 4265SOL    HW224432   2.827   1.072   4.670 -0.5087  1.4073  0.1197
 4266SOL     OW24433   3.118   0.909   5.005 -0.3977  0.1426 -0.4088
 4266SOL    HW124434   3.111   0.932   5.097  1.2209  0.2012 -0.3000
 4266SOL    HW224435   3.068   0.979   4.962 -1.7581 -1.2564 -1.1221
 4267SOL     OW24436   2.080   0.639   9.287 -0.5114 -0.3981 -0.0371
 4267SOL    HW124437   2.052   0.574   9.222  1.0172  0.2670 -1.3672
 4267SOL    HW224438   2.175   0.646   9.278 -0.8200  1.3349 -1.8742
 4268SOL     OW24439   3.271   2.718  10.111  0.6987  0.4811  0.1909
 4268SOL    HW124440   3.263   2.666  10.031 -0.6407  0.6773  0.2032
 4268SOL    HW224441   3.252   2.650  10.176 -0.7933  0.4549 -0.2808
 4269SOL     OW24442   0.734   4.182   1.745  0.3398  0.3404 -0.5126
 4269SOL    HW124443   0.812   4.230   1.774 -0.8381  2.7868 -1.3779
 4269SOL    HW224444   0.747   4.184   1.650  0.2635  0.0344 -0.5282
 4270SOL     OW24445   1.235   0.943   8.013  0.1022 -0.1574  0.1850
 4270SOL    HW124446   1.221   0.968   7.922  3.1969  0.9292 -0.0277
 4270SOL    HW224447   1.320   0.899   8.014  0.1387 -0.1191 -2.2241
 4271SOL     OW24448   1.385   2.156  14.590 -0.1051 -0.2723  0.2413
 4271SOL    HW124449   1.388   2.212  14.512  0.2363  0.0562  0.4880
 4271SOL    HW224450   1.297   2.119  14.582 -0.2250 -0.3216  1.7843
 4272SOL     OW24451   3.380   4.554   8.215  0.6680  0.4490 -0.8877
 4272SOL    HW124452   3.345   4.576   8.129 -2.5392 -0.4256  0.1633
 4272SOL    HW224453   3.439   4.483   8.191 -0.2204  0.2427 -2.4831
 4273SOL     OW24454   4.459   1.259  14.769 -0.2088 -0.3465  0.3983
 4273SOL    HW124455   4.438   1.189  14.831  0.2426 -1.1431 -0.3587
 4273SOL    HW224456   4.478   1.207  14.691 -2.4007 -0.6130  0.0223
 4274SOL     OW24457   1.092   0.374   4.951  0.1976  0.4737 -0.4610
 4274SOL    HW124458   1.025   0.356   4.885 -0.5743 -0.8618  0.6757
 4274SOL    HW224459   1.177   0.373   4.907  0.7124 -1.9516  0.5767
 4275SOL     OW24460   0.617   0.619   3.861 -0.1682 -0.0286  0.0015
 4275SOL    HW124461   0.555   0.684   3.827  0.8633  0.3347 -1.1840
 4275SOL    HW224462   0.571   0.580   3.936  0.7471 -1.7194 -0.3193
 4276SOL     OW24463   0.459   3.610   8.041  0.3430  0.0924  0.2762
 4276SOL    HW124464   0.497   3.687   7.998  2.6917 -0.6073  1.1025
 4276SOL    HW224465   0.494   3.612   8.130 -1.6282  1.1021  1.0232
 4277SOL     OW24466   2.099   4.223   7.103 -0.3308 -0.6528 -0.2901
 4277SOL    HW124467   2.061   4.237   7.017  1.2188  0.3941 -0.7965
 4277SOL    HW224468   2.186   4.190   7.081  0.6442  1.4101  0.4766
 4278SOL     OW24469   3.340   1.353  17.204 -0.4061  0.0593  0.0054
 4278SOL    HW124470   3.380   1.380  17.287  1.9027 -1.1035 -0.7150
 4278SOL    HW224471   3.246   1.356  17.223  0.2572  1.9190  3.0679
 4279SOL     OW24472   3.226   4.402   5.847  0.6285 -0.1407 -0.2790
 4279SOL    HW124473   3.289   4.471   5.827 -0.3853  0.5612 -0.9844
 4279SOL    HW224474   3.217   4.404   5.943 -0.1566  2.0685 -0.4202
 4280SOL     OW24475   4.153   0.852   2.186  0.1225  0.0523 -0.3446
 4280SOL    HW124476   4.070   0.836   2.140 -2.1439 -0.2936  3.8217
 4280SOL    HW224477   4.187   0.929   2.141  0.2985  1.1344  1.6102
 4281SOL     OW24478   4.727   2.767   7.404  0.4935  0.1755  0.3695
 4281SOL    HW124479   0.047   2.745   7.336 -0.6268  1.4231 -1.0990
 4281SOL    HW224480   4.711   2.861   7.401  2.0173  0.4587  1.0727
 4282SOL     OW24481   1.966   0.479   7.447  0.3421 -0.2368  0.7596
 4282SOL    HW124482   2.041   0.456   7.392 -0.2547 -0.0557 -0.1412
 4282SOL    HW224483   1.889   0.439   7.405 -0.2099 -0.0204  1.5648
 4283SOL     OW24484   3.472   0.188   4.682  0.1203 -0.6737  0.1554
 4283SOL    HW124485   3.392   0.140   4.702  0.7840 -1.4914  0.8426
 4283SOL    HW224486   3.488   0.226   4.768 -0.5246 -0.7980  0.3261
 4284SOL     OW24487   4.391   2.633   6.922  0.2530 -0.2265  0.0726
 4284SOL    HW124488   4.422   2.684   6.996  0.3744 -1.0072  0.5571
 4284SOL    HW224489   4.299   2.612   6.939  0.6332 -0.9548  1.2098
 4285SOL     OW24490   1.263   3.005   5.208 -0.2324 -0.3446  0.1608
 4285SOL    HW124491   1.306   2.920   5.206 -0.6999 -0.5564 -0.7785
 4285SOL    HW224492   1.281   3.044   5.123 -1.3901 -1.1712 -0.4542
 4286SOL     OW24493   3.112   4.565   4.693 -0.4203  0.3380  0.0955
 4286SOL    HW124494   3.071   4.544   4.776 -1.6240 -0.6600 -0.7432
 4286SOL    HW224495   3.035   4.554   4.637 -1.1136  1.2880  0.8489
 4287SOL     OW24496   0.832   4.560   3.147  0.7255  0.3265  0.1665
 4287SOL    HW124497   0.817   4.471   3.180 -1.6695  1.1410  1.2549
 4287SOL    HW224498   0.846   4.549   3.053  2.3424  0.4165  0.3928
 4288SOL     OW24499   3.357   4.157  16.237 -0.8864  0.0594  0.4780
 4288SOL    HW124500   3.418   4.101  16.188 -0.0224  1.3001  0.1404
 4288SOL    HW224501   3.416   4.228  16.262 -1.8494  0.5298  1.3943
 4289SOL     OW24502   0.043   3.151  15.193  0.6546  0.7587 -0.3605
 4289SOL    HW124503   0.063   3.175  15.284  1.7370  0.9661 -0.6595
 4289SOL    HW224504   0.110   3.086  15.175  0.4977  1.4229 -3.2431
 4290SOL     OW24505   0.330   1.704  17.556  0.3627  0.4931  0.1008
 4290SOL    HW124506   0.260   1.639  17.562  2.2523 -1.8081 -3.0377
 4290SOL    HW224507   0.289   1.774  17.607  1.4542  0.8970  0.4192
 4291SOL     OW24508   3.253   1.938   7.485 -0.4996  1.1214 -0.2731
 4291SOL    HW124509   3.169   1.906   7.450  0.3878 -1.0513 -0.3937
 4291SOL    HW224510   3.306   1.869   7.445 -1.0293  0.7267 -0.3075
 4292SOL     OW24511   3.315   2.479  10.993 -0.2417  0.0159  0.1103
 4292SOL    HW124512   3.226   2.483  11.026  0.5140  0.7950  2.0747
 4292SOL    HW224513   3.358   2.449  11.074 -0.7455  0.7225  0.6448
 4293SOL     OW24514   3.093   0.972   5.291 -0.3502  0.1704  0.1887
 4293SOL    HW124515   3.127   1.061   5.302  1.5751 -0.5380  0.0974
 4293SOL    HW224516   3.003   0.992   5.266 -0.0156 -1.2177 -2.1687
 4294SOL     OW24517   3.831   3.229   7.558  0.3643  0.2355 -0.0477
 4294SOL    HW124518   3.879   3.164   7.507 -1.3310  0.5603 -2.0613
 4294SOL    HW224519   3.904   3.265   7.609  0.6961 -0.2372 -0.1896
 4295SOL     OW24520   4.355   1.512  11.245 -0.3598 -0.2938 -0.5858
 4295SOL    HW124521   4.376   1.597  11.286  0.7839 -0.2872 -1.1851
 4295SOL    HW224522   4.383   1.470  11.327 -0.5166  0.5826 -0.0769
 4296SOL     OW24523   4.659   1.374   9.333 -0.4546  0.4074 -0.0635
 4296SOL    HW124524   4.643   1.318   9.257  0.8652 -1.8017  1.3058
 4296SOL    HW224525   4.592   1.439   9.312  2.0804  3.0428 -0.1056
 4297SOL     OW24526   1.147   2.681   9.879  0.1125  0.0044 -0.0711
 4297SOL    HW124527   1.133   2.653   9.970 -1.4445 -1.6110 -0.8073
 4297SOL    HW224528   1.129   2.775   9.885  1.3609  0.2422 -0.1953
 4298SOL     OW24529   2.798   4.130   1.645 -0.0876 -0.2832  0.1014
 4298SOL    HW124530   2.788   4.034   1.648  1.6336 -0.3884  2.1343
 4298SOL    HW224531   2.839   4.157   1.563  0.1815  1.5731  0.8502
 4299SOL     OW24532   1.203   4.464   5.203  0.0871 -0.0145 -0.2301
 4299SOL    HW124533   1.182   4.474   5.110 -2.7902  0.5424  0.5012
 4299SOL    HW224534   1.125   4.502   5.243 -0.0662  0.8218 -1.3198
 4300SOL     OW24535   4.556   2.684   3.013 -0.1076 -0.0948 -0.0092
 4300SOL    HW124536   4.567   2.653   3.103  1.2193  0.3234 -0.0401
 4300SOL    HW224537   4.558   2.778   3.031 -0.3035  0.0898 -0.9598
 4301SOL     OW24538   4.222   2.929   7.501  0.0428 -0.8049 -0.1588
 4301SOL    HW124539   4.131   2.948   7.482 -0.0130 -1.3546 -0.4347
 4301SOL    HW224540   4.221   2.940   7.596  2.0616 -0.1751 -0.2063
 4302SOL     OW24541   2.421   0.393   3.809  0.4370  0.1132 -0.1123
 4302SOL    HW124542   2.389   0.481   3.827 -4.9565 -2.1904  1.2804
 4302SOL    HW224543   2.427   0.421   3.718  1.0591 -0.2138 -0.1721
 4303SOL     OW24544   0.585   4.417   6.509 -0.7681 -0.4997 -0.4939
 4303SOL    HW124545   0.615   4.379   6.427 -0.2183 -0.4543 -0.3156
 4303SOL    HW224546   0.583   4.336   6.561  1.3553 -0.8933 -1.0426
 4304SOL     OW24547   3.584   3.944   7.605  0.2063 -0.1879  0.3102
 4304SOL    HW124548   3.647   3.978   7.668  0.5350  0.2464 -0.2527
 4304SOL    HW224549   3.549   3.877   7.662 -0.7715 -0.2135 -0.3091
 4305SOL     OW24550   2.172   0.769  16.221  0.2069 -0.8783  0.1158
 4305SOL    HW124551   2.111   0.697  16.236 -0.4031 -0.4636 -0.3542
 4305SOL    HW224552   2.145   0.830  16.290  0.6967 -1.7734  1.0916
 4306SOL     OW24553   1.033   4.227   7.871 -0.0573  0.1539 -0.3343
 4306SOL    HW124554   1.001   4.256   7.956  0.5062  1.4728 -0.5681
 4306SOL    HW224555   0.995   4.288   7.807 -0.2203  0.4021  0.0023
 4307SOL     OW24556   3.642   4.477  10.553  0.4651 -0.5207  0.7283
 4307SOL    HW124557   3.549   4.490  10.572  0.3916 -0.8980  0.6250
 4307SOL    HW224558   3.633   4.439  10.466  1.4351  0.3247  0.2599
 4308SOL     OW24559   0.603   2.483  14.415 -0.1408 -0.6032 -0.3285
 4308SOL    HW124560   0.673   2.497  14.350 -1.4913  0.1581 -1.6125
 4308SOL    HW224561   0.547   2.558  14.397  1.4817  0.8762  0.7835
 4309SOL     OW24562   4.062   2.160  11.119 -0.6974  0.1644 -0.6072
 4309SOL    HW124563   4.136   2.157  11.180 -0.8004 -0.0284 -0.4915
 4309SOL    HW224564   4.105   2.141  11.036  1.6526 -0.6305  0.8116
 4310SOL     OW24565   2.357   4.550   9.826  0.2630  0.3647  0.1073
 4310SOL    HW124566   2.392   4.559   9.915  2.1341  2.7093 -0.8586
 4310SOL    HW224567   2.430   4.518   9.774  0.8278  0.2177  0.9934
 4311SOL     OW24568   1.658   1.022   4.377  0.3243  0.3915 -0.0516
 4311SOL    HW124569   1.710   0.971   4.316 -0.0389 -1.3988  1.1143
 4311SOL    HW224570   1.663   0.960   4.450 -1.3769 -0.1357 -0.3750
 4312SOL     OW24571   2.857   2.537   8.596  0.3172 -0.5382 -0.4127
 4312SOL    HW124572   2.886   2.578   8.677  1.9057  0.7467 -1.6203
 4312SOL    HW224573   2.824   2.611   8.545 -0.6894 -0.3137  0.5610
 4313SOL     OW24574   4.470   2.588   3.266 -0.3243  0.4401  0.1893
 4313SOL    HW124575   4.435   2.499   3.262 -2.1939  1.2045 -0.8383
 4313SOL    HW224576   4.388   2.633   3.242 -0.2793  0.4078 -0.0277
 4314SOL     OW24577   2.724   4.582  12.399 -0.2188  0.1308  0.3590
 4314SOL    HW124578   2.776   4.663  12.404 -0.5620  0.3058  1.0105
 4314SOL    HW224579   2.793   4.520  12.375  1.1824  0.8788  2.4552
 4315SOL     OW24580   4.081   2.655   7.742  0.5757  0.6684 -0.1391
 4315SOL    HW124581   4.108   2.686   7.829 -0.4268 -2.3425  1.2239
 4315SOL    HW224582   4.165   2.616   7.717 -0.0585 -0.1031 -1.0664
 4316SOL     OW24583   4.688   3.674   6.561 -0.2583  0.0999 -0.2806
 4316SOL    HW124584   0.021   3.678   6.505 -0.7892  0.6625 -0.9775
 4316SOL    HW224585   4.732   3.681   6.646 -0.9222 -0.1502  0.0905
 4317SOL     OW24586   2.843   1.700   6.909 -0.1558 -0.2097 -0.4447
 4317SOL    HW124587   2.759   1.733   6.942  1.9659  6.0294 -1.3504
 4317SOL    HW224588   2.866   1.626   6.966 -1.3062 -1.1885 -1.2382
 4318SOL     OW24589   0.319   1.605   4.344  0.0832  0.0871  0.2672
 4318SOL    HW124590   0.396   1.649   4.307  1.0351 -1.2556  0.6458
 4318SOL    HW224591   0.349   1.520   4.374  0.3554 -0.2192 -0.8851
 4319SOL     OW24592   3.402   0.314   1.612  0.4371  0.1250 -0.3509
 4319SOL    HW124593   3.341   0.250   1.576 -0.4550  0.5305  0.4398
 4319SOL    HW224594   3.458   0.324   1.534  0.5545 -0.5283 -0.3466
 4320SOL     OW24595   1.970   3.022  15.433  0.2375 -0.4093  0.3661
 4320SOL    HW124596   2.049   2.970  15.450  1.6196  1.8877  0.9319
 4320SOL    HW224597   1.911   3.002  15.505 -1.1467  0.2448 -0.5716
 4321SOL     OW24598   4.621   1.259  16.393 -0.3937 -0.1743  0.1378
 4321SOL    HW124599   4.637   1.248  16.299  2.2651 -0.4208  0.6373
 4321SOL    HW224600   4.666   1.176  16.407  1.1145  1.1888  3.3212
 4322SOL     OW24601   0.282   1.589  12.972 -0.1970  0.4377 -0.2613
 4322SOL    HW124602   0.291   1.648  13.047  0.5377  0.3404 -0.2679
 4322SOL    HW224603   0.352   1.527  12.994 -1.3400 -1.3794 -1.7016
 4323SOL     OW24604   4.561   0.788  14.859  0.0515 -0.0706  0.4922
 4323SOL    HW124605   4.547   0.716  14.798 -0.5418  0.8478 -0.4524
 4323SOL    HW224606   4.617   0.738  14.919  0.0294  1.7600  2.0642
 4324SOL     OW24607   0.484   1.438   4.837 -0.0122  0.5970  0.3464
 4324SOL    HW124608   0.508   1.495   4.910 -0.8913  0.5711  0.6487
 4324SOL    HW224609   0.568   1.397   4.815  1.0409  1.4080  2.8933
 4325SOL     OW24610   2.139   0.922   4.496  0.3226 -0.3391 -0.0525
 4325SOL    HW124611   2.143   0.981   4.570  1.7762 -1.7292  0.9801
 4325SOL    HW224612   2.208   0.957   4.439 -0.4617  1.8344  0.3651
 4326SOL     OW24613   2.852   3.836   9.027  0.3392  0.6848 -0.6110
 4326SOL    HW124614   2.836   3.766   9.090 -0.8257  0.3473 -1.2788
 4326SOL    HW224615   2.786   3.896   9.061 -0.1748  1.1012 -2.3503
 4327SOL     OW24616   2.729   2.752   6.802 -0.2483 -0.0747 -0.4625
 4327SOL    HW124617   2.723   2.774   6.895  0.6118 -0.4263 -0.3287
 4327SOL    HW224618   2.635   2.735   6.791 -0.2512  0.9080 -2.0570
 4328SOL     OW24619   3.110   4.438   9.187  0.1351  0.1957  0.6374
 4328SOL    HW124620   3.126   4.445   9.093 -2.9368  0.2847  0.1338
 4328SOL    HW224621   3.019   4.464   9.194 -0.7863 -2.5981 -0.8342
 4329SOL     OW24622   3.181   4.107   1.532  0.3380  0.4580 -0.2245
 4329SOL    HW124623   3.099   4.139   1.493  0.0039  1.7517  1.5291
 4329SOL    HW224624   3.238   4.182   1.518  0.4807  0.2314 -0.8201
 4330SOL     OW24625   0.630   2.990   5.813  0.1530 -0.4782  0.4504
 4330SOL    HW124626   0.573   2.913   5.820 -0.0885 -0.2828  0.6300
 4330SOL    HW224627   0.663   3.001   5.902  0.6582 -1.1843  0.3531
 4331SOL     OW24628   3.423   2.363  10.087  0.3626 -0.5584 -0.0998
 4331SOL    HW124629   3.353   2.306  10.120 -0.7342 -1.1837 -3.5284
 4331SOL    HW224630   3.444   2.316  10.006 -0.0375 -1.5913  0.3892
 4332SOL     OW24631   3.542   3.423  15.622  0.1321  0.4469  0.1868
 4332SOL    HW124632   3.606   3.484  15.585  1.1515 -1.7690 -1.6386
 4332SOL    HW224633   3.473   3.484  15.647 -2.0440 -1.1749 -1.9137
 4333SOL     OW24634   2.194   3.269   5.233 -0.2323  0.1465 -0.0420
 4333SOL    HW124635   2.283   3.306   5.232  0.3172 -1.1866 -0.3271
 4333SOL    HW224636   2.206   3.207   5.161 -1.4799 -0.3809  0.2154
 4334SOL     OW24637   0.812   3.131   6.851 -0.3336 -0.5119  0.2502
 4334SOL    HW124638   0.764   3.100   6.928  1.9612 -1.1159  1.4620
 4334SOL    HW224639   0.830   3.046   6.810 -1.3773 -0.4241 -0.3645
 4335SOL     OW24640   1.615   1.354  12.219 -0.0561  0.2396  0.0491
 4335SOL    HW124641   1.545   1.372  12.282 -0.2598 -1.1755  0.2355
 4335SOL    HW224642   1.556   1.374  12.146  1.4468 -1.1245 -1.5297
 4336SOL     OW24643   3.170   3.249  10.384  0.2888 -0.0282  0.5509
 4336SOL    HW124644   3.088   3.209  10.355 -0.6511 -0.9357  4.5043
 4336SOL    HW224645   3.181   3.199  10.464  0.6202 -0.8352  0.0028
 4337SOL     OW24646   0.373   3.408   7.145  0.3487 -0.3636  0.2730
 4337SOL    HW124647   0.282   3.379   7.150  0.2180  0.2144  1.4631
 4337SOL    HW224648   0.368   3.495   7.186  0.2567  0.3217 -1.2030
 4338SOL     OW24649   3.145   1.875   2.130  0.5984 -0.3690 -0.1064
 4338SOL    HW124650   3.085   1.942   2.096  0.0207 -0.4919  0.6856
 4338SOL    HW224651   3.099   1.858   2.212  1.7523 -2.1583  0.1709
 4339SOL     OW24652   4.731   1.181   5.811 -0.1101 -0.5570  0.5622
 4339SOL    HW124653   0.026   1.214   5.892 -0.2376 -0.9836  0.8000
 4339SOL    HW224654   4.644   1.220   5.815 -0.1000 -0.5142  0.3660
 4340SOL     OW24655   2.550   1.880   4.418  0.4490 -0.1565  0.2984
 4340SOL    HW124656   2.644   1.895   4.403  0.0695  1.5505 -0.3628
 4340SOL    HW224657   2.547   1.784   4.411 -2.4163 -0.0392  0.0655
 4341SOL     OW24658   2.713   2.673   4.204 -0.0343  0.1285  0.2801
 4341SOL    HW124659   2.652   2.730   4.157  0.3591  0.8189  0.5986
 4341SOL    HW224660   2.759   2.638   4.128 -2.3593 -3.8048  0.6764
 4342SOL     OW24661   0.729   2.336  12.669  0.1725 -0.2635 -0.3476
 4342SOL    HW124662   0.712   2.286  12.589  0.3221 -1.1794  0.1800
 4342SOL    HW224663   0.654   2.317  12.725 -0.1940 -1.2969 -1.1917
 4343SOL     OW24664   4.458   0.505   4.802  0.7100 -0.1672  0.2510
 4343SOL    HW124665   4.433   0.550   4.721 -0.5125  1.4609  1.5332
 4343SOL    HW224666   4.525   0.447   4.766  0.8108  1.2671 -1.8873
 4344SOL     OW24667   1.255   1.542   4.364  0.0250 -0.3568  0.5918
 4344SOL    HW124668   1.298   1.618   4.326  0.1898 -1.9659 -2.4790
 4344SOL    HW224669   1.294   1.472   4.312 -0.1008 -0.0687  0.1073
 4345SOL     OW24670   4.243   2.637   8.272  0.1137 -0.1408  0.6297
 4345SOL    HW124671   4.272   2.550   8.245  0.1443  0.1960 -0.4125
 4345SOL    HW224672   4.288   2.635   8.357 -0.0580 -0.3364  0.7166
 4346SOL     OW24673   0.252   1.423   7.328 -0.6413 -0.2696 -0.2191
 4346SOL    HW124674   0.214   1.480   7.394 -0.2708 -2.7318  2.1448
 4346SOL    HW224675   0.312   1.484   7.286 -1.2553 -0.3490 -1.1915
 4347SOL     OW24676   3.866   0.802   8.505  0.0746 -0.0199  0.5373
 4347SOL    HW124677   3.885   0.730   8.566 -0.6303 -0.9929 -0.3852
 4347SOL    HW224678   3.779   0.782   8.471 -0.0465 -1.0055  1.4099
 4348SOL     OW24679   1.159   0.481   2.296 -0.2465  0.0123  0.0251
 4348SOL    HW124680   1.066   0.459   2.293 -0.2408 -0.2359  1.5262
 4348SOL    HW224681   1.165   0.524   2.382  2.2008 -1.0083  0.3788
 4349SOL     OW24682   3.684   2.964  10.805 -0.6614 -0.0182  0.5252
 4349SOL    HW124683   3.744   2.892  10.786 -1.0044  0.1498 -1.2767
 4349SOL    HW224684   3.673   2.942  10.897  0.3558 -0.6165  0.5029
 4350SOL     OW24685   2.238   2.395   1.742  0.2232 -0.1847 -0.5953
 4350SOL    HW124686   2.231   2.416   1.835  3.4389  1.8528 -0.7961
 4350SOL    HW224687   2.161   2.434   1.701 -0.8056  0.0545  1.5784
 4351SOL     OW24688   4.284   4.282   2.171  0.0905 -0.6428 -0.0461
 4351SOL    HW124689   4.241   4.274   2.086 -1.5972  0.9112  0.6533
 4351SOL    HW224690   4.244   4.367   2.193  1.3490  0.1353 -0.7487
 4352SOL     OW24691   3.343   3.028   7.439  0.0721  0.0796  0.0258
 4352SOL    HW124692   3.262   3.057   7.397 -0.7400 -1.5913  0.4097
 4352SOL    HW224693   3.402   3.097   7.410  1.0859 -0.9028 -0.2349
 4353SOL     OW24694   4.136   1.369   8.247 -0.1314  0.2806 -0.0402
 4353SOL    HW124695   4.157   1.276   8.240  0.8599  0.5401 -0.5040
 4353SOL    HW224696   4.063   1.380   8.187 -1.4262 -2.1927  1.0925
 4354SOL     OW24697   1.367   3.227   1.645 -0.2394 -0.0698  0.2258
 4354SOL    HW124698   1.343   3.282   1.720 -2.7923 -1.4373  0.4243
 4354SOL    HW224699   1.294   3.248   1.587  0.7388 -1.5021 -1.5161
 4355SOL     OW24700   4.135   1.473   5.891  0.7836 -0.1747  0.0205
 4355SOL    HW124701   4.102   1.393   5.932 -2.4336  1.1049 -0.0754
 4355SOL    HW224702   4.129   1.530   5.967  1.8682  0.6070 -0.4798
 4356SOL     OW24703   2.381   1.889  16.352 -0.1633 -0.1466 -0.1706
 4356SOL    HW124704   2.358   1.817  16.293  0.7355 -0.4829 -0.1030
 4356SOL    HW224705   2.386   1.961  16.289 -1.3659  0.7008  0.7098
 4357SOL     OW24706   4.221   0.769   6.400 -0.0536  0.0996  0.3093
 4357SOL    HW124707   4.246   0.858   6.377  1.6152 -0.4958 -0.2406
 4357SOL    HW224708   4.300   0.719   6.378  0.2595  0.8419 -0.2653
 4358SOL     OW24709   1.299   4.096   8.907 -0.3037  0.2555  0.1640
 4358SOL    HW124710   1.248   4.132   8.835 -0.6802 -1.2521 -0.3196
 4358SOL    HW224711   1.310   4.002   8.891  0.8203  0.2914  0.6569
 4359SOL     OW24712   4.447   0.042   5.567 -0.4041  0.6553  0.2555
 4359SOL    HW124713   4.442   0.027   5.472 -0.3918  0.2045  0.3247
 4359SOL    HW224714   4.374   4.731   5.596 -0.4744  0.5594 -0.1003
 4360SOL     OW24715   2.021   2.465   8.263 -0.1070 -0.5146 -0.4770
 4360SOL    HW124716   1.996   2.497   8.349  1.0639  0.7012 -0.5813
 4360SOL    HW224717   2.111   2.434   8.274  0.6155  0.8294 -2.6981
 4361SOL     OW24718   4.705   4.255   3.145 -0.1933 -0.1530  0.1449
 4361SOL    HW124719   4.630   4.226   3.197 -1.1294 -0.4455 -1.3872
 4361SOL    HW224720   4.665   4.296   3.069  3.4788 -0.7901 -2.1160
 4362SOL     OW24721   2.694   3.450   5.238  0.1244  0.3170  0.3470
 4362SOL    HW124722   2.743   3.378   5.199 -0.7076  0.7506 -1.5358
 4362SOL    HW224723   2.761   3.519   5.238  1.7006 -1.2248  0.9167
 4363SOL     OW24724   1.149   4.564   1.772  0.2257 -0.3422  0.1199
 4363SOL    HW124725   1.226   4.506   1.770  0.6004  0.2450 -2.0153
 4363SOL    HW224726   1.186   4.635   1.721  1.9410 -2.4547 -1.6138
 4364SOL     OW24727   2.462   3.311   8.360  0.1741  0.0527  0.8552
 4364SOL    HW124728   2.412   3.343   8.435 -0.2332 -1.4363  1.2199
 4364SOL    HW224729   2.421   3.225   8.353  0.5309  0.1090 -1.9153
 4365SOL     OW24730   1.158   4.573   0.793 -0.0602  0.5047  0.1422
 4365SOL    HW124731   1.127   4.651   0.747 -0.3819 -1.5802 -3.1982
 4365SOL    HW224732   1.244   4.567   0.752 -0.3061 -1.9430  0.0033
 4366SOL     OW24733   2.732   1.047  16.616 -0.7499  0.3963  0.2248
 4366SOL    HW124734   2.784   1.017  16.691 -1.6275 -0.3183  0.5400
 4366SOL    HW224735   2.767   1.136  16.607  1.1787 -0.3538  0.2224
 4367SOL     OW24736   4.122   0.629   6.755 -0.5147  0.4719  0.0106
 4367SOL    HW124737   4.199   0.682   6.737  1.6776 -3.0019 -0.8911
 4367SOL    HW224738   4.083   0.635   6.668  1.5415 -1.5858 -1.0462
 4368SOL     OW24739   1.625   3.464   0.864 -0.9439 -0.4249 -0.3517
 4368SOL    HW124740   1.587   3.539   0.818  0.4496  0.0759 -0.6861
 4368SOL    HW224741   1.658   3.411   0.791 -1.0531  0.1447 -0.8135
 4369SOL     OW24742   3.042   0.587  13.428  0.1651 -0.1643  0.0993
 4369SOL    HW124743   2.961   0.594  13.378 -0.1357 -1.8298  0.3530
 4369SOL    HW224744   3.015   0.632  13.508  3.2024  0.6461  0.6589
 4370SOL     OW24745   4.022   0.738   3.035 -0.5714 -0.1536 -0.2261
 4370SOL    HW124746   4.115   0.758   3.045 -1.2754  3.3260 -0.6706
 4370SOL    HW224747   4.010   0.647   3.061  0.9633  0.1250  1.4280
 4371SOL     OW24748   3.394   2.561   2.842  0.3046  0.3863 -0.3366
 4371SOL    HW124749   3.450   2.512   2.902  0.2628  1.4273  0.5388
 4371SOL    HW224750   3.449   2.571   2.763  0.4683 -0.8980 -0.3805
 4372SOL     OW24751   1.648   1.207   5.983  0.0410  0.1470 -0.0608
 4372SOL    HW124752   1.560   1.189   6.018 -0.3099  0.3697 -0.8356
 4372SOL    HW224753   1.687   1.129   6.023 -0.3327 -0.5785 -1.0948
 4373SOL     OW24754   2.119   1.816   1.364  0.1040  0.3871  0.3709
 4373SOL    HW124755   2.142   1.873   1.291 -1.3244  1.5265  0.8120
 4373SOL    HW224756   2.200   1.817   1.414  1.0223  1.6918 -1.1367
 4374SOL     OW24757   1.542   3.328  14.814 -0.1908 -0.7149  0.1693
 4374SOL    HW124758   1.453   3.361  14.828  0.3502  0.4964  0.8212
 4374SOL    HW224759   1.599   3.386  14.865  1.0922 -0.9172 -1.0524
 4375SOL     OW24760   2.070   3.942   4.602  0.4617  0.2503 -0.5812
 4375SOL    HW124761   2.144   3.997   4.576  0.3456  1.9763  2.7854
 4375SOL    HW224762   2.024   3.939   4.519 -1.2633 -1.1493  0.4397
 4376SOL     OW24763   1.288   4.350   3.013 -0.1644  0.5247  0.4861
 4376SOL    HW124764   1.193   4.339   3.016 -0.0165 -0.8783  0.0694
 4376SOL    HW224765   1.309   4.399   3.093  0.9368  0.9372 -0.0679
 4377SOL     OW24766   3.841   3.599   8.253 -0.2634  0.1382 -0.1893
 4377SOL    HW124767   3.845   3.587   8.158 -0.2471 -0.9889 -0.0428
 4377SOL    HW224768   3.773   3.534   8.269 -1.2339  1.0169 -0.7220
 4378SOL     OW24769   3.952   0.831  14.557  0.4472 -0.0003  0.2965
 4378SOL    HW124770   3.911   0.887  14.623  0.1910 -0.4949  0.5583
 4378SOL    HW224771   3.975   0.888  14.484 -0.4040 -0.0661 -0.0185
 4379SOL     OW24772   2.304   3.586   4.011 -0.2920  0.0332  0.1316
 4379SOL    HW124773   2.362   3.513   4.035 -0.6450  0.2165  1.5225
 4379SOL    HW224774   2.216   3.548   4.005 -0.1505 -0.5894  1.7907
 4380SOL     OW24775   1.192   0.796   4.779 -0.5283 -0.0792 -0.0015
 4380SOL    HW124776   1.106   0.777   4.816 -0.9736 -0.0344 -0.9969
 4380SOL    HW224777   1.238   0.725   4.823  0.9092  0.4386 -0.6669
 4381SOL     OW24778   1.649   4.425   4.968  0.2040  0.2291 -0.5894
 4381SOL    HW124779   1.581   4.492   4.965  0.6424  0.7120  0.5528
 4381SOL    HW224780   1.701   4.459   5.040 -0.3946  0.4806 -0.2800
 4382SOL     OW24781   0.236   1.069  10.537 -0.3066  0.7851  0.0446
 4382SOL    HW124782   0.222   1.129  10.609 -1.5662 -0.1752  0.5979
 4382SOL    HW224783   0.255   1.127  10.463  0.7148  2.0317  1.2939
 4383SOL     OW24784   1.813   2.721   0.133  0.0576 -0.3609 -0.0608
 4383SOL    HW124785   1.821   2.777   0.056 -1.4400 -1.6055 -1.1026
 4383SOL    HW224786   1.823   2.786   0.203 -2.3677 -0.5814  0.4840
 4384SOL     OW24787   3.669   1.989   2.291 -0.1763 -0.2173 -0.3373
 4384SOL    HW124788   3.598   1.935   2.256 -0.8825 -0.0833  0.8654
 4384SOL    HW224789   3.628   2.036   2.364 -1.9403  2.1075 -2.8552
 4385SOL     OW24790   4.584   2.254   0.564  0.1429 -0.3899 -0.1318
 4385SOL    HW124791   4.514   2.196   0.593 -0.7261  1.1531  0.8935
 4385SOL    HW224792   4.550   2.282   0.479 -1.4956  1.1569  1.0411
 4386SOL     OW24793   1.474   1.784   8.302  0.1292  0.1123  0.1222
 4386SOL    HW124794   1.392   1.828   8.280 -0.9877 -1.9091  0.2749
 4386SOL    HW224795   1.465   1.700   8.257 -2.2141 -0.5481  1.8559
 4387SOL     OW24796   3.449   3.637   5.051 -0.1811 -0.9085 -0.1200
 4387SOL    HW124797   3.499   3.657   4.972  0.1945 -1.8425 -0.1061
 4387SOL    HW224798   3.384   3.580   5.011 -0.2176 -1.5494  0.8626
 4388SOL     OW24799   1.037   4.437   9.018  0.6020 -0.0466 -0.4454
 4388SOL    HW124800   1.101   4.507   9.029  0.5357 -0.5040  3.0400
 4388SOL    HW224801   1.084   4.354   9.027 -0.0816 -0.2135  1.6231
 4389SOL     OW24802   3.225   0.929   8.593  0.4562 -0.0782  0.5151
 4389SOL    HW124803   3.140   0.973   8.594  0.1735 -0.5509 -1.9405
 4389SOL    HW224804   3.219   0.884   8.677  0.8227 -0.0717  0.5451
 4390SOL     OW24805   1.512   1.460  15.385 -0.1672  0.1113  0.0222
 4390SOL    HW124806   1.448   1.396  15.416 -0.3831 -0.0227 -0.6920
 4390SOL    HW224807   1.591   1.417  15.417  1.1171  1.1315 -1.8056
 4391SOL     OW24808   3.693   0.979   8.109  0.3915 -0.1827  0.1246
 4391SOL    HW124809   3.730   0.960   8.023  1.2930 -0.0256  0.4796
 4391SOL    HW224810   3.723   0.900   8.155  0.0065  0.1079  0.8811
 4392SOL     OW24811   0.419   0.947  13.001 -0.1362  0.0286 -0.1667
 4392SOL    HW124812   0.425   1.001  13.080  0.3390 -3.6725  2.3282
 4392SOL    HW224813   0.375   1.002  12.936  0.7478 -0.6700 -1.3486
 4393SOL     OW24814   3.294   1.322   3.277  0.1454  0.0693 -0.0380
 4393SOL    HW124815   3.200   1.302   3.275 -0.1251  1.0693  2.6288
 4393SOL    HW224816   3.319   1.243   3.229 -0.3297  0.8798 -1.6110
 4394SOL     OW24817   2.264   2.408  14.710  0.0413 -0.3763  0.0267
 4394SOL    HW124818   2.326   2.428  14.640  1.0190 -0.4092  0.8786
 4394SOL    HW224819   2.284   2.482  14.767 -0.5610  0.5087 -0.9105
 4395SOL     OW24820   4.118   2.469   5.490 -0.5778  0.0115  0.2197
 4395SOL    HW124821   4.146   2.526   5.418 -1.8992  0.2571 -0.0943
 4395SOL    HW224822   4.074   2.530   5.550 -0.3280 -1.3584  1.8043
 4396SOL     OW24823   1.325   1.007   1.755 -0.1852  0.2878 -0.3510
 4396SOL    HW124824   1.294   1.042   1.838 -0.0212  2.5516 -1.2166
 4396SOL    HW224825   1.240   1.008   1.710 -1.1985 -1.1231  1.5146
 4397SOL     OW24826   2.041   4.294   6.550  0.2423 -0.4725 -0.2067
 4397SOL    HW124827   2.130   4.306   6.517  0.1837  1.2764  0.2522
 4397SOL    HW224828   2.015   4.383   6.574 -0.8867 -0.2596 -2.1564
 4398SOL     OW24829   3.655   1.907   6.519 -0.2349  0.0103 -0.3336
 4398SOL    HW124830   3.646   1.894   6.424  0.2642 -0.9759 -0.2436
 4398SOL    HW224831   3.716   1.838   6.544 -1.7048 -1.6736 -1.4786
 4399SOL     OW24832   3.411   2.190   3.645 -0.6021 -0.0189  0.2550
 4399SOL    HW124833   3.360   2.240   3.708 -0.2552  0.8953 -0.1960
 4399SOL    HW224834   3.460   2.130   3.701 -0.1343  0.3284  0.2163
 4400SOL     OW24835   2.655   4.360   6.081 -0.6219 -0.1040 -0.4663
 4400SOL    HW124836   2.594   4.393   6.015  0.0406 -1.3313 -1.6777
 4400SOL    HW224837   2.670   4.272   6.046 -0.3532 -0.9477  1.7999
 4401SOL     OW24838   2.581   4.667   9.172  0.2897  0.0647 -0.5722
 4401SOL    HW124839   2.518   4.700   9.109 -0.2979 -0.2361 -0.1441
 4401SOL    HW224840   2.662   4.643   9.127  0.7323  1.5715 -0.5709
 4402SOL     OW24841   3.838   1.554  13.702 -0.0315  0.2949 -0.0807
 4402SOL    HW124842   3.793   1.633  13.672  1.0588  0.1561 -2.1593
 4402SOL    HW224843   3.817   1.487  13.637 -0.7553 -0.8843  1.3834
 4403SOL     OW24844   2.412   4.285  12.410  1.0287 -0.7104  0.6971
 4403SOL    HW124845   2.472   4.307  12.481 -1.3383  3.7235  1.3100
 4403SOL    HW224846   2.461   4.327  12.339 -3.4330 -1.2789 -2.7463
 4404SOL     OW24847   0.097   1.896  12.970  0.2202 -0.0462  0.3870
 4404SOL    HW124848   0.117   1.989  12.967 -0.5002  0.0484 -1.3305
 4404SOL    HW224849   0.144   1.878  13.052 -1.3438 -1.5709  0.9380
 4405SOL     OW24850   4.244   2.046   7.868 -0.0899 -0.4259  0.6370
 4405SOL    HW124851   4.289   2.130   7.879  0.3303 -0.5224 -0.3371
 4405SOL    HW224852   4.160   2.065   7.909 -0.4818 -0.9785  0.0718
 4406SOL     OW24853   2.767   3.328   3.743  0.4490 -0.1923 -0.1358
 4406SOL    HW124854   2.678   3.337   3.776  1.0912 -0.1246  1.5933
 4406SOL    HW224855   2.815   3.390   3.797  0.8202  0.3604 -1.1058
 4407SOL     OW24856   2.801   4.708  14.168 -0.0982 -0.3276 -0.0481
 4407SOL    HW124857   2.875   4.653  14.139 -0.1933  0.7431 -2.3565
 4407SOL    HW224858   2.732   4.643  14.159 -0.2460 -0.0789 -0.7146
 4408SOL     OW24859   2.546   1.724  15.069 -0.1102  0.4940 -0.5166
 4408SOL    HW124860   2.581   1.787  15.006 -0.3088  1.3019  0.1831
 4408SOL    HW224861   2.557   1.769  15.153  0.5140 -0.8292  0.1067
 4409SOL     OW24862   3.797   2.723  10.699  0.3899 -0.2950 -0.3844
 4409SOL    HW124863   3.791   2.703  10.605  0.1332  1.7683 -0.8111
 4409SOL    HW224864   3.789   2.634  10.731  0.2509 -0.0423  0.2929
 4410SOL     OW24865   3.304   2.669  13.328 -0.3542 -0.4029  0.1294
 4410SOL    HW124866   3.368   2.712  13.272 -0.6813  0.4936  0.4482
 4410SOL    HW224867   3.282   2.594  13.272  3.0629  0.0423 -1.8030
 4411SOL     OW24868   0.512   3.689   6.638  0.2104 -0.5920 -0.1611
 4411SOL    HW124869   0.536   3.615   6.581  0.1903 -0.8730  0.1943
 4411SOL    HW224870   0.448   3.650   6.699  0.2479  1.3024  1.0798
 4412SOL     OW24871   1.393   2.159   2.524 -0.6166 -0.1885 -0.3256
 4412SOL    HW124872   1.486   2.141   2.539 -0.2275 -0.3723 -2.9316
 4412SOL    HW224873   1.388   2.250   2.554 -1.5586 -0.5142  0.4901
 4413SOL     OW24874   1.823   0.668   8.376 -0.5341 -0.4688 -0.0165
 4413SOL    HW124875   1.780   0.605   8.434 -2.0074  1.4377  0.9364
 4413SOL    HW224876   1.801   0.637   8.288  2.9949 -0.9749 -0.7403
 4414SOL     OW24877   4.527   2.231  13.190  0.0631 -0.5393 -0.1745
 4414SOL    HW124878   4.435   2.250  13.208  0.3954 -0.3824  1.4315
 4414SOL    HW224879   4.535   2.274  13.105  0.1614  0.0675  0.1421
 4415SOL     OW24880   2.317   3.375   0.389  0.2408  0.0599  0.1694
 4415SOL    HW124881   2.402   3.405   0.421 -0.6236 -0.8024  3.2169
 4415SOL    HW224882   2.326   3.281   0.408  2.2832  0.4502  1.0542
 4416SOL     OW24883   2.606   2.401   6.735 -0.3100 -0.1235 -0.1350
 4416SOL    HW124884   2.554   2.473   6.700  1.0073  1.7876  1.8026
 4416SOL    HW224885   2.547   2.332   6.708 -2.0122  1.4295 -0.3674
 4417SOL     OW24886   2.029   3.506  10.591 -0.4183 -0.2417  0.1398
 4417SOL    HW124887   2.086   3.430  10.586 -1.0802 -0.5923 -2.1144
 4417SOL    HW224888   2.002   3.525  10.501 -2.7357 -0.3469  0.8043
 4418SOL     OW24889   1.587   1.217   8.624 -0.3462 -0.4065  0.2269
 4418SOL    HW124890   1.507   1.183   8.583 -0.7049  1.5397 -0.6744
 4418SOL    HW224891   1.554   1.223   8.713  0.5304  1.1453  0.4424
 4419SOL     OW24892   2.754   2.805   4.920  0.2430  0.5069 -0.5136
 4419SOL    HW124893   2.749   2.838   5.010 -3.0298  0.9606 -0.8721
 4419SOL    HW224894   2.762   2.710   4.930 -1.0695  0.5558  1.0036
 4420SOL     OW24895   2.221   0.814   7.243  0.2548  0.2194  0.6490
 4420SOL    HW124896   2.224   0.726   7.280  2.5835 -1.1048 -2.6271
 4420SOL    HW224897   2.145   0.846   7.291 -0.3783  0.8440 -0.7876
 4421SOL     OW24898   0.005   4.670   9.080  0.6227  0.1192 -0.0241
 4421SOL    HW124899   4.719   4.699   9.166  0.7115  0.7565 -0.2076
 4421SOL    HW224900   0.099   4.688   9.081  0.4437  1.1559 -1.1661
 4422SOL     OW24901   3.906   4.404   6.177 -0.1996 -0.4737 -0.3138
 4422SOL    HW124902   3.833   4.349   6.148  0.1488 -0.4461 -1.2490
 4422SOL    HW224903   3.879   4.417   6.268  0.3996 -2.7593  0.2036
 4423SOL     OW24904   3.579   2.483  12.734 -0.2672  0.1661  0.2007
 4423SOL    HW124905   3.484   2.477  12.721 -0.3794  0.0932  1.0193
 4423SOL    HW224906   3.598   2.454  12.645 -0.5836 -0.7648  0.4372
 4424SOL     OW24907   2.363   3.064   3.616 -0.6223 -0.1924 -0.1171
 4424SOL    HW124908   2.417   2.992   3.582 -1.8010 -1.2394  0.2161
 4424SOL    HW224909   2.279   3.037   3.580 -0.7105  0.9787 -0.7966
 4425SOL     OW24910   2.347   1.469   8.830 -0.1149  0.2092  0.0627
 4425SOL    HW124911   2.415   1.470   8.762 -0.1049  0.3585  0.0750
 4425SOL    HW224912   2.394   1.478   8.913  0.1920 -0.5242 -0.0330
 4426SOL     OW24913   3.377   3.053   9.213  0.4425  0.0893  0.5490
 4426SOL    HW124914   3.346   3.117   9.277 -2.0437 -0.3618 -0.2324
 4426SOL    HW224915   3.295   3.006   9.203  0.6584  0.5698 -3.3092
 4427SOL     OW24916   0.524   0.446   2.409  0.0934  0.1995  0.9078
 4427SOL    HW124917   0.600   0.437   2.352 -0.3791 -2.4136  0.6861
 4427SOL    HW224918   0.451   0.434   2.348  0.5958 -0.7029  0.4697
 4428SOL     OW24919   0.246   1.467   8.588  0.5764 -0.2144 -0.6220
 4428SOL    HW124920   0.225   1.507   8.673 -0.2442 -0.6464 -0.6241
 4428SOL    HW224921   0.164   1.420   8.573 -0.1582  0.1939  1.9278
 4429SOL     OW24922   1.680   1.869   7.408 -0.0193 -0.0781  0.1289
 4429SOL    HW124923   1.663   1.796   7.348  0.8088  0.1369 -0.3521
 4429SOL    HW224924   1.774   1.872   7.391 -0.1973 -1.6465 -1.1434
 4430SOL     OW24925   0.062   0.453   7.985  0.3902  0.4565  0.2091
 4430SOL    HW124926   0.107   0.529   7.949 -0.1095  1.6460  2.0920
 4430SOL    HW224927   0.116   0.383   7.949  0.3698  0.2296  0.6197
 4431SOL     OW24928   1.526   3.748   2.469  0.3896 -0.3225  0.1109
 4431SOL    HW124929   1.528   3.704   2.384  1.3078 -2.7870  1.4114
 4431SOL    HW224930   1.435   3.726   2.489  0.1787  0.6591  0.2470
 4432SOL     OW24931   2.557   0.593  13.055  0.1844 -0.0995  0.3860
 4432SOL    HW124932   2.596   0.601  12.968 -0.1678 -1.5629  0.0918
 4432SOL    HW224933   2.579   0.679  13.091  0.9077  0.0438 -0.4118
 4433SOL     OW24934   4.735   3.414  14.839 -1.0687  0.2543 -0.1621
 4433SOL    HW124935   0.004   3.323  14.866 -0.1434 -0.1647 -2.0586
 4433SOL    HW224936   4.742   3.396  14.745 -0.2879  0.2053 -0.0883
 4434SOL     OW24937   4.523   1.957   2.742 -0.6388 -0.1734 -0.1440
 4434SOL    HW124938   4.572   1.890   2.790 -0.9093 -0.2291  0.0500
 4434SOL    HW224939   4.437   1.916   2.730  0.2058 -1.6130 -1.2608
 4435SOL     OW24940   1.065   4.178   5.279 -0.3864  0.5224  0.5986
 4435SOL    HW124941   0.999   4.112   5.261 -2.2132  2.1644  1.2790
 4435SOL    HW224942   1.066   4.210   5.189 -1.6894  0.2692  0.5005
 4436SOL     OW24943   3.361   2.664   2.333  0.3176  0.5982 -0.6573
 4436SOL    HW124944   3.366   2.759   2.334 -1.0967  0.6263  4.3107
 4436SOL    HW224945   3.433   2.630   2.386 -0.4314 -0.9872 -0.6377
 4437SOL     OW24946   3.337   4.352   9.303  0.0981  0.7792 -0.4037
 4437SOL    HW124947   3.250   4.367   9.266 -0.0060  1.2582  0.0455
 4437SOL    HW224948   3.371   4.431   9.346 -0.2051 -0.2886  1.7806
 4438SOL     OW24949   4.625   3.606   8.122  0.1650  0.5421 -0.6083
 4438SOL    HW124950   4.578   3.613   8.039 -2.7582  1.9848  1.1422
 4438SOL    HW224951   4.696   3.664   8.096 -0.9204  1.7982 -0.8147
 4439SOL     OW24952   3.364   4.567   1.966  0.0705  0.8425 -0.2544
 4439SOL    HW124953   3.308   4.505   1.920 -0.3725  1.0716 -0.0241
 4439SOL    HW224954   3.396   4.620   1.893 -0.9844  2.0121  0.1343
 4440SOL     OW24955   0.849   1.019  15.413 -0.0840 -0.3576  0.7866
 4440SOL    HW124956   0.767   0.979  15.385 -0.6500  2.2882 -1.4168
 4440SOL    HW224957   0.915   0.952  15.399  1.6724  1.8869 -1.6215
 4441SOL     OW24958   2.471   4.258   4.403 -0.4375  0.1636 -0.1647
 4441SOL    HW124959   2.416   4.277   4.327 -2.2324 -1.5674  0.6755
 4441SOL    HW224960   2.556   4.253   4.361  1.0818 -0.0714  2.9126
 4442SOL     OW24961   0.170   4.668   3.372  0.8164  0.4747  0.1131
 4442SOL    HW124962   0.079   4.641   3.358  1.4170 -0.7285 -1.4253
 4442SOL    HW224963   0.199   4.670   3.281 -0.0736  1.3822 -0.1531
 4443SOL     OW24964   2.716   2.377   5.721  0.1080 -0.4494 -0.4016
 4443SOL    HW124965   2.803   2.357   5.756  1.4943 -0.6358 -3.9072
 4443SOL    HW224966   2.677   2.292   5.701  0.4200 -0.5692 -0.4950
 4444SOL     OW24967   3.188   1.393  10.584  0.0873 -0.3536 -0.1489
 4444SOL    HW124968   3.232   1.468  10.626 -0.5282  0.1462 -0.3904
 4444SOL    HW224969   3.251   1.324  10.604 -0.4635 -0.6863  0.4455
 4445SOL     OW24970   1.547   2.466   5.979 -0.2448 -0.1035  0.0735
 4445SOL    HW124971   1.550   2.479   6.074 -0.7313  1.8576 -0.1861
 4445SOL    HW224972   1.605   2.531   5.940 -0.8331 -0.4353 -1.3802
 4446SOL     OW24973   1.128   2.661   3.540  0.1600 -0.1056 -0.0579
 4446SOL    HW124974   1.050   2.606   3.543 -1.2044  1.8503  0.0877
 4446SOL    HW224975   1.186   2.634   3.612 -0.8298 -2.6259 -0.2131
 4447SOL     OW24976   3.631   2.316   1.403 -0.4270 -0.1939 -0.3845
 4447SOL    HW124977   3.628   2.245   1.468 -1.6258 -1.4482 -1.8152
 4447SOL    HW224978   3.583   2.389   1.440 -0.2233  0.2170 -0.9372
 4448SOL     OW24979   3.432   3.582  17.317 -0.4283  0.2484 -0.0428
 4448SOL    HW124980   3.394   3.495  17.326 -1.0619  0.3602 -1.5850
 4448SOL    HW224981   3.513   3.564  17.270  0.0029  0.3891  0.6395
 4449SOL     OW24982   3.432   1.315  12.172  0.3607 -0.1127 -0.1706
 4449SOL    HW124983   3.341   1.313  12.200  0.2763 -0.7026 -0.5017
 4449SOL    HW224984   3.463   1.231  12.206 -0.0091  1.2944  3.6306
 4450SOL     OW24985   1.843   2.968   6.992 -0.1166  0.0440 -0.4379
 4450SOL    HW124986   1.923   2.923   7.018  0.0358 -0.2603 -1.4160
 4450SOL    HW224987   1.813   2.913   6.920  1.0623 -1.5985  0.3414
 4451SOL     OW24988   1.447   4.254  16.022 -0.1786  0.1634 -0.0374
 4451SOL    HW124989   1.401   4.196  16.082 -0.9189 -0.3219 -1.0624
 4451SOL    HW224990   1.522   4.279  16.075 -1.2821 -1.5417  2.3051
 4452SOL     OW24991   2.970   0.989   6.650  0.8814  0.2587  0.1780
 4452SOL    HW124992   2.974   1.079   6.618 -2.0589 -0.0948 -1.1833
 4452SOL    HW224993   3.044   0.944   6.609  3.4222  2.9081  1.8267
 4453SOL     OW24994   4.371   4.264   7.426  0.6583  0.6021 -0.1188
 4453SOL    HW124995   4.413   4.208   7.491  1.2903 -0.1980 -1.2241
 4453SOL    HW224996   4.374   4.199   7.355 -1.2751  1.6781 -1.1891
 4454SOL     OW24997   4.265   4.019   3.409  0.7841  0.2907  0.2999
 4454SOL    HW124998   4.245   3.931   3.441  1.8691 -0.4486 -1.1143
 4454SOL    HW224999   4.360   4.020   3.407  0.8004 -1.2399  0.2586
 4455SOL     OW25000   1.090   3.398   1.627  0.8495 -0.6340 -0.1114
 4455SOL    HW125001   1.082   3.440   1.541 -3.1079 -0.6978  0.2076
 4455SOL    HW225002   1.038   3.318   1.614 -1.3324  0.4604  1.7674
 4456SOL     OW25003   2.847   3.814   0.999 -0.2181 -0.0962 -0.1686
 4456SOL    HW125004   2.881   3.885   0.944  0.6635  0.7816  1.5044
 4456SOL    HW225005   2.772   3.856   1.042 -0.4695 -0.7462  0.0290
 4457SOL     OW25006   0.984   4.649   2.677  0.2088  0.4201  0.0559
 4457SOL    HW125007   0.955   4.679   2.590 -0.8475  0.0794  0.2882
 4457SOL    HW225008   1.032   4.570   2.651  0.2610 -0.5044  3.0491
 4458SOL     OW25009   2.619   3.984   1.408 -0.0944  0.3345  0.5025
 4458SOL    HW125010   2.645   3.925   1.479 -0.4558 -0.1728  0.2162
 4458SOL    HW225011   2.528   3.957   1.393  0.0768  0.5512 -0.9843
 4459SOL     OW25012   2.134   3.120   2.406  0.4250 -0.4742  0.1450
 4459SOL    HW125013   2.073   3.070   2.461  0.3450  0.5032  0.9454
 4459SOL    HW225014   2.096   3.120   2.319 -0.0601  2.8754  0.3766
 4460SOL     OW25015   1.683   3.116   4.486 -0.0715 -0.1475 -0.4148
 4460SOL    HW125016   1.634   3.130   4.567  3.6684  0.4246  1.7625
 4460SOL    HW225017   1.709   3.025   4.496 -0.0007 -0.2260 -1.2730
 4461SOL     OW25018   1.731   4.037   1.429  0.2135  0.5345  0.0240
 4461SOL    HW125019   1.813   4.017   1.386 -0.3867  0.2315 -0.9763
 4461SOL    HW225020   1.679   3.957   1.423  0.1239  0.7142 -1.5521
 4462SOL     OW25021   4.653   4.409   2.930 -0.2037  0.4833 -0.5891
 4462SOL    HW125022   4.625   4.500   2.924 -0.3918  0.3639 -1.6451
 4462SOL    HW225023   4.740   4.424   2.894 -0.1002  1.9281  0.2857
 4463SOL     OW25024   4.165   0.051   7.777 -0.0552 -0.3955 -0.2025
 4463SOL    HW125025   4.088   0.045   7.833 -1.1151 -0.1972 -1.6201
 4463SOL    HW225026   4.149   4.705   7.746 -2.1048 -0.0093 -0.2997
 4464SOL     OW25027   2.883   0.625   1.964 -0.0438  0.0723  0.1120
 4464SOL    HW125028   2.945   0.565   2.004 -1.8074 -1.4503  0.5533
 4464SOL    HW225029   2.856   0.677   2.039 -0.6251  0.8709 -0.6463
 4465SOL     OW25030   2.436   1.263   4.084 -0.4304 -0.8434  0.6939
 4465SOL    HW125031   2.352   1.306   4.070  2.3751  4.5887  0.3589
 4465SOL    HW225032   2.446   1.255   4.179  0.8584  0.0227  0.6285
 4466SOL     OW25033   0.231   2.936   3.930  0.4194  0.5126 -0.0348
 4466SOL    HW125034   0.192   3.021   3.952  0.6387  0.7038 -0.3830
 4466SOL    HW225035   0.178   2.870   3.974  1.0240  0.5684  0.7788
 4467SOL     OW25036   1.559   1.348  11.194  0.3112 -0.1817  0.3567
 4467SOL    HW125037   1.561   1.399  11.275 -0.7189  2.7081 -1.4430
 4467SOL    HW225038   1.618   1.279  11.225 -0.4204 -1.4407 -1.0778
 4468SOL     OW25039   0.443   3.243   4.433  0.7801  0.0204 -0.2831
 4468SOL    HW125040   0.371   3.212   4.378  0.0507  0.1271  0.6139
 4468SOL    HW225041   0.398   3.251   4.517  0.0039  1.6282 -0.8519
 4469SOL     OW25042   1.845   0.130   6.315  0.4891 -0.0673 -0.0853
 4469SOL    HW125043   1.872   0.038   6.325  1.1802  0.0919 -0.5207
 4469SOL    HW225044   1.932   0.166   6.299  0.3812 -0.3208 -1.2302
 4470SOL     OW25045   3.102   4.072   1.169 -0.4280  0.1888  0.1761
 4470SOL    HW125046   3.152   3.993   1.149  0.3989  0.0379  2.8229
 4470SOL    HW225047   3.084   4.101   1.079  0.7318  1.6880  0.4159
 4471SOL     OW25048   1.688   3.901   0.691 -0.1353 -0.0463  0.0972
 4471SOL    HW125049   1.749   3.971   0.714  1.2130 -1.4638  0.8716
 4471SOL    HW225050   1.723   3.895   0.602  1.1601  2.8062  0.4296
 4472SOL     OW25051   1.044   2.184   6.729 -0.6769 -0.3257  0.4620
 4472SOL    HW125052   1.049   2.253   6.795 -0.7731 -0.6082  0.7631
 4472SOL    HW225053   1.027   2.237   6.651 -0.3941  0.0334  0.6421
 4473SOL     OW25054   1.437   3.152   8.998  0.1356 -0.0810 -0.1400
 4473SOL    HW125055   1.511   3.162   8.937 -0.8111  1.4818 -1.0281
 4473SOL    HW225056   1.412   3.066   8.963  0.5802 -0.0985 -0.4274
 4474SOL     OW25057   2.620   2.242   2.068  0.0702  0.7138  0.3675
 4474SOL    HW125058   2.662   2.213   2.149 -0.4027  0.0536  0.3813
 4474SOL    HW225059   2.622   2.157   2.024 -2.0218 -0.3572  2.2941
 4475SOL     OW25060   0.164   0.858   6.707  0.2799 -0.1947  0.1107
 4475SOL    HW125061   0.155   0.946   6.671  0.7412  0.3120  1.2586
 4475SOL    HW225062   0.120   0.810   6.636  0.3741  2.0634 -1.4633
 4476SOL     OW25063   3.224   2.014   7.773  0.3073  0.1478  0.7104
 4476SOL    HW125064   3.259   1.967   7.697  0.1799  0.1878  0.6280
 4476SOL    HW225065   3.267   1.974   7.849  0.1883 -0.3937  0.4902
 4477SOL     OW25066   0.462   3.899   5.242 -0.3373  0.2873 -0.2646
 4477SOL    HW125067   0.550   3.931   5.261  0.2309 -0.9939 -0.7584
 4477SOL    HW225068   0.456   3.900   5.146 -1.5395  0.1919 -0.1975
 4478SOL     OW25069   0.473   1.085  11.181 -0.3698 -0.3079 -0.2233
 4478SOL    HW125070   0.473   1.103  11.275  1.7827 -2.6765  0.2493
 4478SOL    HW225071   0.406   1.141  11.144  0.2793  0.4689 -0.2199
 4479SOL     OW25072   3.876   3.981   3.722 -0.2736 -0.2370 -0.0314
 4479SOL    HW125073   3.853   4.033   3.799  0.3759  1.7737 -1.2029
 4479SOL    HW225074   3.884   4.049   3.655 -0.3463 -1.1006 -0.9102
 4480SOL     OW25075   2.074   0.858  16.472  0.0518 -0.0548  0.0828
 4480SOL    HW125076   2.153   0.843  16.524  1.0980 -1.8819 -2.0139
 4480SOL    HW225077   2.085   0.951  16.453  2.9722 -0.1175  1.5385
 4481SOL     OW25078   3.198   3.432   1.039  0.3209 -0.4013  0.2392
 4481SOL    HW125079   3.196   3.418   1.133  2.2417  1.2711  0.5261
 4481SOL    HW225080   3.172   3.524   1.035 -0.5709 -0.6718 -0.3827
 4482SOL     OW25081   1.867   4.520   4.318  0.3091 -0.8797 -0.2442
 4482SOL    HW125082   1.808   4.537   4.391  1.5783 -0.4231  0.6774
 4482SOL    HW225083   1.924   4.597   4.318 -0.6384 -0.1899  1.5469
 4483SOL     OW25084   0.955   1.751  13.382  0.5557  0.4362 -0.1320
 4483SOL    HW125085   0.939   1.825  13.324  0.8208  0.9747  0.4863
 4483SOL    HW225086   0.997   1.795  13.457 -2.0004  0.6583  1.1609
 4484SOL     OW25087   1.186   0.687  15.631  0.1999  0.4311 -0.4765
 4484SOL    HW125088   1.173   0.592  15.632  0.2149  0.4389  2.7127
 4484SOL    HW225089   1.160   0.699  15.540 -3.6924 -1.2758  0.4309
 4485SOL     OW25090   1.749   2.410   8.116  0.0618 -0.2866 -0.5952
 4485SOL    HW125091   1.716   2.472   8.181 -2.5888 -0.9753 -1.3134
 4485SOL    HW225092   1.773   2.338   8.175 -0.1020 -0.0098 -0.1839
 4486SOL     OW25093   3.297   4.377   9.789 -0.3998  0.1672  0.4104
 4486SOL    HW125094   3.303   4.428   9.869  2.5202  0.6031 -0.1164
 4486SOL    HW225095   3.382   4.334   9.785 -1.0782 -1.5024  3.6655
 4487SOL     OW25096   2.018   0.050   3.528  0.0817 -0.0911 -0.0299
 4487SOL    HW125097   2.057   4.707   3.518 -0.4271 -0.2190 -0.8480
 4487SOL    HW225098   2.093   0.108   3.523  0.1184 -0.2705 -1.5228
 4488SOL     OW25099   0.289   0.208   9.017  0.1449 -0.1463 -1.2527
 4488SOL    HW125100   0.377   0.231   8.986 -0.6026  1.0700 -2.4661
 4488SOL    HW225101   0.291   0.113   9.006  0.1696 -0.3752  0.7464
 4489SOL     OW25102   0.205   4.311   3.270  0.0685  0.1089 -0.7289
 4489SOL    HW125103   0.166   4.324   3.357  0.6871  0.9733 -0.5873
 4489SOL    HW225104   0.125   4.311   3.217 -1.0649  1.2241  0.9722
 4490SOL     OW25105   1.757   3.066   3.668  0.4452 -0.4821 -0.0577
 4490SOL    HW125106   1.796   3.025   3.746 -1.1515 -0.0204  0.9813
 4490SOL    HW225107   1.758   3.153   3.707 -1.4442 -1.0651  1.3234
 4491SOL     OW25108   1.301   3.749   7.215  0.2305  0.0669 -0.3082
 4491SOL    HW125109   1.383   3.739   7.167 -0.2919 -2.7513 -0.6132
 4491SOL    HW225110   1.293   3.671   7.270  1.9395 -1.0489 -1.6204
 4492SOL     OW25111   1.120   3.904  16.148 -0.1766  0.1062 -0.4758
 4492SOL    HW125112   1.174   3.854  16.087 -0.0388 -3.5907  2.6255
 4492SOL    HW225113   1.123   3.853  16.230  0.8051 -0.2638 -0.7439
 4493SOL     OW25114   0.487   0.900   4.581  0.0525 -0.1742 -0.4623
 4493SOL    HW125115   0.472   0.985   4.540  2.4408  0.6139  0.2886
 4493SOL    HW225116   0.511   0.853   4.502  2.6070 -1.1741  0.8859
 4494SOL     OW25117   3.043   3.496   8.007 -0.2429  0.2080 -0.1603
 4494SOL    HW125118   3.001   3.411   8.020  0.6639  0.0086  1.4798
 4494SOL    HW225119   3.074   3.472   7.920  1.0386 -1.0885  0.6506
 4495SOL     OW25120   3.825   1.228   6.644 -0.3905 -0.0263 -0.2401
 4495SOL    HW125121   3.791   1.318   6.649  0.3117  0.1805  0.6584
 4495SOL    HW225122   3.849   1.201   6.732  0.0868  0.5304 -0.1988
 4496SOL     OW25123   1.884   3.736   5.331  0.7119  0.3494 -0.4804
 4496SOL    HW125124   1.904   3.648   5.301  0.5397  0.2027 -0.1559
 4496SOL    HW225125   1.789   3.747   5.334  0.6545 -0.7962  1.9638
 4497SOL     OW25126   4.700   1.699   1.298 -0.1123  0.0908 -0.5134
 4497SOL    HW125127   0.029   1.729   1.352  0.1683 -0.1619 -0.7548
 4497SOL    HW225128   4.735   1.619   1.259 -0.3725 -0.2588 -0.0326
 4498SOL     OW25129   4.156   4.525   0.348 -0.2979 -0.4346  0.4039
 4498SOL    HW125130   4.180   4.608   0.389 -0.1772 -0.4604  0.3871
 4498SOL    HW225131   4.239   4.502   0.304  0.4807  1.7047  0.7920
 4499SOL     OW25132   3.652   2.931   3.692 -0.0746 -0.0361  0.1493
 4499SOL    HW125133   3.702   2.917   3.773 -0.9281 -0.0579  0.6676
 4499SOL    HW225134   3.574   2.877   3.699 -0.3910  0.0277 -2.7610
 4500SOL     OW25135   0.747   4.510   8.053  0.2289  0.8018 -0.2259
 4500SOL    HW125136   0.782   4.595   8.030  1.2775  0.5241  0.3733
 4500SOL    HW225137   0.813   4.450   8.017 -0.8869 -0.1177 -0.7523
 4501SOL     OW25138   3.578   2.095   4.550 -0.4883 -0.4461 -0.7001
 4501SOL    HW125139   3.573   2.168   4.487  0.4460  1.3028  1.2446
 4501SOL    HW225140   3.487   2.093   4.580 -0.0916 -0.7132  0.4873
 4502SOL     OW25141   0.323   3.943   8.849 -0.3378 -0.5068 -0.7688
 4502SOL    HW125142   0.359   3.975   8.931 -2.0544 -1.3384  0.3104
 4502SOL    HW225143   0.233   3.977   8.851 -0.5074 -1.2218  3.6754
 4503SOL     OW25144   2.055   1.234   4.400  0.0756 -0.2837 -0.5758
 4503SOL    HW125145   1.967   1.214   4.434 -0.4663  1.6970 -0.8457
 4503SOL    HW225146   2.110   1.249   4.478  1.4317 -2.9426 -1.0252
 4504SOL     OW25147   2.688   0.054  13.887  0.3870 -0.0253  0.4884
 4504SOL    HW125148   2.762   0.052  13.948  0.4193  3.5806  0.5241
 4504SOL    HW225149   2.620   0.026  13.949 -1.0598 -1.5228 -1.7461
 4505SOL     OW25150   2.352   3.139   1.008 -0.4632  0.3964 -0.4764
 4505SOL    HW125151   2.280   3.155   0.947  1.0406 -0.5397 -2.4708
 4505SOL    HW225152   2.314   3.104   1.089  0.2333 -0.2177 -0.4236
 4506SOL     OW25153   0.765   4.367   3.629 -0.1328  0.0215 -0.4371
 4506SOL    HW125154   0.714   4.413   3.562  0.1724  1.1737  0.1320
 4506SOL    HW225155   0.782   4.442   3.686 -1.9614  1.1536 -1.3654
 4507SOL     OW25156   3.431   4.375   2.310 -0.3920 -0.2209 -0.1472
 4507SOL    HW125157   3.369   4.333   2.251  0.6278  1.0668 -2.1433
 4507SOL    HW225158   3.513   4.390   2.262 -1.3987 -0.6899 -2.0133
 4508SOL     OW25159   3.789   3.619   3.347 -0.1179 -0.1907  0.3264
 4508SOL    HW125160   3.747   3.621   3.434 -1.1186 -0.7327 -0.1498
 4508SOL    HW225161   3.881   3.628   3.372 -0.7602  0.2298  2.6067
 4509SOL     OW25162   1.363   1.880   9.702 -0.4730  0.1922 -0.0769
 4509SOL    HW125163   1.310   1.950   9.739  0.1583  0.5249  0.1982
 4509SOL    HW225164   1.306   1.850   9.631 -0.7258 -0.1547  0.2730
 4510SOL     OW25165   4.262   0.436   5.529 -0.2932  0.1052  0.2349
 4510SOL    HW125166   4.287   0.371   5.594  1.1053  2.0271  1.5852
 4510SOL    HW225167   4.168   0.426   5.547 -0.3345  2.0464  1.0464
 4511SOL     OW25168   4.529   0.960   6.544  0.1769 -0.9016 -0.1208
 4511SOL    HW125169   4.583   0.910   6.484  1.0546  0.2436 -0.2764
 4511SOL    HW225170   4.471   1.004   6.482  1.2241  0.6968  0.0308
 4512SOL     OW25171   3.765   2.537  10.461 -0.0654 -0.2856 -0.5989
 4512SOL    HW125172   3.710   2.464  10.490 -0.2870 -0.5010 -1.5544
 4512SOL    HW225173   3.850   2.493  10.471 -0.5591 -0.6020  2.1250
 4513SOL     OW25174   2.287   4.659   2.025  0.1016 -0.5094  0.0646
 4513SOL    HW125175   2.276   4.568   1.996  0.0373 -0.3640 -0.3689
 4513SOL    HW225176   2.264   4.698   1.940 -0.5139 -1.0526 -0.0172
 4514SOL     OW25177   1.540   1.564   3.423  0.4775 -0.2358  0.6939
 4514SOL    HW125178   1.486   1.490   3.450 -3.6110  2.4417 -0.0010
 4514SOL    HW225179   1.618   1.529   3.381 -0.2295 -0.2524 -0.5893
 4515SOL     OW25180   1.242   3.815   1.807 -0.2691  0.3893 -0.3127
 4515SOL    HW125181   1.263   3.885   1.746  0.3018  1.4644  1.1276
 4515SOL    HW225182   1.230   3.856   1.893  1.4752  0.5597 -0.1494
 4516SOL     OW25183   4.603   0.725   2.539 -0.3974  0.1045 -0.0518
 4516SOL    HW125184   4.652   0.764   2.611 -0.9768 -1.1775  1.0397
 4516SOL    HW225185   4.523   0.779   2.541 -1.6460 -1.7275 -0.1653
 4517SOL     OW25186   0.088   1.285   0.744 -0.0869 -0.0043 -0.4337
 4517SOL    HW125187   0.075   1.309   0.836  1.1518 -2.6504  0.4322
 4517SOL    HW225188   0.005   1.312   0.705 -0.0843 -0.3965 -0.7115
 4518SOL     OW25189   1.724   3.829   5.960  0.4806 -0.4757 -0.0392
 4518SOL    HW125190   1.793   3.764   5.970 -0.5469 -1.5113  0.2488
 4518SOL    HW225191   1.772   3.912   5.967 -0.4667  0.1933 -1.3296
 4519SOL     OW25192   4.672   1.675   6.982 -0.1016 -0.2201 -0.0486
 4519SOL    HW125193   4.615   1.698   7.056  2.4594  0.5209  1.6952
 4519SOL    HW225194   4.634   1.599   6.938  0.4431 -1.0124  0.8440
 4520SOL     OW25195   2.635   0.075   9.426 -0.7154  0.6195 -0.0084
 4520SOL    HW125196   2.644   0.066   9.332  3.4543  1.4645  0.3506
 4520SOL    HW225197   2.539   0.068   9.433 -0.7886  0.5238 -1.2003
 4521SOL     OW25198   0.301   0.228   6.016  0.6042 -0.3381 -0.1868
 4521SOL    HW125199   0.328   0.299   5.959 -0.1815  0.0094 -0.1262
 4521SOL    HW225200   0.382   0.196   6.056  1.3766  0.7546 -0.8995
 4522SOL     OW25201   2.178   0.318  17.565 -0.4445  1.2365 -0.2622
 4522SOL    HW125202   2.113   0.248  17.557  1.7922 -0.9515  0.4772
 4522SOL    HW225203   2.189   0.337  17.658  4.4705 -0.8592 -0.4420
 4523SOL     OW25204   2.710   1.595   8.361  0.2708 -0.1582  0.1566
 4523SOL    HW125205   2.656   1.572   8.286 -2.4622  0.8755  1.7899
 4523SOL    HW225206   2.794   1.572   8.322 -1.6878 -1.1464 -3.4267
 4524SOL     OW25207   0.031   0.302  15.823 -0.0014 -0.3438 -0.2600
 4524SOL    HW125208   0.090   0.323  15.895 -0.3978 -0.1206 -0.0011
 4524SOL    HW225209   0.091   0.273  15.755 -0.3873  3.5837 -2.2905
 4525SOL     OW25210   2.911   1.690  15.584  0.3623 -0.0367  0.8376
 4525SOL    HW125211   2.989   1.635  15.587  1.4797  1.5727  1.6031
 4525SOL    HW225212   2.949   1.770  15.620 -1.9706  1.5334 -0.1286
 4526SOL     OW25213   0.317   2.999   5.352 -0.3681  0.0301  0.0823
 4526SOL    HW125214   0.387   3.045   5.398  1.5174 -3.8233  1.0497
 4526SOL    HW225215   0.364   2.949   5.285 -2.0297 -0.4538 -0.7360
 4527SOL     OW25216   2.900   0.178   6.513 -0.3312 -0.2177 -0.1172
 4527SOL    HW125217   2.921   0.182   6.420 -0.5852  2.3376 -0.0815
 4527SOL    HW225218   2.944   0.254   6.551  0.2407 -0.0320 -1.1593
 4528SOL     OW25219   4.101   0.790   8.247 -0.5799  0.2577 -0.4122
 4528SOL    HW125220   4.136   0.702   8.253  1.1839  0.8920 -1.6150
 4528SOL    HW225221   4.007   0.775   8.260 -0.4565  2.0900  2.6415
 4529SOL     OW25222   1.563   4.203   2.489  0.3578 -0.0701 -0.5207
 4529SOL    HW125223   1.558   4.161   2.575 -0.2542  0.3471 -0.3541
 4529SOL    HW225224   1.523   4.288   2.506  0.1367 -0.0974 -0.9165
 4530SOL     OW25225   1.583   2.575   2.228  0.2152  0.1363 -0.2697
 4530SOL    HW125226   1.513   2.633   2.257  1.4504  2.6628 -2.3473
 4530SOL    HW225227   1.600   2.624   2.147  0.6889  0.2913 -0.0764
 4531SOL     OW25228   2.690   3.522   2.395 -0.0282  0.5250 -0.0737
 4531SOL    HW125229   2.749   3.573   2.339 -0.1624  1.3051  0.4906
 4531SOL    HW225230   2.733   3.551   2.475 -0.7239  3.0361 -0.6030
 4532SOL     OW25231   1.095   1.466   6.291  0.1086 -0.1602 -0.3036
 4532SOL    HW125232   1.166   1.436   6.347  1.9313 -0.4083 -2.7097
 4532SOL    HW225233   1.119   1.428   6.206  0.7107 -2.8249  1.0889
 4533SOL     OW25234   2.331   1.399   5.957  0.4244  0.1168  0.0162
 4533SOL    HW125235   2.376   1.394   6.042  1.4901 -2.9737 -0.7426
 4533SOL    HW225236   2.340   1.307   5.933 -0.9771 -0.4193  1.5643
 4534SOL     OW25237   2.596   0.838   9.738  0.2551  0.0684 -0.1169
 4534SOL    HW125238   2.600   0.782   9.660  3.4161  0.5087 -0.2690
 4534SOL    HW225239   2.617   0.779   9.810 -0.6010  1.1500  1.0133
 4535SOL     OW25240   1.526   1.541   2.553 -0.3512 -0.0402 -0.3622
 4535SOL    HW125241   1.539   1.632   2.580 -1.3793 -0.0381  0.1488
 4535SOL    HW225242   1.464   1.544   2.481  0.6137 -2.7298 -1.3117
 4536SOL     OW25243   2.719   2.754   2.781  0.2997 -0.1400  0.0379
 4536SOL    HW125244   2.693   2.842   2.811 -1.3807 -0.3330 -0.8118
 4536SOL    HW225245   2.811   2.767   2.761  0.2282  3.1478  1.8201
 4537SOL     OW25246   4.235   4.629   5.640  0.6577 -0.6656  0.4024
 4537SOL    HW125247   4.310   4.597   5.688  0.7704 -0.8839  0.0791
 4537SOL    HW225248   4.174   4.557   5.658  0.2568  0.0021  1.6932
 4538SOL     OW25249   0.609   1.523   0.835 -0.5333  0.6188 -0.2520
 4538SOL    HW125250   0.639   1.610   0.861 -0.3312 -0.0561  1.8169
 4538SOL    HW225251   0.570   1.495   0.918 -0.3160  0.7314 -0.1113
 4539SOL     OW25252   1.456   3.707  15.644  0.0258 -0.0219 -0.1990
 4539SOL    HW125253   1.474   3.668  15.730 -0.2847 -0.2954 -0.2610
 4539SOL    HW225254   1.361   3.715  15.653  0.3160  1.6585  1.5809
 4540SOL     OW25255   4.244   2.977   4.219 -0.2419 -0.1775  0.4147
 4540SOL    HW125256   4.245   3.073   4.222  0.6279 -0.2117  1.1606
 4540SOL    HW225257   4.273   2.945   4.304  2.3526  1.4234  0.1281
 4541SOL     OW25258   1.627   3.639   5.683  0.0383  0.0122 -0.0777
 4541SOL    HW125259   1.692   3.703   5.653  0.0084 -0.5228 -1.2488
 4541SOL    HW225260   1.681   3.563   5.660 -2.7487 -1.5105 -1.4758
 4542SOL     OW25261   0.385   3.631   2.246 -0.3221 -0.5121  0.1839
 4542SOL    HW125262   0.349   3.630   2.334  1.0513 -0.7521  0.7441
 4542SOL    HW225263   0.299   3.614   2.208 -1.1866  1.6460  1.2157
 4543SOL     OW25264   1.510   3.721   7.055  0.2829 -0.6476  0.0183
 4543SOL    HW125265   1.575   3.688   6.993 -0.9954  2.3431 -2.9376
 4543SOL    HW225266   1.567   3.788   7.092  0.8663  0.1410 -2.2953
 4544SOL     OW25267   3.165   4.052   9.844 -0.2919 -0.0860 -0.0344
 4544SOL    HW125268   3.094   4.028   9.785  0.3612 -0.5153 -0.6464
 4544SOL    HW225269   3.177   4.140   9.809  2.7001 -0.8871 -1.0173
 4545SOL     OW25270   4.054   1.216  10.758  0.5658  0.2085  0.5645
 4545SOL    HW125271   3.988   1.147  10.746  1.0412 -0.2296  0.4387
 4545SOL    HW225272   4.031   1.254  10.843  0.3645  1.1886  0.0689
 4546SOL     OW25273   2.806   3.084   2.980 -0.1327  0.3799  0.3495
 4546SOL    HW125274   2.717   3.115   2.962  0.0906  0.1395 -1.1513
 4546SOL    HW225275   2.846   3.168   3.005 -1.0057  1.1097 -0.7349
 4547SOL     OW25276   3.375   2.280  12.662 -0.2119  1.2303  0.5169
 4547SOL    HW125277   3.444   2.215  12.653 -2.9444 -1.6617  0.3849
 4547SOL    HW225278   3.399   2.318  12.578  1.1680 -0.7341  0.0431
 4548SOL     OW25279   2.619   2.575   4.434  0.0901  0.4441  0.2237
 4548SOL    HW125280   2.645   2.610   4.519  1.6376  0.7547 -0.3807
 4548SOL    HW225281   2.670   2.625   4.370 -0.6100  0.6659 -0.1554
 4549SOL     OW25282   2.539   4.406  11.475  0.9903 -0.1667 -0.3716
 4549SOL    HW125283   2.544   4.343  11.403  2.2214  0.1067 -0.5323
 4549SOL    HW225284   2.586   4.353  11.539  0.4158  1.9200  1.8079
 4550SOL     OW25285   4.375   0.861   4.260 -0.4560  0.1561  0.0391
 4550SOL    HW125286   4.431   0.792   4.225 -1.7689 -0.5705 -0.6172
 4550SOL    HW225287   4.314   0.806   4.311  0.3804  0.0574  0.9320
 4551SOL     OW25288   0.508   2.254   3.453 -0.0396  0.3964 -0.2589
 4551SOL    HW125289   0.513   2.167   3.412  1.9795 -0.1707  1.1731
 4551SOL    HW225290   0.591   2.252   3.501 -1.1046  2.4343  1.6780
 4552SOL     OW25291   3.211   2.898   3.509 -0.0704 -0.2131  0.4263
 4552SOL    HW125292   3.279   2.846   3.467 -0.7381  1.1192 -2.3297
 4552SOL    HW225293   3.167   2.946   3.439 -0.8675  0.7024  1.5537
 4553SOL     OW25294   2.309   4.140  14.904 -0.3182 -0.6569  0.6091
 4553SOL    HW125295   2.388   4.103  14.865 -0.5987 -1.5578  0.8940
 4553SOL    HW225296   2.349   4.176  14.983  2.0167 -1.6212 -0.1390
 4554SOL     OW25297   1.304   4.225  11.093  0.0589  0.6635 -0.0046
 4554SOL    HW125298   1.362   4.191  11.026 -1.8483  0.3092 -1.4818
 4554SOL    HW225299   1.320   4.318  11.081 -0.2591  0.5846 -1.0485
 4555SOL     OW25300   4.373   0.595   4.576  0.5828  0.3247 -0.4908
 4555SOL    HW125301   4.306   0.549   4.526  0.2741 -0.5317  0.7188
 4555SOL    HW225302   4.334   0.681   4.594  0.7032  0.5109 -1.0917
 4556SOL     OW25303   2.315   1.466  14.872  0.0194 -0.1525  0.2435
 4556SOL    HW125304   2.288   1.558  14.881  1.3669  0.1139  1.6250
 4556SOL    HW225305   2.228   1.428  14.862  0.0487  0.1412 -1.0800
 4557SOL     OW25306   3.920   0.681   1.631  0.2947 -0.6818  0.3874
 4557SOL    HW125307   3.876   0.767   1.628 -0.6016 -1.0441  2.9930
 4557SOL    HW225308   4.005   0.695   1.591  1.0596 -2.4068  1.4204
 4558SOL     OW25309   4.285   3.408   4.797 -0.3482  0.0718 -0.0060
 4558SOL    HW125310   4.308   3.335   4.740  1.6727  0.5168  0.2486
 4558SOL    HW225311   4.367   3.457   4.798  0.6840 -1.6313 -2.5564
 4559SOL     OW25312   1.111   4.277   9.267  0.1287  0.0314  0.2863
 4559SOL    HW125313   1.200   4.309   9.253 -1.3235  3.9109  0.0071
 4559SOL    HW225314   1.110   4.189   9.306  3.9377  0.1581  0.6353
 4560SOL     OW25315   1.901   0.915   9.118 -0.2107  0.2336  0.4921
 4560SOL    HW125316   1.947   0.904   9.201  1.1589  3.7290  0.1792
 4560SOL    HW225317   1.956   0.971   9.063 -0.0090  0.6979  1.1758
 4561SOL     OW25318   4.054   1.894  17.038 -0.5584  0.3979 -0.1234
 4561SOL    HW125319   4.017   1.851  17.115  2.4374 -3.6094 -0.9297
 4561SOL    HW225320   4.118   1.952  17.079 -1.0600  0.0585  1.1314
 4562SOL     OW25321   0.995   1.834   1.426 -0.0261 -0.0584  0.1266
 4562SOL    HW125322   1.033   1.746   1.431 -1.3797 -0.6758 -0.6132
 4562SOL    HW225323   0.995   1.865   1.517 -1.4920 -1.8218  0.7256
 4563SOL     OW25324   2.722   3.609   8.711 -0.0211  0.4032  0.2335
 4563SOL    HW125325   2.642   3.591   8.759 -0.8747  2.2242 -0.4881
 4563SOL    HW225326   2.715   3.550   8.636 -1.0329  0.9615 -0.1121
 4564SOL     OW25327   3.961   0.808  10.978  0.1709  0.2594  0.4161
 4564SOL    HW125328   3.945   0.838  11.067 -1.8936  0.5239 -0.0506
 4564SOL    HW225329   3.880   0.760  10.961 -0.8725  1.8359  0.9698
 4565SOL     OW25330   1.585   3.883  17.298 -0.5795 -0.9194  0.2410
 4565SOL    HW125331   1.584   3.938  17.219  1.6092 -0.5358  0.4670
 4565SOL    HW225332   1.642   3.940  17.350  0.2507 -1.4617 -0.0783
 4566SOL     OW25333   4.084   4.216   4.859 -0.0462  0.1144  0.0215
 4566SOL    HW125334   4.169   4.239   4.821  0.6328 -0.3060  1.3059
 4566SOL    HW225335   4.047   4.304   4.865  1.6843  0.8904 -0.6630
 4567SOL     OW25336   2.140   3.335   3.742 -0.1565  0.1055  0.4000
 4567SOL    HW125337   2.199   3.279   3.793 -1.5851 -1.1401  0.6797
 4567SOL    HW225338   2.168   3.322   3.651 -2.2202  0.0713 -0.2197
 4568SOL     OW25339   3.740   1.192   4.031 -0.4446 -0.0670 -0.1569
 4568SOL    HW125340   3.768   1.279   4.005 -1.4781 -0.4985 -2.7033
 4568SOL    HW225341   3.701   1.163   3.948  0.3930 -1.7367  0.0254
 4569SOL     OW25342   4.254   4.361   3.018 -0.5906 -0.1550  0.3659
 4569SOL    HW125343   4.190   4.432   3.016  1.0174  1.2898  0.2594
 4569SOL    HW225344   4.271   4.361   2.924  0.1471 -0.2102  0.4932
 4570SOL     OW25345   0.698   2.205  13.143  0.5021  0.1963  0.0117
 4570SOL    HW125346   0.777   2.254  13.165  1.1834 -1.1129  0.5535
 4570SOL    HW225347   0.683   2.166  13.230  0.6027 -0.2514 -0.1719
 4571SOL     OW25348   2.721   0.937  10.185 -0.1764  0.7207  0.2824
 4571SOL    HW125349   2.785   0.900  10.246  0.1721 -1.5800 -1.4435
 4571SOL    HW225350   2.663   0.977  10.250 -3.3927 -1.2723 -1.3112
 4572SOL     OW25351   2.415   4.435   6.797  0.0729  0.3033 -0.1279
 4572SOL    HW125352   2.492   4.444   6.854 -0.7518  2.4742  0.6375
 4572SOL    HW225353   2.442   4.483   6.719 -1.2098 -0.5713 -1.1027
 4573SOL     OW25354   2.968   2.577   7.769 -0.5085 -0.2666  0.0660
 4573SOL    HW125355   2.922   2.512   7.822 -0.8817 -0.5165 -0.5688
 4573SOL    HW225356   2.896   2.631   7.734 -1.6994 -1.9450 -0.0668
 4574SOL     OW25357   1.545   0.825  17.628  0.1840  0.0884  0.2136
 4574SOL    HW125358   1.451   0.833  17.644  0.4722  0.9490  1.4461
 4574SOL    HW225359   1.570   0.834  17.720  0.0509 -3.4694  0.6112
 4575SOL     OW25360   1.915   2.626   5.455 -0.0451 -0.6765 -0.3519
 4575SOL    HW125361   1.826   2.606   5.484 -0.0382 -0.0958  0.0615
 4575SOL    HW225362   1.929   2.716   5.483  0.6085 -0.3744 -1.6593
 4576SOL     OW25363   0.498   0.686   7.756 -0.4564  0.1537  0.3565
 4576SOL    HW125364   0.591   0.687   7.779 -0.3514  0.1868 -0.0710
 4576SOL    HW225365   0.504   0.662   7.663 -0.6598 -0.0485  0.3965
 4577SOL     OW25366   4.322   3.604   6.859 -0.6696 -0.2634  0.7125
 4577SOL    HW125367   4.291   3.583   6.771 -1.6170  1.4307  0.6565
 4577SOL    HW225368   4.292   3.525   6.906 -0.9081  0.7431  2.2480
 4578SOL     OW25369   1.739   3.229   7.022 -0.3758  0.2711 -0.5353
 4578SOL    HW125370   1.783   3.145   7.015 -0.0134  0.3815  0.4019
 4578SOL    HW225371   1.739   3.257   6.930  1.1579 -0.5833 -0.7802
 4579SOL     OW25372   3.211   4.127   5.136  0.0096 -0.0356  0.1349
 4579SOL    HW125373   3.117   4.147   5.135  0.1044  0.4431  0.7004
 4579SOL    HW225374   3.223   4.120   5.041  3.3608 -1.8652  0.7114
 4580SOL     OW25375   2.532   2.879   4.073  0.6128 -0.7057 -0.1971
 4580SOL    HW125376   2.467   2.914   4.134  1.2032 -0.4229  0.2719
 4580SOL    HW225377   2.485   2.872   3.990 -0.1510  2.4006 -0.0165
 4581SOL     OW25378   3.267   1.748   6.518  0.2745  0.1972  0.7067
 4581SOL    HW125379   3.183   1.787   6.540  0.1448  0.3307 -0.0509
 4581SOL    HW225380   3.307   1.815   6.464 -1.3261  0.2997 -0.3461
 4582SOL     OW25381   3.475   4.395   3.875  0.0886  0.8966 -0.1186
 4582SOL    HW125382   3.458   4.314   3.827  0.5767  1.8853 -1.9838
 4582SOL    HW225383   3.410   4.458   3.841 -0.6475  0.0337 -0.3244
 4583SOL     OW25384   3.969   2.398   8.398  0.6511  0.0936 -0.2383
 4583SOL    HW125385   3.974   2.486   8.360  0.8361  0.6925  1.1950
 4583SOL    HW225386   3.945   2.343   8.323 -1.9972  0.8818  0.0454
 4584SOL     OW25387   3.383   3.967   3.367 -0.3706 -0.5815 -0.1485
 4584SOL    HW125388   3.347   3.893   3.318 -2.5792  0.6733 -0.3655
 4584SOL    HW225389   3.463   3.929   3.405  0.2606 -0.1436 -1.0345
 4585SOL     OW25390   3.293   3.781  17.211  0.7120  0.0734 -0.0181
 4585SOL    HW125391   3.238   3.802  17.287 -0.0946  0.7435 -0.7801
 4585SOL    HW225392   3.356   3.724  17.255  0.0851  1.3701  2.5609
 4586SOL     OW25393   1.906   2.064   4.983  0.1476 -0.0311  0.3829
 4586SOL    HW125394   1.859   1.982   4.972 -2.2464  1.3072  0.5660
 4586SOL    HW225395   1.925   2.086   4.892 -0.4776 -0.7614  0.0757
 4587SOL     OW25396   4.185   1.500   9.677  0.0226 -0.1521  1.1983
 4587SOL    HW125397   4.258   1.484   9.737 -0.4501  0.6409  1.9884
 4587SOL    HW225398   4.146   1.412   9.680 -0.7997  0.2785  3.2881
 4588SOL     OW25399   2.064   0.043  10.684 -1.0458  0.7358  0.1174
 4588SOL    HW125400   2.037   4.735  10.760 -0.4311 -0.5101 -0.5208
 4588SOL    HW225401   1.998   0.038  10.614  0.1275 -0.3281 -0.9000
 4589SOL     OW25402   1.250   4.069  13.392 -0.2256 -0.2147  0.8123
 4589SOL    HW125403   1.247   3.998  13.327  0.3031 -0.1948  0.7594
 4589SOL    HW225404   1.280   4.020  13.469 -1.7442 -0.5273  1.1968
 4590SOL     OW25405   2.073   2.406   3.018  0.5708  0.0092 -0.5423
 4590SOL    HW125406   2.009   2.364   3.077 -1.4089  0.7982 -2.1174
 4590SOL    HW225407   2.152   2.394   3.071 -1.3769 -1.6658  2.0083
 4591SOL     OW25408   0.473   3.048   3.795  0.5470  0.3303  0.1628
 4591SOL    HW125409   0.431   3.029   3.711  3.0293 -1.9122 -0.5590
 4591SOL    HW225410   0.403   3.014   3.851  1.6424 -0.6177  0.9377
 4592SOL     OW25411   1.152   3.209   4.080 -0.5499  0.3146  0.1718
 4592SOL    HW125412   1.177   3.291   4.122  2.2395 -1.2892  1.6529
 4592SOL    HW225413   1.138   3.143   4.148 -5.8033  1.6357  0.3807
 4593SOL     OW25414   0.793   3.775   3.619 -0.2130  0.1240 -0.9122
 4593SOL    HW125415   0.804   3.860   3.577 -2.1084  0.8872  0.1423
 4593SOL    HW225416   0.880   3.750   3.649 -1.4174 -3.0914 -0.0356
 4594SOL     OW25417   3.579   2.300   4.378 -0.8779  0.2266 -0.6138
 4594SOL    HW125418   3.603   2.392   4.375 -0.7633  0.1881 -0.9371
 4594SOL    HW225419   3.521   2.308   4.303  0.0367 -0.5660 -1.4199
 4595SOL     OW25420   2.522   0.833  16.445  0.2888  0.1172 -0.5462
 4595SOL    HW125421   2.495   0.762  16.504  0.5701  1.2046  0.8835
 4595SOL    HW225422   2.480   0.911  16.479  0.0841 -0.6998  1.0734
 4596SOL     OW25423   4.474   1.927   7.376  0.5931  0.0865  0.4130
 4596SOL    HW125424   4.416   1.974   7.317 -1.0217 -0.0948  1.8459
 4596SOL    HW225425   4.434   1.944   7.461  1.3243 -0.3969  0.8555
 4597SOL     OW25426   2.121   0.993   3.857  0.3362  0.4446 -0.0526
 4597SOL    HW125427   2.063   0.917   3.853  0.2047  0.4549  1.5162
 4597SOL    HW225428   2.197   0.965   3.805  1.1257  1.8806  0.3222
 4598SOL     OW25429   2.459   4.403   0.647  0.0238 -0.3438  0.3430
 4598SOL    HW125430   2.506   4.369   0.570  0.9447  0.9064  0.3451
 4598SOL    HW225431   2.527   4.400   0.714  0.5586 -0.5025 -0.2020
 4599SOL     OW25432   4.127   2.601   1.961 -0.3258 -0.5332 -1.2731
 4599SOL    HW125433   4.160   2.513   1.941  1.2404  0.2373 -2.1414
 4599SOL    HW225434   4.043   2.571   1.993 -0.5381  1.2316 -0.1925
 4600SOL     OW25435   4.667   4.723   8.615  0.3359  0.6457 -0.4196
 4600SOL    HW125436   4.656   4.709   8.709  1.5397 -0.3429 -0.4242
 4600SOL    HW225437   4.670   0.075   8.619  2.7971  0.5113  1.1594
 4601SOL     OW25438   2.293   2.916   5.510  0.3272 -0.2115  0.7216
 4601SOL    HW125439   2.305   2.822   5.524  1.6466 -0.3264 -1.0973
 4601SOL    HW225440   2.239   2.926   5.431  2.3584  1.2760 -0.4986
 4602SOL     OW25441   0.485   0.901   8.299  0.3871 -0.3133 -0.1757
 4602SOL    HW125442   0.462   0.969   8.235 -0.1314 -1.3848 -1.1244
 4602SOL    HW225443   0.542   0.851   8.240 -0.5956 -1.1953 -0.3641
 4603SOL     OW25444   2.832   3.140   5.275 -0.4771 -0.1376 -0.4721
 4603SOL    HW125445   2.806   3.055   5.240 -0.7295 -0.3346  0.1840
 4603SOL    HW225446   2.751   3.167   5.318  0.4135  1.7138  0.0609
 4604SOL     OW25447   0.687   3.678  10.548  1.1241  0.2302 -0.2117
 4604SOL    HW125448   0.702   3.772  10.539  0.3051  0.2702 -1.2017
 4604SOL    HW225449   0.611   3.680  10.606  1.0661 -0.6701 -0.2586
 4605SOL     OW25450   3.781   0.282  14.482 -0.0858  0.5835  0.5723
 4605SOL    HW125451   3.790   0.201  14.533 -1.3401  0.8566  1.2366
 4605SOL    HW225452   3.856   0.293  14.423 -0.1316  2.8462  0.9541
 4606SOL     OW25453   2.471   0.082   6.358  0.1233  0.4756 -0.1535
 4606SOL    HW125454   2.554   0.049   6.323 -0.3841 -1.8829  0.8868
 4606SOL    HW225455   2.507   0.168   6.380  0.5443  0.2529  0.0223
 4607SOL     OW25456   3.877   0.055   3.322  0.0696 -0.4809 -0.0806
 4607SOL    HW125457   3.825   0.076   3.244  1.5156 -1.4200 -1.3040
 4607SOL    HW225458   3.846   0.129   3.375 -1.3319 -1.6186  0.6747
 4608SOL     OW25459   0.624   0.258   7.412 -0.0993  0.2390 -0.2604
 4608SOL    HW125460   0.691   0.301   7.360 -0.4118  1.3724  0.2656
 4608SOL    HW225461   0.557   0.274   7.346 -0.8620 -2.3413 -0.1362
 4609SOL     OW25462   4.527   1.859   2.004 -0.4135 -0.3203 -0.4481
 4609SOL    HW125463   4.537   1.880   2.097 -0.8961 -0.5571 -0.3421
 4609SOL    HW225464   4.598   1.912   1.967  1.3640 -2.2210  0.2252
 4610SOL     OW25465   1.571   0.135   8.012  0.0512 -0.0838  0.5151
 4610SOL    HW125466   1.666   0.140   8.014  0.0732 -0.9978  1.3265
 4610SOL    HW225467   1.539   0.195   7.944  0.0553 -1.3474 -0.6177
 4611SOL     OW25468   2.189   4.598  10.538 -0.3870 -0.7542 -0.5075
 4611SOL    HW125469   2.147   4.538  10.600 -1.0197 -0.3935 -0.5787
 4611SOL    HW225470   2.158   4.685  10.564  0.9843 -0.8947  1.6173
 4612SOL     OW25471   3.161   4.166   4.813  0.5428  0.2411 -0.2113
 4612SOL    HW125472   3.070   4.192   4.800  0.3131  0.2030  1.2820
 4612SOL    HW225473   3.177   4.095   4.750 -0.4771 -0.2451  0.0713
 4613SOL     OW25474   4.133   0.592  17.103 -0.0784  0.0226  0.3259
 4613SOL    HW125475   4.052   0.569  17.059 -0.0006 -1.4922  0.9711
 4613SOL    HW225476   4.185   0.618  17.026 -2.6809  0.0435 -1.4130
 4614SOL     OW25477   2.622   0.296  10.150  0.4491  0.2735 -0.3709
 4614SOL    HW125478   2.630   0.378  10.199  0.4767  0.2349 -0.3104
 4614SOL    HW225479   2.535   0.275  10.183  0.2106  1.3073 -0.3481
 4615SOL     OW25480   1.858   0.853   8.777 -0.2815  0.5100 -0.5053
 4615SOL    HW125481   1.900   0.788   8.721  0.9283  0.6698  0.2292
 4615SOL    HW225482   1.928   0.890   8.830  0.4461 -1.6318  0.0430
 4616SOL     OW25483   4.170   0.521  11.870  0.4629 -0.1602  0.1936
 4616SOL    HW125484   4.112   0.446  11.879 -0.9404  0.9724  0.5359
 4616SOL    HW225485   4.250   0.482  11.905  0.6638  0.4515  0.4270
 4617SOL     OW25486   1.471   2.387   5.216 -0.2994 -0.0214 -0.0150
 4617SOL    HW125487   1.428   2.410   5.298  4.3615  0.5300  2.3073
 4617SOL    HW225488   1.533   2.461   5.210  1.3368 -1.4913 -1.2659
 4618SOL     OW25489   3.314   2.563   5.601 -0.0093 -0.6927 -0.4829
 4618SOL    HW125490   3.270   2.547   5.684 -1.0705  1.4620 -0.6288
 4618SOL    HW225491   3.333   2.474   5.574  0.4364 -1.5203  2.5319
 4619SOL     OW25492   0.480   1.976   6.768  0.4230 -0.1803  0.3416
 4619SOL    HW125493   0.396   1.932   6.771  0.2343  0.1984  0.6716
 4619SOL    HW225494   0.523   1.924   6.701 -0.2267  0.0435 -0.2480
 4620SOL     OW25495   2.796   1.886   5.556 -0.3153  0.6702  0.0492
 4620SOL    HW125496   2.818   1.931   5.638  0.7682  2.8524 -1.4263
 4620SOL    HW225497   2.747   1.958   5.514 -0.5220  1.1415  1.1038
 4621SOL     OW25498   3.214   3.512   3.721  0.0807 -0.1958 -0.1829
 4621SOL    HW125499   3.281   3.506   3.790  1.2734  0.7795 -1.2692
 4621SOL    HW225500   3.219   3.421   3.691 -0.9352 -1.2256  2.7413
 4622SOL     OW25501   4.557   3.738   3.646 -0.0675  0.5093 -0.0364
 4622SOL    HW125502   4.548   3.717   3.553 -0.1043  0.6457 -0.0630
 4622SOL    HW225503   4.518   3.824   3.655 -3.3586 -1.0600  0.7207
 4623SOL     OW25504   1.839   0.119  10.232 -0.0617  0.2623 -0.4309
 4623SOL    HW125505   1.906   0.113  10.163  0.6014 -0.5026  0.2750
 4623SOL    HW225506   1.856   0.205  10.270 -0.0769 -0.4954  1.2971
 4624SOL     OW25507   4.540   0.660  11.666 -0.1800  0.1618  0.0990
 4624SOL    HW125508   4.511   0.652  11.757 -1.2946 -0.4184 -0.2998
 4624SOL    HW225509   4.590   0.741  11.673  0.5285 -0.2625 -0.0375
 4625SOL     OW25510   2.960   1.726   8.077 -0.0736  0.5551 -0.0219
 4625SOL    HW125511   2.973   1.787   8.005 -2.4449 -0.8607 -1.6607
 4625SOL    HW225512   2.955   1.643   8.030 -1.1007 -0.9979  2.8558
 4626SOL     OW25513   4.421   1.356   6.045  0.3019  0.5925  0.3818
 4626SOL    HW125514   4.342   1.391   6.004  0.0333  1.2948  1.4995
 4626SOL    HW225515   4.435   1.422   6.113  0.6627 -0.6733  1.5666
 4627SOL     OW25516   1.691   2.808   4.959  0.1638 -0.2029 -0.0903
 4627SOL    HW125517   1.625   2.850   4.904 -1.3318 -1.5398  0.6971
 4627SOL    HW225518   1.718   2.884   5.011 -0.0427 -0.5388  0.5127
 4628SOL     OW25519   3.404   1.088   4.362 -0.5608  0.6502 -0.6886
 4628SOL    HW125520   3.386   1.150   4.291 -1.3112  1.6093  0.3323
 4628SOL    HW225521   3.434   1.010   4.317  1.0844  1.4490 -0.9834
 4629SOL     OW25522   4.728   3.357   2.135 -0.7448 -0.0788  0.0584
 4629SOL    HW125523   0.004   3.306   2.213  2.6224  0.5579 -0.4048
 4629SOL    HW225524   4.731   3.282   2.076 -1.2968  0.0869 -0.1853
 4630SOL     OW25525   2.265   0.224   9.795  0.2311 -0.2887 -0.2754
 4630SOL    HW125526   2.202   0.158   9.768  0.5053 -0.6339 -0.0633
 4630SOL    HW225527   2.227   0.261   9.875 -0.9552 -0.4192 -0.7842
 4631SOL     OW25528   4.117   0.279   7.598  0.2230  0.3619  0.2860
 4631SOL    HW125529   4.203   0.322   7.600  0.9591 -1.1281  0.9959
 4631SOL    HW225530   4.147   0.193   7.628  0.4657  0.5093  0.4677
 4632SOL     OW25531   1.073   2.172   7.433 -0.0820 -0.3642 -0.4305
 4632SOL    HW125532   1.132   2.241   7.403 -0.4855  0.0594 -0.2389
 4632SOL    HW225533   1.068   2.114   7.357  1.3942  0.6219 -1.2841
 4633SOL     OW25534   3.991   4.471   1.302  0.2926  0.6131 -0.4218
 4633SOL    HW125535   4.064   4.454   1.361  0.4977  1.0898 -0.5385
 4633SOL    HW225536   3.970   4.561   1.327  1.9971  0.6598  0.8947
 4634SOL     OW25537   1.806   2.977   6.148 -0.7259 -0.2805  0.1728
 4634SOL    HW125538   1.834   3.050   6.203  2.0412 -0.9193 -0.3883
 4634SOL    HW225539   1.863   2.973   6.071  0.5909  0.3482  1.1059
 4635SOL     OW25540   2.903   1.556  10.434 -0.0721  0.3025 -0.1528
 4635SOL    HW125541   2.927   1.467  10.460  1.2066  0.3014 -1.3404
 4635SOL    HW225542   2.901   1.547  10.339  0.5240  0.6226 -0.1975
 4636SOL     OW25543   1.235   3.510   2.852 -0.2968 -1.2025 -0.5572
 4636SOL    HW125544   1.141   3.499   2.869 -0.6264  0.7206 -1.1854
 4636SOL    HW225545   1.235   3.606   2.857 -2.5645 -1.2106 -0.2383
 4637SOL     OW25546   3.368   3.345   4.554  0.1517 -0.2345  0.4411
 4637SOL    HW125547   3.335   3.434   4.568 -0.5120 -0.5954  1.1436
 4637SOL    HW225548   3.416   3.343   4.471  0.0751  2.3794  0.3334
 4638SOL     OW25549   2.167   0.206   2.088 -0.3403  0.1127 -0.0242
 4638SOL    HW125550   2.117   0.288   2.097  1.8411  1.4910 -0.4554
 4638SOL    HW225551   2.110   0.133   2.111  0.6327 -0.6510 -0.0291
 4639SOL     OW25552   1.458   1.781   0.711 -0.1280 -0.0420 -0.1372
 4639SOL    HW125553   1.481   1.874   0.716  2.5608 -0.7881  1.9024
 4639SOL    HW225554   1.366   1.776   0.737  0.0541  0.5335  0.6225
 4640SOL     OW25555   0.278   0.371   2.670  0.2940  0.4088  0.1557
 4640SOL    HW125556   0.208   0.434   2.656 -0.5043 -0.3221  0.7986
 4640SOL    HW225557   0.247   0.314   2.741  2.4881 -1.2551 -0.2303
 4641SOL     OW25558   1.225   1.535  13.608  0.1026 -0.1696  0.8149
 4641SOL    HW125559   1.215   1.492  13.694 -2.1847  1.8433  1.5574
 4641SOL    HW225560   1.138   1.535  13.567  0.1429 -1.6672  0.7336
 4642SOL     OW25561   3.538   1.918   2.987  0.9348 -0.4369 -0.5539
 4642SOL    HW125562   3.485   1.977   3.040  1.7554 -1.2563  1.1592
 4642SOL    HW225563   3.476   1.856   2.948 -2.4071  1.2735  1.9807
 4643SOL     OW25564   0.560   2.705   9.916 -0.0527 -0.2056 -0.6161
 4643SOL    HW125565   0.590   2.777   9.860  2.2906 -0.5001  0.2536
 4643SOL    HW225566   0.477   2.689   9.871  0.0368  0.5052 -1.0456
 4644SOL     OW25567   2.556   1.787   3.297 -0.2098  0.5357  0.4648
 4644SOL    HW125568   2.633   1.801   3.242  0.8332  1.2313  2.0863
 4644SOL    HW225569   2.559   1.696   3.327 -0.9878  0.8773  1.5814
 4645SOL     OW25570   3.132   4.061  12.353 -0.7759 -0.4622 -0.1227
 4645SOL    HW125571   3.076   4.054  12.276  1.4154  2.5141 -1.9743
 4645SOL    HW225572   3.127   4.153  12.378 -0.3737 -0.1148 -1.3574
 4646SOL     OW25573   2.953   3.868  15.841 -0.2789  0.0450 -0.1346
 4646SOL    HW125574   2.938   3.840  15.931 -2.0266  1.6434  0.0844
 4646SOL    HW225575   2.959   3.964  15.843  0.5277 -0.0371  0.9529
 4647SOL     OW25576   2.188   1.640  15.637  0.3744  0.3747  0.5325
 4647SOL    HW125577   2.200   1.723  15.592 -0.9489 -0.4765 -1.4127
 4647SOL    HW225578   2.130   1.664  15.709 -3.0474  0.7558 -2.3415
 4648SOL     OW25579   2.218   4.006   2.793 -0.5706  0.6899 -0.1359
 4648SOL    HW125580   2.128   4.029   2.817 -0.2108  1.1206  0.8248
 4648SOL    HW225581   2.200   3.971   2.706 -0.8257 -0.2646  0.2997
 4649SOL     OW25582   2.896   3.541   6.421  0.6300  0.0485  0.0608
 4649SOL    HW125583   2.964   3.587   6.372  0.8397 -0.7392 -0.3984
 4649SOL    HW225584   2.826   3.545   6.355  0.4551  2.3598  0.3998
 4650SOL     OW25585   3.288   4.032   7.250 -0.2301 -0.5774 -0.6569
 4650SOL    HW125586   3.227   4.105   7.238 -1.1927 -1.0787  1.2903
 4650SOL    HW225587   3.225   3.965   7.276  0.9181 -0.5511  2.1386
 4651SOL     OW25588   3.242   0.384  16.941  0.1785  0.0943  0.0386
 4651SOL    HW125589   3.246   0.464  16.889 -2.3116  0.0693 -0.1886
 4651SOL    HW225590   3.270   0.322  16.873 -2.3410 -0.4600 -0.5029
 4652SOL     OW25591   1.696   2.539   2.877  0.2310 -0.5014  0.1984
 4652SOL    HW125592   1.704   2.590   2.958 -0.9796 -0.2035  0.1322
 4652SOL    HW225593   1.786   2.515   2.858  0.3462  0.1992 -0.1410
 4653SOL     OW25594   2.319   0.069  11.492 -0.3012  0.2256  0.4736
 4653SOL    HW125595   2.333   0.129  11.566  2.4566 -1.6412  1.4729
 4653SOL    HW225596   2.244   0.114  11.453 -0.5163  1.5834  2.4236
 4654SOL     OW25597   3.445   0.888  15.293  0.0480  0.1302 -0.1926
 4654SOL    HW125598   3.420   0.907  15.383  2.8783  0.1890  0.5878
 4654SOL    HW225599   3.438   0.973  15.250  1.9033  1.2725  1.7541
 4655SOL     OW25600   2.785   1.662   4.497  0.1696 -0.4872  0.5761
 4655SOL    HW125601   2.721   1.616   4.441 -1.3840 -0.0445  1.9762
 4655SOL    HW225602   2.737   1.705   4.567 -0.8878  1.5843 -1.4003
 4656SOL     OW25603   3.617   3.696   6.494 -0.1991 -0.6368  0.2318
 4656SOL    HW125604   3.696   3.675   6.544  0.0399  1.0223  0.5545
 4656SOL    HW225605   3.636   3.765   6.430  0.0912  0.7788  1.8301
 4657SOL     OW25606   1.957   4.505  15.411 -0.1560 -0.0767 -0.1412
 4657SOL    HW125607   1.868   4.533  15.433 -0.2403 -0.3511 -0.1351
 4657SOL    HW225608   2.000   4.579  15.452 -0.4398 -1.0189  1.8287
 4658SOL     OW25609   4.385   0.973   5.391  0.1170  0.4931  0.0452
 4658SOL    HW125610   4.393   0.912   5.465  0.7467 -0.9391 -1.2093
 4658SOL    HW225611   4.477   0.996   5.374 -0.3916  1.7821 -0.9819
 4659SOL     OW25612   2.864   4.229  14.469  0.3040  0.4614  0.2525
 4659SOL    HW125613   2.930   4.267  14.527  0.4031  2.0921 -0.9433
 4659SOL    HW225614   2.850   4.139  14.500  1.2285  0.4701  0.7130
 4660SOL     OW25615   4.120   2.418   7.303 -0.0364 -0.9995 -0.1735
 4660SOL    HW125616   4.142   2.510   7.320 -0.8838 -0.9135  0.4655
 4660SOL    HW225617   4.060   2.410   7.378  1.9663 -1.3758  1.3982
 4661SOL     OW25618   1.043   1.359   5.584 -0.0996  0.2528 -0.5821
 4661SOL    HW125619   1.066   1.280   5.632 -0.0837  0.0801 -0.8789
 4661SOL    HW225620   0.959   1.331   5.546 -0.8200  1.1138  0.3831
 4662SOL     OW25621   1.259   0.150   0.191  0.1071 -0.0821 -0.0180
 4662SOL    HW125622   1.304   0.166   0.108  1.0486  1.5111  0.8112
 4662SOL    HW225623   1.179   0.105   0.162 -1.4178  0.8461  2.8342
 4663SOL     OW25624   1.865   1.038   5.536  0.4583 -0.0324 -0.5558
 4663SOL    HW125625   1.797   1.088   5.491  1.3318 -0.2380 -2.1098
 4663SOL    HW225626   1.940   1.094   5.517  1.2654 -1.4703 -1.5310
 4664SOL     OW25627   0.651   2.792   4.960 -0.1440 -0.0787 -0.6226
 4664SOL    HW125628   0.707   2.803   4.883  0.5488  1.9717  0.1852
 4664SOL    HW225629   0.663   2.699   4.979  1.6977 -0.2038 -2.3035
 4665SOL     OW25630   2.086   0.510   1.428 -0.1046  0.4597 -0.4788
 4665SOL    HW125631   2.058   0.463   1.349  0.7472 -0.2099 -0.3756
 4665SOL    HW225632   2.073   0.602   1.404  0.7402  0.4274 -1.0766
 4666SOL     OW25633   4.479   4.290   1.859 -0.2433 -0.0603  0.0082
 4666SOL    HW125634   4.560   4.304   1.811 -0.4313 -2.2214 -0.9766
 4666SOL    HW225635   4.497   4.352   1.929  3.1709 -0.3379 -0.6001
 4667SOL     OW25636   2.150   0.352   7.189  0.5644  0.0890  0.2416
 4667SOL    HW125637   2.243   0.343   7.210  0.3755 -1.1179  0.5288
 4667SOL    HW225638   2.124   0.262   7.208 -0.6868  0.5531  0.7447
 4668SOL     OW25639   3.572   3.508  11.193 -0.1343 -0.0351  0.6168
 4668SOL    HW125640   3.592   3.414  11.195  0.8468  0.1449 -0.5565
 4668SOL    HW225641   3.648   3.544  11.237  1.0569  1.2478 -2.4725
 4669SOL     OW25642   2.037   3.288   8.250 -0.6856 -0.4707  0.0095
 4669SOL    HW125643   2.014   3.370   8.294 -1.0415 -1.1652  1.1123
 4669SOL    HW225644   2.011   3.217   8.308  0.0978 -1.7298 -1.1961
 4670SOL     OW25645   0.111   3.191   5.383 -0.0973  0.1980  0.0739
 4670SOL    HW125646   0.195   3.150   5.404 -2.0948 -3.6752  0.4978
 4670SOL    HW225647   0.095   3.131   5.309  2.3648 -2.2534  1.5307
 4671SOL     OW25648   2.057   0.263   6.198  0.2216 -0.6926  0.0904
 4671SOL    HW125649   2.088   0.195   6.137 -2.3134 -1.3336 -0.4758
 4671SOL    HW225650   2.036   0.333   6.136  0.0470 -1.1508 -0.3632
 4672SOL     OW25651   2.815   4.715   3.353  0.3677  0.0967  0.2997
 4672SOL    HW125652   2.795   4.662   3.430  1.1835  0.7507  0.9481
 4672SOL    HW225653   2.810   4.644   3.289  0.0623  0.3269  0.0666
 4673SOL     OW25654   3.431   0.204   7.898  0.2237  0.6863  0.4185
 4673SOL    HW125655   3.505   0.145   7.881 -0.2777 -0.5346  2.4570
 4673SOL    HW225656   3.477   0.286   7.880  0.4237  0.5200  0.1695
 4674SOL     OW25657   2.778   0.418  13.196 -0.8166  0.3666  0.0110
 4674SOL    HW125658   2.778   0.380  13.284  1.5211 -1.0444 -0.5987
 4674SOL    HW225659   2.786   0.511  13.218 -3.2897  0.3631  0.9516
 4675SOL     OW25660   1.368   4.231   3.478 -0.1408  0.2555 -0.3950
 4675SOL    HW125661   1.350   4.147   3.519  1.5579  0.0998  0.0318
 4675SOL    HW225662   1.449   4.214   3.430 -0.7861 -0.8692 -1.0697
 4676SOL     OW25663   2.552   0.023   4.049 -0.3173 -0.0293  0.4502
 4676SOL    HW125664   2.535   4.734   4.137  3.2131 -1.1969  0.6654
 4676SOL    HW225665   2.486   0.092   4.046  0.1168  0.3560 -0.1480
 4677SOL     OW25666   2.972   3.469   3.971  0.2811 -0.2964 -0.0867
 4677SOL    HW125667   2.991   3.561   3.953 -0.4619 -0.7684 -3.1436
 4677SOL    HW225668   3.056   3.425   3.959  1.0825  1.3253 -0.4619
 4678SOL     OW25669   0.083   0.963   9.571  0.5006 -0.5534 -0.2886
 4678SOL    HW125670   0.098   1.042   9.519  2.9735 -1.1367 -0.4453
 4678SOL    HW225671   0.170   0.925   9.565  0.4576 -0.5907 -0.6692
 4679SOL     OW25672   4.562   1.371   7.523  0.5180  0.0584  0.3551
 4679SOL    HW125673   4.603   1.380   7.609  0.5405  0.8311  0.2593
 4679SOL    HW225674   4.479   1.417   7.537  2.0515  3.3389 -1.5279
 4680SOL     OW25675   3.417   2.659   4.295 -0.6152 -0.2707 -0.5895
 4680SOL    HW125676   3.505   2.621   4.295 -0.8759 -0.9067  1.6635
 4680SOL    HW225677   3.407   2.694   4.384 -0.4872 -0.1575 -0.6182
 4681SOL     OW25678   0.752   4.670   8.299  0.3607 -0.2886 -0.2759
 4681SOL    HW125679   0.749   4.600   8.234 -0.3521 -2.1118  1.7026
 4681SOL    HW225680   0.765   0.007   8.250  0.1582  0.7516  1.3693
 4682SOL     OW25681   4.248   1.892   1.377  0.0030  0.0945 -0.1061
 4682SOL    HW125682   4.311   1.936   1.434  1.5135  1.1723 -2.6314
 4682SOL    HW225683   4.296   1.827   1.327 -0.0093  0.4260 -0.5570
 4683SOL     OW25684   1.373   3.862  13.577  0.0319 -0.0477 -0.3615
 4683SOL    HW125685   1.416   3.815  13.506 -2.0358 -1.2787 -0.8137
 4683SOL    HW225686   1.448   3.886  13.630  1.0344  0.3806 -1.9577
 4684SOL     OW25687   4.408   3.288   0.971  0.4816 -0.2805 -0.0118
 4684SOL    HW125688   4.460   3.307   0.893 -0.4917  1.4716 -0.2129
 4684SOL    HW225689   4.471   3.277   1.042  1.5719  1.4812 -0.7135
 4685SOL     OW25690   0.181   0.409   8.271 -0.4887 -0.2968  0.2013
 4685SOL    HW125691   0.138   0.493   8.287  0.8959  0.1804  1.4708
 4685SOL    HW225692   0.150   0.385   8.184 -0.5779 -2.1758  0.7572
 4686SOL     OW25693   1.291   3.290   4.696 -0.2955 -0.2371  0.0934
 4686SOL    HW125694   1.372   3.241   4.684  1.2567  1.9315  1.8320
 4686SOL    HW225695   1.240   3.241   4.631 -1.4600 -0.3776  1.1103
 4687SOL     OW25696   3.614   0.770   5.209 -0.1483 -0.0334 -0.3227
 4687SOL    HW125697   3.626   0.859   5.176  0.2744  0.2521  0.5996
 4687SOL    HW225698   3.521   0.778   5.232 -0.4085  1.1556 -1.7610
 4688SOL     OW25699   3.479   2.854   9.710  0.1722 -0.0319  0.6230
 4688SOL    HW125700   3.539   2.829   9.780  1.2107  1.6352  0.3315
 4688SOL    HW225701   3.534   2.833   9.635 -1.1264 -2.9257  0.5024
 4689SOL     OW25702   2.657   0.081   5.492  0.1228 -0.3420  0.0170
 4689SOL    HW125703   2.625   0.113   5.576  0.2577 -1.3337  0.4353
 4689SOL    HW225704   2.719   0.012   5.514 -0.5079 -0.5117  1.2486
 4690SOL     OW25705   3.878   2.326   1.805 -0.2233 -0.0531  0.0839
 4690SOL    HW125706   3.918   2.238   1.806 -0.3459 -0.1085  0.1152
 4690SOL    HW225707   3.897   2.367   1.890 -0.5759  1.7746 -0.7296
 4691SOL     OW25708   3.517   3.099  12.779 -0.0471  0.3243 -0.0738
 4691SOL    HW125709   3.490   3.140  12.862 -2.3326 -3.2814  0.9775
 4691SOL    HW225710   3.431   3.078  12.742 -0.0385 -0.1064  0.1477
 4692SOL     OW25711   2.239   0.175  12.630 -0.1312 -0.4005 -0.3857
 4692SOL    HW125712   2.155   0.221  12.621 -0.4456 -1.2290 -1.6258
 4692SOL    HW225713   2.294   0.252  12.645 -1.7246  0.6373  0.1071
 4693SOL     OW25714   2.812   2.706   7.530 -0.4760  1.1343  0.1439
 4693SOL    HW125715   2.772   2.792   7.546 -3.7757 -0.3076 -0.3574
 4693SOL    HW225716   2.745   2.661   7.478  0.1315  0.5796 -0.1464
 4694SOL     OW25717   1.664   0.162   2.568  0.5097 -0.0328  0.1473
 4694SOL    HW125718   1.666   0.253   2.595  2.2855  0.0320 -0.2177
 4694SOL    HW225719   1.700   0.126   2.649 -0.3665  4.0219  2.3024
 4695SOL     OW25720   0.391   0.148  15.362  0.1821 -0.1137  0.3987
 4695SOL    HW125721   0.383   0.085  15.291  0.1933  2.9661 -2.3210
 4695SOL    HW225722   0.453   0.208  15.320 -0.3850 -0.9967 -1.6678
 4696SOL     OW25723   3.440   4.162   4.349  0.3329 -0.4415 -0.1318
 4696SOL    HW125724   3.448   4.232   4.414 -1.9891  0.2052 -0.5505
 4696SOL    HW225725   3.388   4.097   4.398  1.2444 -1.0927 -0.0212
 4697SOL     OW25726   2.580   1.752   1.722  0.7422 -0.1232 -0.0284
 4697SOL    HW125727   2.549   1.843   1.727 -0.3963 -0.6946  3.1201
 4697SOL    HW225728   2.651   1.764   1.659 -0.9317 -0.7778 -2.0774
 4698SOL     OW25729   2.349   2.017  15.871 -0.5467 -0.4519  0.5374
 4698SOL    HW125730   2.283   2.016  15.802 -2.4656  0.6262  2.3902
 4698SOL    HW225731   2.391   1.933  15.850  0.4349  0.3238 -0.6060
 4699SOL     OW25732   2.945   1.640   2.846 -0.5466 -0.5615 -0.1140
 4699SOL    HW125733   2.974   1.549   2.850  0.5394 -0.2056  0.2200
 4699SOL    HW225734   2.879   1.638   2.915  1.4022 -0.3418  1.7418
 4700SOL     OW25735   3.234   3.251   8.717 -0.2366  0.0220  0.4779
 4700SOL    HW125736   3.194   3.168   8.691  0.6749  0.2437 -1.6851
 4700SOL    HW225737   3.312   3.214   8.757 -0.1114 -1.2084 -0.8764
 4701SOL     OW25738   0.724   2.435   2.578 -0.7555  0.4046  0.1097
 4701SOL    HW125739   0.810   2.477   2.574 -0.6734  0.0327 -1.9191
 4701SOL    HW225740   0.674   2.500   2.528 -0.4818 -0.7636 -1.6346
 4702SOL     OW25741   0.936   2.737   9.054 -0.0412 -0.1168  0.3884
 4702SOL    HW125742   0.847   2.710   9.074  0.0091  0.8759  1.8939
 4702SOL    HW225743   0.941   2.696   8.967  2.1752 -1.2399  1.0300
 4703SOL     OW25744   3.061   3.675  14.608  0.0859  0.3602  0.4913
 4703SOL    HW125745   3.153   3.698  14.626  0.2665  0.8530 -1.0781
 4703SOL    HW225746   3.037   3.630  14.689 -0.8715 -1.0352 -0.5775
 4704SOL     OW25747   2.726   4.683   2.273 -0.6272  0.2169 -0.0458
 4704SOL    HW125748   2.778   4.636   2.207 -1.7919 -1.4931  0.2541
 4704SOL    HW225749   2.708   4.608   2.330  3.0243  0.8091  1.8735
 4705SOL     OW25750   3.358   0.747   8.435  0.4567 -0.0165 -0.2053
 4705SOL    HW125751   3.271   0.718   8.408 -0.7463  2.1042  1.3396
 4705SOL    HW225752   3.342   0.832   8.478 -1.4361  0.2555 -1.4440
 4706SOL     OW25753   1.895   3.765   5.673 -0.8356 -0.7629 -0.1929
 4706SOL    HW125754   1.930   3.714   5.746 -0.0541 -2.1686 -1.5530
 4706SOL    HW225755   1.947   3.733   5.599 -1.4190 -1.9125 -0.1039
 4707SOL     OW25756   1.859   0.421   4.427  0.1270  0.1185  0.0375
 4707SOL    HW125757   1.835   0.463   4.510 -0.7755 -0.7121  0.2005
 4707SOL    HW225758   1.772   0.405   4.391  1.2965 -2.3438 -1.6255
 4708SOL     OW25759   0.815   1.489   1.903  0.3994  0.0711 -0.0044
 4708SOL    HW125760   0.775   1.433   1.836 -0.6475  0.2311  0.4906
 4708SOL    HW225761   0.905   1.501   1.870  1.4166 -1.9790  1.9996
 4709SOL     OW25762   1.833   3.367   9.062  0.1872 -0.6262  0.3272
 4709SOL    HW125763   1.856   3.285   9.107  0.9884 -0.1563  0.7686
 4709SOL    HW225764   1.781   3.403   9.133  0.5134 -0.0726  0.2872
 4710SOL     OW25765   4.143   2.365  12.121  0.4642  0.5594  0.5915
 4710SOL    HW125766   4.196   2.368  12.041 -0.6670 -0.0122 -0.1770
 4710SOL    HW225767   4.072   2.302  12.109  1.2981 -0.5082  1.2275
 4711SOL     OW25768   3.368   2.401  15.422 -0.5915 -0.3578 -0.3529
 4711SOL    HW125769   3.460   2.385  15.443 -0.1851  0.2068 -1.6834
 4711SOL    HW225770   3.374   2.380  15.329 -0.4281  1.0454 -0.6577
 4712SOL     OW25771   2.192   2.252   9.730  0.2063 -0.2492  0.6411
 4712SOL    HW125772   2.142   2.186   9.681 -1.2665  0.9092  0.5616
 4712SOL    HW225773   2.147   2.250   9.815  0.4038 -0.5033  0.7372
 4713SOL     OW25774   0.845   4.622  11.649  0.1065 -0.3208  0.2000
 4713SOL    HW125775   0.776   4.634  11.584 -0.6928 -3.5062  0.4997
 4713SOL    HW225776   0.928   4.655  11.614 -0.9453  0.1248 -1.8435
 4714SOL     OW25777   1.386   3.001   3.145  0.1542 -0.8591 -0.0314
 4714SOL    HW125778   1.460   3.060   3.130  0.1818 -1.3073 -1.6210
 4714SOL    HW225779   1.429   2.932   3.195  2.9675  1.0050  0.1393
 4715SOL     OW25780   3.957   2.055   2.224  0.5225  0.2255  0.2182
 4715SOL    HW125781   3.870   2.069   2.261  0.7849 -1.1932  1.3868
 4715SOL    HW225782   3.974   2.142   2.188 -0.1705  0.4890  0.5085
 4716SOL     OW25783   1.398   1.200   6.060  0.1444  0.1986 -0.3345
 4716SOL    HW125784   1.336   1.130   6.040 -0.9737  1.3617 -0.9154
 4716SOL    HW225785   1.343   1.272   6.089  0.3323  0.7044 -1.2545
 4717SOL     OW25786   3.785   2.167   7.894 -0.8554  0.3451  0.2784
 4717SOL    HW125787   3.799   2.117   7.814  0.2628 -0.5169  1.0119
 4717SOL    HW225788   3.712   2.225   7.872 -0.5745  0.1489 -1.1726
 4718SOL     OW25789   3.198   0.720   5.390 -0.1320 -0.4941 -0.0400
 4718SOL    HW125790   3.184   0.813   5.369  0.4713 -0.1911  0.9027
 4718SOL    HW225791   3.169   0.684   5.306  1.2102 -1.3341 -0.1470
 4719SOL     OW25792   1.337   1.135   2.579 -0.2807  0.5387 -0.0296
 4719SOL    HW125793   1.287   1.206   2.538  0.7840  1.4223  0.1895
 4719SOL    HW225794   1.406   1.183   2.624 -0.3408  0.1859  0.4393
 4720SOL     OW25795   3.683   3.453   7.565 -0.8002 -0.4645 -0.3344
 4720SOL    HW125796   3.732   3.371   7.560  0.1376  0.2008 -1.9132
 4720SOL    HW225797   3.633   3.441   7.646 -0.3988  1.7231  0.2456
 4721SOL     OW25798   4.191   2.858  12.612 -0.3699 -0.5445 -0.3674
 4721SOL    HW125799   4.263   2.910  12.648  0.1794 -1.6812  0.1757
 4721SOL    HW225800   4.114   2.911  12.630  0.8451  0.5697  1.4979
 4722SOL     OW25801   0.269   2.919   7.870 -0.8879 -0.3811  0.3960
 4722SOL    HW125802   0.190   2.874   7.899  1.5537 -2.8501  3.1869
 4722SOL    HW225803   0.261   2.916   7.775  0.6457  1.0364  0.2143
 4723SOL     OW25804   0.377   3.141   2.058  0.4268  0.4916 -0.3793
 4723SOL    HW125805   0.320   3.083   2.108  1.3256  1.1213  1.3720
 4723SOL    HW225806   0.395   3.216   2.113 -0.3932  1.9242 -2.0685
 4724SOL     OW25807   0.087   4.733  12.036 -0.4485 -0.1388 -0.0785
 4724SOL    HW125808   0.125   0.068  11.998  0.9505 -1.5326 -1.6045
 4724SOL    HW225809   0.159   4.701  12.091 -0.1926 -0.5677 -0.6694
 4725SOL     OW25810   1.731   2.194   2.355 -0.5489  0.5564  0.2764
 4725SOL    HW125811   1.792   2.245   2.409 -1.0547  0.2802  1.1047
 4725SOL    HW225812   1.683   2.145   2.421  0.7518 -0.7499  0.2496
 4726SOL     OW25813   3.115   0.155   2.824 -0.2588 -0.5405  0.1471
 4726SOL    HW125814   3.056   0.171   2.898  1.4538  1.5666  1.0418
 4726SOL    HW225815   3.181   0.212   2.863  0.6737 -0.1493 -2.0096
 4727SOL     OW25816   4.499   2.193   3.704  0.1057 -0.0314  0.1763
 4727SOL    HW125817   4.454   2.114   3.732 -2.0004  0.8703 -0.7133
 4727SOL    HW225818   4.481   2.201   3.610  0.1457  0.5849  0.2203
 4728SOL     OW25819   1.492   2.413   4.652  0.0875  0.3613 -0.4551
 4728SOL    HW125820   1.430   2.368   4.710  0.9118 -1.3719 -0.9148
 4728SOL    HW225821   1.430   2.457   4.595 -0.9677 -0.0853  0.3392
 4729SOL     OW25822   1.870   1.767  15.012  0.0610  0.3940 -0.5253
 4729SOL    HW125823   1.924   1.755  15.090  2.0615  1.2893 -1.7650
 4729SOL    HW225824   1.881   1.684  14.965 -1.4191 -0.7582  1.1638
 4730SOL     OW25825   0.113   1.917   3.025  0.3803  0.1305  0.0402
 4730SOL    HW125826   0.025   1.953   3.038 -0.6662 -1.7757 -1.5439
 4730SOL    HW225827   0.114   1.847   3.091  0.0255  1.6307  1.6325
 4731SOL     OW25828   4.464   3.674   7.921 -0.0712 -0.3350 -0.8275
 4731SOL    HW125829   4.430   3.668   7.832 -1.3093  1.4087 -0.4776
 4731SOL    HW225830   4.476   3.769   7.916  2.6820 -0.4868  2.9125
 4732SOL     OW25831   1.855   0.254   5.183 -0.2884 -0.1122 -0.3653
 4732SOL    HW125832   1.874   0.347   5.170 -1.3847  0.0116 -1.0654
 4732SOL    HW225833   1.790   0.266   5.252  0.7537  2.3754  0.2163
 4733SOL     OW25834   3.684   4.346  12.248  0.1836  0.1528 -0.0677
 4733SOL    HW125835   3.772   4.384  12.249  0.9891 -1.6926 -1.1449
 4733SOL    HW225836   3.683   4.295  12.167  2.2210 -0.5157  0.3218
 4734SOL     OW25837   2.652   3.709   4.492  0.3096 -0.1144 -0.2690
 4734SOL    HW125838   2.740   3.729   4.460 -0.1740  1.2981 -0.6954
 4734SOL    HW225839   2.654   3.617   4.518 -0.3290 -0.5285 -1.6796
 4735SOL     OW25840   1.646   0.687   6.147 -0.2820 -0.0504 -0.0139
 4735SOL    HW125841   1.569   0.709   6.199  1.1407 -0.1255  2.1402
 4735SOL    HW225842   1.676   0.611   6.198 -0.1433 -0.3852 -0.5910
 4736SOL     OW25843   0.862   2.039   6.905 -0.1798  0.2674 -0.4356
 4736SOL    HW125844   0.910   2.069   6.828  0.2620 -0.5166 -0.4632
 4736SOL    HW225845   0.860   2.121   6.954 -2.0601  0.1656 -0.3419
 4737SOL     OW25846   1.889   1.090   8.245  0.0910  1.1267 -0.0979
 4737SOL    HW125847   1.983   1.070   8.249 -0.0386  0.7690  1.1256
 4737SOL    HW225848   1.862   1.050   8.327  2.6493 -2.7715 -1.1145
 4738SOL     OW25849   1.984   4.568   2.244 -0.4425  0.7610  0.4304
 4738SOL    HW125850   1.889   4.556   2.237 -0.3758  0.9439 -0.8478
 4738SOL    HW225851   1.993   4.647   2.191  1.0619 -0.6327 -1.4103
 4739SOL     OW25852   2.391   0.185  13.302 -0.1203 -0.2352  0.2106
 4739SOL    HW125853   2.297   0.181  13.285 -0.3313  2.4632  0.5914
 4739SOL    HW225854   2.413   0.269  13.261 -3.3470 -0.5084 -2.0902
 4740SOL     OW25855   0.155   1.853   2.759 -0.1296  0.1775  0.6674
 4740SOL    HW125856   0.138   1.874   2.851 -1.2665 -0.5439  0.6238
 4740SOL    HW225857   0.192   1.940   2.741 -0.2038  0.2063  0.6494
 4741SOL     OW25858   1.805   3.186   7.330 -0.1791  0.1203  0.2983
 4741SOL    HW125859   1.770   3.215   7.414 -1.5464 -2.4313  0.6039
 4741SOL    HW225860   1.809   3.272   7.287 -0.4764  0.3864  0.7938
 4742SOL     OW25861   0.474   3.020   2.414 -0.2076 -0.6571 -0.5072
 4742SOL    HW125862   0.403   2.990   2.358  0.7001 -1.6254 -1.1517
 4742SOL    HW225863   0.547   2.993   2.358 -0.2453  0.6530 -1.1638
 4743SOL     OW25864   3.980   3.822   7.098 -0.3909  0.1638  0.6244
 4743SOL    HW125865   4.010   3.910   7.075  0.5541 -0.0385  1.0937
 4743SOL    HW225866   3.950   3.846   7.186 -0.7210  1.1239  0.2432
 4744SOL     OW25867   1.601   3.220   8.429  0.7707 -0.1865  0.5067
 4744SOL    HW125868   1.604   3.125   8.434 -1.5065 -0.2035  1.5613
 4744SOL    HW225869   1.582   3.235   8.337  0.7872  1.4534  0.7662
 4745SOL     OW25870   3.539   0.527   2.519  0.7233 -0.6002 -0.0028
 4745SOL    HW125871   3.493   0.459   2.470  1.4904  0.1027 -1.6851
 4745SOL    HW225872   3.467   0.562   2.571  2.0208  0.8269  0.8544
 4746SOL     OW25873   1.315   3.981   7.682 -0.1682 -0.1292  0.6314
 4746SOL    HW125874   1.335   3.978   7.776  2.3766  2.0963  0.1454
 4746SOL    HW225875   1.356   4.066   7.669  1.1110 -1.0638 -1.4108
 4747SOL     OW25876   0.777   4.283  13.088  0.3276 -0.4886  0.3064
 4747SOL    HW125877   0.714   4.228  13.041  0.6238 -0.1605 -0.4808
 4747SOL    HW225878   0.767   4.245  13.175 -0.6430  0.2188  0.4959
 4748SOL     OW25879   2.509   1.179   9.377  0.1686  0.1423  0.1352
 4748SOL    HW125880   2.471   1.152   9.461  0.2776 -2.8625 -0.7765
 4748SOL    HW225881   2.562   1.103   9.352  1.1162  1.5867 -2.1681
 4749SOL     OW25882   2.505   3.597   2.849  0.5421  0.3974 -0.5596
 4749SOL    HW125883   2.463   3.655   2.785  2.3775  0.4667 -1.6884
 4749SOL    HW225884   2.579   3.653   2.872  1.7383 -1.1594 -0.6089
 4750SOL     OW25885   4.618   1.118   3.585 -0.0484  0.2505  0.3264
 4750SOL    HW125886   4.563   1.076   3.520  0.6226 -1.7393  1.0574
 4750SOL    HW225887   4.567   1.195   3.611 -0.9088  0.4750 -2.0403
 4751SOL     OW25888   2.758   2.796   7.929 -0.0738 -0.1488 -0.1299
 4751SOL    HW125889   2.717   2.729   7.985 -0.5315  0.5768  0.3972
 4751SOL    HW225890   2.695   2.867   7.936  0.1218 -0.1630  1.7537
 4752SOL     OW25891   4.071   0.184   4.973 -0.0947 -0.0266  0.0990
 4752SOL    HW125892   4.118   0.144   4.900  1.4737  1.4046  0.3214
 4752SOL    HW225893   4.127   0.258   4.996  1.9489 -1.4036 -0.5128
 4753SOL     OW25894   2.228   0.511   2.463  1.0647 -0.2408 -0.4282
 4753SOL    HW125895   2.240   0.419   2.438 -0.3663 -0.2780 -1.0077
 4753SOL    HW225896   2.225   0.561   2.382 -1.6385  1.6264  0.8349
 4754SOL     OW25897   2.874   4.604   0.711  0.3246  0.1514 -1.1936
 4754SOL    HW125898   2.838   4.586   0.624  0.8255 -0.7263 -1.2254
 4754SOL    HW225899   2.964   4.571   0.701  0.1497 -0.5428 -0.4926
 4755SOL     OW25900   4.195   2.310   1.560  0.2649  0.3881 -0.1290
 4755SOL    HW125901   4.181   2.387   1.505 -1.1807 -0.1371 -0.4854
 4755SOL    HW225902   4.158   2.249   1.497  0.3481 -0.0050  0.2056
 4756SOL     OW25903   0.005   2.013  15.539 -0.0875 -0.0436 -0.0611
 4756SOL    HW125904   0.054   1.973  15.611  0.3881  0.2770 -0.2000
 4756SOL    HW225905   0.059   2.024  15.461 -0.1720  1.3776  0.0716
 4757SOL     OW25906   0.013   2.188   5.182  0.0057 -0.2536 -0.5012
 4757SOL    HW125907   4.678   2.222   5.225  1.1746  1.6125  0.1698
 4757SOL    HW225908   4.723   2.142   5.106 -0.6267  0.5164 -0.6841
 4758SOL     OW25909   1.886   3.395  13.014 -0.3041 -0.2978  0.5835
 4758SOL    HW125910   1.807   3.413  13.064  1.2217  1.7288  2.2432
 4758SOL    HW225911   1.936   3.353  13.084 -0.7554 -0.7029  0.6606
 4759SOL     OW25912   1.909   1.852   7.830  0.8579 -0.1452  0.3386
 4759SOL    HW125913   1.820   1.888   7.828  0.7618 -0.4828 -1.4587
 4759SOL    HW225914   1.947   1.879   7.913 -0.3039 -1.0684  1.1523
 4760SOL     OW25915   4.504   2.673   4.481 -0.2618  0.1361  0.0319
 4760SOL    HW125916   4.571   2.624   4.433 -0.7169 -0.4497  0.0025
 4760SOL    HW225917   4.488   2.612   4.554  0.3310  2.4283  2.0778
 4761SOL     OW25918   0.170   0.173   1.174 -0.0934  0.3815 -0.1313
 4761SOL    HW125919   0.200   0.117   1.245  2.6179  2.0532  0.0175
 4761SOL    HW225920   0.237   0.161   1.107 -0.9720 -1.6107 -0.6757
 4762SOL     OW25921   0.176   2.291   2.307 -0.0642  0.5815  0.0870
 4762SOL    HW125922   0.087   2.267   2.333  0.0492 -1.9266 -1.7203
 4762SOL    HW225923   0.195   2.365   2.364  3.1124 -0.8362  0.8744
 4763SOL     OW25924   3.242   1.334   1.570 -0.6324 -0.2045  0.0798
 4763SOL    HW125925   3.211   1.419   1.537  1.5629  0.1915 -0.9690
 4763SOL    HW225926   3.283   1.357   1.653 -0.7543  1.1755 -0.2416
 4764SOL     OW25927   2.264   2.158   5.918  0.5215  0.0988 -0.2462
 4764SOL    HW125928   2.273   2.158   5.822  1.1644 -2.5040 -0.1847
 4764SOL    HW225929   2.230   2.069   5.928  1.2368 -0.2197 -0.5914
 4765SOL     OW25930   4.429   1.271   2.082  0.5205  0.0618  0.1227
 4765SOL    HW125931   4.501   1.293   2.022 -1.1758 -0.0429 -1.9675
 4765SOL    HW225932   4.462   1.301   2.166 -0.4950  1.1445  0.1240
 4766SOL     OW25933   2.802   4.242   3.260 -0.3861  0.3014  0.4475
 4766SOL    HW125934   2.857   4.263   3.336 -0.9832 -0.9421  1.2361
 4766SOL    HW225935   2.822   4.315   3.203 -2.4173  0.0508 -0.5752
 4767SOL     OW25936   0.421   4.533   2.537 -0.0635 -0.3350 -0.2295
 4767SOL    HW125937   0.400   4.616   2.494  1.6855 -0.2687 -0.9808
 4767SOL    HW225938   0.490   4.561   2.597  0.0587 -0.3147 -0.3780
 4768SOL     OW25939   0.890   1.963  17.175 -0.0968  0.3901  0.1175
 4768SOL    HW125940   0.913   1.919  17.256 -0.7148 -0.6962 -0.3044
 4768SOL    HW225941   0.804   1.922  17.163 -0.4331  0.7144  1.3432
 4769SOL     OW25942   1.670   1.236   3.424 -0.1844  0.0725 -0.0411
 4769SOL    HW125943   1.596   1.214   3.480  0.3414  1.1388  1.0602
 4769SOL    HW225944   1.743   1.210   3.478  0.0740  2.7851  0.9459
 4770SOL     OW25945   3.218   2.301   6.181  0.0977  0.5940  0.1369
 4770SOL    HW125946   3.312   2.294   6.198  0.1294 -0.2398 -0.3851
 4770SOL    HW225947   3.207   2.396   6.190  1.3117  0.7151  0.3933
 4771SOL     OW25948   2.553   3.028  14.829 -0.4680  0.5070 -0.7491
 4771SOL    HW125949   2.537   3.070  14.745 -0.0412 -0.3636 -1.2656
 4771SOL    HW225950   2.562   3.101  14.890  0.2786  0.7547 -1.1465
 4772SOL     OW25951   4.196   2.384  12.504 -0.3161  0.0983 -0.4198
 4772SOL    HW125952   4.199   2.350  12.415  2.1247 -0.1077 -0.2517
 4772SOL    HW225953   4.284   2.418  12.490 -0.0711 -0.8539 -1.1883
 4773SOL     OW25954   4.323   1.791   8.580  0.3776  0.2216 -0.2075
 4773SOL    HW125955   4.341   1.755   8.493  0.5610 -0.0195 -0.0692
 4773SOL    HW225956   4.285   1.876   8.558 -0.4681  0.1414  0.9775
 4774SOL     OW25957   1.718   3.656   3.770 -0.1970 -0.0041  0.4874
 4774SOL    HW125958   1.805   3.693   3.763 -0.2777 -0.1361 -1.2219
 4774SOL    HW225959   1.674   3.740   3.784 -2.2702 -0.5566 -2.6208
 4775SOL     OW25960   0.979   4.171   3.316 -0.0480 -0.5443  0.2948
 4775SOL    HW125961   0.975   4.091   3.263  0.6741 -0.9718  0.8906
 4775SOL    HW225962   0.907   4.224   3.282  0.3329 -0.2132 -0.0024
 4776SOL     OW25963   2.369   3.734   8.773 -0.1334  0.2950  0.8301
 4776SOL    HW125964   2.302   3.670   8.798  0.3069 -0.8238 -0.8276
 4776SOL    HW225965   2.407   3.764   8.855 -0.4869  1.5333  0.5398
 4777SOL     OW25966   2.476   3.767   9.877 -0.2971 -0.2631 -0.5874
 4777SOL    HW125967   2.537   3.833   9.911  0.8764 -1.0601 -1.1695
 4777SOL    HW225968   2.466   3.724   9.962 -2.4222 -1.6221 -1.5367
 4778SOL     OW25969   2.243   4.625   8.659 -0.3013  0.2603  0.0801
 4778SOL    HW125970   2.201   4.617   8.573 -2.4761  0.8200  1.0975
 4778SOL    HW225971   2.281   4.537   8.666  0.3289  0.5728  0.4774
 4779SOL     OW25972   4.550   4.348   3.777 -0.1765  0.3214  0.1674
 4779SOL    HW125973   4.523   4.439   3.791 -0.0185  0.4070 -0.0949
 4779SOL    HW225974   4.529   4.336   3.685 -3.7661 -1.1695  1.1881
 4780SOL     OW25975   3.261   0.663   1.278  0.5689  0.5227 -0.0289
 4780SOL    HW125976   3.217   0.648   1.362  0.5903 -2.8294 -0.6042
 4780SOL    HW225977   3.180   0.683   1.230  0.6852  0.9036 -0.0667
 4781SOL     OW25978   2.063   3.272  13.199  0.5248  0.1384 -0.0454
 4781SOL    HW125979   2.135   3.321  13.238 -0.5367  1.4763  0.2559
 4781SOL    HW225980   2.099   3.184  13.195 -2.3935 -1.0588  0.4118
 4782SOL     OW25981   3.972   2.725   4.558 -0.1634  0.2076  0.0607
 4782SOL    HW125982   4.001   2.776   4.483  0.2255 -2.0041 -1.3097
 4782SOL    HW225983   4.029   2.648   4.564  1.4042  1.4139  0.7218
 4783SOL     OW25984   3.931   1.264   0.122 -0.4519  0.2916  0.1085
 4783SOL    HW125985   4.009   1.219   0.154  0.8461  1.4648 -1.3981
 4783SOL    HW225986   3.881   1.278   0.202 -2.1358  0.6709 -1.0138
 4784SOL     OW25987   1.170   3.082   6.535  0.5197 -0.3372  0.0799
 4784SOL    HW125988   1.197   3.150   6.474 -1.1393 -1.7906 -2.2353
 4784SOL    HW225989   1.163   3.126   6.620 -0.2704  2.5011 -1.4651
 4785SOL     OW25990   0.119   3.591   9.398  0.2201  0.2334  0.3804
 4785SOL    HW125991   0.081   3.627   9.318  1.6916  1.8575  0.4092
 4785SOL    HW225992   0.166   3.513   9.368  2.7322  0.9132  2.6040
 4786SOL     OW25993   4.602   0.882   4.642  0.4939  0.2746  0.5159
 4786SOL    HW125994   4.644   0.821   4.581  0.1912 -0.0527  0.6272
 4786SOL    HW225995   4.577   0.816   4.708  1.6263  0.2095  0.8687
 4787SOL     OW25996   2.146   0.472   8.761  0.3430 -0.3376 -0.1816
 4787SOL    HW125997   2.234   0.448   8.733  1.1615 -0.1230  2.2768
 4787SOL    HW225998   2.093   0.408   8.713  0.0361 -0.3783  0.2090
 4788SOL     OW25999   1.121   4.475   4.944  0.8917  0.2441  0.0883
 4788SOL    HW126000   1.120   4.513   4.856 -0.8587 -0.7771 -0.3423
 4788SOL    HW226001   1.039   4.427   4.956  0.6602  0.3006 -1.2448
 4789SOL     OW26002   2.262   4.711   6.268  0.1356  0.4870 -0.0989
 4789SOL    HW126003   2.336   4.735   6.325  0.7422 -0.8871 -0.3141
 4789SOL    HW226004   2.253   0.033   6.199 -0.0849  0.0744 -0.4645
 4790SOL     OW26005   3.912   4.045   5.634 -0.6055  0.1329 -0.1397
 4790SOL    HW126006   3.835   3.994   5.660 -0.0989 -0.8196 -0.4887
 4790SOL    HW226007   3.887   4.123   5.684  1.2023  1.3053 -1.0596
 4791SOL     OW26008   0.196   4.247   1.620  0.0823  0.0971 -0.2436
 4791SOL    HW126009   0.170   4.182   1.555  2.4490 -0.8177 -0.2787
 4791SOL    HW226010   0.233   4.181   1.679  0.9923 -0.1037 -1.0404
 4792SOL     OW26011   3.191   2.568   6.217 -0.2787  0.2762  0.4155
 4792SOL    HW126012   3.100   2.538   6.220 -0.5096  0.7720 -1.6440
 4792SOL    HW226013   3.192   2.655   6.256 -0.8554 -0.1597  1.4134
 4793SOL     OW26014   2.087   3.326  17.270 -0.8706 -0.0046 -0.4424
 4793SOL    HW126015   2.023   3.385  17.309 -0.0569  0.2931  0.4604
 4793SOL    HW226016   2.038   3.246  17.251 -2.8505  1.3292 -0.8471
 4794SOL     OW26017   1.602   1.215   2.649 -0.4319 -0.3892  0.0842
 4794SOL    HW126018   1.641   1.263   2.575  0.3173 -1.8843 -0.4890
 4794SOL    HW226019   1.610   1.123   2.624 -2.4270 -0.0375 -1.8513
 4795SOL     OW26020   2.632   0.253   6.470  0.0950 -0.2818 -0.0347
 4795SOL    HW126021   2.611   0.260   6.564  0.6482  1.1059  0.0017
 4795SOL    HW226022   2.724   0.236   6.490  0.2752  0.6128 -0.0632
 4796SOL     OW26023   3.917   4.641   1.847  0.4308  0.0962 -0.1577
 4796SOL    HW126024   3.961   4.557   1.837  1.0351  0.1036  2.3093
 4796SOL    HW226025   3.977   4.697   1.897  0.1165  0.4369 -0.1644
 4797SOL     OW26026   4.264   0.849   1.754  0.5946  0.0399  1.2197
 4797SOL    HW126027   4.294   0.759   1.737 -0.8154 -0.3695  0.8732
 4797SOL    HW226028   4.348   0.894   1.755  1.6791 -1.9543 -0.1495
 4798SOL     OW26029   1.992   2.522  16.683 -0.2852 -0.0764 -0.1277
 4798SOL    HW126030   1.968   2.607  16.720 -0.2156 -0.8069  1.5926
 4798SOL    HW226031   2.079   2.508  16.720  0.7047 -0.7839 -2.7781
 4799SOL     OW26032   3.862   2.384  17.666 -0.0640 -0.3062  0.3084
 4799SOL    HW126033   3.890   2.311  17.610 -0.5237 -0.3363  0.1200
 4799SOL    HW226034   3.778   2.357  17.702  0.7825 -1.3307  1.4974
 4800SOL     OW26035   0.176   2.466   1.443  0.2712  0.7623 -0.0988
 4800SOL    HW126036   0.245   2.531   1.434  0.8098  0.0230 -1.3257
 4800SOL    HW226037   0.173   2.427   1.356 -0.2364 -0.8677  0.6501
 4801SOL     OW26038   4.694   2.389   3.421  0.4850  0.0820 -0.5011
 4801SOL    HW126039   4.703   2.476   3.461  1.8447 -0.5095  0.4550
 4801SOL    HW226040   0.019   2.391   3.356  0.7215  2.7798 -0.1740
 4802SOL     OW26041   0.804   3.898   5.573 -0.2353 -0.2759  0.2915
 4802SOL    HW126042   0.736   3.832   5.558 -0.7021  0.2203  0.2136
 4802SOL    HW226043   0.867   3.852   5.518  0.2663 -0.2541  0.8438
 4803SOL     OW26044   3.069   3.814   7.388  0.0261  0.6525 -0.4470
 4803SOL    HW126045   2.993   3.757   7.402  0.8669  0.1206  1.9694
 4803SOL    HW226046   3.111   3.778   7.310  1.1153 -1.2171  1.0022
 4804SOL     OW26047   1.824   3.929  15.349 -0.2931 -0.6017  0.0047
 4804SOL    HW126048   1.890   3.888  15.294  1.1415  0.5610  0.8781
 4804SOL    HW226049   1.855   3.906  15.436  3.5663 -0.2897 -1.2852
 4805SOL     OW26050   2.848   2.618   1.759 -0.0390 -0.0948  0.0014
 4805SOL    HW126051   2.778   2.630   1.823  0.1501 -1.6336  0.4836
 4805SOL    HW226052   2.920   2.587   1.814  0.0934  0.6605  0.2567
 4806SOL     OW26053   0.721   0.043   9.050  0.6345  0.4414 -0.4484
 4806SOL    HW126054   0.695   0.045   9.142 -0.4590 -0.5747 -0.7390
 4806SOL    HW226055   0.640   0.047   8.999 -0.2811  0.6289  1.0232
 4807SOL     OW26056   1.347   1.788   4.010 -0.1176 -0.3245 -0.5322
 4807SOL    HW126057   1.387   1.762   4.093 -1.2343  0.6373  0.3063
 4807SOL    HW226058   1.260   1.795   4.050  1.0086  0.0417  1.8270
 4808SOL     OW26059   0.046   0.035   5.948 -0.4426 -0.8288 -0.3448
 4808SOL    HW126060   4.731   0.047   5.874 -0.5139  2.3761  0.2213
 4808SOL    HW226061   0.118   0.098   5.943  0.0383 -1.5505 -2.5783
 4809SOL     OW26062   4.371   4.513   7.056  0.3789 -0.0749 -0.2430
 4809SOL    HW126063   4.306   4.551   7.115  1.1354 -0.7094  1.0178
 4809SOL    HW226064   4.399   4.427   7.088  2.8405  0.0881 -1.8989
 4810SOL     OW26065   0.871   0.637   9.606  0.3429 -0.2434 -0.3099
 4810SOL    HW126066   0.815   0.613   9.679  0.3539 -3.9948 -1.4896
 4810SOL    HW226067   0.815   0.697   9.557 -2.1654 -1.6985  0.7780
 4811SOL     OW26068   3.997   1.267  11.894 -0.4254 -0.2505  0.3487
 4811SOL    HW126069   3.998   1.263  11.798  2.9389  0.9425  0.3449
 4811SOL    HW226070   3.929   1.333  11.907 -1.9158 -1.1924 -2.5738
 4812SOL     OW26071   4.636   1.640  11.942  0.0629  0.1272 -0.1024
 4812SOL    HW126072   4.620   1.735  11.947 -0.8746  0.1153 -2.7925
 4812SOL    HW226073   4.556   1.591  11.963  0.8373 -1.3291 -0.5726
 4813SOL     OW26074   1.936   2.184   5.692 -0.0197  0.2203  0.0361
 4813SOL    HW126075   1.992   2.118   5.733  0.5421 -1.0812 -2.8486
 4813SOL    HW226076   1.998   2.257   5.698 -1.9168  1.8074  0.4987
 4814SOL     OW26077   3.967   3.966   4.169  0.1837 -0.6881 -0.6558
 4814SOL    HW126078   4.044   3.992   4.119  0.1838 -0.1798 -0.3840
 4814SOL    HW226079   3.937   3.900   4.106  0.8069 -0.2728 -1.3874
 4815SOL     OW26080   3.406   4.195   1.160  0.3106  0.5118  0.0921
 4815SOL    HW126081   3.437   4.140   1.231 -0.0944  2.9892  2.1786
 4815SOL    HW226082   3.327   4.146   1.136  0.5071 -0.5581  1.6725
 4816SOL     OW26083   0.498   0.828   1.638  0.3780  0.3810 -0.1078
 4816SOL    HW126084   0.409   0.817   1.670  0.3469  0.9318 -0.0070
 4816SOL    HW226085   0.524   0.909   1.681 -1.2984  0.4902  0.6692
 4817SOL     OW26086   2.096   4.481  13.802  0.1377 -0.1590 -0.7958
 4817SOL    HW126087   2.048   4.540  13.859  1.9914  1.6661 -1.1242
 4817SOL    HW226088   2.027   4.455  13.742  0.5618  2.7751 -2.5238
 4818SOL     OW26089   0.091   1.706   3.205  0.9442 -0.1686  0.2235
 4818SOL    HW126090   0.139   1.624   3.217  0.9901 -0.2986 -0.8209
 4818SOL    HW226091   0.036   1.677   3.132  0.7629  2.1926 -0.6020
 4819SOL     OW26092   0.069   3.114   8.056 -0.1750  0.0169  0.6127
 4819SOL    HW126093   0.090   3.147   8.144  2.0494 -0.0729  0.1129
 4819SOL    HW226094   4.738   3.058   8.077 -0.8313  0.2303 -1.2281
 4820SOL     OW26095   3.025   0.721  12.090  0.4406 -0.8818 -0.3881
 4820SOL    HW126096   3.119   0.704  12.087  0.3931 -1.4341  1.0189
 4820SOL    HW226097   3.009   0.692  12.180  0.5886  1.2539  0.3272
 4821SOL     OW26098   3.947   1.731   6.574  0.1785 -0.5398 -0.5135
 4821SOL    HW126099   4.007   1.801   6.596 -1.5147  1.0630 -0.9729
 4821SOL    HW226100   3.983   1.728   6.485 -1.9321 -1.5523 -1.3490
 4822SOL     OW26101   2.082   1.815   6.577  0.3960 -0.1175  0.4495
 4822SOL    HW126102   2.055   1.761   6.651  1.7525  2.1156  2.5717
 4822SOL    HW226103   2.080   1.746   6.509  0.8595 -0.4124  0.7335
 4823SOL     OW26104   4.238   1.724   7.199 -0.0774 -0.5175 -0.2818
 4823SOL    HW126105   4.268   1.732   7.109 -1.2596 -1.0924 -0.7259
 4823SOL    HW226106   4.236   1.819   7.206 -0.3096 -0.4653 -1.0470
 4824SOL     OW26107   3.349   1.738   8.102 -0.7957  0.1465  0.2526
 4824SOL    HW126108   3.281   1.794   8.138  1.1128  2.2058  0.6556
 4824SOL    HW226109   3.308   1.657   8.133  0.2641 -0.8026 -0.7971
 4825SOL     OW26110   3.845   1.505   6.678  0.3683  0.4465 -0.5398
 4825SOL    HW126111   3.877   1.589   6.644  0.9540 -0.7037 -2.8425
 4825SOL    HW226112   3.931   1.478   6.711  2.4564  2.8263 -3.8813
 4826SOL     OW26113   1.773   0.636  13.272 -0.6343 -0.3593 -0.7899
 4826SOL    HW126114   1.778   0.684  13.189 -0.7241 -0.2913 -0.7566
 4826SOL    HW226115   1.804   0.704  13.332 -0.4130 -0.4265 -0.8275
 4827SOL     OW26116   4.610   3.225   4.766 -0.4466 -0.0841  0.2259
 4827SOL    HW126117   4.593   3.320   4.760  1.3875  0.2271 -0.1644
 4827SOL    HW226118   4.613   3.210   4.860 -1.2538 -1.0029  0.0958
 4828SOL     OW26119   4.105   4.545   7.724 -0.1765 -0.0369 -0.3034
 4828SOL    HW126120   4.065   4.483   7.784 -0.9320  0.1561 -0.6009
 4828SOL    HW226121   4.114   4.494   7.644 -0.4201  0.1607 -0.4560
 4829SOL     OW26122   0.281   1.513   5.463  0.1981 -0.4015  0.4930
 4829SOL    HW126123   0.236   1.440   5.504  0.3065 -1.6788 -1.6488
 4829SOL    HW226124   0.199   1.560   5.443  0.4261  0.0902  0.7079
 4830SOL     OW26125   4.347   1.808   7.908 -0.2631  0.5896  0.0729
 4830SOL    HW126126   4.310   1.896   7.912 -0.3189  0.6003 -0.6549
 4830SOL    HW226127   4.270   1.758   7.935  0.9244 -0.5224  1.4235
 4831SOL     OW26128   2.670   3.286   2.722 -0.3529 -0.6183  0.1980
 4831SOL    HW126129   2.726   3.347   2.769  1.3242  0.3007 -3.0102
 4831SOL    HW226130   2.608   3.266   2.792 -1.0366 -0.1185 -0.2721
 4832SOL     OW26131   3.519   0.581   8.101 -0.1069 -0.2438  0.6241
 4832SOL    HW126132   3.498   0.644   8.032  2.2603  0.2884  0.4195
 4832SOL    HW226133   3.551   0.496   8.070  0.4184  0.6214 -1.1978
 4833SOL     OW26134   4.741   1.590   5.768  0.4204 -0.0793 -0.1115
 4833SOL    HW126135   0.057   1.542   5.826  0.6691 -2.0161 -1.9722
 4833SOL    HW226136   4.696   1.513   5.734 -0.5855 -0.8235  2.8839
 4834SOL     OW26137   4.318   1.180  12.238 -0.0682 -0.0732  0.0694
 4834SOL    HW126138   4.307   1.095  12.281 -0.7805  0.1940  0.3999
 4834SOL    HW226139   4.298   1.160  12.146  0.9099  0.7280 -0.3161
 4835SOL     OW26140   0.650   0.923  10.170 -0.2823  0.3259 -0.3397
 4835SOL    HW126141   0.677   1.005  10.211  0.5782  0.2590 -0.7708
 4835SOL    HW226142   0.585   0.892  10.232 -0.6805  0.8190 -0.5101
 4836SOL     OW26143   3.740   3.138   4.421 -1.0469 -0.0709 -0.5491
 4836SOL    HW126144   3.812   3.186   4.379 -1.5614  1.2064  0.0222
 4836SOL    HW226145   3.722   3.075   4.352  0.1336 -0.8105 -0.1681
 4837SOL     OW26146   4.435   4.372  16.582 -0.1955 -0.2671 -0.2862
 4837SOL    HW126147   4.346   4.407  16.591  0.0188  0.7356 -1.9073
 4837SOL    HW226148   4.437   4.340  16.491 -3.8830  2.8538 -1.4623
 4838SOL     OW26149   0.821   2.070   0.598  0.0229 -0.3302 -0.2438
 4838SOL    HW126150   0.742   2.075   0.651 -0.5592  0.0458 -1.1399
 4838SOL    HW226151   0.852   2.161   0.590 -0.6922 -0.1826 -1.4422
 4839SOL     OW26152   0.401   2.105   5.669 -0.5177 -0.3470  0.8937
 4839SOL    HW126153   0.479   2.147   5.706 -1.4608  0.9052  1.4474
 4839SOL    HW226154   0.360   2.190   5.650 -2.2259 -1.3742 -0.0076
 4840SOL     OW26155   4.193   0.595   8.796 -0.9344 -0.2318  0.4728
 4840SOL    HW126156   4.177   0.672   8.852 -0.7987 -0.1523  0.4032
 4840SOL    HW226157   4.266   0.634   8.748 -0.3281 -0.6664  1.0380
 4841SOL     OW26158   0.522   1.425   0.328 -0.3671 -0.2131  0.1092
 4841SOL    HW126159   0.447   1.484   0.329  0.2235  0.5642 -1.2959
 4841SOL    HW226160   0.573   1.456   0.402  1.6315  1.6858 -2.0830
 4842SOL     OW26161   4.706   0.621   7.163 -0.2995  0.1380 -0.2190
 4842SOL    HW126162   4.705   0.630   7.068 -2.2294  0.0823 -0.2117
 4842SOL    HW226163   4.735   0.711   7.181 -0.3934 -0.4343  2.8569
 4843SOL     OW26164   0.473   4.110   2.447  0.2555  0.3587  0.6390
 4843SOL    HW126165   0.523   4.190   2.464  1.1473  0.4354 -2.3271
 4843SOL    HW226166   0.541   4.043   2.442 -0.1556 -0.0804  0.9872
 4844SOL     OW26167   2.933   0.850   8.747  0.7777 -0.5635  0.0283
 4844SOL    HW126168   2.959   0.792   8.675  2.2871  0.4157 -0.2058
 4844SOL    HW226169   2.945   0.933   8.702 -1.3020  0.3467  1.1716
 4845SOL     OW26170   4.010   1.923   5.045 -0.2036  0.6112 -0.0041
 4845SOL    HW126171   4.090   1.964   5.078 -0.2164  1.0777 -0.5432
 4845SOL    HW226172   4.009   1.839   5.090  0.6330 -0.6397 -2.3157
 4846SOL     OW26173   1.399   2.248   4.305  0.2348 -0.0962 -0.2981
 4846SOL    HW126174   1.395   2.190   4.229  0.8621 -0.9129  0.2864
 4846SOL    HW226175   1.387   2.188   4.379  0.7940 -1.0025 -0.9438
 4847SOL     OW26176   4.732   1.138   4.222 -0.2643 -0.1718  0.2011
 4847SOL    HW126177   4.741   1.215   4.278 -2.0649  1.3145 -1.5995
 4847SOL    HW226178   4.653   1.104   4.265 -0.5661  1.6602  1.0877
 4848SOL     OW26179   3.578   4.195   9.186 -0.0624 -0.7202  0.3544
 4848SOL    HW126180   3.601   4.137   9.259  1.4590  1.4242  1.5714
 4848SOL    HW226181   3.527   4.264   9.228 -0.7281 -0.3608 -1.0363
 4849SOL     OW26182   0.110   4.095  16.215  0.1536  0.6280  0.1936
 4849SOL    HW126183   0.162   4.014  16.218 -0.1114  0.4743  0.6365
 4849SOL    HW226184   0.179   4.161  16.206  1.5595 -0.8116  0.4584
 4850SOL     OW26185   0.447   0.927   8.582 -0.2435 -0.4254  0.4961
 4850SOL    HW126186   0.436   0.906   8.490  1.9195  1.6530 -0.2326
 4850SOL    HW226187   0.374   0.987   8.599  0.8320  0.3703  2.3938
 4851SOL     OW26188   3.232   3.821   4.354 -0.1900  0.1057 -0.4293
 4851SOL    HW126189   3.260   3.872   4.278  0.6694  0.6625  0.2624
 4851SOL    HW226190   3.257   3.733   4.326 -0.9035 -0.4960  0.8737
 4852SOL     OW26191   3.427   4.029   9.602  0.0374  0.1381 -0.6586
 4852SOL    HW126192   3.340   4.043   9.563 -0.0545 -0.0894 -0.5318
 4852SOL    HW226193   3.464   3.986   9.525 -2.4969 -0.6708 -1.4366
 4853SOL     OW26194   0.880   1.971   3.113  0.6542 -0.3322 -0.3769
 4853SOL    HW126195   0.849   1.961   3.023  1.4521  3.4926 -1.0817
 4853SOL    HW226196   0.844   1.895   3.159 -0.3609  0.1707 -0.3390
 4854SOL     OW26197   2.020   0.106   9.713  0.2639  0.1076 -0.3254
 4854SOL    HW126198   1.926   0.110   9.699 -0.0132 -3.2268  0.5962
 4854SOL    HW226199   2.044   0.053   9.638  0.5022  0.4933 -0.5222
 4855SOL     OW26200   4.505   0.155  17.352 -0.4668 -0.0267  0.2365
 4855SOL    HW126201   4.590   0.197  17.367  0.9746 -2.3188 -1.4023
 4855SOL    HW226202   4.533   0.064  17.341  1.4104  0.5740 -0.0203
 4856SOL     OW26203   2.704   2.523  11.192  0.0839 -0.2576  0.3592
 4856SOL    HW126204   2.651   2.581  11.246 -0.7520  0.2247 -0.9833
 4856SOL    HW226205   2.680   2.444  11.242  0.0397 -1.6717 -1.8930
 4857SOL     OW26206   2.129   2.881   5.738  0.0283 -0.0082 -0.1098
 4857SOL    HW126207   2.141   2.892   5.643  0.9590  0.0184  0.0085
 4857SOL    HW226208   2.194   2.813   5.756 -1.4723 -0.7810  2.3021
 4858SOL     OW26209   3.074   0.295   7.289  0.2207  0.4267 -0.1673
 4858SOL    HW126210   3.133   0.342   7.230  1.0886 -1.8305 -1.1057
 4858SOL    HW226211   3.009   0.264   7.225 -1.5621 -2.3260  2.9774
 4859SOL     OW26212   0.467   2.630  10.135  0.6098 -0.0847  0.6066
 4859SOL    HW126213   0.419   2.713  10.130 -1.8786 -1.5176  0.3605
 4859SOL    HW226214   0.527   2.652  10.064  0.1762 -0.6671  0.0542
 4860SOL     OW26215   0.746   2.015   8.204 -0.0264 -0.2228 -0.3453
 4860SOL    HW126216   0.813   1.992   8.269  0.1995  0.3261 -0.3838
 4860SOL    HW226217   0.690   2.064   8.265  1.7181  0.1928  0.9355
 4861SOL     OW26218   0.488   2.373   5.065 -0.3011  0.2104  0.3297
 4861SOL    HW126219   0.567   2.421   5.041 -1.0868  1.0529 -0.5860
 4861SOL    HW226220   0.418   2.435   5.048  0.7090  1.0696 -0.7057
 4862SOL     OW26221   2.186   0.758   5.856 -0.2962 -0.2670 -0.4526
 4862SOL    HW126222   2.267   0.737   5.902 -0.4214  1.6654  0.6617
 4862SOL    HW226223   2.130   0.687   5.885 -1.8016  1.4875  0.9772
 4863SOL     OW26224   2.632   2.137   4.970 -0.0873  0.0866 -0.9005
 4863SOL    HW126225   2.621   2.170   4.881  0.6621  1.2781 -0.5402
 4863SOL    HW226226   2.558   2.076   4.964  1.1420 -1.4026 -0.8283
 4864SOL     OW26227   2.189   0.438   3.542 -0.3583  0.2822 -0.1304
 4864SOL    HW126228   2.099   0.420   3.566 -0.5602  1.7748  0.2210
 4864SOL    HW226229   2.215   0.353   3.507  0.0002  0.0247  0.7546
 4865SOL     OW26230   4.083   0.385   2.585 -0.2937 -0.1814 -0.0018
 4865SOL    HW126231   4.178   0.394   2.582 -0.4110  0.9989 -0.3081
 4865SOL    HW226232   4.072   0.408   2.678  3.5212  0.4591  0.2781
 4866SOL     OW26233   2.136   2.476   5.408  0.2501 -0.4204 -0.0695
 4866SOL    HW126234   2.052   2.507   5.441 -0.3826 -1.8537 -0.3465
 4866SOL    HW226235   2.125   2.490   5.314  1.9395 -2.1125 -0.5265
 4867SOL     OW26236   1.877   1.565   9.293  0.0780 -0.3830 -0.3699
 4867SOL    HW126237   1.818   1.582   9.367 -0.6152  1.4369 -1.3491
 4867SOL    HW226238   1.872   1.470   9.290  3.1480 -0.5483 -0.8055
 4868SOL     OW26239   2.969   3.124   2.760 -0.3858 -0.3411 -0.5259
 4868SOL    HW126240   2.930   3.065   2.824 -0.6501  1.3275  0.8419
 4868SOL    HW226241   2.941   3.086   2.677 -0.5984 -1.7507  0.1930
 4869SOL     OW26242   0.441   2.195   2.323  0.2336 -0.2464 -0.0795
 4869SOL    HW126243   0.350   2.220   2.305 -0.0069 -2.0416 -1.3437
 4869SOL    HW226244   0.448   2.199   2.418  1.8626 -0.8039 -0.1755
 4870SOL     OW26245   1.109   1.259   8.361 -0.2146  0.3083  0.1466
 4870SOL    HW126246   1.039   1.284   8.300 -1.3536 -0.4214  1.1528
 4870SOL    HW226247   1.065   1.187   8.407 -0.7735 -0.1089 -1.0498
 4871SOL     OW26248   4.699   3.512   3.971 -0.2219 -0.0778 -0.0431
 4871SOL    HW126249   4.631   3.554   4.024 -0.0509  0.2310 -0.0655
 4871SOL    HW226250   0.028   3.556   4.015 -0.4641 -0.1799  0.4561
 4872SOL     OW26251   4.683   4.541   3.300 -0.0341  0.0873  0.7198
 4872SOL    HW126252   4.733   4.516   3.223  1.7474 -0.3100  2.0028
 4872SOL    HW226253   4.592   4.555   3.274  0.4843  0.6640 -0.7946
 4873SOL     OW26254   2.587   0.098   3.302 -0.3676 -0.3319 -0.0469
 4873SOL    HW126255   2.567   0.136   3.216  0.6474  1.1119  0.3513
 4873SOL    HW226256   2.668   0.049   3.283  0.0835  0.5247 -0.3496
 4874SOL     OW26257   0.668   1.792  12.123 -0.6165  0.0538  0.7686
 4874SOL    HW126258   0.589   1.739  12.126 -0.5891 -0.1458 -1.7289
 4874SOL    HW226259   0.699   1.764  12.209  0.8400 -2.4379 -0.5598
 4875SOL     OW26260   2.464   0.819  10.543  0.2757  0.2947  0.6021
 4875SOL    HW126261   2.372   0.812  10.567  0.5058 -0.1418  1.3540
 4875SOL    HW226262   2.461   0.894  10.483 -1.8063 -0.5238 -0.3083
 4876SOL     OW26263   1.317   3.961   5.529  0.7977  0.2159  0.2615
 4876SOL    HW126264   1.309   3.894   5.461  0.3205 -1.4979  2.0102
 4876SOL    HW226265   1.374   4.019   5.478 -0.3741  1.1275  0.0112
 4877SOL     OW26266   1.846   2.903   3.878  0.2577 -0.1926 -0.3756
 4877SOL    HW126267   1.940   2.901   3.864  0.5589 -3.3965  2.0525
 4877SOL    HW226268   1.837   2.902   3.973 -1.0747  1.1610 -0.4847
 4878SOL     OW26269   2.088   0.876   0.391 -0.0419  0.0093 -0.1322
 4878SOL    HW126270   2.137   0.796   0.372  1.4640  1.0084 -0.3593
 4878SOL    HW226271   2.071   0.903   0.301 -0.0349  1.5337  0.3227
 4879SOL     OW26272   4.436   2.975   6.599 -0.0370  0.2714 -0.0271
 4879SOL    HW126273   4.352   3.010   6.630  0.0527  0.3344  0.1455
 4879SOL    HW226274   4.432   2.881   6.617  1.1330  0.1556 -0.3661
 4880SOL     OW26275   3.714   0.751   4.865 -0.0792 -0.1202  0.5033
 4880SOL    HW126276   3.703   0.835   4.821  1.5366 -0.1916 -0.0398
 4880SOL    HW226277   3.807   0.763   4.886 -0.1642  1.0787  0.1654
 4881SOL     OW26278   4.601   1.232   6.547  0.5227  0.2596 -0.8493
 4881SOL    HW126279   4.523   1.262   6.592  0.4878 -1.2613  0.0961
 4881SOL    HW226280   4.595   1.136   6.550 -0.7036  0.4299  1.9144
 4882SOL     OW26281   0.511   4.257   2.728  0.4470 -0.3153 -0.3979
 4882SOL    HW126282   0.440   4.265   2.665 -0.7327 -1.9829  0.7298
 4882SOL    HW226283   0.526   4.162   2.734  0.8788 -0.2143  0.1915
 4883SOL     OW26284   2.040   3.870   7.180  0.1767 -0.5803  0.3388
 4883SOL    HW126285   1.979   3.832   7.116  1.6384  0.1207 -1.4551
 4883SOL    HW226286   2.098   3.797   7.202  0.9184 -0.1884 -0.3200
 4884SOL     OW26287   0.156   1.873   3.440 -0.3359  0.5445  0.2203
 4884SOL    HW126288   0.115   1.956   3.414  0.6040  1.2303  0.8894
 4884SOL    HW226289   0.120   1.810   3.378  1.7852 -0.7244  0.2679
 4885SOL     OW26290   1.819   0.857   4.028 -0.4779  0.3922  0.1259
 4885SOL    HW126291   1.806   0.775   4.076 -4.3176  0.9623  0.1050
 4885SOL    HW226292   1.739   0.904   4.052 -0.4461  0.6172 -0.2113
 4886SOL     OW26293   3.767   0.357  11.183  0.1659  0.7326  0.0567
 4886SOL    HW126294   3.705   0.414  11.229 -0.2065 -0.6402  1.2793
 4886SOL    HW226295   3.791   0.304  11.259 -0.8807  0.2321  0.0499
 4887SOL     OW26296   0.612   0.759   2.600  0.3227 -0.0282 -0.2499
 4887SOL    HW126297   0.561   0.688   2.640  0.6187 -1.4383 -2.3674
 4887SOL    HW226298   0.543   0.824   2.609  1.0108  0.9254 -1.9878
 4888SOL     OW26299   1.025   3.159   9.214 -0.1196  0.2149 -0.0438
 4888SOL    HW126300   0.953   3.219   9.233  0.6822  0.5488  1.8393
 4888SOL    HW226301   1.064   3.200   9.137  1.4678  0.1949  0.7543
 4889SOL     OW26302   2.289   4.326   6.494 -0.3453  0.1113 -0.0326
 4889SOL    HW126303   2.326   4.361   6.413  0.3636  0.3793  0.4046
 4889SOL    HW226304   2.351   4.261   6.526 -1.5204 -1.1819 -0.4125
 4890SOL     OW26305   1.450   4.452   2.148 -0.8746  0.7741 -0.1201
 4890SOL    HW126306   1.436   4.547   2.152 -1.1438  0.7346 -0.1236
 4890SOL    HW226307   1.419   4.431   2.236 -0.0987 -0.1575 -0.0782
 4891SOL     OW26308   2.814   2.865  14.077  0.7133  0.1278 -0.2104
 4891SOL    HW126309   2.814   2.945  14.024 -1.3390  0.0229 -0.3598
 4891SOL    HW226310   2.892   2.816  14.052 -0.4838 -1.6606 -0.3814
 4892SOL     OW26311   2.323   1.596   9.284 -0.0300  0.0169 -0.0202
 4892SOL    HW126312   2.270   1.552   9.217 -0.0230 -1.7879  1.1346
 4892SOL    HW226313   2.322   1.528   9.352 -1.5180 -1.0976 -1.1246
 4893SOL     OW26314   2.065   2.033  16.018 -0.1417  0.2124 -0.6492
 4893SOL    HW126315   1.995   2.037  15.953  0.9766 -2.2172 -2.0384
 4893SOL    HW226316   2.138   2.069  15.967  0.5177 -0.2760 -0.0614
 4894SOL     OW26317   2.120   1.670  14.825  0.4054 -0.5686 -0.1672
 4894SOL    HW126318   2.027   1.687  14.811  0.6118  0.1521 -0.6507
 4894SOL    HW226319   2.146   1.762  14.821 -0.0574 -0.4216  0.3105
 4895SOL     OW26320   3.643   3.269  13.837  0.3762 -0.1063  0.0834
 4895SOL    HW126321   3.691   3.193  13.870  1.3056  0.9888  1.2787
 4895SOL    HW226322   3.643   3.235  13.748  0.7135  1.5095 -0.5291
 4896SOL     OW26323   4.257   1.179   7.446  0.1058 -0.1135 -0.3143
 4896SOL    HW126324   4.347   1.151   7.428  0.7256  2.1241 -0.6679
 4896SOL    HW226325   4.217   1.100   7.409  0.6412  0.1015 -1.3642
 4897SOL     OW26326   0.005   3.306  11.688  0.0503 -0.8411 -1.1798
 4897SOL    HW126327   4.662   3.269  11.701 -0.1078  0.3432  1.2118
 4897SOL    HW226328   4.732   3.398  11.670  1.1912 -1.0984 -3.4945
 4898SOL     OW26329   0.604   2.404   1.210 -0.8381 -0.3030  0.2198
 4898SOL    HW126330   0.619   2.460   1.286 -2.6571  1.0919 -0.4525
 4898SOL    HW226331   0.577   2.460   1.137  1.3835  0.4025 -0.0520
 4899SOL     OW26332   3.668   1.203  17.401 -0.0447 -0.2872 -0.4124
 4899SOL    HW126333   3.601   1.268  17.422 -0.2036 -0.2331 -1.0817
 4899SOL    HW226334   3.686   1.165  17.487 -0.5511  0.2637 -0.0599
 4900SOL     OW26335   2.147   1.597   4.557  0.3290 -0.2085 -0.4656
 4900SOL    HW126336   2.075   1.565   4.502  0.1333  1.0879 -0.9675
 4900SOL    HW226337   2.200   1.523   4.585 -1.0828 -1.2051 -0.4625
 4901SOL     OW26338   3.891   4.303   6.822  0.0564  0.1013 -0.2135
 4901SOL    HW126339   3.806   4.260   6.822  1.3890 -2.4828  1.2848
 4901SOL    HW226340   3.921   4.282   6.910 -1.2464 -2.8494 -0.5075
 4902SOL     OW26341   1.838   0.290   9.236  0.0858 -0.3939  0.6231
 4902SOL    HW126342   1.807   0.349   9.167  0.9328 -0.6846 -0.0175
 4902SOL    HW226343   1.872   0.350   9.302  1.5312  1.4522 -1.7818
 4903SOL     OW26344   0.976   2.405   3.035  0.3725 -0.6163  0.2582
 4903SOL    HW126345   1.038   2.476   3.050  1.0836 -1.4771  1.4275
 4903SOL    HW226346   0.906   2.433   3.094  0.0867  1.5030 -1.0919
 4904SOL     OW26347   0.129   3.176   8.310  0.3536  0.3226 -0.0761
 4904SOL    HW126348   0.223   3.175   8.328  0.3826 -1.3731 -0.3218
 4904SOL    HW226349   0.098   3.259   8.346 -2.1397 -1.2035  1.3088
 4905SOL     OW26350   4.714   1.904  17.242 -0.5044  0.0251  0.2661
 4905SOL    HW126351   0.053   1.926  17.201  0.5162 -3.5270  0.4938
 4905SOL    HW226352   4.729   1.817  17.279 -0.0136  0.5463  1.3131
 4906SOL     OW26353   2.295   3.006  14.726  0.0251 -0.0070 -0.3063
 4906SOL    HW126354   2.225   3.021  14.790  1.2013 -0.2964  1.0418
 4906SOL    HW226355   2.367   3.057  14.764  0.3072 -0.7514  0.1452
 4907SOL     OW26356   4.647   4.269   6.466  0.2349 -0.2739  0.2486
 4907SOL    HW126357   4.591   4.233   6.398  2.4877 -2.2223 -0.6008
 4907SOL    HW226358   4.586   4.326   6.513  2.0894  0.7872  1.3777
 4908SOL     OW26359   0.429   1.257   7.829  0.4086 -0.3650  0.0627
 4908SOL    HW126360   0.399   1.341   7.793 -1.2584 -0.3149  1.5771
 4908SOL    HW226361   0.345   1.210   7.827  1.3038 -1.9654  0.8078
 4909SOL     OW26362   4.285   2.785   1.094  0.1185  0.4608  0.1627
 4909SOL    HW126363   4.260   2.698   1.125 -0.5050  0.1186 -1.3416
 4909SOL    HW226364   4.211   2.829   1.052 -0.6965 -0.7294  0.3476
 4910SOL     OW26365   3.051   3.818   5.417  0.5113 -0.2698  0.3823
 4910SOL    HW126366   2.977   3.762   5.398 -0.4844  0.8361  0.9962
 4910SOL    HW226367   3.079   3.837   5.328  0.3806  2.3153  0.8972
 4911SOL     OW26368   0.611   4.223   6.717  0.0933 -0.0441  0.2200
 4911SOL    HW126369   0.568   4.141   6.741  0.5307  0.4093  2.5704
 4911SOL    HW226370   0.541   4.279   6.751 -1.0793 -1.1373 -0.4155
 4912SOL     OW26371   0.894   3.717   7.183  0.1466  0.8645 -0.3975
 4912SOL    HW126372   0.827   3.649   7.190  1.5890 -0.5316 -0.2410
 4912SOL    HW226373   0.893   3.728   7.088  1.2356 -0.2225 -0.5265
 4913SOL     OW26374   2.298   2.344   7.696 -0.0379 -0.2885  0.1306
 4913SOL    HW126375   2.385   2.361   7.659  0.1812 -0.9832  0.3232
 4913SOL    HW226376   2.326   2.337   7.787 -0.9253  0.7127  0.4731
 4914SOL     OW26377   4.144   2.317   3.540  0.0413 -0.2154 -0.3064
 4914SOL    HW126378   4.222   2.352   3.583  1.0400 -0.7582 -1.7035
 4914SOL    HW226379   4.112   2.394   3.493  1.2166 -0.5626 -1.6533
 4915SOL     OW26380   0.596   3.605   8.302 -0.1041  0.1282 -0.0426
 4915SOL    HW126381   0.607   3.681   8.359  0.0892  0.7537 -0.9148
 4915SOL    HW226382   0.675   3.557   8.328 -0.6540 -1.4367 -1.1906
 4916SOL     OW26383   2.292   1.568   7.321  0.2661 -0.0290  0.4458
 4916SOL    HW126384   2.285   1.654   7.280  2.5251  0.1026  0.3159
 4916SOL    HW226385   2.243   1.579   7.402  0.8727 -0.2757  0.8496
 4917SOL     OW26386   1.149   1.271   4.255 -0.4123 -0.0522  0.0139
 4917SOL    HW126387   1.146   1.257   4.161 -0.5675  0.9140 -0.1290
 4917SOL    HW226388   1.106   1.357   4.262  0.9443  0.5070  1.5470
 4918SOL     OW26389   1.746   3.266  16.309 -0.4077 -0.0259  0.3094
 4918SOL    HW126390   1.806   3.214  16.257 -2.7741 -0.7753 -1.6707
 4918SOL    HW226391   1.697   3.192  16.344 -1.0080 -0.1289 -0.7767
 4919SOL     OW26392   0.778   2.600   7.369  0.3693  0.3821  0.3622
 4919SOL    HW126393   0.839   2.672   7.385  0.3078  1.1083 -2.7092
 4919SOL    HW226394   0.698   2.652   7.371  0.3009  0.2789  0.2833
 4920SOL     OW26395   0.728   1.251   7.795 -0.0713 -0.3514 -0.1042
 4920SOL    HW126396   0.735   1.299   7.877  1.8254 -0.1144 -0.4256
 4920SOL    HW226397   0.640   1.216   7.812  0.1591 -2.1459 -2.6134
 4921SOL     OW26398   1.841   2.972   9.227  0.1881  0.8604  0.2936
 4921SOL    HW126399   1.838   2.957   9.133 -1.9899 -0.8738  0.6443
 4921SOL    HW226400   1.818   2.887   9.264 -1.5884  0.9173 -0.6745
 4922SOL     OW26401   0.731   1.103   7.096  0.2780  0.2067  0.1479
 4922SOL    HW126402   0.770   1.186   7.126 -0.3315  0.3038  0.6726
 4922SOL    HW226403   0.739   1.057   7.179 -0.4098 -1.0301 -0.4848
 4923SOL     OW26404   1.217   2.050  12.705  0.2804  0.1271 -0.4907
 4923SOL    HW126405   1.148   2.014  12.649  0.7186 -3.2584  1.1985
 4923SOL    HW226406   1.230   2.140  12.674 -0.4474  1.3572  2.6962
 4924SOL     OW26407   2.196   1.715   6.934  0.0313  0.3135 -0.2981
 4924SOL    HW126408   2.113   1.752   6.906 -1.0477 -0.7392  1.4868
 4924SOL    HW226409   2.189   1.626   6.900 -1.5516  0.4090 -0.2054
 4925SOL     OW26410   2.403   4.376   8.659  0.9928  0.3321 -0.1901
 4925SOL    HW126411   2.487   4.418   8.680  0.7798 -0.2261  1.7879
 4925SOL    HW226412   2.427   4.332   8.577 -1.9258 -1.2665 -0.1661
 4926SOL     OW26413   4.625   4.202   8.561 -0.1198 -0.4818  0.0561
 4926SOL    HW126414   4.612   4.250   8.479 -0.3441  1.5222  1.2494
 4926SOL    HW226415   4.708   4.159   8.541 -0.8837 -0.9031 -2.1677
 4927SOL     OW26416   1.836   2.450   6.190  0.4935  0.5487 -0.1153
 4927SOL    HW126417   1.745   2.433   6.213 -0.2696  2.8852 -1.4381
 4927SOL    HW226418   1.864   2.359   6.196 -2.0938 -0.2082  0.4313
 4928SOL     OW26419   4.347   2.021  11.281  0.5402  0.4569 -0.8012
 4928SOL    HW126420   4.442   2.033  11.276  0.5451  0.9604  0.3686
 4928SOL    HW226421   4.317   2.098  11.331 -2.4872  0.2465 -2.2663
 4929SOL     OW26422   4.455   0.369   1.627  0.0635 -0.0662 -0.8604
 4929SOL    HW126423   4.477   0.422   1.551 -0.5766  2.4078  0.6590
 4929SOL    HW226424   4.536   0.320   1.636 -1.8484 -2.9203  0.7895
 4930SOL     OW26425   2.407   1.185  16.816  0.6021 -0.2591 -0.1360
 4930SOL    HW126426   2.379   1.200  16.907 -0.6525  1.5075 -0.8112
 4930SOL    HW226427   2.433   1.274  16.791 -3.7241  0.9640 -0.3337
 4931SOL     OW26428   3.426   4.268   6.066 -0.4138  0.6180  0.0796
 4931SOL    HW126429   3.467   4.183   6.081  0.5230  1.3248  1.5547
 4931SOL    HW226430   3.505   4.311   6.031 -0.9667  1.2462 -0.4013
 4932SOL     OW26431   2.851   2.704   6.533  0.0040 -0.0686  0.3177
 4932SOL    HW126432   2.789   2.639   6.500  1.7387 -1.2652 -0.5851
 4932SOL    HW226433   2.824   2.711   6.625 -3.0740 -0.3859 -0.5457
 4933SOL     OW26434   1.945   2.806   6.378 -0.2706  0.1253  0.5573
 4933SOL    HW126435   1.929   2.857   6.458 -1.0193  1.3531 -0.3699
 4933SOL    HW226436   1.896   2.857   6.313  0.6167 -1.2207 -1.1892
 4934SOL     OW26437   2.112   1.289  16.487 -0.1789  0.4277  0.1139
 4934SOL    HW126438   2.187   1.333  16.526 -1.2110  1.8193  0.5278
 4934SOL    HW226439   2.036   1.324  16.533 -0.9396  0.6129 -1.2960
 4935SOL     OW26440   1.992   4.360   9.479 -0.4436  0.2392  0.0016
 4935SOL    HW126441   2.013   4.443   9.436 -0.8184  0.5227  0.3699
 4935SOL    HW226442   2.041   4.374   9.560  0.1221  0.7419 -0.4256
 4936SOL     OW26443   4.391   0.068   2.491  0.1740 -0.0291 -0.7889
 4936SOL    HW126444   4.398   0.079   2.396  0.9896  1.3584 -0.5622
 4936SOL    HW226445   4.461   0.003   2.505  0.7088  0.7241 -0.0046
 4937SOL     OW26446   0.918   3.121   3.327 -0.3848  0.1375 -0.2344
 4937SOL    HW126447   0.940   3.063   3.399 -1.3689 -0.5792 -0.5101
 4937SOL    HW226448   1.009   3.147   3.308 -0.3399 -0.1376 -0.3921
 4938SOL     OW26449   2.129   2.468   7.441  0.0745  0.1812 -0.1222
 4938SOL    HW126450   2.208   2.414   7.442 -0.4742 -0.5935  2.6029
 4938SOL    HW226451   2.133   2.531   7.514  0.2573 -0.6749  0.6010
 4939SOL     OW26452   0.704   0.591   8.336  0.1073  0.2522 -0.1115
 4939SOL    HW126453   0.630   0.601   8.276 -0.7347 -1.0623  0.6991
 4939SOL    HW226454   0.678   0.645   8.410  0.3252  0.3406 -0.1005
 4940SOL     OW26455   0.150   4.449   8.578 -0.0344 -0.5083 -0.6569
 4940SOL    HW126456   0.143   4.460   8.484 -0.5049  2.1825 -0.3155
 4940SOL    HW226457   0.058   4.470   8.597  0.7120  2.0560  0.1524
 4941SOL     OW26458   1.639   3.791   9.472  0.1728 -0.3844 -0.4933
 4941SOL    HW126459   1.638   3.776   9.377 -0.6206 -1.9581 -0.2384
 4941SOL    HW226460   1.594   3.875   9.478 -0.9099 -0.9310 -1.0724
 4942SOL     OW26461   1.065   0.794   1.709 -0.2581  0.3775 -0.4794
 4942SOL    HW126462   1.009   0.807   1.785 -0.6016  1.6800 -0.9569
 4942SOL    HW226463   1.139   0.744   1.743 -0.3714 -0.6070 -1.6730
 4943SOL     OW26464   0.986   1.110   3.477 -0.7666  0.0794  0.3093
 4943SOL    HW126465   1.019   1.128   3.389  0.0459 -0.5347  0.4841
 4943SOL    HW226466   1.037   1.036   3.511  0.8594  0.9402 -0.2240
 4944SOL     OW26467   1.785   0.788   1.930 -0.1254 -0.0300 -0.2279
 4944SOL    HW126468   1.879   0.794   1.916  0.2322  2.2816  3.2499
 4944SOL    HW226469   1.786   0.785   2.026  1.4780 -0.1473 -0.2496
 4945SOL     OW26470   1.334   4.026   3.671  0.0591  0.4483 -0.3338
 4945SOL    HW126471   1.285   3.971   3.610 -1.0489 -1.0423  1.8849
 4945SOL    HW226472   1.263   4.073   3.714  0.4559 -0.7952  1.7056
 4946SOL     OW26473   0.546   0.383  13.372  0.3341 -0.3648  0.9865
 4946SOL    HW126474   0.545   0.288  13.368  1.0592 -0.3423  0.1885
 4946SOL    HW226475   0.605   0.420  13.306 -0.8374 -1.0545 -0.4263
 4947SOL     OW26476   3.718   1.425   7.275  0.5927  0.0464 -0.6560
 4947SOL    HW126477   3.673   1.390   7.199  2.8329 -4.4218  0.0946
 4947SOL    HW226478   3.725   1.346   7.328  1.1636  0.5773  0.0750
 4948SOL     OW26479   4.741   1.573  12.284 -0.5235 -0.4377  0.0481
 4948SOL    HW126480   4.720   1.496  12.336 -0.4665 -1.6181 -1.6882
 4948SOL    HW226481   4.652   1.604  12.271 -0.7413 -0.7691  0.7383
 4949SOL     OW26482   4.505   0.073   7.333  0.4218  0.3606 -0.3449
 4949SOL    HW126483   4.562   0.055   7.408  0.7571  0.4490 -0.5815
 4949SOL    HW226484   4.427   0.031   7.370 -0.1803  2.8927  1.2453
 4950SOL     OW26485   0.444   2.756   5.899  0.1675  0.7607 -0.3556
 4950SOL    HW126486   0.362   2.725   5.939 -0.4543  1.6555 -0.9347
 4950SOL    HW226487   0.406   2.816   5.835  0.7650  1.5258 -0.0034
 4951SOL     OW26488   1.501   0.428  11.912 -0.2692  0.4555  0.2908
 4951SOL    HW126489   1.409   0.403  11.909  0.0002 -0.5493  0.4230
 4951SOL    HW226490   1.495   0.463  11.823  2.7938 -0.4790 -0.3049
 4952SOL     OW26491   4.379   0.288   5.697 -0.6034 -0.4321 -0.5000
 4952SOL    HW126492   4.413   0.219   5.640 -1.8838  0.9212 -2.8913
 4952SOL    HW226493   4.422   0.247   5.772  0.7831 -0.1118 -1.1331
 4953SOL     OW26494   2.748   2.293   2.743 -0.1617 -0.3226 -0.5318
 4953SOL    HW126495   2.728   2.386   2.731  1.5801  0.0011 -1.0792
 4953SOL    HW226496   2.674   2.251   2.700 -0.2411 -0.4592 -0.2575
 4954SOL     OW26497   4.313   1.680   1.993 -1.0655 -0.2331  0.3153
 4954SOL    HW126498   4.369   1.608   2.023 -0.0028  0.7939  0.7861
 4954SOL    HW226499   4.366   1.755   2.018 -1.6936  0.9616 -1.9073
 4955SOL     OW26500   3.728   3.103  12.111  0.0708  0.5496 -0.4165
 4955SOL    HW126501   3.670   3.027  12.121  0.2562  0.3426 -0.9388
 4955SOL    HW226502   3.813   3.066  12.134  0.1768 -0.2560 -2.1368
 4956SOL     OW26503   3.763   1.612   3.613  0.0516  0.2064  0.2047
 4956SOL    HW126504   3.843   1.665   3.611  0.8043 -0.9658 -0.5136
 4956SOL    HW226505   3.720   1.637   3.531 -1.6039 -1.0625  0.6946
 4957SOL     OW26506   4.714   4.610   1.935  0.2762 -0.2154 -0.0339
 4957SOL    HW126507   4.654   4.654   1.875 -2.1666 -2.0938  1.0381
 4957SOL    HW226508   4.648   4.576   1.995 -0.1437 -0.2511 -0.5203
 4958SOL     OW26509   2.732   1.806   4.955  0.1355  0.5724  0.2787
 4958SOL    HW126510   2.651   1.852   4.977 -0.1790  0.1130  0.0824
 4958SOL    HW226511   2.741   1.775   5.046  0.4538  1.7572  0.6441
 4959SOL     OW26512   3.681   2.384   3.604  0.3002  0.0143  0.4550
 4959SOL    HW126513   3.592   2.386   3.570  0.4611  1.3645  0.1049
 4959SOL    HW226514   3.725   2.448   3.549  0.4338 -0.5646 -0.1039
 4960SOL     OW26515   3.302   0.300   5.804  0.2867  0.1985 -0.0462
 4960SOL    HW126516   3.210   0.273   5.801 -0.0777  1.4548 -0.1735
 4960SOL    HW226517   3.312   0.321   5.897  0.3807 -1.0338  0.2200
 4961SOL     OW26518   2.913   3.714   3.826 -0.3671  0.1667 -0.1791
 4961SOL    HW126519   2.988   3.768   3.848 -1.0191  0.3478  1.5943
 4961SOL    HW226520   2.858   3.739   3.901 -0.0907 -0.9820  0.4060
 4962SOL     OW26521   3.836   2.033  11.026  0.3922  0.1152  0.1290
 4962SOL    HW126522   3.895   2.098  11.064  2.1093 -0.5486 -1.3708
 4962SOL    HW226523   3.862   1.958  11.079  1.0392  0.5858  0.4747
 4963SOL     OW26524   0.102   0.198  11.333 -0.2445  0.4520  0.1756
 4963SOL    HW126525   0.045   0.127  11.362  0.7755 -0.5413 -0.2423
 4963SOL    HW226526   0.044   0.271  11.311  0.7183 -0.2070 -4.5344
 4964SOL     OW26527   0.087   1.339   1.718  0.3627  0.1537 -0.0981
 4964SOL    HW126528   0.093   1.286   1.639  1.1734  0.9189 -0.5539
 4964SOL    HW226529   0.062   1.423   1.679  1.7647  0.3795 -0.5119
 4965SOL     OW26530   1.327   4.339   0.498  0.3969 -0.2392 -0.5955
 4965SOL    HW126531   1.281   4.256   0.510 -0.6155  0.5630  1.0521
 4965SOL    HW226532   1.371   4.319   0.415  0.0630  0.3446 -0.9142
 4966SOL     OW26533   2.811   0.977   8.976 -0.4723 -0.5138 -0.4172
 4966SOL    HW126534   2.889   0.953   8.927 -0.8800 -0.6798 -0.9940
 4966SOL    HW226535   2.766   0.893   8.982 -2.2894  0.5105  0.3443
 4967SOL     OW26536   3.883   3.206   6.193  0.5959  1.3152  0.3686
 4967SOL    HW126537   3.843   3.213   6.106  0.8726 -2.6643 -0.0703
 4967SOL    HW226538   3.962   3.257   6.180  2.0776 -1.3594 -1.1663
 4968SOL     OW26539   2.624   0.921   9.257  0.1050  0.0107 -0.2138
 4968SOL    HW126540   2.533   0.899   9.238  0.6635 -1.6300 -1.0622
 4968SOL    HW226541   2.667   0.866   9.192  0.5391  1.1908 -0.9207
 4969SOL     OW26542   1.248   1.899   6.207 -0.0437  0.2373  0.4576
 4969SOL    HW126543   1.259   1.924   6.116  1.2639  0.4774  0.6851
 4969SOL    HW226544   1.196   1.970   6.245  0.6559  1.0390 -0.0959
 4970SOL     OW26545   1.844   0.283  15.007 -0.5372  0.0151 -0.0744
 4970SOL    HW126546   1.834   0.378  14.996  0.3254 -0.1440 -2.0696
 4970SOL    HW226547   1.920   0.285  15.066  1.0393  1.5766 -2.1407
 4971SOL     OW26548   4.612   2.937   8.070  0.7298 -0.0134  1.0845
 4971SOL    HW126549   4.574   2.894   7.993 -0.1211  0.4692  1.2310
 4971SOL    HW226550   4.677   2.869   8.087 -0.0389 -1.4168 -1.5386
 4972SOL     OW26551   3.606   2.898   6.965 -0.1000 -0.3517  0.2501
 4972SOL    HW126552   3.555   2.978   6.978 -0.8444 -0.5980 -1.1465
 4972SOL    HW226553   3.558   2.842   6.904  1.9420  0.2440 -1.8969
 4973SOL     OW26554   3.255   0.535  13.764  0.2341 -0.1617 -0.1967
 4973SOL    HW126555   3.346   0.507  13.758 -0.2595 -1.6541 -0.7899
 4973SOL    HW226556   3.244   0.525  13.859 -1.2689 -0.4139 -0.3834
 4974SOL     OW26557   2.939   3.910   0.274  0.1418  0.3390  0.1713
 4974SOL    HW126558   2.932   3.816   0.291 -0.4285  0.6079  1.4344
 4974SOL    HW226559   2.983   3.909   0.189 -0.9905  1.4729 -0.4172
 4975SOL     OW26560   3.793   2.487   5.615 -0.2148  0.7539 -0.3956
 4975SOL    HW126561   3.754   2.547   5.678 -2.0872 -0.8070 -0.0734
 4975SOL    HW226562   3.879   2.525   5.597  0.3614  0.3713  1.5743
 4976SOL     OW26563   1.663   4.204   6.121  0.0891 -0.0214  0.5850
 4976SOL    HW126564   1.645   4.180   6.030 -2.8556  1.6998  0.7183
 4976SOL    HW226565   1.605   4.151   6.176 -1.0657  1.1796  0.5420
 4977SOL     OW26566   4.704   0.137   3.073  0.3070 -0.2902  0.1184
 4977SOL    HW126567   4.651   0.069   3.032 -2.3013  2.3773 -0.9050
 4977SOL    HW226568   4.647   0.139   3.150  0.2820 -0.4990  0.1067
 4978SOL     OW26569   3.052   2.966   6.605 -0.0184  0.8568 -0.5252
 4978SOL    HW126570   2.980   2.926   6.556 -0.3958  3.0253 -1.7348
 4978SOL    HW226571   3.077   2.896   6.666 -1.1622  1.3369  0.4978
 4979SOL     OW26572   1.228   3.836   8.106  0.1445 -0.1408 -0.3151
 4979SOL    HW126573   1.234   3.921   8.063  3.0733  0.3050  0.9801
 4979SOL    HW226574   1.223   3.857   8.199  0.6925  0.8756 -0.5192
 4980SOL     OW26575   2.630   0.463   1.806  0.1212  0.3918  0.4658
 4980SOL    HW126576   2.579   0.544   1.795 -0.5054 -0.0494  0.1413
 4980SOL    HW226577   2.716   0.490   1.840 -0.9839  0.1365  3.4284
 4981SOL     OW26578   0.875   4.621  14.727  0.0294  0.3227  0.1240
 4981SOL    HW126579   0.968   4.632  14.743 -0.1966 -0.3274  1.9172
 4981SOL    HW226580   0.850   4.689  14.790 -0.9818 -2.3391  2.6399
 4982SOL     OW26581   2.062   0.232  17.154 -0.5125 -0.5553 -0.0021
 4982SOL    HW126582   2.096   0.244  17.066 -2.7758 -3.1399 -1.2178
 4982SOL    HW226583   2.060   0.137  17.163  3.1545 -0.5840  0.4144
 4983SOL     OW26584   1.288   3.321  16.911  0.1362 -0.5115  0.0203
 4983SOL    HW126585   1.314   3.402  16.866  0.3244 -0.2425  0.6183
 4983SOL    HW226586   1.224   3.294  16.845  2.4720 -0.5174 -2.2082
 4984SOL     OW26587   2.644   4.273   1.329 -0.1662  0.2530  0.2189
 4984SOL    HW126588   2.549   4.285   1.333 -0.3111  0.0966 -2.4450
 4984SOL    HW226589   2.647   4.178   1.342  0.5895  0.2816  0.2910
 4985SOL     OW26590   4.234   4.644   4.677  0.0798 -0.0125  0.3927
 4985SOL    HW126591   4.268   4.669   4.763  1.1559 -0.8582  0.2163
 4985SOL    HW226592   4.149   4.609   4.704 -0.4993  1.3451  0.3192
 4986SOL     OW26593   4.150   2.188   6.556 -0.3938  0.0535 -0.3707
 4986SOL    HW126594   4.209   2.246   6.508  0.5906 -1.6945 -1.3051
 4986SOL    HW226595   4.089   2.160   6.488 -0.1619  2.6838 -1.6506
 4987SOL     OW26596   3.754   3.762  16.870  0.1563  0.0895 -0.4781
 4987SOL    HW126597   3.788   3.678  16.839 -0.4762 -0.4587  0.3110
 4987SOL    HW226598   3.825   3.820  16.841  1.8766 -0.5821  2.3863
 4988SOL     OW26599   4.324   2.490   3.701  0.1887 -0.5291  0.5910
 4988SOL    HW126600   4.277   2.572   3.716 -1.5744 -1.1987 -1.1614
 4988SOL    HW226601   4.395   2.525   3.648 -1.6019 -0.2390 -1.6358
 4989SOL     OW26602   2.518   0.089   9.865 -0.2028 -0.5462  0.0160
 4989SOL    HW126603   2.447   0.152   9.874  0.6199  0.3521  0.1950
 4989SOL    HW226604   2.475   0.014   9.825  3.2686 -1.3263 -2.2201
 4990SOL     OW26605   1.101   0.284  10.809  0.0910 -0.8942  0.5568
 4990SOL    HW126606   1.167   0.223  10.777 -1.7962 -2.0426 -1.1071
 4990SOL    HW226607   1.154   0.363  10.798 -2.4732  0.6621 -0.6638
 4991SOL     OW26608   0.838   1.519   4.870  0.4297 -0.6435  0.0594
 4991SOL    HW126609   0.849   1.611   4.894  1.1958 -0.6144 -0.3937
 4991SOL    HW226610   0.820   1.484   4.958 -0.2725 -0.1333  0.1204
 4992SOL     OW26611   4.537   0.266   5.225 -0.3405  0.4715  0.5088
 4992SOL    HW126612   4.601   0.220   5.279 -0.3431  0.0767  0.1719
 4992SOL    HW226613   4.549   0.358   5.251 -0.0676  0.2362  1.2197
 4993SOL     OW26614   3.084   3.494   9.142  0.1646  0.5937 -0.5312
 4993SOL    HW126615   3.120   3.580   9.161  2.0339 -0.4588  0.6805
 4993SOL    HW226616   3.038   3.506   9.059  0.9641  1.0603 -0.9022
 4994SOL     OW26617   2.803   4.697   1.750  0.1376 -0.6324 -0.4980
 4994SOL    HW126618   2.749   4.671   1.824 -1.4764 -1.1846 -1.8748
 4994SOL    HW226619   2.753   4.730   1.676 -0.9738 -0.0844  0.4938
 4995SOL     OW26620   2.541   0.711  15.587 -0.1243 -0.1697 -0.3547
 4995SOL    HW126621   2.562   0.702  15.680 -1.4879 -0.5339 -0.0855
 4995SOL    HW226622   2.596   0.787  15.569 -2.0438  1.5670  1.0042
 4996SOL     OW26623   3.859   1.978  16.333  0.2336  0.0122  0.1441
 4996SOL    HW126624   3.851   1.893  16.378 -0.8599 -0.1352 -0.3502
 4996SOL    HW226625   3.857   1.947  16.243 -0.3698  0.8477 -0.1219
 4997SOL     OW26626   2.089   0.494   9.066 -0.0853  0.4297 -0.6443
 4997SOL    HW126627   2.050   0.461   8.985 -2.5686  1.9698 -0.0821
 4997SOL    HW226628   2.150   0.426   9.096 -1.3328  0.1471  1.2526
 4998SOL     OW26629   1.001   3.905  14.780  0.1828 -0.6502  0.2843
 4998SOL    HW126630   1.046   3.969  14.834 -0.7842  1.0479 -0.9251
 4998SOL    HW226631   1.044   3.914  14.695 -1.9140  1.5643 -0.5632
 4999SOL     OW26632   0.862   4.338  15.518 -0.4873  0.4339 -0.4230
 4999SOL    HW126633   0.852   4.432  15.502 -2.1988  0.3584  0.2011
 4999SOL    HW226634   0.872   4.322  15.611 -3.1454  0.6981 -0.0890
 5000SOL     OW26635   0.470   1.914   5.841 -0.7644 -0.4583 -0.4157
 5000SOL    HW126636   0.520   1.844   5.799  1.4306  0.2203  1.1175
 5000SOL    HW226637   0.440   1.971   5.769 -1.8579  0.0380  0.4360
 5001SOL     OW26638   2.920   3.799   8.204 -0.4935 -0.5808 -0.0679
 5001SOL    HW126639   3.014   3.806   8.187 -0.2726  2.7604  2.6111
 5001SOL    HW226640   2.900   3.858   8.276  1.0707 -1.9388  1.4584
 5002SOL     OW26641   1.602   0.712   1.741 -0.5693 -0.3491  0.3069
 5002SOL    HW126642   1.513   0.689   1.769 -0.4752 -0.9688  0.0956
 5002SOL    HW226643   1.663   0.705   1.814  0.3042  2.4501 -0.1838
 5003SOL     OW26644   2.206   3.451   9.265  0.0375  0.2156 -0.3138
 5003SOL    HW126645   2.112   3.439   9.270  0.3754 -1.5543  1.7743
 5003SOL    HW226646   2.226   3.436   9.357 -0.7977 -1.1183 -0.3580
 5004SOL     OW26647   3.116   4.064   1.942  0.2412 -0.7866 -0.2701
 5004SOL    HW126648   3.146   4.017   1.865 -1.7453  0.6479 -1.9107
 5004SOL    HW226649   3.083   3.988   1.991  0.1443  0.5041  1.6916
 5005SOL     OW26650   2.987   3.994   3.628  0.2458  0.5345 -0.3922
 5005SOL    HW126651   2.931   4.070   3.646  1.1815  1.3341 -0.8109
 5005SOL    HW226652   2.941   3.951   3.556 -0.6366  2.2239 -0.8355
 5006SOL     OW26653   0.108   2.877   8.658  0.2073 -0.3063  0.7147
 5006SOL    HW126654   0.168   2.951   8.653 -0.1717  0.0090  0.8808
 5006SOL    HW226655   0.155   2.821   8.720  0.9077  1.9674  2.2086
 5007SOL     OW26656   4.684   1.300   8.232  0.4737  0.5979 -1.2672
 5007SOL    HW126657   4.628   1.223   8.217  1.0855 -0.1099  0.1312
 5007SOL    HW226658   4.716   1.284   8.321 -0.0965  0.9667 -1.0037
 5008SOL     OW26659   4.308   3.046   2.317 -0.1394 -0.0611  0.2925
 5008SOL    HW126660   4.364   3.120   2.338 -0.3351  0.4468 -1.0035
 5008SOL    HW226661   4.242   3.087   2.261 -1.2282 -0.0234  1.5807
 5009SOL     OW26662   0.393   0.052   1.001  0.1931  0.4434  0.1123
 5009SOL    HW126663   0.443   0.086   1.076 -1.7657 -0.4203  1.8368
 5009SOL    HW226664   0.407   0.123   0.938 -2.0866  2.0046  1.3428
 5010SOL     OW26665   0.995   1.537  15.039 -0.7396  0.5942  0.1955
 5010SOL    HW126666   1.034   1.620  15.065 -0.8054  0.1173  1.8652
 5010SOL    HW226667   0.931   1.525  15.110 -0.8933 -1.5885 -0.3084
 5011SOL     OW26668   0.973   3.446   2.269  0.3953  0.0875  0.6566
 5011SOL    HW126669   0.929   3.395   2.337 -1.7852 -1.2784 -1.7874
 5011SOL    HW226670   1.065   3.446   2.294  0.8638 -1.1954 -1.1484
 5012SOL     OW26671   2.249   4.486   1.415 -0.3888  0.3429 -0.7037
 5012SOL    HW126672   2.248   4.581   1.401 -1.8213  0.7121  1.8608
 5012SOL    HW226673   2.341   4.470   1.437 -0.6402 -0.5512 -0.2877
 5013SOL     OW26674   1.971   0.551   3.324 -0.0736 -0.0337 -0.7538
 5013SOL    HW126675   1.950   0.553   3.418  3.5252 -2.3585  0.0792
 5013SOL    HW226676   1.887   0.533   3.282 -0.7648  2.1748 -0.3444
 5014SOL     OW26677   1.676   1.448  14.353  0.2424 -0.1426  0.7082
 5014SOL    HW126678   1.667   1.388  14.427 -2.0787 -1.6044 -0.7437
 5014SOL    HW226679   1.609   1.414  14.293  1.5911  0.8796 -1.3732
 5015SOL     OW26680   1.886   2.194   6.195 -0.1485 -0.0470  0.0370
 5015SOL    HW126681   1.855   2.160   6.110  1.9591 -1.4541 -0.1504
 5015SOL    HW226682   1.909   2.109   6.233 -1.3957 -0.1762  0.5258
 5016SOL     OW26683   4.217   2.095   4.392  0.2512 -0.8572  0.2580
 5016SOL    HW126684   4.291   2.034   4.389 -0.9449 -2.3075 -0.0094
 5016SOL    HW226685   4.204   2.112   4.298  2.1430  2.4515  0.5967
 5017SOL     OW26686   1.718   4.635  16.010  0.0514 -0.0745  0.6617
 5017SOL    HW126687   1.793   4.637  15.950  1.4561  2.3028  2.5195
 5017SOL    HW226688   1.674   4.717  15.990 -2.5474 -2.0275 -1.8217
 5018SOL     OW26689   2.776   4.152   9.070  0.4670  0.2397 -0.0212
 5018SOL    HW126690   2.778   4.118   9.159  0.4881 -0.8668 -0.4455
 5018SOL    HW226691   2.751   4.243   9.084  0.1166 -0.4040  3.5423
 5019SOL     OW26692   1.166   2.007  15.676 -0.4480 -0.0961  0.1666
 5019SOL    HW126693   1.127   2.086  15.637 -1.2562  0.1043  1.3996
 5019SOL    HW226694   1.191   2.055  15.755  1.6281 -1.7943  0.5421
 5020SOL     OW26695   2.265   0.705  15.967  0.1252  0.4834  0.2811
 5020SOL    HW126696   2.252   0.721  16.060  1.8033 -0.7209  0.7085
 5020SOL    HW226697   2.309   0.620  15.965 -0.7271 -0.0017  1.6296
 5021SOL     OW26698   1.536   3.545   2.258 -0.5340 -0.0421 -0.0699
 5021SOL    HW126699   1.542   3.511   2.169  1.1719  0.1548 -0.0359
 5021SOL    HW226700   1.623   3.529   2.295 -0.0465  0.1981 -1.1062
 5022SOL     OW26701   1.997   3.865  15.548 -0.2947 -0.9924  0.0341
 5022SOL    HW126702   2.074   3.912  15.514  0.8238 -2.2027  0.9232
 5022SOL    HW226703   2.041   3.803  15.606  1.2636  1.4865  1.4754
 5023SOL     OW26704   4.021   3.146   4.940 -0.3916 -0.2522  0.5609
 5023SOL    HW126705   4.108   3.105   4.941  0.8757  2.4080 -1.8609
 5023SOL    HW226706   4.040   3.234   4.971 -2.4640  0.3060  0.2259
 5024SOL     OW26707   0.926   2.569   2.833  0.2233  0.1798 -0.0927
 5024SOL    HW126708   0.937   2.513   2.910 -1.7267  0.2859  0.2633
 5024SOL    HW226709   0.838   2.607   2.844 -0.0669 -0.6238  0.3765
 5025SOL     OW26710   0.920   2.465   1.402  0.4775 -0.0803  0.1919
 5025SOL    HW126711   1.004   2.504   1.427  1.1467 -1.3091 -0.1568
 5025SOL    HW226712   0.929   2.373   1.427  0.7062 -0.1123 -0.0047
 5026SOL     OW26713   3.475   2.778   5.568 -0.0248 -0.1763 -0.3708
 5026SOL    HW126714   3.493   2.781   5.475 -0.9474  1.3652 -0.5088
 5026SOL    HW226715   3.412   2.707   5.576  0.1068 -0.1827  0.6248
 5027SOL     OW26716   2.946   4.374   8.276 -0.2696 -0.4769 -0.1780
 5027SOL    HW126717   3.004   4.444   8.245 -0.9439  1.6868  3.4924
 5027SOL    HW226718   2.999   4.323   8.337  0.6581 -0.1231 -0.6785
 5028SOL     OW26719   3.302   3.365   7.027  0.1990  0.4345 -0.1167
 5028SOL    HW126720   3.295   3.358   6.932 -0.8436  0.3475 -0.0347
 5028SOL    HW226721   3.259   3.451   7.025 -0.4623  0.0570 -2.7264
 5029SOL     OW26722   0.609   2.513   1.453 -0.2499 -0.0013  0.1483
 5029SOL    HW126723   0.701   2.485   1.452 -0.6455 -1.2766 -0.3202
 5029SOL    HW226724   0.574   2.486   1.538 -0.4518 -1.3927 -0.3687
 5030SOL     OW26725   2.032   4.462   3.055  0.3980 -0.4641 -0.0040
 5030SOL    HW126726   2.120   4.426   3.057  0.5732 -0.0231  0.3021
 5030SOL    HW226727   2.048   4.543   3.006 -4.2387  1.9336  2.3550
 5031SOL     OW26728   1.357   1.993  17.126 -0.6459  0.1224 -0.0375
 5031SOL    HW126729   1.343   1.903  17.096  0.9784  0.3987 -1.6072
 5031SOL    HW226730   1.273   2.039  17.125 -0.3313  0.7029  0.1989
 5032SOL     OW26731   2.186   1.906   6.033  0.1952 -0.3499  0.2287
 5032SOL    HW126732   2.232   1.873   6.110 -0.3765 -0.7702  0.3929
 5032SOL    HW226733   2.206   1.833   5.974  1.5732  0.1083  0.1420
 5033SOL     OW26734   2.614   0.680   9.545 -0.4464  0.1722 -0.4291
 5033SOL    HW126735   2.681   0.620   9.510 -0.4284  2.5691 -4.4765
 5033SOL    HW226736   2.529   0.657   9.509 -0.2146  0.7388 -1.3415
 5034SOL     OW26737   1.463   1.268   8.851  0.3613  0.4990 -0.2445
 5034SOL    HW126738   1.434   1.357   8.874 -1.7260 -0.1655 -0.3478
 5034SOL    HW226739   1.551   1.275   8.889  0.0457 -0.2880  0.6286
 5035SOL     OW26740   0.811   0.542   9.845 -0.2629 -0.1368  0.0871
 5035SOL    HW126741   0.905   0.551   9.829  0.1367 -1.6658  1.5975
 5035SOL    HW226742   0.822   0.483   9.919  2.2308 -1.3596 -1.2612
 5036SOL     OW26743   3.622   4.081   4.164  0.1403 -0.3439 -0.1638
 5036SOL    HW126744   3.703   4.113   4.205 -0.0879  0.2396 -0.1635
 5036SOL    HW226745   3.558   4.098   4.233 -0.1450 -1.3498 -0.1811
 5037SOL     OW26746   2.486   2.788   7.613 -0.0187  0.7777 -0.4496
 5037SOL    HW126747   2.453   2.826   7.531 -2.4915  1.1191  0.6934
 5037SOL    HW226748   2.562   2.845   7.624 -0.4920  1.0145  1.6867
 5038SOL     OW26749   2.688   0.085  10.426  0.2630  0.0028 -0.1372
 5038SOL    HW126750   2.654   0.093  10.515  1.1649 -1.2482  0.3320
 5038SOL    HW226751   2.708   0.176  10.407 -2.5891  0.8059  0.8193
 5039SOL     OW26752   0.533   3.025   7.713  0.2659  0.4080  0.0232
 5039SOL    HW126753   0.461   2.966   7.690 -0.5050  1.0860  0.7354
 5039SOL    HW226754   0.602   2.968   7.749 -0.5584 -1.5597 -1.4746
 5040SOL     OW26755   1.590   2.112   9.601  0.5900  0.0256 -0.3184
 5040SOL    HW126756   1.510   2.070   9.634  1.3095 -0.8445  0.3022
 5040SOL    HW226757   1.619   2.052   9.533  0.7707  0.5004 -0.6648
 5041SOL     OW26758   2.139   3.945  14.764  0.9864 -0.2240 -0.0557
 5041SOL    HW126759   2.100   3.939  14.851 -0.5816 -0.0656 -0.7522
 5041SOL    HW226760   2.185   4.028  14.769 -2.9091  1.8752  0.9100
 5042SOL     OW26761   2.368   1.901   8.851  0.0223 -0.2172 -0.0539
 5042SOL    HW126762   2.300   1.845   8.888  1.1715 -2.8185 -1.8912
 5042SOL    HW226763   2.370   1.978   8.907  0.6101 -1.2300  1.3281
 5043SOL     OW26764   3.163   3.532   8.276 -0.3803  0.0218 -0.3548
 5043SOL    HW126765   3.127   3.445   8.293  0.7014 -0.4801 -0.6435
 5043SOL    HW226766   3.123   3.548   8.191  0.9033 -0.0297 -0.9643
 5044SOL     OW26767   1.849   2.248   7.518  0.2468 -0.2812  0.1224
 5044SOL    HW126768   1.798   2.186   7.570 -0.6123 -0.0611 -0.4445
 5044SOL    HW226769   1.939   2.235   7.547  0.1210  0.5940  0.8964
 5045SOL     OW26770   1.064   3.494   1.382 -0.4637 -0.4574 -0.7745
 5045SOL    HW126771   1.005   3.447   1.322 -2.8723  1.0478  0.4075
 5045SOL    HW226772   1.150   3.483   1.341  0.7240 -0.1281  1.6664
 5046SOL     OW26773   1.392   0.930   6.929  0.1664  0.4770  0.3602
 5046SOL    HW126774   1.401   0.892   7.017  3.3324  0.1603 -0.0899
 5046SOL    HW226775   1.483   0.918   6.901 -0.4671  2.6716 -2.4904
 5047SOL     OW26776   2.260   0.091  15.667  0.1029 -0.3687  0.1593
 5047SOL    HW126777   2.315   0.015  15.685  2.8096  1.6157  0.2336
 5047SOL    HW226778   2.325   0.146  15.622  1.6355 -2.5219 -0.2809
 5048SOL     OW26779   4.314   3.439   8.801  0.2517 -0.0653  0.0815
 5048SOL    HW126780   4.323   3.527   8.763  3.3030 -0.5491 -0.3630
 5048SOL    HW226781   4.316   3.387   8.721 -2.8466  1.4012 -0.9553
 5049SOL     OW26782   2.540   1.688   2.846 -0.4658  0.0168 -0.1198
 5049SOL    HW126783   2.518   1.625   2.778 -3.0690  1.6696 -0.8033
 5049SOL    HW226784   2.636   1.682   2.844 -0.3311  1.9946 -0.3119
 5050SOL     OW26785   1.006   4.592   6.985  0.3094 -0.0388  0.7776
 5050SOL    HW126786   0.918   4.566   7.014 -0.8079  1.9757 -0.8463
 5050SOL    HW226787   1.050   4.509   7.000  2.0253  0.7703  0.1204
 5051SOL     OW26788   0.086   1.725   4.146  0.0285  0.2008 -0.4132
 5051SOL    HW126789   0.137   1.678   4.213 -1.1299 -0.1837  0.1921
 5051SOL    HW226790   0.160   1.769   4.104  0.7825  0.3342  1.0542
 5052SOL     OW26791   0.568   1.985   0.720 -0.2645  0.1839 -0.0042
 5052SOL    HW126792   0.557   1.997   0.814  4.1783 -1.6145  0.7021
 5052SOL    HW226793   0.478   1.995   0.687 -0.0878 -0.0698 -0.5721
 5053SOL     OW26794   3.440   4.168   2.031 -0.1652  0.1418  0.0166
 5053SOL    HW126795   3.491   4.095   1.997 -2.1834 -0.0130 -2.6770
 5053SOL    HW226796   3.400   4.119   2.103  0.3938 -0.4128 -0.0590
 5054SOL     OW26797   2.853   0.033   1.312  0.7027 -0.5901 -0.4493
 5054SOL    HW126798   2.823   0.099   1.249 -0.5596 -0.5470  0.2030
 5054SOL    HW226799   2.776   4.720   1.309  0.0032  0.3267  0.3610
 5055SOL     OW26800   4.481   1.878   8.878 -0.1097  0.0725  0.0950
 5055SOL    HW126801   4.395   1.847   8.903  0.4277  0.6145  2.5591
 5055SOL    HW226802   4.473   1.862   8.784  0.4524 -1.4735  0.3190
 5056SOL     OW26803   1.400   1.314  16.453 -0.3462  0.2279  0.0255
 5056SOL    HW126804   1.368   1.336  16.366 -0.5716 -0.4617 -0.0684
 5056SOL    HW226805   1.347   1.383  16.494  0.6908  2.8510 -3.0662
 5057SOL     OW26806   0.317   2.179  15.095  0.6865 -0.2515  0.0639
 5057SOL    HW126807   0.401   2.151  15.133 -0.0187 -2.0162  0.2871
 5057SOL    HW226808   0.353   2.222  15.018  0.4008 -2.4116 -1.2647
 5058SOL     OW26809   1.450   2.094   5.054 -0.0648  0.1885  0.0421
 5058SOL    HW126810   1.428   2.141   5.134 -1.4841 -1.4130  0.5748
 5058SOL    HW226811   1.379   2.032   5.040  0.1884 -0.0315 -0.2763
 5059SOL     OW26812   3.467   1.624   4.730  0.1717  0.3360 -0.0425
 5059SOL    HW126813   3.513   1.629   4.814  0.4714  1.1681 -0.2588
 5059SOL    HW226814   3.522   1.682   4.676 -0.2066  1.4497  0.7641
 5060SOL     OW26815   4.180   0.567   5.145  0.1197  0.6680 -0.2389
 5060SOL    HW126816   4.123   0.505   5.191  0.4511  2.0720  2.0325
 5060SOL    HW226817   4.264   0.523   5.126  0.5288  0.6919  1.5090
 5061SOL     OW26818   3.666   0.477  11.606  0.4070 -0.0076  0.0920
 5061SOL    HW126819   3.584   0.427  11.611 -0.7628  1.8852  0.0954
 5061SOL    HW226820   3.686   0.487  11.513 -0.3561  3.9211  0.3487
 5062SOL     OW26821   2.505   3.917   4.947 -0.3979 -0.2512  0.8612
 5062SOL    HW126822   2.464   3.855   4.888  0.1698  0.2205 -0.0226
 5062SOL    HW226823   2.443   3.990   4.950  1.3586  1.2626  0.0731
 5063SOL     OW26824   3.768   3.862   6.172  0.3660 -0.1690  0.1852
 5063SOL    HW126825   3.806   3.788   6.220 -1.2544 -1.7341 -0.9444
 5063SOL    HW226826   3.759   3.826   6.084 -2.4018  1.2317 -0.1101
 5064SOL     OW26827   3.008   0.134   1.804 -0.2207  0.4065 -0.1249
 5064SOL    HW126828   2.977   0.200   1.867 -1.2573 -2.2920  2.2031
 5064SOL    HW226829   2.928   0.082   1.795 -0.4847  0.7509  0.1862
 5065SOL     OW26830   1.888   0.256   1.010 -0.3695 -0.3448 -0.0503
 5065SOL    HW126831   1.848   0.314   0.946 -0.3993 -0.0735  0.2166
 5065SOL    HW226832   1.966   0.227   0.963 -1.6276 -2.3438 -0.9319
 5066SOL     OW26833   3.873   2.185   3.560  0.3587  0.4812  0.7732
 5066SOL    HW126834   3.955   2.224   3.589  0.7861  0.7128 -0.7633
 5066SOL    HW226835   3.811   2.258   3.562 -0.0171  0.1638  0.8270
 5067SOL     OW26836   3.078   0.963   7.220  0.0071 -0.5162  0.2918
 5067SOL    HW126837   3.119   0.883   7.252 -1.9113 -2.4502 -2.1572
 5067SOL    HW226838   3.116   0.979   7.133 -1.4866  1.7720  0.0519
 5068SOL     OW26839   3.818   3.530   7.991 -0.0681  0.1043 -0.3533
 5068SOL    HW126840   3.888   3.472   7.959  0.0278  0.4199 -0.7148
 5068SOL    HW226841   3.737   3.478   7.999 -0.1025  0.1020 -0.7020
 5069SOL     OW26842   4.385   1.885   1.051 -0.3274 -0.3573  0.4205
 5069SOL    HW126843   4.442   1.916   1.122 -0.8064  1.4526 -0.0029
 5069SOL    HW226844   4.302   1.927   1.073  0.3367  0.2752  1.7838
 5070SOL     OW26845   0.401   3.304   6.531 -0.5414 -0.3938 -0.4939
 5070SOL    HW126846   0.408   3.272   6.621  1.1904  3.7819  0.8406
 5070SOL    HW226847   0.306   3.309   6.521 -0.5606 -1.1122 -0.7263
 5071SOL     OW26848   0.488   3.585   0.570 -0.0819 -0.1261 -0.7485
 5071SOL    HW126849   0.522   3.578   0.659  0.3634  2.5270 -0.7127
 5071SOL    HW226850   0.551   3.532   0.521 -1.7334 -2.4418 -0.4009
 5072SOL     OW26851   0.883   0.047   2.472 -0.0330 -0.5454  0.0050
 5072SOL    HW126852   0.849   0.128   2.510 -1.0903  0.3236 -2.8069
 5072SOL    HW226853   0.976   0.057   2.451 -0.2041 -0.7800 -0.8713
 5073SOL     OW26854   0.045   1.258   6.138  0.6628 -0.1983  0.3574
 5073SOL    HW126855   4.713   1.205   6.115  1.3582 -0.9508 -0.2174
 5073SOL    HW226856   0.111   1.191   6.119  1.5147  1.7259 -3.5412
 5074SOL     OW26857   2.236   3.765   5.000  0.3520 -0.5748  0.4079
 5074SOL    HW126858   2.190   3.765   4.916 -0.3117  3.6617  0.8030
 5074SOL    HW226859   2.199   3.681   5.028  2.1424 -0.8696  1.8748
 5075SOL     OW26860   1.366   1.273   1.489  0.3958  0.2935 -0.2343
 5075SOL    HW126861   1.291   1.248   1.543 -0.4751  1.5981 -0.8357
 5075SOL    HW226862   1.439   1.278   1.550 -0.7575 -0.8437  1.2607
 5076SOL     OW26863   2.435   1.959   4.876 -0.5592  0.3806  0.1724
 5076SOL    HW126864   2.347   1.931   4.902 -0.3217 -0.4065  0.1317
 5076SOL    HW226865   2.421   1.987   4.785 -0.1774  1.8953  0.5890
 5077SOL     OW26866   2.991   0.416   4.877 -0.8696 -0.5341 -0.1568
 5077SOL    HW126867   3.076   0.457   4.892  0.0944 -1.9678 -1.6680
 5077SOL    HW226868   3.018   0.355   4.808  0.6148  1.4281 -1.3175
 5078SOL     OW26869   0.509   4.672   7.043  0.6970 -0.2741  0.2064
 5078SOL    HW126870   0.438   4.684   6.980 -1.7484  1.1011  3.1927
 5078SOL    HW226871   0.458   4.661   7.124 -0.4392 -0.6145 -0.5491
 5079SOL     OW26872   0.382   3.985   7.465  0.0913  0.1572  0.0197
 5079SOL    HW126873   0.470   3.983   7.503  0.4899 -0.2866 -0.9330
 5079SOL    HW226874   0.346   3.905   7.502  0.9604 -0.0286  0.4723
 5080SOL     OW26875   2.464   0.624   8.886 -0.0445  0.3548 -0.1313
 5080SOL    HW126876   2.437   0.549   8.832 -1.5991  0.2366  0.8140
 5080SOL    HW226877   2.471   0.680   8.809  0.0519 -1.0680 -1.1770
 5081SOL     OW26878   4.277   0.379   0.718 -0.0628  0.0883 -0.5460
 5081SOL    HW126879   4.316   0.424   0.643 -0.0585 -0.4553 -0.8712
 5081SOL    HW226880   4.207   0.440   0.741  1.1469  0.6504  1.6910
 5082SOL     OW26881   4.137   2.858   5.784  0.0045  0.5213  0.4348
 5082SOL    HW126882   4.070   2.892   5.843  2.4339  0.8887  3.0317
 5082SOL    HW226883   4.201   2.928   5.771  1.5875 -1.0080 -0.0003
 5083SOL     OW26884   3.576   3.951   1.090  0.4166 -0.5983  0.0887
 5083SOL    HW126885   3.631   4.027   1.069  0.1783 -0.1538  1.0357
 5083SOL    HW226886   3.609   3.884   1.031  2.4567  1.4568 -1.1304
 5084SOL     OW26887   1.336   0.701   0.182  0.1659  0.3891 -0.6202
 5084SOL    HW126888   1.246   0.717   0.209  0.3040 -1.1012  0.6817
 5084SOL    HW226889   1.328   0.721   0.088 -0.7644  1.6151 -0.2871
 5085SOL     OW26890   3.233   3.602   5.537 -0.3661 -0.5610  0.2700
 5085SOL    HW126891   3.177   3.566   5.605 -1.2098  2.1801  1.0246
 5085SOL    HW226892   3.211   3.695   5.536  0.1754 -0.4216  1.7243
 5086SOL     OW26893   1.915   1.677   5.918 -0.2773 -0.5750 -0.4062
 5086SOL    HW126894   1.836   1.623   5.929  1.6787 -2.9414  2.0374
 5086SOL    HW226895   1.888   1.748   5.976 -1.1361 -0.0535 -1.4533
 5087SOL     OW26896   4.084   0.215  12.603 -0.0661  0.0439  0.0896
 5087SOL    HW126897   4.010   0.231  12.544 -0.2967  1.1818  0.6917
 5087SOL    HW226898   4.149   0.196  12.534  2.6710 -0.1561  2.7148
 5088SOL     OW26899   1.921   4.030   5.696 -0.5894  0.2846  0.1535
 5088SOL    HW126900   1.962   4.019   5.781 -1.1485 -3.4661 -0.0609
 5088SOL    HW226901   1.913   3.937   5.674 -0.3454  0.7539 -1.9307
 5089SOL     OW26902   2.367   0.043   9.484  0.1930 -0.3868  0.0451
 5089SOL    HW126903   2.320   4.704   9.476  1.5476 -1.0224 -1.4386
 5089SOL    HW226904   2.312   0.100   9.431  1.5993  1.2556  0.3446
 5090SOL     OW26905   4.696   3.117  14.841  0.6170 -0.2814  0.1483
 5090SOL    HW126906   4.662   3.094  14.754 -3.1511  0.3196  1.4733
 5090SOL    HW226907   4.720   3.026  14.855 -0.2213 -0.7062 -1.1264
 5091SOL     OW26908   4.486   2.764  12.352 -0.2869  0.0993  0.3108
 5091SOL    HW126909   4.422   2.805  12.294  1.2432  0.3982 -1.1900
 5091SOL    HW226910   4.555   2.829  12.360 -0.7373  0.6100  0.0020
 5092SOL     OW26911   0.357   2.001   3.575  0.1705 -0.3613 -0.0824
 5092SOL    HW126912   0.274   1.955   3.563  0.4715 -1.1027  0.6961
 5092SOL    HW226913   0.325   2.091   3.565  0.4691 -0.5360 -2.6924
 5093SOL     OW26914   0.616   3.702   2.686  0.1111  0.5429 -0.7873
 5093SOL    HW126915   0.630   3.764   2.615  2.5414  0.3404 -0.4771
 5093SOL    HW226916   0.540   3.735   2.734  0.3794 -0.3745  0.2691
 5094SOL     OW26917   0.591   0.041   9.307 -0.2170  0.9203 -0.1131
 5094SOL    HW126918   0.536   4.726   9.256  1.8761  0.8685 -2.3442
 5094SOL    HW226919   0.537   0.119   9.318 -2.8064 -0.6351 -1.8123
 5095SOL     OW26920   4.296   2.391   6.430  0.0007  0.0300  0.2780
 5095SOL    HW126921   4.297   2.426   6.342  0.4928 -3.2687 -1.0310
 5095SOL    HW226922   4.260   2.468   6.474  4.0262  1.8849  0.3664
 5096SOL     OW26923   4.420   4.541   1.648  0.0125  0.0254 -0.0688
 5096SOL    HW126924   4.473   4.461   1.650 -0.7064 -0.3922  1.9616
 5096SOL    HW226925   4.464   4.587   1.576 -0.6848 -2.9577 -2.4131
 5097SOL     OW26926   3.018   3.029  11.846 -0.0367 -0.2351 -0.2093
 5097SOL    HW126927   3.087   3.073  11.796  1.5613 -1.7072  0.6930
 5097SOL    HW226928   2.955   3.100  11.835  3.1498  2.4951 -1.0157
 5098SOL     OW26929   3.139   2.447  17.196 -0.5966 -0.3898 -0.5620
 5098SOL    HW126930   3.152   2.524  17.141  1.7343 -0.7619 -0.5570
 5098SOL    HW226931   3.172   2.371  17.148 -0.4076 -1.7627  1.7190
 5099SOL     OW26932   1.001   2.270   7.043  0.4643  0.5061  0.3987
 5099SOL    HW126933   1.002   2.187   7.090 -2.1995  0.0078 -0.4333
 5099SOL    HW226934   1.092   2.299   7.047  0.2204  1.4647 -0.6890
 5100SOL     OW26935   2.704   3.579   1.745 -0.2570  0.0336 -0.4826
 5100SOL    HW126936   2.760   3.501   1.748  0.1726  0.3553 -0.0082
 5100SOL    HW226937   2.622   3.539   1.774  0.2620  0.7890  2.0160
 5101SOL     OW26938   0.458   4.352   3.123 -0.3473 -0.4598 -0.4212
 5101SOL    HW126939   0.373   4.360   3.167 -0.4562 -3.4953 -0.0798
 5101SOL    HW226940   0.452   4.417   3.053  0.6547  0.6943  0.5577
 5102SOL     OW26941   4.129   1.392   2.083  0.4886  0.7105 -0.5091
 5102SOL    HW126942   4.211   1.389   2.132  1.9223  0.7621 -2.8834
 5102SOL    HW226943   4.068   1.357   2.148  1.8829  0.9115  0.8977
 5103SOL     OW26944   2.979   0.635  16.296  0.2236  0.0434  0.1546
 5103SOL    HW126945   3.040   0.681  16.238  2.7899 -1.0078  1.9797
 5103SOL    HW226946   3.005   0.696  16.365  0.8229  0.6974 -0.6446
 5104SOL     OW26947   3.700   3.364   2.639  0.1446 -0.0823  0.0405
 5104SOL    HW126948   3.788   3.338   2.612  0.6430  0.0921  1.4979
 5104SOL    HW226949   3.714   3.361   2.734 -1.2105 -2.5922  0.1444
 5105SOL     OW26950   3.869   2.972   3.892 -0.4955 -0.3362 -0.3726
 5105SOL    HW126951   3.928   3.045   3.875  0.6470 -1.6800 -2.2659
 5105SOL    HW226952   3.930   2.909   3.931 -0.4197 -1.8765 -2.9741
 5106SOL     OW26953   2.654   1.583   1.944 -0.0607 -0.3159  0.2957
 5106SOL    HW126954   2.610   1.649   1.890 -2.4683  0.0933  2.7828
 5106SOL    HW226955   2.611   1.505   1.909 -1.9791  1.0772 -0.4645
 5107SOL     OW26956   4.334   1.771  11.349 -0.8891 -0.4611 -1.0041
 5107SOL    HW126957   4.252   1.790  11.395 -0.4698  1.0408 -0.8680
 5107SOL    HW226958   4.348   1.861  11.318  1.1466  0.0724  1.4768
 5108SOL     OW26959   3.898   1.799  17.726 -0.4695  0.1648 -0.4241
 5108SOL    HW126960   3.882   1.712  17.763  1.7126 -0.2764 -0.5106
 5108SOL    HW226961   3.945   1.776  17.646  0.8771 -0.4126  0.5337
 5109SOL     OW26962   0.268   2.409   8.788 -0.5173 -0.0653  0.0283
 5109SOL    HW126963   0.268   2.329   8.737 -0.7630  1.4303 -2.3070
 5109SOL    HW226964   0.232   2.480   8.735 -0.8927  0.2103  0.6387
 5110SOL     OW26965   4.181   2.206  11.442  0.7757 -0.3218 -0.1584
 5110SOL    HW126966   4.108   2.145  11.446 -0.8769  1.7105  0.9519
 5110SOL    HW226967   4.133   2.290  11.445 -1.6500 -1.7086 -0.1288
 5111SOL     OW26968   3.691   4.067   8.077 -0.1345  0.0992 -0.0887
 5111SOL    HW126969   3.685   3.994   8.138  1.0282 -0.1158 -0.2308
 5111SOL    HW226970   3.689   4.019   7.994 -2.0344  0.7659 -0.4573
 5112SOL     OW26971   3.778   3.842   9.787  0.5126  0.6237  0.0345
 5112SOL    HW126972   3.688   3.828   9.756 -0.5734  0.5826  3.2016
 5112SOL    HW226973   3.770   3.910   9.853 -0.4841 -2.2564  2.8889
 5113SOL     OW26974   1.111   2.400   5.431 -0.1621  0.6104  0.0480
 5113SOL    HW126975   1.142   2.392   5.341 -1.5412  3.6301 -0.7100
 5113SOL    HW226976   1.040   2.338   5.447  0.1981  0.0891 -0.3820
 5114SOL     OW26977   2.702   1.708   5.857  0.5038 -0.2171 -0.4156
 5114SOL    HW126978   2.723   1.799   5.840  0.4389 -0.0547  0.3789
 5114SOL    HW226979   2.607   1.704   5.856  0.4861  0.2142  0.2095
 5115SOL     OW26980   1.352   0.423  10.747 -0.1959  0.8116 -0.9355
 5115SOL    HW126981   1.416   0.359  10.777 -0.1465  0.6434 -1.4082
 5115SOL    HW226982   1.395   0.443  10.664  2.5162 -1.6148 -0.1015
 5116SOL     OW26983   4.643   2.531   2.269 -0.4947  0.1282  0.5305
 5116SOL    HW126984   4.639   2.476   2.191  0.1957 -1.1674  1.4104
 5116SOL    HW226985   4.689   2.472   2.328 -0.5186  1.1213  1.5555
 5117SOL     OW26986   1.299   3.237   7.803 -0.5034 -0.1358 -0.1399
 5117SOL    HW126987   1.281   3.213   7.712  0.9767  0.1845 -0.5252
 5117SOL    HW226988   1.254   3.321   7.802  1.5713  0.9982  0.6491
 5118SOL     OW26989   2.636   4.717   2.998 -0.2757 -0.2221  0.0127
 5118SOL    HW126990   2.598   4.691   2.915 -0.6518  1.7032 -0.4045
 5118SOL    HW226991   2.618   0.066   3.006 -4.2769 -1.0313  0.1365
 5119SOL     OW26992   1.220   1.370  13.824  0.2321  0.5654 -0.4292
 5119SOL    HW126993   1.290   1.305  13.822 -1.7956 -1.6986  3.2416
 5119SOL    HW226994   1.168   1.358  13.904 -0.0593 -1.0613 -0.8729
 5120SOL     OW26995   0.759   2.059   2.038 -0.3076 -0.1134  0.1632
 5120SOL    HW126996   0.822   2.114   2.084 -1.6481  2.0139 -0.5485
 5120SOL    HW226997   0.808   1.990   1.993  1.5636  1.8210 -0.7361
 5121SOL     OW26998   4.601   3.604   3.392 -0.2060 -0.5077  0.1227
 5121SOL    HW126999   4.690   3.632   3.410  0.2649 -0.1965 -2.6827
 5121SOL    HW227000   4.611   3.551   3.313 -0.1318 -0.2622 -0.0333
 5122SOL     OW27001   0.960   0.975   4.404  0.0919 -0.1581  0.9282
 5122SOL    HW127002   0.954   0.883   4.428 -1.1154 -0.5012 -0.7535
 5122SOL    HW227003   1.010   0.977   4.323 -3.0026  0.6762 -0.9209
 5123SOL     OW27004   0.342   0.970   1.395 -0.0450  0.0461  0.7090
 5123SOL    HW127005   0.272   0.962   1.331  1.0127 -2.8363 -0.0680
 5123SOL    HW227006   0.405   0.908   1.361 -0.4484  0.6702 -1.1577
 5124SOL     OW27007   4.137   0.553   3.891 -0.1589 -0.7127 -0.3354
 5124SOL    HW127008   4.107   0.539   3.981 -2.0688  0.7797 -0.7382
 5124SOL    HW227009   4.228   0.579   3.909 -0.2624 -0.7870  0.3018
 5125SOL     OW27010   0.417   4.229   5.950 -0.3398 -0.2959  0.1048
 5125SOL    HW127011   0.344   4.190   5.997 -0.1057 -0.4843  0.3099
 5125SOL    HW227012   0.457   4.296   6.005  1.7405 -1.4036 -0.0685
 5126SOL     OW27013   2.713   2.459   6.471 -0.1812 -0.1429 -0.4393
 5126SOL    HW127014   2.684   2.410   6.548  0.9623  0.5405  0.4246
 5126SOL    HW227015   2.659   2.427   6.399 -1.6535 -1.5845  1.2959
 5127SOL     OW27016   1.908   0.675   2.405  0.2531  0.0023 -0.1850
 5127SOL    HW127017   1.860   0.603   2.364 -0.3376  0.9151 -1.0942
 5127SOL    HW227018   1.991   0.664   2.359  1.2971  0.1493  1.6606
 5128SOL     OW27019   2.658   2.423  12.640 -0.0972 -0.1095 -0.3142
 5128SOL    HW127020   2.734   2.364  12.644 -0.1374  0.0823  3.2182
 5128SOL    HW227021   2.585   2.363  12.657  1.0988 -1.4010  0.3292
 5129SOL     OW27022   0.896   1.546   8.461  0.1197 -0.7077  0.1921
 5129SOL    HW127023   0.945   1.565   8.381 -0.6648  2.5966  0.4811
 5129SOL    HW227024   0.837   1.472   8.446  0.2136 -0.4945 -1.2648
 5130SOL     OW27025   4.501   4.293   1.540  0.1978 -0.2600  0.0462
 5130SOL    HW127026   4.500   4.240   1.619  0.5914  0.7296  0.7101
 5130SOL    HW227027   4.441   4.243   1.485 -0.4562  1.5338 -0.8621
 5131SOL     OW27028   4.097   3.443   4.503  0.2131 -0.0265 -0.0437
 5131SOL    HW127029   4.042   3.484   4.570  1.3924  0.6196  0.5362
 5131SOL    HW227030   4.166   3.413   4.563 -0.7952  1.2047  1.7006
 5132SOL     OW27031   4.303   1.789   6.696  0.4840  0.4384  0.1626
 5132SOL    HW127032   4.385   1.834   6.680  0.6479 -0.1315 -0.5904
 5132SOL    HW227033   4.241   1.863   6.695 -0.1933 -0.0929  2.3778
 5133SOL     OW27034   0.641   1.576   0.093  0.5901 -0.1689  0.4183
 5133SOL    HW127035   0.617   1.591   0.184  2.1159  0.2980  0.7420
 5133SOL    HW227036   0.630   1.663   0.054  1.5598 -0.5516 -0.7325
 5134SOL     OW27037   1.439   3.389   0.258  0.2876 -0.0077 -0.0281
 5134SOL    HW127038   1.427   3.412   0.350 -0.1205 -2.4720  0.5166
 5134SOL    HW227039   1.390   3.456   0.210  1.7945  0.1059 -1.4113
 5135SOL     OW27040   4.399   4.400   0.336  0.3469  0.0012  0.1765
 5135SOL    HW127041   4.372   4.356   0.416 -0.3491  1.4600  0.7408
 5135SOL    HW227042   4.493   4.384   0.341  0.1003 -1.8717 -0.8246
 5136SOL     OW27043   4.439   3.884   2.057 -0.2036 -0.1504  0.1504
 5136SOL    HW127044   4.415   3.926   1.974 -2.0347  2.2112  1.8870
 5136SOL    HW227045   4.357   3.837   2.076 -0.1334 -1.1737 -2.0842
 5137SOL     OW27046   4.458   3.785   0.911  1.0436 -0.1498  0.2577
 5137SOL    HW127047   4.441   3.762   0.820 -0.1202  0.0641  0.4224
 5137SOL    HW227048   4.509   3.710   0.939  0.0136 -1.7892 -2.2713
 5138SOL     OW27049   3.700   0.290  13.118 -0.0761  0.8551  0.7488
 5138SOL    HW127050   3.761   0.347  13.166  2.1910 -0.5595 -0.4868
 5138SOL    HW227051   3.733   0.202  13.133  2.2704  1.6181 -0.0297
 5139SOL     OW27052   3.444   1.760   7.359 -0.3185 -0.3225  0.0028
 5139SOL    HW127053   3.484   1.700   7.422  1.5317 -0.8817 -1.7399
 5139SOL    HW227054   3.457   1.709   7.279 -0.5011  0.3988 -0.4853
 5140SOL     OW27055   0.488   4.577   9.169 -0.0263  0.3887 -0.1407
 5140SOL    HW127056   0.422   4.518   9.205  1.8213 -1.4083  0.3271
 5140SOL    HW227057   0.528   4.517   9.106 -1.3290  0.7738 -1.3399
 5141SOL     OW27058   0.871   3.554   5.249 -0.1066 -0.3495  0.2634
 5141SOL    HW127059   0.865   3.630   5.307 -0.7038  0.4266 -0.8187
 5141SOL    HW227060   0.884   3.488   5.318  0.9727  1.5945  1.9046
 5142SOL     OW27061   3.022   0.617   1.066 -0.0072  0.2511 -0.1649
 5142SOL    HW127062   2.932   0.648   1.078 -0.4942 -0.8495 -1.0665
 5142SOL    HW227063   3.014   0.527   1.098 -0.6532  0.5462  0.4957
 5143SOL     OW27064   2.974   0.551   5.953  0.3310  0.1228 -0.2287
 5143SOL    HW127065   2.925   0.633   5.953  0.5076  0.2192  1.2749
 5143SOL    HW227066   3.037   0.576   5.885  0.9109  0.2862  0.3746
 5144SOL     OW27067   1.172   3.712  16.390 -0.2001  0.7233 -0.5617
 5144SOL    HW127068   1.241   3.674  16.444 -0.4352 -0.6478 -1.2197
 5144SOL    HW227069   1.139   3.794  16.426 -2.2774 -0.2968 -0.1421
 5145SOL     OW27070   0.422   3.089   2.681  0.8768 -0.3108 -0.3564
 5145SOL    HW127071   0.481   3.045   2.743  0.9846 -0.8097 -0.8151
 5145SOL    HW227072   0.450   3.064   2.594  0.6477 -1.4777 -0.0923
 5146SOL     OW27073   1.085   2.998   8.377  0.0468  0.9943  0.0229
 5146SOL    HW127074   1.013   2.939   8.354  1.2492  0.0637 -1.3620
 5146SOL    HW227075   1.102   2.965   8.465  2.2382  1.6618 -0.1509
 5147SOL     OW27076   3.395   1.643   5.282 -0.0536 -0.0664  0.2304
 5147SOL    HW127077   3.357   1.722   5.244 -1.5583 -1.1897 -0.5811
 5147SOL    HW227078   3.369   1.583   5.212  2.1164 -2.6234  1.5668
 5148SOL     OW27079   3.289   3.223   9.399 -0.5299  0.1020 -0.4178
 5148SOL    HW127080   3.322   3.303   9.440  0.2761 -0.0870 -0.7110
 5148SOL    HW227081   3.243   3.188   9.476  0.0156  2.2307  0.8854
 5149SOL     OW27082   3.818   0.456   2.130 -0.0627  0.2398 -0.0457
 5149SOL    HW127083   3.886   0.503   2.179  1.0020 -1.5681  0.1914
 5149SOL    HW227084   3.828   0.374   2.178  2.2564  1.8965  2.3343
 5150SOL     OW27085   4.362   0.541   5.826 -0.3117  0.1465 -0.1889
 5150SOL    HW127086   4.440   0.488   5.841 -1.0248 -1.2410 -1.3923
 5150SOL    HW227087   4.335   0.475   5.763 -2.4395 -0.9909  1.9527
 5151SOL     OW27088   1.141   3.485  14.146  0.2367 -0.0272  0.2043
 5151SOL    HW127089   1.049   3.474  14.170  0.2435  0.8040  0.6038
 5151SOL    HW227090   1.153   3.578  14.126  1.3788 -0.3258 -0.5546
 5152SOL     OW27091   3.138   1.805   2.877 -0.0236 -0.2815  0.1553
 5152SOL    HW127092   3.061   1.749   2.864  1.2672 -2.0970  0.2251
 5152SOL    HW227093   3.143   1.810   2.972  0.9853 -0.6680  0.1266
 5153SOL     OW27094   2.991   2.921   8.835 -0.5571  0.0676 -0.1667
 5153SOL    HW127095   2.963   3.002   8.878  1.0795 -0.1750  1.3251
 5153SOL    HW227096   2.905   2.889   8.806 -0.3761 -2.1551  1.7356
 5154SOL     OW27097   1.686   0.595  10.871 -0.1819 -0.3446 -0.7549
 5154SOL    HW127098   1.642   0.588  10.956  1.8652 -1.5687  0.1892
 5154SOL    HW227099   1.767   0.635  10.901  0.8335 -2.3537 -0.7955
 5155SOL     OW27100   3.833   1.129  12.083 -0.2278  0.2800 -0.2783
 5155SOL    HW127101   3.897   1.151  12.015  1.2501 -0.5973  0.8234
 5155SOL    HW227102   3.864   1.193  12.147 -2.5418  0.6484  0.4828
 5156SOL     OW27103   3.080   4.153   4.496  0.2750 -0.5031  0.1638
 5156SOL    HW127104   3.104   4.244   4.485 -0.9787  0.0214  1.7464
 5156SOL    HW227105   3.011   4.164   4.561 -1.6386 -0.1713 -1.9154
 5157SOL     OW27106   4.576   0.850   2.834 -0.1734 -0.1246 -0.2669
 5157SOL    HW127107   4.580   0.913   2.906 -2.2731  0.4058 -0.6185
 5157SOL    HW227108   4.508   0.784   2.845  0.2231 -0.4076  0.5130
 5158SOL     OW27109   2.434   4.437   4.594  0.1976 -0.3377  0.3640
 5158SOL    HW127110   2.435   4.387   4.513  1.4520 -1.8230  1.2913
 5158SOL    HW227111   2.498   4.401   4.656 -0.4016  0.2658  1.3340
 5159SOL     OW27112   1.804   3.051   4.768 -0.5648  0.0143 -0.1048
 5159SOL    HW127113   1.779   3.009   4.686 -1.0648  1.9553 -0.9430
 5159SOL    HW227114   1.899   3.044   4.773 -0.4927  1.7805  1.1413
 5160SOL     OW27115   0.893   0.041   4.857 -0.2770 -0.7577  0.2645
 5160SOL    HW127116   0.904   0.128   4.819  0.9119 -0.1957  1.8719
 5160SOL    HW227117   0.965   4.730   4.825  0.9214  2.9028 -3.3310
 5161SOL     OW27118   2.265   2.791   9.994 -0.0207 -0.0197 -0.5790
 5161SOL    HW127119   2.201   2.729   9.960 -1.9365  0.6275  1.8722
 5161SOL    HW227120   2.334   2.725  10.006  1.9501  2.0029 -0.7454
 5162SOL     OW27121   4.209   2.814   1.351 -0.3953 -0.5249 -0.4203
 5162SOL    HW127122   4.240   2.824   1.261 -0.2173  1.0365 -0.1767
 5162SOL    HW227123   4.288   2.830   1.403  1.0843 -0.4111 -2.7131
 5163SOL     OW27124   4.396   1.480   4.789  0.4070  0.0953 -0.2695
 5163SOL    HW127125   4.384   1.462   4.882  1.4886 -1.9688 -0.5217
 5163SOL    HW227126   4.314   1.527   4.776  0.4207  0.3800  0.6819
 5164SOL     OW27127   2.679   2.629   5.839  0.4201 -0.0686 -0.4230
 5164SOL    HW127128   2.655   2.539   5.816 -0.8640  0.4223 -1.0221
 5164SOL    HW227129   2.764   2.631   5.882 -0.0920 -0.3599  0.5948
 5165SOL     OW27130   3.690   3.638  10.182  0.3479 -0.3375  0.1065
 5165SOL    HW127131   3.667   3.572  10.118  0.5084  2.2901 -2.6744
 5165SOL    HW227132   3.783   3.658  10.166  0.8337 -1.3978  1.6085
 5166SOL     OW27133   0.009   1.775   7.689  0.5876  0.5469  0.1314
 5166SOL    HW127134   0.060   1.735   7.618 -0.7379  0.8139 -0.9770
 5166SOL    HW227135   0.032   1.713   7.758 -0.8967 -0.1225  0.0253
 5167SOL     OW27136   0.430   4.463   8.446  0.6305 -0.3898  0.1978
 5167SOL    HW127137   0.511   4.426   8.481  1.0595  1.5040  1.1763
 5167SOL    HW227138   0.442   4.557   8.442 -0.9305 -0.2580 -1.6572
 5168SOL     OW27139   1.388   2.653   6.861 -0.0937  0.0055  0.7006
 5168SOL    HW127140   1.454   2.587   6.840 -0.9820 -0.8900  0.6875
 5168SOL    HW227141   1.387   2.668   6.956 -0.1148  0.1492  0.6778
 5169SOL     OW27142   3.766   0.979   2.513  0.2873 -0.3966 -0.4010
 5169SOL    HW127143   3.742   0.889   2.492  0.8071 -0.8839  1.0699
 5169SOL    HW227144   3.750   1.019   2.428  0.6671  1.3657  0.3561
 5170SOL     OW27145   1.972   2.155   6.700 -0.1099 -0.5875  0.2823
 5170SOL    HW127146   2.040   2.096   6.667  1.7774  1.9502 -0.3782
 5170SOL    HW227147   1.966   2.227   6.637 -3.6374 -1.2010 -0.0773
 5171SOL     OW27148   1.853   2.125   4.265 -0.3859  0.5803 -0.0228
 5171SOL    HW127149   1.825   2.070   4.337  0.3732 -0.4885 -0.5489
 5171SOL    HW227150   1.804   2.202   4.296 -0.9618  0.3005 -0.2318
 5172SOL     OW27151   1.734   4.189   3.091 -0.4591  0.0213 -0.2488
 5172SOL    HW127152   1.785   4.171   3.012  0.7350  2.5666 -0.0654
 5172SOL    HW227153   1.774   4.272   3.117  2.2670 -1.4600  0.2611
 5173SOL     OW27154   0.533   1.451   8.712  0.6463  0.2574  0.6160
 5173SOL    HW127155   0.558   1.539   8.741  2.3236 -0.5232  1.5464
 5173SOL    HW227156   0.583   1.385   8.761 -0.1494 -0.5161  0.3842
 5174SOL     OW27157   4.735   2.025  13.204 -0.1306  0.1168 -0.7247
 5174SOL    HW127158   0.066   2.065  13.160  0.5150 -0.9442 -0.5857
 5174SOL    HW227159   4.695   2.097  13.253  0.3616  0.2241 -0.4811
 5175SOL     OW27160   1.219   1.959   4.700 -0.3935 -0.3522 -0.6699
 5175SOL    HW127161   1.147   1.947   4.761  0.6992 -0.6087  0.5813
 5175SOL    HW227162   1.275   1.885   4.723  2.1112  1.5447 -0.5422
 5176SOL     OW27163   3.971   1.875   3.298  0.2746 -0.2346 -0.2612
 5176SOL    HW127164   4.023   1.794   3.299  1.3178  0.4307 -0.6887
 5176SOL    HW227165   3.918   1.868   3.218  0.9275 -0.0291 -0.7158
 5177SOL     OW27166   3.915   0.842   3.913 -0.0553 -0.5044  0.1242
 5177SOL    HW127167   3.951   0.842   3.824 -0.6432  1.0007 -0.1097
 5177SOL    HW227168   3.991   0.884   3.952 -1.1803  2.9820 -1.4954
 5178SOL     OW27169   0.451   0.104  12.465 -0.0665 -0.3065 -0.0222
 5178SOL    HW127170   0.387   0.093  12.394  1.2952  1.5507 -1.5395
 5178SOL    HW227171   0.521   0.041  12.451 -0.0110 -0.0693 -0.8260
 5179SOL     OW27172   4.045   3.392   7.311 -0.1186 -0.0554 -0.8921
 5179SOL    HW127173   3.963   3.400   7.262  0.3773 -0.4632 -1.7686
 5179SOL    HW227174   4.059   3.299   7.297  1.9434  0.2668 -0.9100
 5180SOL     OW27175   1.204   1.000   6.756 -0.0647  0.3634  0.3076
 5180SOL    HW127176   1.251   1.046   6.687 -0.3014  0.3402  0.1280
 5180SOL    HW227177   1.271   0.967   6.816 -0.9517  1.6340  2.0170
 5181SOL     OW27178   0.123   2.097  15.262 -0.0299 -0.1311 -0.0547
 5181SOL    HW127179   0.198   2.141  15.223 -0.6207 -0.4850 -1.6031
 5181SOL    HW227180   0.043   2.146  15.241 -0.3919 -0.3186  0.8718
 5182SOL     OW27181   2.602   0.602   5.953  0.3404 -0.7302 -0.2112
 5182SOL    HW127182   2.560   0.675   6.000 -0.8221 -0.2757 -1.9497
 5182SOL    HW227183   2.692   0.631   5.964 -0.5528  2.6478 -1.6120
 5183SOL     OW27184   3.871   0.935   8.794  0.4347 -0.4569 -0.7004
 5183SOL    HW127185   3.903   0.876   8.862 -1.2441 -3.8195 -2.8187
 5183SOL    HW227186   3.933   0.906   8.727  1.6197  0.7096 -0.1049
 5184SOL     OW27187   0.805   4.119   6.583 -0.1758  0.3345 -0.5974
 5184SOL    HW127188   0.747   4.077   6.519 -1.9779  0.4405  0.9714
 5184SOL    HW227189   0.735   4.164   6.629  0.5300  0.2450  0.5687
 5185SOL     OW27190   0.518   2.224   8.667  0.1412 -0.4384 -0.4244
 5185SOL    HW127191   0.530   2.131   8.652  0.0156 -0.4742 -0.2989
 5185SOL    HW227192   0.423   2.221   8.679  0.0337  2.1082 -0.4531
 5186SOL     OW27193   0.552   1.391   6.843 -0.1747  0.4905 -0.2537
 5186SOL    HW127194   0.527   1.299   6.849  1.2079  0.1265  0.0352
 5186SOL    HW227195   0.529   1.430   6.927 -0.0851  1.0915 -0.5057
 5187SOL     OW27196   2.301   3.146   3.894 -0.2930 -0.1393 -0.8060
 5187SOL    HW127197   2.244   3.071   3.912  0.8362 -0.8096 -0.0182
 5187SOL    HW227198   2.340   3.112   3.813 -0.6224 -2.2626 -0.0718
 5188SOL     OW27199   4.562   0.375   9.997  0.0567  0.3945  0.1893
 5188SOL    HW127200   4.590   0.382  10.089 -1.7309  0.7333  0.6972
 5188SOL    HW227201   4.541   0.282   9.988  2.3306 -0.2594  1.4496
 5189SOL     OW27202   3.531   3.567   1.475  0.0958 -0.3543 -0.0228
 5189SOL    HW127203   3.523   3.539   1.566  0.5593 -0.6662 -0.0775
 5189SOL    HW227204   3.626   3.553   1.467  0.3143  0.3148  1.3700
 5190SOL     OW27205   1.754   4.546   2.712  0.5246  0.0457 -0.6686
 5190SOL    HW127206   1.821   4.478   2.717  0.9231  0.2488 -3.1555
 5190SOL    HW227207   1.761   4.569   2.619 -2.1731 -0.1574 -0.9242
 5191SOL     OW27208   4.511   2.092   4.105 -1.0079  0.5077 -0.8132
 5191SOL    HW127209   4.494   2.076   4.012 -1.2996 -1.4621 -0.4214
 5191SOL    HW227210   4.553   2.177   4.092  0.3535  0.0646  0.6658
 5192SOL     OW27211   2.630   2.019   3.006 -0.2231 -0.1401  0.2929
 5192SOL    HW127212   2.664   2.107   2.991 -2.2670  0.4070 -1.1633
 5192SOL    HW227213   2.586   1.993   2.925  0.5910 -0.0621 -0.1750
 5193SOL     OW27214   3.790   4.193   3.544 -0.4672  0.0835 -0.2072
 5193SOL    HW127215   3.866   4.246   3.568  1.7268 -1.7461 -2.8939
 5193SOL    HW227216   3.832   4.135   3.479 -0.2609  1.4330 -1.2672
 5194SOL     OW27217   4.212   3.212   2.950 -0.0637  0.3285  0.0984
 5194SOL    HW127218   4.210   3.214   2.854  0.5508  0.7086  0.0855
 5194SOL    HW227219   4.251   3.126   2.967  0.6707  0.4498 -0.9259
 5195SOL     OW27220   1.213   2.097   8.233 -0.3423  0.0673  0.5216
 5195SOL    HW127221   1.181   2.155   8.164  1.9614 -0.2509 -0.8187
 5195SOL    HW227222   1.171   2.136   8.309 -1.4299 -1.5418  0.7407
 5196SOL     OW27223   4.071   0.223   9.446  0.2371 -0.1189 -0.3681
 5196SOL    HW127224   3.984   0.265   9.446 -0.1596 -0.9734  1.2648
 5196SOL    HW227225   4.048   0.135   9.416 -2.8354  0.5234  0.0877
 5197SOL     OW27226   1.046   1.619   5.084 -0.1267 -0.4324  0.4653
 5197SOL    HW127227   1.083   1.670   5.156 -1.4310  3.0643 -1.3655
 5197SOL    HW227228   0.966   1.573   5.109 -0.0279 -0.7116  0.2714
 5198SOL     OW27229   0.201   3.775   7.462 -0.0402 -0.5250  1.1879
 5198SOL    HW127230   0.145   3.829   7.518  2.3276  2.8818  0.2546
 5198SOL    HW227231   0.179   3.687   7.494  0.1687 -0.5274  1.3266
 5199SOL     OW27232   2.559   3.440   5.851 -0.8126 -0.6715 -0.0185
 5199SOL    HW127233   2.579   3.435   5.945 -3.4001  0.4443  0.6076
 5199SOL    HW227234   2.610   3.511   5.814  0.9907 -2.8761 -1.7447
 5200SOL     OW27235   1.320   0.400   4.795  0.6046  0.4622  0.8362
 5200SOL    HW127236   1.356   0.452   4.723 -0.8811 -0.5822 -0.6538
 5200SOL    HW227237   1.353   0.313   4.771 -1.0781  0.2111 -0.5391
 5201SOL     OW27238   2.295   0.832  15.498  0.2130  0.1502 -0.5297
 5201SOL    HW127239   2.233   0.835  15.571  0.0983 -1.6440 -0.5604
 5201SOL    HW227240   2.365   0.789  15.548  0.4578  0.6924 -0.3933
 5202SOL     OW27241   0.910   1.289   5.970 -0.2206 -0.2324  0.0857
 5202SOL    HW127242   0.816   1.276   5.984 -0.4634  0.7114 -0.6462
 5202SOL    HW227243   0.947   1.209   6.008 -0.2964 -0.4024 -0.2039
 5203SOL     OW27244   1.798   4.705   4.670  0.3955 -0.2425 -0.0196
 5203SOL    HW127245   1.770   0.052   4.683 -0.6987 -0.2700 -2.2260
 5203SOL    HW227246   1.880   4.716   4.718 -0.1104 -2.1284  1.3088
 5204SOL     OW27247   1.679   0.977   5.049  0.5848  0.0087 -0.6274
 5204SOL    HW127248   1.628   1.040   5.099  0.4440  0.6909 -1.6406
 5204SOL    HW227249   1.654   0.895   5.092  3.2034  0.1911  1.2322
 5205SOL     OW27250   2.181   2.328   5.658 -0.1226 -0.5856 -0.0559
 5205SOL    HW127251   2.233   2.370   5.590  1.4438 -0.5546  1.1500
 5205SOL    HW227252   2.217   2.376   5.732  1.2575  0.5628 -1.4867
 5206SOL     OW27253   4.233   1.383   9.415  0.2992 -0.2616  0.4944
 5206SOL    HW127254   4.293   1.446   9.374  0.8221 -1.2978 -0.3202
 5206SOL    HW227255   4.177   1.443   9.465 -0.5702  1.4407 -2.5066
 5207SOL     OW27256   1.062   2.887   2.929  0.2463  0.1055 -0.1546
 5207SOL    HW127257   1.083   2.814   2.871 -0.0907 -0.1719  0.0727
 5207SOL    HW227258   1.132   2.950   2.917 -1.9726  2.7970  1.0928
 5208SOL     OW27259   1.731   1.068   2.408  0.3004 -0.3011  0.1913
 5208SOL    HW127260   1.763   1.039   2.322 -1.6493  1.0704 -0.9900
 5208SOL    HW227261   1.637   1.070   2.389  0.4119 -0.9775 -0.4445
 5209SOL     OW27262   2.603   0.414   5.773  0.1113 -0.0745  0.1100
 5209SOL    HW127263   2.616   0.463   5.854  0.0900 -2.2448  1.4422
 5209SOL    HW227264   2.593   0.484   5.709  4.0690 -0.3069 -0.7621
 5210SOL     OW27265   3.724   1.888   1.045  0.1747  0.0484  0.1606
 5210SOL    HW127266   3.651   1.935   1.083 -0.7225 -1.6841  0.5725
 5210SOL    HW227267   3.782   1.960   1.019  0.5525  0.2417  1.5682
 5211SOL     OW27268   4.393   0.840  15.139 -0.0795 -0.0162 -0.0665
 5211SOL    HW127269   4.419   0.771  15.200 -1.8370  0.9462  1.7582
 5211SOL    HW227270   4.307   0.868  15.170  0.2966  2.5386 -1.3591
 5212SOL     OW27271   4.363   2.139   6.773 -0.2733  0.1720  0.3608
 5212SOL    HW127272   4.371   2.185   6.689 -0.7988 -1.7693 -0.7539
 5212SOL    HW227273   4.425   2.068   6.754  1.6594  1.8966  0.2965
 5213SOL     OW27274   4.195   1.190   0.467 -0.8367 -0.0659  0.0470
 5213SOL    HW127275   4.263   1.245   0.506 -1.3688 -0.8571  2.0335
 5213SOL    HW227276   4.174   1.242   0.389 -0.5655  1.9955  1.3595
 5214SOL     OW27277   1.883   0.346   8.674 -0.2970 -0.7741  0.3487
 5214SOL    HW127278   1.843   0.422   8.633 -0.7108 -0.9870  0.3552
 5214SOL    HW227279   1.859   0.365   8.765  0.7098  1.0006  0.2328
 5215SOL     OW27280   2.633   3.152  10.779  0.2457  0.0918  0.1471
 5215SOL    HW127281   2.721   3.155  10.815  0.4130 -0.5601 -0.2110
 5215SOL    HW227282   2.644   3.195  10.694 -1.1274  0.6074  0.2280
 5216SOL     OW27283   2.825   0.191   2.602 -0.4018 -0.1588 -0.1129
 5216SOL    HW127284   2.808   0.100   2.622 -0.9922 -0.1256 -0.4785
 5216SOL    HW227285   2.784   0.196   2.515  2.7462 -0.0910 -1.6145
 5217SOL     OW27286   2.087   4.013   4.861 -0.2686 -0.0702 -0.1145
 5217SOL    HW127287   2.114   3.989   4.772  0.0771 -1.0586  0.2594
 5217SOL    HW227288   2.007   3.962   4.875  0.6554 -1.3423  0.5192
 5218SOL     OW27289   0.355   2.028  10.895  0.7388  0.0012 -0.3054
 5218SOL    HW127290   0.429   2.054  10.949 -1.3922  0.8823  2.1746
 5218SOL    HW227291   0.375   1.936  10.882 -0.8773 -0.1496 -1.7468
 5219SOL     OW27292   3.149   0.412   3.470  0.9506  0.1518  0.3339
 5219SOL    HW127293   3.070   0.424   3.521 -0.7808 -1.6581 -1.9019
 5219SOL    HW227294   3.120   0.340   3.413  0.6548 -1.9930  3.2166
 5220SOL     OW27295   0.910   1.370   9.004  0.4395  0.1706  0.0547
 5220SOL    HW127296   0.846   1.436   9.032  1.4162  0.5128  1.4694
 5220SOL    HW227297   0.920   1.329   9.090  1.0285 -3.1102 -1.5888
 5221SOL     OW27298   1.843   3.688  16.249 -0.7038 -0.1405 -0.4489
 5221SOL    HW127299   1.827   3.634  16.172 -0.1162 -0.1719 -0.5481
 5221SOL    HW227300   1.938   3.696  16.245 -0.5721 -1.5678 -0.2983
 5222SOL     OW27301   1.533   4.721  13.374 -0.0247  0.2448  0.1025
 5222SOL    HW127302   1.572   4.715  13.286  2.0450  0.9532  0.9713
 5222SOL    HW227303   1.485   0.059  13.368  2.5543  1.6688 -1.5336
 5223SOL     OW27304   1.248   2.499   7.453  0.0410  0.2151 -0.6536
 5223SOL    HW127305   1.251   2.442   7.376  1.0667 -0.7010  0.0783
 5223SOL    HW227306   1.343   2.503   7.455  0.0008  1.8298 -1.9198
 5224SOL     OW27307   4.692   0.992   6.901  0.2312 -0.1844 -0.2251
 5224SOL    HW127308   4.665   1.076   6.939  1.1166  0.6603 -1.4615
 5224SOL    HW227309   4.742   1.026   6.826  2.0533 -0.8951  0.6570
 5225SOL     OW27310   3.220   1.294   7.407  0.3655  0.0737  0.5108
 5225SOL    HW127311   3.236   1.278   7.314  3.4255  0.1873  1.0201
 5225SOL    HW227312   3.306   1.278   7.446 -0.1320 -0.8120  1.2243
 5226SOL     OW27313   0.741   1.949   7.623  0.2319 -0.0708  0.4107
 5226SOL    HW127314   0.773   2.038   7.610 -1.2069  0.2763 -0.9204
 5226SOL    HW227315   0.667   1.938   7.562 -0.5833 -3.7691  2.0854
 5227SOL     OW27316   0.947   0.840  16.981  0.4971 -0.4861 -0.7038
 5227SOL    HW127317   1.036   0.875  16.984  0.7734 -1.3096  1.3131
 5227SOL    HW227318   0.923   0.862  17.071  0.2297 -3.2715 -0.0754
 5228SOL     OW27319   0.596   1.365  15.962 -0.0479 -0.4162  0.4219
 5228SOL    HW127320   0.678   1.409  15.988 -0.7670  2.2758 -1.8202
 5228SOL    HW227321   0.559   1.345  16.048 -2.5030 -1.6817 -0.9384
 5229SOL     OW27322   4.381   1.535   6.249  0.0161  0.0001 -0.0703
 5229SOL    HW127323   4.361   1.550   6.342 -2.2154 -0.0394 -0.5578
 5229SOL    HW227324   4.427   1.619   6.236 -0.6152 -0.0007 -2.3383
 5230SOL     OW27325   3.316   0.570   9.345  0.2715  0.3683  0.5254
 5230SOL    HW127326   3.255   0.540   9.412 -1.7826  0.8394 -1.1306
 5230SOL    HW227327   3.303   0.505   9.276  0.4870 -0.1766  0.9965
 5231SOL     OW27328   1.734   2.379   7.841 -0.2210 -0.2617 -0.3132
 5231SOL    HW127329   1.798   2.440   7.805  0.4163 -0.6795  0.1205
 5231SOL    HW227330   1.769   2.371   7.929  0.7387  1.7420 -0.5169
 5232SOL     OW27331   3.530   0.923  14.751  0.4960  0.1470  0.3755
 5232SOL    HW127332   3.611   0.927  14.803  0.3031 -0.2228  0.7050
 5232SOL    HW227333   3.530   0.829  14.732  3.7511  0.7504 -2.6843
 5233SOL     OW27334   4.687   4.430   9.256 -0.2666 -0.1347 -0.3035
 5233SOL    HW127335   4.615   4.416   9.316 -0.7512  1.5462 -0.5085
 5233SOL    HW227336   4.705   4.522   9.274 -0.0512 -0.1876 -0.2504
 5234SOL     OW27337   1.105   4.652   3.246 -0.4015  0.6639  1.0834
 5234SOL    HW127338   1.029   4.666   3.303 -1.8451 -0.0918 -0.6283
 5234SOL    HW227339   1.119   4.558   3.258 -0.1347  0.6369  0.5359
 5235SOL     OW27340   3.871   2.545   2.872  0.3412 -0.8286  0.4280
 5235SOL    HW127341   3.826   2.461   2.877 -1.0444 -0.1516 -0.8104
 5235SOL    HW227342   3.939   2.531   2.806  1.8371 -0.7227  1.9377
 5236SOL     OW27343   3.800   1.679   4.796 -0.1975 -0.2878 -0.2733
 5236SOL    HW127344   3.780   1.763   4.839 -0.4716  0.1572 -1.2875
 5236SOL    HW227345   3.802   1.711   4.706  2.0583  1.5496  0.3917
 5237SOL     OW27346   3.995   3.676   5.613  0.3173 -0.0991 -0.2488
 5237SOL    HW127347   3.980   3.704   5.523  2.4556 -0.3252 -0.6620
 5237SOL    HW227348   4.054   3.746   5.641 -0.0091  0.0798 -0.0099
 5238SOL     OW27349   2.725   3.952  10.899 -0.3106  0.1161  0.1531
 5238SOL    HW127350   2.789   3.888  10.868  0.7845  1.2344  0.1404
 5238SOL    HW227351   2.663   3.892  10.940 -0.3633  0.6598  0.8599
 5239SOL     OW27352   4.611   4.729   9.335 -0.5758  0.7674 -0.4703
 5239SOL    HW127353   4.532   0.035   9.358 -0.5997  0.9697 -1.0118
 5239SOL    HW227354   4.580   4.648   9.376  1.0538  1.1121  1.4350
 5240SOL     OW27355   1.525   4.397  10.955  0.1985  0.3102 -0.5435
 5240SOL    HW127356   1.475   4.394  10.873 -1.4607 -1.4718  0.5556
 5240SOL    HW227357   1.551   4.304  10.959 -0.2559  0.3368  2.7618
 5241SOL     OW27358   0.685   3.467   4.816  0.5002  0.1691 -0.2100
 5241SOL    HW127359   0.675   3.506   4.903 -0.0342  0.5558 -0.4458
 5241SOL    HW227360   0.642   3.383   4.828 -1.0501  0.8025 -1.4389
 5242SOL     OW27361   1.170   1.050   0.821 -0.2486 -0.0791  0.3134
 5242SOL    HW127362   1.088   1.020   0.780 -1.2161  0.0947  2.1131
 5242SOL    HW227363   1.128   1.118   0.874 -1.6248 -2.9503  2.9140
 5243SOL     OW27364   4.406   3.981   3.700  0.1643  0.1880  0.0206
 5243SOL    HW127365   4.405   4.063   3.651  0.7159  0.4299  0.4080
 5243SOL    HW227366   4.323   3.937   3.683 -0.4679  0.6596  1.9429
 5244SOL     OW27367   3.090   0.296  10.359 -0.0327  0.3351 -0.1339
 5244SOL    HW127368   3.154   0.261  10.297 -0.5154  1.3250 -1.1916
 5244SOL    HW227369   3.020   0.232  10.343  0.4502 -0.0256 -0.7919
 5245SOL     OW27370   3.283   3.764  14.347  0.0529 -0.1494 -0.0419
 5245SOL    HW127371   3.348   3.717  14.296  0.0142 -0.0214 -0.2071
 5245SOL    HW227372   3.288   3.737  14.439 -0.4023 -2.4252 -0.7001
 5246SOL     OW27373   1.118   1.803   4.154 -0.5953  0.2948  0.8687
 5246SOL    HW127374   1.056   1.732   4.133 -0.5740  1.1015 -1.9035
 5246SOL    HW227375   1.084   1.848   4.231  1.5239  1.3296  1.1892
 5247SOL     OW27376   0.058   0.599   3.639 -0.3841 -0.4307 -0.3169
 5247SOL    HW127377   4.707   0.608   3.628 -0.1586 -1.3425 -3.0243
 5247SOL    HW227378   0.076   0.560   3.554 -1.1801  1.0310 -1.1575
 5248SOL     OW27379   0.263   2.557   2.373 -0.6003  0.0694  0.2772
 5248SOL    HW127380   0.183   2.609   2.378 -0.6913 -0.0625  0.2077
 5248SOL    HW227381   0.298   2.573   2.460  0.5279  1.8390 -0.5082
 5249SOL     OW27382   0.741   4.250   3.215  0.0130 -0.4479  0.5873
 5249SOL    HW127383   0.661   4.279   3.258 -1.3750 -0.0243 -2.2964
 5249SOL    HW227384   0.714   4.165   3.181 -2.6852  1.0917 -1.0786
 5250SOL     OW27385   0.498   0.553   7.510  0.6563 -0.2483  0.1036
 5250SOL    HW127386   0.426   0.496   7.484  1.6641 -0.0118 -3.1923
 5250SOL    HW227387   0.567   0.486   7.514  0.3784 -0.6633 -2.4258
 5251SOL     OW27388   2.329   0.085   6.913 -0.1947  0.2938 -0.3483
 5251SOL    HW127389   2.271   0.033   6.968  0.5616 -0.4567 -0.2659
 5251SOL    HW227390   2.274   0.163   6.903 -3.4588 -2.1021 -0.6787
 5252SOL     OW27391   1.389   3.853  16.498 -0.0055  0.4304  0.3225
 5252SOL    HW127392   1.405   3.762  16.471  0.8737  1.3193 -2.1233
 5252SOL    HW227393   1.431   3.896  16.423  1.4816 -1.2780  0.1690
 5253SOL     OW27394   2.525   2.153   4.369 -0.2713  0.3003  0.3341
 5253SOL    HW127395   2.542   2.135   4.277 -0.1407 -1.4426  0.6903
 5253SOL    HW227396   2.517   2.062   4.399  1.2854  0.9712  2.8145
 5254SOL     OW27397   4.607   2.841   7.776 -0.1042 -0.4436  0.1465
 5254SOL    HW127398   4.598   2.764   7.720  0.3543  0.2777 -0.9159
 5254SOL    HW227399   4.648   2.904   7.717 -0.9379 -1.0873 -1.1134
 5255SOL     OW27400   2.129   3.285   3.360  0.1914 -0.0815  0.1517
 5255SOL    HW127401   2.049   3.336   3.377  0.1354 -0.4499  0.9823
 5255SOL    HW227402   2.190   3.338   3.411  0.4465 -0.4238  0.2020
 5256SOL     OW27403   3.573   4.317  16.324  0.0687 -0.7087 -0.0578
 5256SOL    HW127404   3.527   4.367  16.391  2.5268 -0.7026  1.6311
 5256SOL    HW227405   3.623   4.271  16.391 -0.4626 -0.4669  0.5062
 5257SOL     OW27406   3.939   3.622   6.883 -0.1740 -0.1283  0.0382
 5257SOL    HW127407   3.932   3.547   6.941 -0.6272  0.3050  0.5507
 5257SOL    HW227408   3.933   3.684   6.956  0.8898  0.3123 -0.2396
 5258SOL     OW27409   2.137   4.061   1.506 -0.5570 -0.4332  0.0232
 5258SOL    HW127410   2.089   4.042   1.587 -0.8339 -0.4396 -0.1430
 5258SOL    HW227411   2.107   4.152   1.508  0.3445 -0.1413  0.2610
 5259SOL     OW27412   2.046   3.485   0.457 -0.3148  0.1693  0.0842
 5259SOL    HW127413   2.140   3.476   0.444 -0.4479  0.0061 -0.7430
 5259SOL    HW227414   2.012   3.552   0.398 -1.6477  1.9782  2.8698
 5260SOL     OW27415   2.123   3.438   4.674 -0.1459  0.2717  0.2040
 5260SOL    HW127416   2.053   3.378   4.700 -1.3453  1.4710 -0.2583
 5260SOL    HW227417   2.081   3.524   4.677 -1.2179 -0.2860  0.9271
 5261SOL     OW27418   3.069   4.677   3.095  0.4008 -0.2263  0.7522
 5261SOL    HW127419   3.153   4.668   3.139  0.4220 -3.1890  0.0764
 5261SOL    HW227420   3.097   4.643   3.011  0.7217  1.1876  0.2825
 5262SOL     OW27421   3.042   1.423   6.713 -0.1858 -0.2837 -0.2067
 5262SOL    HW127422   3.012   1.509   6.685 -0.3136  0.3454  1.8454
 5262SOL    HW227423   3.136   1.435   6.701 -0.0476 -3.5567 -2.4423
 5263SOL     OW27424   3.866   0.432   4.513  0.4628 -0.1536  0.5535
 5263SOL    HW127425   3.924   0.503   4.541 -1.3728  1.7558 -0.4503
 5263SOL    HW227426   3.849   0.410   4.605  0.5517 -0.6688  0.4445
 5264SOL     OW27427   3.169   2.497   4.788 -0.3322  0.4710 -0.0196
 5264SOL    HW127428   3.127   2.433   4.730 -1.7254  0.2868  1.1761
 5264SOL    HW227429   3.252   2.452   4.804  2.1535  4.2005 -2.4563
 5265SOL     OW27430   4.070   1.796   6.338 -0.1923 -0.3124 -0.0875
 5265SOL    HW127431   4.090   1.735   6.267 -2.9100 -1.2037 -0.1014
 5265SOL    HW227432   4.125   1.871   6.317 -0.0876 -0.2984  0.2474
 5266SOL     OW27433   0.492   1.324  17.769 -0.0222 -0.0882 -0.0560
 5266SOL    HW127434   0.401   1.345   0.020  0.2491 -1.5160  2.3571
 5266SOL    HW227435   0.535   1.405   0.024 -0.4693 -0.7836  2.7562
 5267SOL     OW27436   2.228   0.647   4.579  0.9221  0.0404 -0.5085
 5267SOL    HW127437   2.230   0.737   4.547  0.2097 -0.4258 -1.8469
 5267SOL    HW227438   2.179   0.659   4.661  0.7261  1.4812 -0.8532
 5268SOL     OW27439   0.175   2.302   1.645 -0.2982  0.2883  0.1884
 5268SOL    HW127440   0.176   2.376   1.585 -0.7657  0.2531  0.1364
 5268SOL    HW227441   0.173   2.347   1.730 -0.1633  2.7861 -1.1260
 5269SOL     OW27442   3.964   0.351   7.363  0.1521  0.2312  0.1223
 5269SOL    HW127443   4.041   0.386   7.317  1.4425 -1.6729  0.8050
 5269SOL    HW227444   4.010   0.319   7.441  1.7356 -3.5007 -2.3627
 5270SOL     OW27445   0.054   0.464   1.579 -0.1507 -0.2981 -0.0532
 5270SOL    HW127446   0.035   0.555   1.554 -0.0384  0.0442  1.1318
 5270SOL    HW227447   0.064   0.426   1.491  0.3227  1.2601 -0.6765
 5271SOL     OW27448   3.694   1.559  10.058  0.0391  0.1676 -0.4350
 5271SOL    HW127449   3.773   1.535  10.010 -0.4700  1.0262 -1.6990
 5271SOL    HW227450   3.657   1.613   9.988  1.1536  2.7578  1.0041
 5272SOL     OW27451   1.992   3.023   4.398  0.2588 -0.0423 -0.3968
 5272SOL    HW127452   1.934   3.098   4.397  0.1014 -0.0790  3.1003
 5272SOL    HW227453   1.947   2.967   4.462 -0.0693  0.4601 -0.1912
 5273SOL     OW27454   1.657   1.552   5.719 -0.1458 -0.0494 -0.5975
 5273SOL    HW127455   1.565   1.563   5.742  0.5907  2.4523  1.1401
 5273SOL    HW227456   1.671   1.458   5.731 -0.0652 -0.1204 -1.2738
 5274SOL     OW27457   1.451   4.046   9.455 -0.0487  0.9675 -0.2355
 5274SOL    HW127458   1.447   4.025   9.362  1.6152  3.0722 -0.7632
 5274SOL    HW227459   1.356   4.058   9.464 -0.0914 -0.2075  0.8790
 5275SOL     OW27460   4.052   4.081   5.402 -0.2946  0.1998 -0.3036
 5275SOL    HW127461   3.993   4.057   5.473 -0.0481 -0.6554 -0.3935
 5275SOL    HW227462   4.113   4.140   5.446 -0.6893 -0.2228  0.7938
 5276SOL     OW27463   4.267   1.333   3.502 -0.2055 -0.4233  0.2570
 5276SOL    HW127464   4.289   1.299   3.415  2.6402  0.6281  0.5439
 5276SOL    HW227465   4.173   1.350   3.494 -0.2259 -1.2525 -1.1524
 5277SOL     OW27466   3.091   0.121   9.042  0.0381  0.4050 -0.1741
 5277SOL    HW127467   3.043   0.180   8.984 -0.0414  2.3555  1.8946
 5277SOL    HW227468   3.179   0.157   9.051  1.5513 -2.7098 -2.4534
 5278SOL     OW27469   1.716   2.456  10.638  0.0902  0.2862 -0.5068
 5278SOL    HW127470   1.807   2.428  10.647 -0.5664 -0.9298  2.2980
 5278SOL    HW227471   1.670   2.474  10.720 -0.8397 -1.9923 -0.5320
 5279SOL     OW27472   3.227   1.067  10.739  0.1639 -0.3561  0.1630
 5279SOL    HW127473   3.217   1.054  10.645  0.5637 -1.5085  0.2718
 5279SOL    HW227474   3.303   1.124  10.741  0.5611 -0.9853  3.8352
 5280SOL     OW27475   3.289   2.507   0.274  0.1472  0.4326 -0.4604
 5280SOL    HW127476   3.379   2.484   0.301 -0.3148 -3.1027 -1.8857
 5280SOL    HW227477   3.293   2.593   0.315 -0.8963  0.6346 -0.7994
 5281SOL     OW27478   4.484   0.892   3.416 -0.2399 -0.3254 -0.3183
 5281SOL    HW127479   4.515   0.936   3.338 -2.1191  1.4921 -0.0465
 5281SOL    HW227480   4.416   0.834   3.381  0.0167 -1.4936  1.0785
 5282SOL     OW27481   2.792   3.695  13.747  0.2647  0.0589  0.1106
 5282SOL    HW127482   2.760   3.785  13.739  1.6705  0.5393 -0.0226
 5282SOL    HW227483   2.804   3.694  13.842 -0.4227  2.3785  0.2347
 5283SOL     OW27484   3.235   2.991   7.904  0.2243  0.7698  0.5641
 5283SOL    HW127485   3.299   2.968   7.837 -0.8976  0.7367 -0.4823
 5283SOL    HW227486   3.288   2.983   7.983 -0.1636  4.6980  1.2645
 5284SOL     OW27487   2.313   4.569  17.350  0.2782  0.9326 -1.0478
 5284SOL    HW127488   2.375   4.633  17.385 -0.6566  0.5176  1.3915
 5284SOL    HW227489   2.236   4.620  17.323 -1.0324 -1.1068 -1.1960
 5285SOL     OW27490   0.544   3.097  11.414  0.5006 -0.1146  0.6456
 5285SOL    HW127491   0.541   3.177  11.466  2.0576 -0.0913  0.6830
 5285SOL    HW227492   0.468   3.042  11.432  1.5313 -0.8149  2.7946
 5286SOL     OW27493   4.142   1.106   3.308 -0.5888  0.0194  0.2534
 5286SOL    HW127494   4.234   1.108   3.283 -1.2898 -0.6712 -2.4224
 5286SOL    HW227495   4.113   1.197   3.298  0.8291  0.7085  2.3832
 5287SOL     OW27496   1.672   0.117   9.348 -0.6808  0.2405 -0.0318
 5287SOL    HW127497   1.732   0.154   9.283 -1.0751 -0.9623 -1.0638
 5287SOL    HW227498   1.677   0.027   9.315 -1.4344  1.3818 -3.2890
 5288SOL     OW27499   2.101   4.471   9.714  0.0980 -0.3787 -0.2982
 5288SOL    HW127500   2.169   4.524   9.756  1.7155 -3.1485  0.5783
 5288SOL    HW227501   2.071   4.539   9.654 -0.8692 -0.6209 -0.0761
 5289SOL     OW27502   3.526   0.307   6.147  0.2502 -0.0867 -0.6666
 5289SOL    HW127503   3.585   0.283   6.076 -1.5123 -1.2659 -1.7413
 5289SOL    HW227504   3.578   0.366   6.201 -1.5112 -0.4732  1.5001
 5290SOL     OW27505   2.768   2.972   9.651  0.3124 -0.4879  0.0585
 5290SOL    HW127506   2.798   3.012   9.569 -2.2964 -0.5374 -0.9162
 5290SOL    HW227507   2.830   3.019   9.706 -0.7486  0.2457  0.6365
 5291SOL     OW27508   0.143   1.773  11.063  0.0192 -0.1887  0.4277
 5291SOL    HW127509   0.125   1.763  11.157  2.4075  2.4794  1.1704
 5291SOL    HW227510   0.096   1.856  11.052  0.0713  0.0030  1.5992
 5292SOL     OW27511   0.782   2.980  11.450 -0.2740  0.8653  0.1026
 5292SOL    HW127512   0.700   3.020  11.423 -0.8399 -0.5943 -0.2959
 5292SOL    HW227513   0.825   3.060  11.481  0.7665 -0.0718  1.0846
 5293SOL     OW27514   1.490   0.540   9.478  0.1319 -0.0350 -0.2222
 5293SOL    HW127515   1.452   0.621   9.444 -0.5530 -0.2550  0.0203
 5293SOL    HW227516   1.570   0.549   9.426  0.3898  0.3625  0.2437
 5294SOL     OW27517   3.860   0.547   7.595 -0.3963  0.5440 -0.2647
 5294SOL    HW127518   3.862   0.453   7.611  1.0725  0.9114  1.6541
 5294SOL    HW227519   3.800   0.580   7.661 -0.4165 -0.8839  0.4377
 5295SOL     OW27520   0.968   2.528   2.538  0.4088 -0.0264  0.8799
 5295SOL    HW127521   1.015   2.592   2.484  1.5912 -0.1465  1.7562
 5295SOL    HW227522   1.028   2.518   2.612 -1.2579  1.6452  2.4764
 5296SOL     OW27523   3.983   0.982   7.042  0.0188 -0.5796 -0.4401
 5296SOL    HW127524   3.936   0.909   7.001 -0.1419 -0.1299 -1.0639
 5296SOL    HW227525   4.041   0.942   7.107  0.0057 -2.0602 -1.3328
 5297SOL     OW27526   0.858   0.161  12.751 -0.2781 -0.6059  0.1790
 5297SOL    HW127527   0.832   0.069  12.745  2.1022 -1.1569 -1.6887
 5297SOL    HW227528   0.773   0.203  12.738  1.6119  2.2189 -2.9972
 5298SOL     OW27529   2.579   0.777   6.294 -0.0040 -0.2249  0.1783
 5298SOL    HW127530   2.590   0.794   6.387 -2.0112 -3.4092  1.0044
 5298SOL    HW227531   2.598   0.683   6.295 -1.3376 -0.4872  1.4921
 5299SOL     OW27532   0.265   2.109   4.378  0.0648  0.2954 -0.1896
 5299SOL    HW127533   0.234   2.042   4.437  3.3383  1.4220  2.8031
 5299SOL    HW227534   0.210   2.111   4.300 -1.1650  0.2052  0.6841
 5300SOL     OW27535   2.569   0.607   3.170  0.0986  0.4525  0.1408
 5300SOL    HW127536   2.594   0.666   3.099 -3.0838  0.7734 -0.7124
 5300SOL    HW227537   2.653   0.587   3.211  1.7242  3.4000 -1.7314
 5301SOL     OW27538   0.073   3.485   7.131  0.0334  0.3449  0.3553
 5301SOL    HW127539   4.736   3.535   7.143 -0.5919 -1.1672  2.2988
 5301SOL    HW227540   0.044   3.395   7.139  1.9710 -0.4145 -1.0463
 5302SOL     OW27541   0.437   1.090  13.240  1.0276  0.2612  0.1991
 5302SOL    HW127542   0.477   1.012  13.279  0.1282 -0.8570 -1.1083
 5302SOL    HW227543   0.433   1.154  13.311 -0.2999  2.3920 -1.7688
 5303SOL     OW27544   4.727   0.981   3.325 -0.2394  0.3878  0.1034
 5303SOL    HW127545   0.018   0.905   3.278 -2.5049 -0.5738 -0.0248
 5303SOL    HW227546   0.022   0.962   3.411 -1.6182 -1.7840  0.2679
 5304SOL     OW27547   3.739   2.408  16.142 -0.3914 -0.2352  0.7025
 5304SOL    HW127548   3.663   2.461  16.165 -0.4784  0.8618 -2.1322
 5304SOL    HW227549   3.782   2.462  16.076  0.7419  0.4437  1.9913
 5305SOL     OW27550   4.493   1.134   1.502  0.6120 -0.4148 -0.0952
 5305SOL    HW127551   4.507   1.223   1.471  1.5382 -0.5169  0.0371
 5305SOL    HW227552   4.535   1.084   1.432  1.1921  0.4182 -0.3300
 5306SOL     OW27553   0.992   4.556   2.194  0.5511  0.0798  0.0458
 5306SOL    HW127554   1.066   4.597   2.148 -0.5165  0.0679 -1.6650
 5306SOL    HW227555   0.943   4.512   2.124  1.5172 -0.9351  0.0132
 5307SOL     OW27556   1.145   0.172   1.354  0.5044 -0.0867 -0.5714
 5307SOL    HW127557   1.154   0.148   1.446  1.2870  1.6340 -0.2004
 5307SOL    HW227558   1.090   0.250   1.362  0.1919 -0.5091  1.3974
 5308SOL     OW27559   0.760   2.900  11.760  0.1744 -0.0909  0.2227
 5308SOL    HW127560   0.672   2.885  11.726  0.3944 -0.9465  0.0483
 5308SOL    HW227561   0.792   2.811  11.748 -3.7289 -1.9360  3.4503
 5309SOL     OW27562   4.123   0.734   9.933  0.2220 -0.0537 -0.0140
 5309SOL    HW127563   4.099   0.642   9.941  2.0771 -0.5228  0.1013
 5309SOL    HW227564   4.154   0.755  10.021 -2.3352 -0.1522  0.8992
 5310SOL     OW27565   2.974   2.982  13.031  0.1212 -0.1972  0.5083
 5310SOL    HW127566   3.047   3.039  13.055  0.3679  0.0713 -0.9266
 5310SOL    HW227567   2.937   2.974  13.119 -2.9717 -0.1149 -0.7953
 5311SOL     OW27568   2.995   1.077   4.396 -0.6438 -0.5819 -0.2624
 5311SOL    HW127569   2.920   1.025   4.368 -0.1371 -1.5250  0.1523
 5311SOL    HW227570   3.058   1.061   4.325 -0.0054 -0.9984  0.3965
 5312SOL     OW27571   2.711   1.188   1.951  1.0757 -0.4812 -0.0640
 5312SOL    HW127572   2.746   1.166   1.865 -0.4433  1.7076 -1.2046
 5312SOL    HW227573   2.673   1.101   1.968  0.0299 -0.1241 -0.6174
 5313SOL     OW27574   0.765   3.340   7.938 -0.7780 -0.2847  0.0897
 5313SOL    HW127575   0.683   3.312   7.979  0.7860 -0.3538  3.1208
 5313SOL    HW227576   0.767   3.279   7.864  0.2277  0.6286 -0.6407
 5314SOL     OW27577   0.897   3.872   5.171 -0.2979 -0.3462  0.2530
 5314SOL    HW127578   0.900   3.939   5.103  0.4140  1.4378  2.0701
 5314SOL    HW227579   0.831   3.816   5.128 -0.2721  1.0966 -1.6362
 5315SOL     OW27580   0.298   4.035   1.800 -0.4599  0.3815  0.0913
 5315SOL    HW127581   0.375   4.092   1.803  1.4394 -2.1047 -0.9458
 5315SOL    HW227582   0.276   4.021   1.892  0.5112  1.0379  0.4216
 5316SOL     OW27583   1.112   2.007   5.505  0.1960  0.3386  0.4901
 5316SOL    HW127584   1.025   1.969   5.489 -0.1854  1.5774 -0.3573
 5316SOL    HW227585   1.090   2.098   5.526  0.0649  0.1967  0.9730
 5317SOL     OW27586   3.081   2.027   2.743  0.3161  0.1981 -0.3659
 5317SOL    HW127587   3.103   1.947   2.790  0.2735  0.1082 -0.4989
 5317SOL    HW227588   3.031   2.073   2.810  0.7025 -0.3132  0.2632
 5318SOL     OW27589   1.573   3.883  13.721  0.1937  0.2230  0.2854
 5318SOL    HW127590   1.591   3.915  13.810 -0.3991  1.2724  0.0337
 5318SOL    HW227591   1.641   3.816  13.716  0.1685  0.1575  0.8684
 5319SOL     OW27592   2.970   3.177   7.704 -0.4616  0.0843 -0.0647
 5319SOL    HW127593   2.989   3.102   7.761  3.4718  0.1024 -1.3679
 5319SOL    HW227594   2.989   3.141   7.617  1.4537 -1.4623  1.0117
 5320SOL     OW27595   2.624   1.779   8.799  0.6507 -0.2302  0.2869
 5320SOL    HW127596   2.600   1.777   8.707 -0.2685  1.4590  0.4814
 5320SOL    HW227597   2.540   1.799   8.841  1.0562  0.4874  0.7639
 5321SOL     OW27598   3.345   4.619   8.676  0.3910 -0.1671  0.0702
 5321SOL    HW127599   3.425   4.618   8.729 -0.1377 -0.9438  0.8744
 5321SOL    HW227600   3.351   4.540   8.623  0.1403  1.3830 -2.2426
 5322SOL     OW27601   0.018   3.072   7.651  0.0894 -0.2430  0.3609
 5322SOL    HW127602   0.050   3.151   7.608  1.4434 -0.4210  1.0327
 5322SOL    HW227603   0.089   3.011   7.633 -0.7362 -0.6967 -1.3642
 5323SOL     OW27604   4.230   3.396   7.021  0.5527 -0.8425  0.4962
 5323SOL    HW127605   4.273   3.429   7.100 -0.2355 -1.0930  1.0257
 5323SOL    HW227606   4.245   3.301   7.024 -0.4693 -1.0174  0.2276
 5324SOL     OW27607   3.319   1.275   8.317  0.5158  0.0466 -0.0384
 5324SOL    HW127608   3.407   1.309   8.333  1.4424 -1.6432 -1.5798
 5324SOL    HW227609   3.339   1.208   8.252 -2.1404 -0.5646 -0.2296
 5325SOL     OW27610   1.724   3.258   7.583 -0.0745  0.2223 -0.2535
 5325SOL    HW127611   1.725   3.353   7.598 -1.3588 -0.0273  1.4048
 5325SOL    HW227612   1.704   3.228   7.672  0.2782  0.7185 -0.0072
 5326SOL     OW27613   0.572   3.090   4.041  0.5860  0.1908 -0.1288
 5326SOL    HW127614   0.536   3.178   4.048  0.9295  0.4428 -1.6467
 5326SOL    HW227615   0.556   3.084   3.947 -2.9705 -1.4546  0.6014
 5327SOL     OW27616   1.848   2.524   2.355  0.3156  0.0204 -0.3468
 5327SOL    HW127617   1.847   2.439   2.399 -1.8141  0.6419  0.7826
 5327SOL    HW227618   1.775   2.525   2.294  1.3034 -1.3451 -1.5733
 5328SOL     OW27619   0.821   1.811   4.923  0.3902 -0.3297  0.1818
 5328SOL    HW127620   0.798   1.878   4.858 -1.1447 -2.1490 -1.1332
 5328SOL    HW227621   0.776   1.840   5.003 -0.9123  0.0324 -0.6763
 5329SOL     OW27622   1.322   3.567   0.106  0.0914  0.1232 -0.3126
 5329SOL    HW127623   1.294   3.530   0.022  0.2254  2.4297 -1.3787
 5329SOL    HW227624   1.326   3.659   0.081 -0.1548 -0.0928 -1.1458
 5330SOL     OW27625   3.989   4.265   9.757 -0.1919  0.2186 -0.3502
 5330SOL    HW127626   3.944   4.343   9.723  0.0804 -0.5654 -2.5088
 5330SOL    HW227627   4.071   4.303   9.789  0.2242 -1.4477  0.5314
 5331SOL     OW27628   0.636   1.740   5.747  0.1938 -0.3621 -0.2719
 5331SOL    HW127629   0.616   1.661   5.798 -0.1471  0.2187  0.5046
 5331SOL    HW227630   0.603   1.728   5.658 -0.2302 -0.7795 -0.0615
 5332SOL     OW27631   4.070   4.391  10.948 -0.3738  0.3923  0.0873
 5332SOL    HW127632   4.120   4.310  10.946 -1.7827 -0.4908  1.0331
 5332SOL    HW227633   4.136   4.441  10.995  1.9199 -1.4911 -1.1360
 5333SOL     OW27634   1.785   1.047   1.552  0.1950 -0.1119  0.0636
 5333SOL    HW127635   1.692   1.058   1.532  0.8541 -1.4436 -3.7335
 5333SOL    HW227636   1.787   1.069   1.645  0.4530  1.5643 -0.3254
 5334SOL     OW27637   0.014   2.818  10.408  0.1038  0.4426  0.1242
 5334SOL    HW127638   0.020   2.769  10.490 -2.4768  0.8466  0.5658
 5334SOL    HW227639   0.049   2.749  10.351 -1.8433 -0.6917  0.3299
 5335SOL     OW27640   2.449   1.872   6.477  0.0623 -0.2134 -0.0022
 5335SOL    HW127641   2.504   1.832   6.544  0.8750  1.8026  0.5116
 5335SOL    HW227642   2.505   1.934   6.431 -1.5425 -0.4459 -2.2597
 5336SOL     OW27643   0.422   1.889   0.471 -0.8195 -0.5769 -0.0026
 5336SOL    HW127644   0.386   1.932   0.394  0.8839 -0.6276 -0.8157
 5336SOL    HW227645   0.438   1.801   0.436  2.8774  1.2114 -2.7831
 5337SOL     OW27646   2.828   2.488   2.249 -0.1105 -0.4854 -0.3104
 5337SOL    HW127647   2.766   2.552   2.284  0.8279  0.2681  0.0018
 5337SOL    HW227648   2.792   2.406   2.283  1.2424 -1.3236 -0.8945
 5338SOL     OW27649   2.980   0.221   8.515 -0.6073  0.1698  0.2169
 5338SOL    HW127650   3.057   0.209   8.459 -0.7950 -0.6636  0.1325
 5338SOL    HW227651   3.006   0.246   8.603 -1.6077 -0.5404  0.7122
 5339SOL     OW27652   4.256   1.260   5.589 -0.2006  0.3210 -0.2867
 5339SOL    HW127653   4.208   1.322   5.534  0.5067 -0.6644 -2.0302
 5339SOL    HW227654   4.203   1.185   5.562 -0.0177 -1.0974  3.3232
 5340SOL     OW27655   4.203   4.696   9.241  0.2515 -0.4064 -0.0366
 5340SOL    HW127656   4.228   4.740   9.159  1.2913  0.4925  0.7686
 5340SOL    HW227657   4.282   4.723   9.288  0.8176 -1.4063 -0.4216
 5341SOL     OW27658   0.560   4.048   2.052  0.4902  0.5446  0.5882
 5341SOL    HW127659   0.581   3.962   2.089 -0.0324 -0.2091 -0.8760
 5341SOL    HW227660   0.630   4.099   2.092  0.9648 -1.1913  1.9347
 5342SOL     OW27661   4.095   1.703   1.851  0.5106 -0.0647  0.2866
 5342SOL    HW127662   4.126   1.780   1.805  1.0838 -0.3704  0.1612
 5342SOL    HW227663   4.174   1.675   1.897  1.3702  1.3501 -0.3223
 5343SOL     OW27664   3.290   4.728  17.320 -0.5425  0.1807 -0.1933
 5343SOL    HW127665   3.350   4.653  17.313 -1.2256 -0.2511 -1.5524
 5343SOL    HW227666   3.331   0.063  17.285  0.0246 -1.3561 -2.9740
 5344SOL     OW27667   0.553   2.039   5.388 -0.1522  0.0124 -0.5149
 5344SOL    HW127668   0.531   2.126   5.354 -0.9869 -0.4722 -1.2264
 5344SOL    HW227669   0.477   2.013   5.441 -1.6398  1.8217 -1.7457
 5345SOL     OW27670   2.992   1.080   8.580  0.1966  0.2565 -0.1349
 5345SOL    HW127671   2.936   1.082   8.502 -0.1030  2.0502  0.1322
 5345SOL    HW227672   2.949   1.145   8.635 -1.3333  0.1082 -1.1230
 5346SOL     OW27673   2.209   1.791  10.163  0.1980  0.2315 -0.4914
 5346SOL    HW127674   2.237   1.861  10.104 -0.3743  0.5033 -0.4446
 5346SOL    HW227675   2.278   1.789  10.229  0.2886 -0.5387 -0.6175
 5347SOL     OW27676   1.407   2.588  12.497  0.0404  0.1973  0.0975
 5347SOL    HW127677   1.320   2.625  12.509  0.4896  1.7289 -1.4209
 5347SOL    HW227678   1.447   2.614  12.581 -0.5938 -3.3035  1.4897
 5348SOL     OW27679   4.122   4.104   7.025  0.9136 -0.5863 -0.2743
 5348SOL    HW127680   4.109   4.197   7.004  0.6104 -0.5355  0.1335
 5348SOL    HW227681   4.101   4.062   6.942 -1.3236 -1.3587  0.6551
 5349SOL     OW27682   0.161   1.913   6.748  0.2267  0.2068  0.4974
 5349SOL    HW127683   0.083   1.912   6.803  1.3273 -0.2216  2.0402
 5349SOL    HW227684   0.129   1.873   6.667 -1.1324  0.2823  1.0125
 5350SOL     OW27685   4.294   0.402  13.761  0.1542 -0.3150 -0.2741
 5350SOL    HW127686   4.332   0.416  13.674  2.0573  0.4406  0.6873
 5350SOL    HW227687   4.374   0.400  13.813  0.4471  1.8468 -0.6595
 5351SOL     OW27688   0.104   1.787  11.320  0.4121 -0.2479  0.3854
 5351SOL    HW127689   0.072   1.700  11.344 -2.1244  0.3020 -1.0498
 5351SOL    HW227690   0.051   1.843  11.376  1.6337  0.5030  0.7668
 5352SOL     OW27691   0.014   3.440   4.964  0.1537 -0.1433 -0.3329
 5352SOL    HW127692   0.095   3.391   4.948  0.1600 -0.5465  0.9128
 5352SOL    HW227693   0.020   3.455   5.058 -1.6013  1.2494 -0.4572
 5353SOL     OW27694   2.199   3.781   2.477  0.1098 -0.5580  0.1178
 5353SOL    HW127695   2.289   3.801   2.503  0.4967 -1.1521 -0.7801
 5353SOL    HW227696   2.149   3.773   2.558  0.7442 -1.2423  0.4467
 5354SOL     OW27697   1.367   2.915   3.653  0.0842  0.0247  0.5778
 5354SOL    HW127698   1.306   2.897   3.725  0.7412 -3.4719  0.2374
 5354SOL    HW227699   1.310   2.932   3.578  1.9177  0.1829 -0.7878
 5355SOL     OW27700   2.288   3.237   1.685 -0.1980 -0.3341 -0.3903
 5355SOL    HW127701   2.362   3.260   1.629 -1.1464  0.2926 -1.3828
 5355SOL    HW227702   2.315   3.262   1.773 -1.5024  1.4320 -0.4942
 5356SOL     OW27703   0.256   4.587   2.019  0.7507 -0.1036 -0.3442
 5356SOL    HW127704   0.162   4.572   2.015  0.5957  1.0862 -1.1514
 5356SOL    HW227705   0.261   4.648   1.945  1.1025  1.9806  1.3927
 5357SOL     OW27706   2.601   1.923   7.624  0.0149 -0.2343  0.1702
 5357SOL    HW127707   2.586   1.851   7.562  0.9858  0.1525 -0.5212
 5357SOL    HW227708   2.540   1.904   7.695 -0.7427 -1.2204 -0.7391
 5358SOL     OW27709   3.633   3.914   6.840  0.5755  0.2162  0.6325
 5358SOL    HW127710   3.618   3.927   6.934  1.6573 -2.8752  1.2284
 5358SOL    HW227711   3.581   3.836   6.825  2.4278 -0.6480 -1.3413
 5359SOL     OW27712   2.375   2.685   8.330 -0.4994 -0.0015  0.2331
 5359SOL    HW127713   2.369   2.669   8.236 -1.3102  2.2917 -0.1217
 5359SOL    HW227714   2.285   2.666   8.355 -1.0287  1.9562 -0.1282
 5360SOL     OW27715   3.708   0.283  13.471  0.4532 -0.1577 -0.1832
 5360SOL    HW127716   3.719   0.208  13.412  0.3523  2.0671 -3.0219
 5360SOL    HW227717   3.765   0.243  13.537 -2.4218  1.0187  3.0525
 5361SOL     OW27718   0.511   2.758   7.725  0.4665 -0.2054 -0.1637
 5361SOL    HW127719   0.564   2.678   7.719  2.5039  0.8876  2.9498
 5361SOL    HW227720   0.429   2.718   7.753  0.1784  0.7328  0.3169
 5362SOL     OW27721   1.959   3.964   4.307  0.6020  0.6289  0.0666
 5362SOL    HW127722   1.980   3.962   4.214 -0.2561 -2.4791 -0.0556
 5362SOL    HW227723   1.906   4.044   4.308 -0.4381 -0.0628 -0.3889
 5363SOL     OW27724   1.331   0.194   1.179  0.6167  0.3478  0.0833
 5363SOL    HW127725   1.262   0.166   1.239  0.6629  1.5004  0.6719
 5363SOL    HW227726   1.292   0.155   1.100  0.4430  2.2425 -0.7741
 5364SOL     OW27727   1.832   1.802   0.133  0.0048 -0.5512 -0.6656
 5364SOL    HW127728   1.842   1.796   0.038  2.1197  0.2096 -0.4939
 5364SOL    HW227729   1.851   1.713   0.164 -1.8508 -0.0601  1.8688
 5365SOL     OW27730   3.944   3.890   8.577 -0.3841 -0.1785 -0.0100
 5365SOL    HW127731   3.935   3.884   8.672 -1.1340 -0.7410 -0.1133
 5365SOL    HW227732   3.881   3.818   8.568 -0.0742 -0.7484  2.4289
 5366SOL     OW27733   4.326   3.866   8.683 -0.1206  0.1986  0.0641
 5366SOL    HW127734   4.338   3.794   8.621  3.8553  0.4865  0.4965
 5366SOL    HW227735   4.265   3.830   8.747  1.0815  0.0962  1.1570
 5367SOL     OW27736   1.767   3.756   2.068  0.1914  0.1870  0.2818
 5367SOL    HW127737   1.675   3.732   2.063  0.1784  0.9019 -2.4933
 5367SOL    HW227738   1.814   3.673   2.056 -2.1522 -1.0273 -0.6081
 5368SOL     OW27739   4.085   0.144   1.914  0.2899 -0.0204 -0.3830
 5368SOL    HW127740   4.169   0.135   1.868 -1.1131  1.0733 -3.1771
 5368SOL    HW227741   4.091   0.233   1.948  1.2613 -0.7097  1.2463
 5369SOL     OW27742   4.357   1.136   5.807 -0.3443  0.1690 -0.1782
 5369SOL    HW127743   4.350   1.176   5.721 -0.7627 -1.5234 -0.9372
 5369SOL    HW227744   4.266   1.122   5.833 -0.8115  1.7787 -0.9889
 5370SOL     OW27745   0.132   1.920  14.993 -0.0434  0.2211  0.1468
 5370SOL    HW127746   0.157   1.980  15.063  0.7431 -1.0003  0.8868
 5370SOL    HW227747   0.191   1.846  15.003  0.5056  0.7917  1.0851
 5371SOL     OW27748   3.316   3.691  13.108 -0.2140  0.0002  0.4973
 5371SOL    HW127749   3.223   3.673  13.094 -1.0239  1.8904  3.5554
 5371SOL    HW227750   3.345   3.613  13.155  1.6023  1.2539  1.4501
 5372SOL     OW27751   0.150   1.767  13.215  0.2972 -0.1020  0.6231
 5372SOL    HW127752   0.089   1.693  13.221 -0.2695  0.2795 -0.4172
 5372SOL    HW227753   0.109   1.825  13.280  0.6183  0.9531 -0.1222
 5373SOL     OW27754   2.480   1.403   1.843 -0.1356 -0.2584 -0.6028
 5373SOL    HW127755   2.470   1.354   1.762 -0.2081 -2.0777  0.4835
 5373SOL    HW227756   2.413   1.365   1.900  0.2924 -0.9259 -0.5412
 5374SOL     OW27757   3.136   1.035  16.974 -0.1537  0.2315 -0.0409
 5374SOL    HW127758   3.109   1.089  16.900  1.4653  0.3809 -0.5168
 5374SOL    HW227759   3.231   1.034  16.974 -0.1527  0.3002  3.1624
 5375SOL     OW27760   1.342   3.836   8.384  0.0426 -0.7513  0.3373
 5375SOL    HW127761   1.362   3.898   8.455  0.0116  0.6856 -0.9051
 5375SOL    HW227762   1.380   3.757   8.422  1.9825  0.6666  1.3704
 5376SOL     OW27763   1.924   0.652   4.229  0.1561  0.3148 -0.2808
 5376SOL    HW127764   1.996   0.590   4.218 -0.0695  0.1818 -0.9892
 5376SOL    HW227765   1.869   0.601   4.289  0.4727  1.1631  0.7322
 5377SOL     OW27766   0.932   2.208   2.520  0.7194 -0.3209 -0.4711
 5377SOL    HW127767   0.881   2.289   2.523  0.5119 -0.3663 -2.9053
 5377SOL    HW227768   1.005   2.242   2.467  0.9421  1.4945  0.9825
 5378SOL     OW27769   3.154   3.043   0.797  0.5888 -0.2470 -0.2037
 5378SOL    HW127770   3.102   2.963   0.803 -0.0889  0.4163  2.5265
 5378SOL    HW227771   3.241   3.005   0.782  1.1144  1.0340 -0.3787
 5379SOL     OW27772   0.411   2.894  12.126 -0.7053 -0.1560  0.1751
 5379SOL    HW127773   0.473   2.829  12.159 -0.9644 -1.4557 -1.8742
 5379SOL    HW227774   0.469   2.959  12.087 -1.0591 -0.0734 -0.2110
 5380SOL     OW27775   2.063   4.286   6.834 -0.0388  0.2581 -0.0703
 5380SOL    HW127776   2.083   4.283   6.740 -2.4302  1.6157 -0.6403
 5380SOL    HW227777   2.109   4.362   6.871 -0.9527  0.7609  0.0371
 5381SOL     OW27778   3.977   3.350   2.607  0.1452  0.0132  0.0462
 5381SOL    HW127779   4.048   3.372   2.667  1.0585 -0.2949 -0.9241
 5381SOL    HW227780   3.966   3.435   2.566 -1.5967 -0.5308 -0.5968
 5382SOL     OW27781   1.623   2.400   1.739  0.3758  0.4676 -0.5169
 5382SOL    HW127782   1.651   2.309   1.743  0.6611  0.6317  1.4746
 5382SOL    HW227783   1.693   2.438   1.791  0.9229 -1.8446  0.4495
 5383SOL     OW27784   1.941   1.591   7.420  0.1463 -0.0346 -0.5596
 5383SOL    HW127785   1.915   1.623   7.333  0.8327  0.1086 -0.7111
 5383SOL    HW227786   2.018   1.642   7.443  0.0989  1.1649 -3.0027
 5384SOL     OW27787   1.220   0.531  13.196 -0.2448 -0.1108  0.3751
 5384SOL    HW127788   1.156   0.462  13.180 -0.7315  0.9124 -2.1496
 5384SOL    HW227789   1.211   0.527  13.291 -0.8655 -0.3966  0.3030
 5385SOL     OW27790   2.465   1.051   1.998  0.1191  0.0014  0.0275
 5385SOL    HW127791   2.416   0.990   1.944 -0.8676  1.4218 -0.6909
 5385SOL    HW227792   2.415   1.129   1.972  0.9914  0.2649 -0.8822
 5386SOL     OW27793   0.222   0.765   5.064 -0.1213  0.5173 -0.7063
 5386SOL    HW127794   0.220   0.775   4.969  1.1847 -1.5108 -0.9382
 5386SOL    HW227795   0.314   0.786   5.079  0.1350 -0.7852 -0.4422
 5387SOL     OW27796   3.378   4.549   5.233 -0.2478  0.5518  0.0414
 5387SOL    HW127797   3.360   4.612   5.164 -1.1682  0.7106  0.4293
 5387SOL    HW227798   3.299   4.494   5.229  0.2316 -0.1970  0.9288
 5388SOL     OW27799   0.577   2.754   7.419 -0.1734 -0.2558 -0.4293
 5388SOL    HW127800   0.581   2.768   7.514  0.8232 -0.7065 -0.3985
 5388SOL    HW227801   0.484   2.732   7.413 -0.8337  2.3826  0.3348
 5389SOL     OW27802   0.858   1.465   9.621 -0.4722  0.1008 -0.0859
 5389SOL    HW127803   0.900   1.379   9.623 -0.8271 -0.1658 -4.6137
 5389SOL    HW227804   0.788   1.444   9.682 -0.6373  0.2983 -0.2057
 5390SOL     OW27805   3.879   2.225  16.458  0.0714  0.2767  0.7643
 5390SOL    HW127806   3.820   2.214  16.384  0.8340  0.2200  0.1647
 5390SOL    HW227807   3.891   2.135  16.489 -0.7906 -0.2896 -0.5822
 5391SOL     OW27808   4.327   0.967   0.561 -0.3466 -0.3902 -0.5449
 5391SOL    HW127809   4.268   0.997   0.491  0.4356  1.1370 -0.5437
 5391SOL    HW227810   4.310   1.039   0.622 -2.2907 -0.6187 -0.8193
 5392SOL     OW27811   3.820   4.479   5.782 -0.5843  0.1713 -0.5525
 5392SOL    HW127812   3.911   4.449   5.784 -0.2174  1.3086 -0.2091
 5392SOL    HW227813   3.772   4.397   5.773 -1.1939  0.6137 -1.2996
 5393SOL     OW27814   3.008   2.866  10.160 -0.4960  0.4261 -0.1661
 5393SOL    HW127815   2.912   2.865  10.160 -0.5047  1.7466 -0.1300
 5393SOL    HW227816   3.041   2.776  10.169 -0.0113  0.6582  0.3852
 5394SOL     OW27817   0.430   3.165   8.325  0.8744  0.4959 -0.5654
 5394SOL    HW127818   0.480   3.224   8.268  2.1160  0.4450  0.4818
 5394SOL    HW227819   0.392   3.113   8.254  2.0702  0.4373 -1.1497
 5395SOL     OW27820   2.814   3.184   8.663  0.3117  1.1201 -0.4595
 5395SOL    HW127821   2.752   3.131   8.714  0.7843  0.2353 -0.8022
 5395SOL    HW227822   2.759   3.251   8.623 -0.5272  1.1441  0.7265
 5396SOL     OW27823   2.220   1.779  16.117  0.7746 -0.1340 -0.2468
 5396SOL    HW127824   2.177   1.864  16.118  0.2763 -0.4191  1.7057
 5396SOL    HW227825   2.173   1.720  16.176  0.1706  0.4791 -0.1142
 5397SOL     OW27826   0.917   1.098   7.920 -0.6336 -0.6707  0.4167
 5397SOL    HW127827   0.871   1.171   7.878  0.2668 -0.2580  0.1593
 5397SOL    HW227828   0.842   1.051   7.957  1.0655 -1.4302  2.9416
 5398SOL     OW27829   1.952   3.072   1.471 -0.0383  0.4848  0.1963
 5398SOL    HW127830   1.930   3.119   1.391 -1.0370  1.6104  1.1241
 5398SOL    HW227831   1.915   3.131   1.537  2.9303 -0.8446  3.0631
 5399SOL     OW27832   1.146   3.923   2.072  0.6662  0.5004 -0.6701
 5399SOL    HW127833   1.207   3.915   2.146  0.6818  3.5911 -0.3204
 5399SOL    HW227834   1.189   4.001   2.035 -0.5707  1.3538 -0.3082
 5400SOL     OW27835   4.370   4.111   2.365 -0.6752  0.2654  0.2188
 5400SOL    HW127836   4.420   4.040   2.324  0.4484  1.0650  0.2169
 5400SOL    HW227837   4.340   4.167   2.293  0.2680  1.3255  0.6505
 5401SOL     OW27838   2.385   4.199   6.940  0.3572  0.3141  0.5466
 5401SOL    HW127839   2.400   4.274   6.882  0.5855  0.9259  1.3991
 5401SOL    HW227840   2.442   4.219   7.015  3.1134 -2.7286 -0.7221
 5402SOL     OW27841   3.034   1.210   3.360 -0.5939 -0.2353  0.0639
 5402SOL    HW127842   2.958   1.249   3.402 -1.0029 -1.1410  0.1792
 5402SOL    HW227843   3.060   1.152   3.432  1.3047  0.7174  0.1657
 5403SOL     OW27844   1.218   2.503   3.321 -0.0514 -0.2170  0.0735
 5403SOL    HW127845   1.263   2.431   3.365  0.3030  0.5694  1.0197
 5403SOL    HW227846   1.191   2.553   3.398 -1.5603  1.6343 -1.6414
 5404SOL     OW27847   2.368   0.975   1.729  0.1258 -0.2723 -0.2667
 5404SOL    HW127848   2.283   0.975   1.686 -0.9121  1.3709  1.7838
 5404SOL    HW227849   2.399   1.054   1.684 -1.0872 -0.1832 -0.9510
 5405SOL     OW27850   3.605   1.067   2.743 -0.1582 -0.2342 -0.1605
 5405SOL    HW127851   3.650   1.040   2.663  0.2384  1.0791 -0.3815
 5405SOL    HW227852   3.672   1.049   2.810  1.6846 -0.2303 -2.0165
 5406SOL     OW27853   3.940   3.603   2.463 -0.4150 -0.7493 -0.3627
 5406SOL    HW127854   3.854   3.626   2.497  1.4561  1.3607  2.9469
 5406SOL    HW227855   3.985   3.685   2.484  0.4946 -1.5635  0.8644
 5407SOL     OW27856   1.069   4.036   5.647 -0.2633 -0.4877  0.3096
 5407SOL    HW127857   1.150   4.012   5.603 -1.1727 -0.9358 -1.1497
 5407SOL    HW227858   1.001   3.995   5.592  0.8652 -1.8086 -0.0962
 5408SOL     OW27859   0.499   1.521   6.364 -0.0218 -0.2361 -0.0745
 5408SOL    HW127860   0.468   1.519   6.454  1.2191 -0.5641  0.3446
 5408SOL    HW227861   0.497   1.613   6.339 -0.1960 -0.5063 -1.0982
 5409SOL     OW27862   2.180   1.034   8.280  0.1087 -0.5208  0.0528
 5409SOL    HW127863   2.140   1.007   8.363  0.7723 -2.0817 -0.1386
 5409SOL    HW227864   2.240   0.962   8.264  0.1532 -0.3290 -0.6115
 5410SOL     OW27865   1.968   1.592   7.121 -0.4067 -0.1963 -0.0619
 5410SOL    HW127866   2.048   1.643   7.108 -0.2014 -0.6767 -0.6905
 5410SOL    HW227867   1.899   1.643   7.079  0.1649 -0.1161 -0.9031
 5411SOL     OW27868   3.050   3.246   0.664 -0.3163 -0.1505  0.5491
 5411SOL    HW127869   2.956   3.228   0.672 -0.1295 -1.7421 -0.7341
 5411SOL    HW227870   3.093   3.172   0.707  0.9710 -0.0497 -0.5715
 5412SOL     OW27871   0.696   4.528  13.177  0.2333 -0.0027 -0.7217
 5412SOL    HW127872   0.704   4.506  13.270  1.4692  0.9378 -0.6031
 5412SOL    HW227873   0.741   4.452  13.140  1.1883  0.0537  0.3259
 5413SOL     OW27874   2.723   0.721   6.963  0.2801 -0.1213 -0.1642
 5413SOL    HW127875   2.744   0.812   6.984 -2.3904  1.3179 -3.8381
 5413SOL    HW227876   2.638   0.716   7.006  0.2999 -1.6590 -0.3029
 5414SOL     OW27877   4.739   2.879   8.381  0.6190 -0.3936 -0.2870
 5414SOL    HW127878   4.737   2.876   8.476  2.3033  0.8496 -0.2233
 5414SOL    HW227879   4.727   2.972   8.362  1.7873 -0.2482 -0.3004
 5415SOL     OW27880   1.529   0.944   3.707  0.0819  0.9509  0.6268
 5415SOL    HW127881   1.573   0.860   3.720 -0.6948  0.3870 -0.4344
 5415SOL    HW227882   1.459   0.934   3.771 -1.1695  0.8374 -0.7700
 5416SOL     OW27883   1.692   3.673   7.934 -0.1387  0.8429 -0.4830
 5416SOL    HW127884   1.623   3.693   7.997 -0.2683 -0.3028 -0.2712
 5416SOL    HW227885   1.672   3.585   7.903  2.0153  0.8449 -1.9170
 5417SOL     OW27886   3.820   4.018   2.487  0.4851 -0.0743 -0.0196
 5417SOL    HW127887   3.829   4.092   2.427 -0.4332  0.1119  0.0777
 5417SOL    HW227888   3.749   4.052   2.540  0.6144 -1.1704  0.8532
 5418SOL     OW27889   1.843   1.406   7.628 -0.1271  0.3907 -0.2391
 5418SOL    HW127890   1.859   1.459   7.706  0.0080  2.2983 -1.5385
 5418SOL    HW227891   1.879   1.459   7.557 -0.6955  0.4303 -0.4997
 5419SOL     OW27892   1.703   3.370   4.087  0.2421  0.3962  1.0153
 5419SOL    HW127893   1.700   3.387   4.181 -0.9204  3.0167  0.5058
 5419SOL    HW227894   1.637   3.430   4.052  3.0429  1.5981 -2.1675
 5420SOL     OW27895   0.510   3.686   7.463 -0.4557  0.2767  0.0315
 5420SOL    HW127896   0.559   3.604   7.465  0.0388  0.5771  0.4021
 5420SOL    HW227897   0.461   3.681   7.546 -1.0514 -1.3509 -0.4064
 5421SOL     OW27898   2.452   2.774   3.016 -0.4186 -0.0613 -0.0798
 5421SOL    HW127899   2.496   2.690   3.003  0.0359  0.2096 -0.2478
 5421SOL    HW227900   2.423   2.798   2.928  2.2605  2.3144 -0.3051
 5422SOL     OW27901   2.582   3.679   7.399  0.2590  0.5099  0.0076
 5422SOL    HW127902   2.618   3.594   7.424  1.0881  0.8801  0.0506
 5422SOL    HW227903   2.641   3.698   7.326 -0.1350  2.9903  0.3643
 5423SOL     OW27904   3.478   3.665   5.322  0.3970 -0.4155 -0.4626
 5423SOL    HW127905   3.460   3.665   5.228 -0.7306 -1.5684 -0.2396
 5423SOL    HW227906   3.389   3.675   5.358 -0.4719 -0.7927 -2.5198
 5424SOL     OW27907   3.367   4.174   3.102 -0.0883  0.1559  0.1910
 5424SOL    HW127908   3.382   4.136   3.188 -3.2252 -1.8406 -0.1614
 5424SOL    HW227909   3.342   4.101   3.045 -2.6246  1.0660  0.1154
 5425SOL     OW27910   0.656   1.275   8.070 -0.0224 -0.3328  0.9730
 5425SOL    HW127911   0.739   1.230   8.089  0.2128 -0.6996 -0.9308
 5425SOL    HW227912   0.640   1.340   8.138 -1.8452  0.6186 -0.3964
 5426SOL     OW27913   0.405   4.032   9.084 -0.3018 -0.0430 -0.3589
 5426SOL    HW127914   0.406   3.966   9.154  0.8424 -0.9769 -1.2533
 5426SOL    HW227915   0.424   4.109   9.137  0.7247  1.3951 -2.8759
 5427SOL     OW27916   1.468   4.488  14.457  0.4919  0.0439  0.1152
 5427SOL    HW127917   1.512   4.483  14.372  0.8529  1.8955  0.2043
 5427SOL    HW227918   1.374   4.502  14.446  0.7578  1.9352  0.3448
 5428SOL     OW27919   2.888   0.738   6.407  0.6620  0.2886 -0.0108
 5428SOL    HW127920   2.869   0.829   6.384 -2.6257 -0.1817  0.8049
 5428SOL    HW227921   2.818   0.708   6.465  1.7837 -0.9510  0.7198
 5429SOL     OW27922   3.624   0.978  12.007  0.1352  0.6140  0.9118
 5429SOL    HW127923   3.573   1.004  12.084 -1.9814  0.9591 -0.6041
 5429SOL    HW227924   3.706   1.024  12.020  0.8571 -0.6754  0.8891
 5430SOL     OW27925   1.751   4.618   7.302  0.0560 -0.0288  0.0742
 5430SOL    HW127926   1.823   4.565   7.266 -1.1300 -0.9293 -0.9937
 5430SOL    HW227927   1.758   4.605   7.396 -0.1289 -1.8579 -0.1565
 5431SOL     OW27928   4.627   2.157   0.034  0.0865 -0.2304  0.2503
 5431SOL    HW127929   4.593   2.155  17.716  0.5852 -0.6524  0.0697
 5431SOL    HW227930   4.593   2.239   0.070 -2.3153 -0.6880 -0.9846
 5432SOL     OW27931   2.747   2.982  17.139  0.3097  0.5437  0.3163
 5432SOL    HW127932   2.720   2.972  17.048 -0.5476 -1.7935  0.8342
 5432SOL    HW227933   2.713   3.070  17.157 -1.2337 -0.2279  1.1914
 5433SOL     OW27934   0.283   4.511   5.316  0.1403 -0.4206 -0.0455
 5433SOL    HW127935   0.256   4.507   5.225 -0.9484 -1.1355  0.3009
 5433SOL    HW227936   0.198   4.494   5.356  0.6169 -1.9506  0.2998
 5434SOL     OW27937   3.119   0.207  17.099 -0.7999  0.1201  0.1891
 5434SOL    HW127938   3.171   0.253  17.034 -2.7066  0.2444 -1.2529
 5434SOL    HW227939   3.034   0.237  17.065 -1.2824 -1.1131  0.2936
 5435SOL     OW27940   0.498   3.804   3.834  0.9426  0.1838 -0.3800
 5435SOL    HW127941   0.543   3.859   3.899  2.1122 -1.9563  0.6080
 5435SOL    HW227942   0.541   3.722   3.856 -0.1433 -0.1205  0.5962
 5436SOL     OW27943   1.441   2.407   2.912 -0.3187  0.1725  0.1569
 5436SOL    HW127944   1.534   2.421   2.929 -0.3498 -1.6537  1.8690
 5436SOL    HW227945   1.418   2.368   2.997  0.8921 -0.6265  0.1133
 5437SOL     OW27946   4.131   2.232  16.816 -0.5185  0.4505  0.0690
 5437SOL    HW127947   4.220   2.201  16.834 -0.8788 -0.8868 -0.4526
 5437SOL    HW227948   4.082   2.155  16.789 -1.8523  1.0896  0.7029
 5438SOL     OW27949   1.298   4.264   4.813  0.2988  0.3238 -0.0880
 5438SOL    HW127950   1.333   4.332   4.756  0.8780 -1.4525 -1.8744
 5438SOL    HW227951   1.210   4.253   4.776 -0.2442  1.9344  0.7427
 5439SOL     OW27952   4.573   0.362  11.605  0.0772 -0.0099 -0.2877
 5439SOL    HW127953   4.541   0.452  11.601 -0.1167 -0.2764 -4.7969
 5439SOL    HW227954   4.663   0.377  11.577  1.3981 -0.6338  3.5483
 5440SOL     OW27955   1.814   0.412   1.220 -0.3768 -0.0818 -0.6674
 5440SOL    HW127956   1.840   0.349   1.152 -0.8989 -2.3442  1.2242
 5440SOL    HW227957   1.720   0.411   1.203 -0.9452 -1.1307  2.4995
 5441SOL     OW27958   3.319   2.191   7.461  0.2872 -0.2795 -0.0637
 5441SOL    HW127959   3.275   2.107   7.474  0.9899 -0.7829 -0.9488
 5441SOL    HW227960   3.409   2.159   7.458  0.3226 -0.3211  1.3102
 5442SOL     OW27961   0.884   1.915  12.022 -0.8008  0.1782  0.0660
 5442SOL    HW127962   0.806   1.861  12.032  1.2633 -2.7900  0.1416
 5442SOL    HW227963   0.946   1.891  12.091 -0.1485 -0.4692 -0.7398
 5443SOL     OW27964   3.976   3.607   4.686 -0.1760  0.3638 -0.5931
 5443SOL    HW127965   3.918   3.682   4.700  0.6185  1.0756 -1.1760
 5443SOL    HW227966   4.056   3.638   4.727 -0.4596  1.2025 -0.6657
 5444SOL     OW27967   0.956   3.820   7.560 -0.0061 -0.1413 -0.4703
 5444SOL    HW127968   0.965   3.853   7.650  1.1146  0.6138 -0.8544
 5444SOL    HW227969   1.041   3.777   7.552  0.4880  0.7502  0.0069
 5445SOL     OW27970   4.384   4.177   6.012  0.1098 -0.1765  0.5800
 5445SOL    HW127971   4.345   4.191   6.098 -0.1255 -0.8102  0.5742
 5445SOL    HW227972   4.459   4.237   6.016 -1.0508  1.4162 -1.1601
 5446SOL     OW27973   2.950   2.328   3.987 -0.0410 -0.0500  0.0858
 5446SOL    HW127974   2.994   2.404   4.025 -3.5439  1.1039  1.8189
 5446SOL    HW227975   2.905   2.302   4.068  0.7259 -0.8442  0.2649
 5447SOL     OW27976   2.194   2.861   9.162 -0.0090  0.7437 -0.2474
 5447SOL    HW127977   2.269   2.836   9.108 -0.0691  0.6122 -0.2697
 5447SOL    HW227978   2.252   2.882   9.235  1.7009 -1.9453 -0.8231
 5448SOL     OW27979   2.957   1.037   8.204 -0.5412 -0.1092 -0.2260
 5448SOL    HW127980   3.004   0.969   8.252  0.3125 -0.0737 -1.0128
 5448SOL    HW227981   3.007   1.034   8.122  2.9708 -0.8107  1.9813
 5449SOL     OW27982   2.940   4.571  10.161  0.0977 -0.6882  0.0020
 5449SOL    HW127983   2.897   4.610  10.085  0.4466 -0.1790  0.0640
 5449SOL    HW227984   2.993   4.507  10.115 -0.5643 -2.7733  2.1479
 5450SOL     OW27985   2.846   4.255   0.992  0.6414 -0.6522 -0.0424
 5450SOL    HW127986   2.940   4.247   0.975  1.1246  0.1836  2.2210
 5450SOL    HW227987   2.849   4.312   1.069  1.4108 -1.1392  0.2943
 5451SOL     OW27988   1.267   1.052   3.912 -0.0309 -0.7040  0.5345
 5451SOL    HW127989   1.179   1.057   3.874  1.3557  2.6572 -2.2429
 5451SOL    HW227990   1.279   0.957   3.915 -2.1945 -1.0911 -2.9074
 5452SOL     OW27991   3.707   1.940   5.337  0.0281 -0.3731  0.3869
 5452SOL    HW127992   3.802   1.949   5.349 -0.4039  1.7961  2.3212
 5452SOL    HW227993   3.709   1.845   5.340  0.4708 -0.4830 -3.0145
 5453SOL     OW27994   0.733   2.537   7.710  0.8455 -0.1360 -0.7976
 5453SOL    HW127995   0.807   2.524   7.651  1.1117  0.4172 -0.5784
 5453SOL    HW227996   0.781   2.532   7.793  0.3764 -0.6973 -0.5537
 5454SOL     OW27997   3.406   2.614   6.006 -0.3345 -0.2779 -0.4347
 5454SOL    HW127998   3.315   2.605   6.033 -0.5392 -0.6997 -1.2988
 5454SOL    HW227999   3.410   2.652   5.918  1.0385 -0.0975 -0.2977
 5455SOL     OW28000   3.058   3.660   1.918 -0.1598 -0.1099 -0.5434
 5455SOL    HW128001   3.017   3.744   1.939 -1.0664 -1.2115  2.1153
 5455SOL    HW228002   3.144   3.698   1.901  0.1805 -0.3776  0.5782
 5456SOL     OW28003   1.906   2.518   7.674 -0.0339  0.5346  0.4455
 5456SOL    HW128004   1.902   2.458   7.599  1.7135  0.8725  0.0751
 5456SOL    HW228005   1.990   2.561   7.656 -0.0426  0.6737  0.7357
 5457SOL     OW28006   3.737   0.475   3.826  0.5606 -0.0785  0.0316
 5457SOL    HW128007   3.791   0.500   3.900 -0.1785  2.1126 -0.1798
 5457SOL    HW228008   3.659   0.435   3.865 -0.6348  2.3937  0.1580
 5458SOL     OW28009   3.084   4.451   1.280 -0.0747  0.1746 -0.2818
 5458SOL    HW128010   3.139   4.420   1.209 -2.2952 -0.1249 -1.8750
 5458SOL    HW228011   3.046   4.510   1.215 -0.9024 -1.0059 -0.8587
 5459SOL     OW28012   4.684   2.254   9.319  0.0822 -0.8550  0.0508
 5459SOL    HW128013   4.690   2.350   9.313  2.8454 -0.9865  1.0532
 5459SOL    HW228014   4.675   2.250   9.414 -1.0983 -0.3430 -0.0399
 5460SOL     OW28015   4.190   1.334  17.523  0.2037  0.3256  0.2211
 5460SOL    HW128016   4.150   1.400  17.466 -1.4579 -1.7241 -0.9444
 5460SOL    HW228017   4.116   1.295  17.570  0.1687  0.1788  0.0418
 5461SOL     OW28018   3.127   2.354  11.949  0.3619 -0.3520 -0.7210
 5461SOL    HW128019   3.161   2.279  11.900 -0.3837  0.3051 -2.2621
 5461SOL    HW228020   3.132   2.326  12.040  1.1504  2.3303  0.0624
 5462SOL     OW28021   2.452   0.697   4.899 -0.3497 -0.6448 -1.0152
 5462SOL    HW128022   2.486   0.637   4.832  1.5756  1.2171 -1.7101
 5462SOL    HW228023   2.491   0.650   4.973  0.4197 -1.5736 -2.0010
 5463SOL     OW28024   1.890   2.242   2.006  0.6455 -0.4546  0.2310
 5463SOL    HW128025   1.796   2.237   2.022  0.6559 -0.3264  0.3377
 5463SOL    HW228026   1.879   2.311   1.941  1.2210 -1.3502 -0.8028
 5464SOL     OW28027   2.872   4.502   9.500 -0.1760 -0.4713 -0.2667
 5464SOL    HW128028   2.879   4.453   9.582  0.2712 -1.7451 -1.0697
 5464SOL    HW228029   2.963   4.504   9.472  0.2274  1.0749  1.1225
 5465SOL     OW28030   3.162   1.017   2.460 -0.0805 -0.6216  0.2017
 5465SOL    HW128031   3.132   0.959   2.391 -1.3358  0.1579  0.0934
 5465SOL    HW228032   3.257   1.010   2.452  0.0658 -0.2409  1.5364
 5466SOL     OW28033   0.420   1.756  13.212 -0.4159  0.0365 -0.0647
 5466SOL    HW128034   0.325   1.764  13.217 -0.2176  1.5325  1.3668
 5466SOL    HW228035   0.434   1.670  13.252 -1.1272  0.3616  0.8854
 5467SOL     OW28036   2.571   2.315  16.386  0.1042  0.0636 -0.9204
 5467SOL    HW128037   2.647   2.373  16.385 -0.7050  1.1401  2.3144
 5467SOL    HW228038   2.582   2.269  16.302 -1.5881  0.8534 -1.5717
 5468SOL     OW28039   0.179   4.618  10.235 -0.0130 -0.3022  0.4801
 5468SOL    HW128040   0.265   4.598  10.198 -0.5322 -1.2298 -0.2446
 5468SOL    HW228041   0.213   4.666  10.310  3.7661  0.0912 -1.4876
 5469SOL     OW28042   0.549   2.986   5.107 -0.0943 -0.7820  0.2848
 5469SOL    HW128043   0.620   2.979   5.172 -0.2713 -1.0273  0.4531
 5469SOL    HW228044   0.574   2.911   5.053 -0.2607  1.1607 -2.4356
 5470SOL     OW28045   3.280   1.038   0.955 -0.4604  0.4454  0.2394
 5470SOL    HW128046   3.270   0.944   0.940  0.2644  0.3472  0.4120
 5470SOL    HW228047   3.313   1.034   1.044  1.4184  0.3298 -0.4700
 5471SOL     OW28048   0.104   3.867  15.103 -0.0715  0.0478  0.6596
 5471SOL    HW128049   0.027   3.867  15.046 -0.2280 -3.9651  0.8543
 5471SOL    HW228050   0.146   3.947  15.072  3.0633 -2.1800 -0.8128
 5472SOL     OW28051   3.693   0.568  14.319  0.1884 -0.0286  0.8117
 5472SOL    HW128052   3.740   0.561  14.236 -1.7356  0.4155 -0.3129
 5472SOL    HW228053   3.635   0.492  14.320 -0.9245  0.7913 -1.0901
 5473SOL     OW28054   3.995   1.392   4.138  0.1937 -0.2133 -0.0049
 5473SOL    HW128055   4.009   1.324   4.204  3.6888  0.1266 -0.3999
 5473SOL    HW228056   3.923   1.443   4.174  2.7558  1.7986  2.2797
 5474SOL     OW28057   2.216   3.847   8.409 -0.4243 -0.2011  0.8158
 5474SOL    HW128058   2.202   3.941   8.400  1.5710 -0.2639 -2.8017
 5474SOL    HW228059   2.280   3.834   8.340 -0.3748  1.0786  0.6270
 5475SOL     OW28060   4.008   1.704   9.610  0.1883 -0.0563 -0.2253
 5475SOL    HW128061   3.967   1.670   9.530  0.3315  1.3634 -0.9012
 5475SOL    HW228062   4.065   1.630   9.630 -0.3860 -0.3649  0.2861
 5476SOL     OW28063   3.550   3.739   9.683 -0.3199  0.3491 -0.7529
 5476SOL    HW128064   3.526   3.646   9.689 -1.2158  0.5694 -0.9264
 5476SOL    HW228065   3.465   3.783   9.676  1.4565  3.5265 -2.3056
 5477SOL     OW28066   4.151   1.623   8.046  0.1502  0.5265 -0.0800
 5477SOL    HW128067   4.153   1.682   8.122  0.6208  1.0171 -0.4737
 5477SOL    HW228068   4.062   1.590   8.045  1.0896 -2.0693  1.9161
 5478SOL     OW28069   0.937   1.824   0.777 -0.0933 -0.1391 -0.0111
 5478SOL    HW128070   0.860   1.810   0.831  1.2210 -2.3795  1.2754
 5478SOL    HW228071   0.899   1.869   0.701 -1.6786  1.6813  1.8742
 5479SOL     OW28072   0.181   2.672  17.703  0.5912  0.4985 -0.2209
 5479SOL    HW128073   0.194   2.761  17.671 -0.1064 -0.1318 -2.2914
 5479SOL    HW228074   0.266   2.653  17.742  0.5174 -2.2381 -1.3890
 5480SOL     OW28075   4.634   2.377   2.625  0.4427 -0.2133 -0.2158
 5480SOL    HW128076   4.614   2.459   2.670 -0.4512  0.0194 -1.0428
 5480SOL    HW228077   4.549   2.332   2.629  0.9819 -1.0337  2.2588
 5481SOL     OW28078   1.811   3.353  12.501  0.1359  0.1702  0.0019
 5481SOL    HW128079   1.881   3.293  12.529  1.8094  2.6343  1.1647
 5481SOL    HW228080   1.743   3.286  12.495  0.3687 -0.0556 -0.1422
 5482SOL     OW28081   4.560   4.330   8.790  0.6664  0.0467  0.2223
 5482SOL    HW128082   4.599   4.283   8.717 -0.2644 -0.5768  0.1248
 5482SOL    HW228083   4.552   4.256   8.850  3.1827 -2.1807 -2.1849
 5483SOL     OW28084   0.380   3.479   8.400  0.0923  0.4215  0.5093
 5483SOL    HW128085   0.316   3.528   8.349 -0.1019  0.1406  0.4810
 5483SOL    HW228086   0.462   3.468   8.352 -1.0269 -0.2825 -1.2393
 5484SOL     OW28087   0.262   1.157   7.310 -0.7945  0.1417 -0.7642
 5484SOL    HW128088   0.191   1.121   7.363  0.4340 -0.3497  0.5474
 5484SOL    HW228089   0.235   1.248   7.323 -0.1471  0.2637 -0.3004
 5485SOL     OW28090   0.032   2.700   3.382 -0.3679  0.1239  0.6115
 5485SOL    HW128091   0.053   2.718   3.290  2.0497 -0.1125  1.0988
 5485SOL    HW228092   4.682   2.716   3.390 -0.2720  0.5912  0.8447
 5486SOL     OW28093   2.345   4.625   5.899  0.5413 -0.1856 -0.3148
 5486SOL    HW128094   2.258   4.587   5.911  1.8828 -2.4307  2.0201
 5486SOL    HW228095   2.398   4.547   5.909  2.1707  0.8826 -0.5912
 5487SOL     OW28096   4.359   3.612   5.115 -0.6858 -0.1569  0.5330
 5487SOL    HW128097   4.418   3.665   5.062 -1.7480  0.1933 -0.3071
 5487SOL    HW228098   4.419   3.583   5.185  0.9562  1.0204 -0.3978
 5488SOL     OW28099   2.516   4.198   7.197  0.2550  0.1226 -0.1468
 5488SOL    HW128100   2.547   4.257   7.266 -1.7243 -1.2598  1.9218
 5488SOL    HW228101   2.574   4.122   7.195  1.1314  0.8147 -1.2363
 5489SOL     OW28102   3.163   4.188  10.207 -0.2178 -0.0785  0.1862
 5489SOL    HW128103   3.157   4.261  10.270 -1.5119  0.7969 -0.9519
 5489SOL    HW228104   3.254   4.195  10.178 -0.3820 -0.3443 -0.3814
 5490SOL     OW28105   0.499   0.762   4.334  0.6846 -0.0812  0.3206
 5490SOL    HW128106   0.454   0.829   4.283  0.4339 -1.9453 -1.9430
 5490SOL    HW228107   0.568   0.742   4.271  1.2831 -2.4960  1.7518
 5491SOL     OW28108   1.079   4.032   6.198 -0.5833  0.3169 -0.0411
 5491SOL    HW128109   1.149   3.979   6.161 -1.4073 -0.7468 -0.0804
 5491SOL    HW228110   1.136   4.072   6.263  0.3494 -2.9489  1.1636
 5492SOL     OW28111   0.854   1.064   4.642  0.0029  0.7922  0.1967
 5492SOL    HW128112   0.913   1.049   4.568  1.0124  1.7033  0.8117
 5492SOL    HW228113   0.878   1.154   4.664 -0.5976  1.1689 -0.7072
 5493SOL     OW28114   1.944   1.455   4.110 -0.4150 -0.0062 -0.0169
 5493SOL    HW128115   2.033   1.472   4.080 -0.9891  0.2693 -1.5336
 5493SOL    HW228116   1.940   1.360   4.102 -0.4967 -0.0614  0.6745
 5494SOL     OW28117   2.515   0.371   4.941 -0.3406 -0.1413 -0.2209
 5494SOL    HW128118   2.558   0.294   4.904 -1.9590 -0.6364 -1.0824
 5494SOL    HW228119   2.426   0.336   4.946  0.2370 -1.4925  0.3788
 5495SOL     OW28120   3.960   2.842  12.870  0.5732  0.1429 -0.2860
 5495SOL    HW128121   3.914   2.759  12.858  1.8708 -0.7540  0.9467
 5495SOL    HW228122   4.026   2.818  12.936  0.3738 -0.7879 -0.4227
 5496SOL     OW28123   0.087   1.531   3.781 -0.1617  0.0161  0.4439
 5496SOL    HW128124   0.068   1.619   3.749 -2.5979 -0.2465  1.1365
 5496SOL    HW228125   0.025   1.518   3.853  0.8501  1.3236  1.5547
 5497SOL     OW28126   3.159   4.706   7.684  0.3133  0.2279 -0.0223
 5497SOL    HW128127   3.189   4.616   7.698  1.1411  0.3067 -1.2725
 5497SOL    HW228128   3.065   4.689   7.687  0.4594 -0.6926 -0.7633
 5498SOL     OW28129   0.477   3.208   5.700  0.3333 -0.7937  0.5532
 5498SOL    HW128130   0.532   3.286   5.708 -1.0086  0.2791 -0.7170
 5498SOL    HW228131   0.529   3.143   5.747  2.9249  0.0964 -1.0596
 5499SOL     OW28132   1.195   2.553   3.070 -0.0229  0.2388  0.2653
 5499SOL    HW128133   1.265   2.602   3.026  0.8192  0.1810  1.5410
 5499SOL    HW228134   1.224   2.529   3.158  0.7702  0.7809  0.1523
 5500SOL     OW28135   1.284   0.372   9.503 -0.1722 -0.5778 -0.0494
 5500SOL    HW128136   1.370   0.414   9.507 -0.6342  0.4368 -0.6723
 5500SOL    HW228137   1.258   0.413   9.421  1.1032  0.1955 -0.0596
 5501SOL     OW28138   1.367   2.905   8.921  0.0486  0.0495 -0.3448
 5501SOL    HW128139   1.302   2.907   8.850 -1.3946  2.1443  1.0204
 5501SOL    HW228140   1.322   2.852   8.986  0.1032  2.3720  1.5575
 5502SOL     OW28141   4.036   3.042   9.072 -0.0918  0.2324 -0.7454
 5502SOL    HW128142   4.013   2.954   9.101 -1.8630  0.9112 -0.1422
 5502SOL    HW228143   4.118   3.050   9.121  0.4094 -1.2695 -1.3381
 5503SOL     OW28144   1.395   0.761   9.341  0.0400  0.2437  0.3140
 5503SOL    HW128145   1.339   0.788   9.414 -2.1085 -0.5286 -1.0627
 5503SOL    HW228146   1.440   0.842   9.318 -0.0116 -0.0093 -0.6574
 5504SOL     OW28147   4.719   3.986  12.730  0.8916 -0.3458 -0.0652
 5504SOL    HW128148   0.025   4.067  12.736  0.0115  0.1860  0.0887
 5504SOL    HW228149   4.725   3.969  12.636 -0.9441  1.6166 -0.5507
 5505SOL     OW28150   3.494   2.541  10.267 -0.5645  0.5133  0.1356
 5505SOL    HW128151   3.497   2.482  10.342  1.2755  0.8688  0.3357
 5505SOL    HW228152   3.463   2.486  10.195  1.9153 -0.2564 -0.3444
 5506SOL     OW28153   1.452   0.316   6.579  0.0667 -0.0117  0.3447
 5506SOL    HW128154   1.509   0.256   6.531 -1.0705 -0.1511 -0.8407
 5506SOL    HW228155   1.367   0.272   6.580 -1.2211  2.4316 -0.7629
 5507SOL     OW28156   2.707   3.574   3.533 -0.1575  0.6839 -0.4200
 5507SOL    HW128157   2.712   3.494   3.481  3.3240 -0.0826  1.0795
 5507SOL    HW228158   2.797   3.598   3.557 -0.7027  0.6634  1.6327
 5508SOL     OW28159   3.409   4.607   6.863 -0.2080 -0.2928  0.0780
 5508SOL    HW128160   3.390   4.555   6.785  0.9977  0.5795 -0.7950
 5508SOL    HW228161   3.351   4.563   6.925 -0.8439  0.0045 -0.3090
 5509SOL     OW28162   2.701   0.353  10.455 -0.1928 -0.0136  0.3172
 5509SOL    HW128163   2.665   0.438  10.431  0.5781 -0.0230 -0.8350
 5509SOL    HW228164   2.740   0.377  10.540 -0.9776  1.2466  0.3118
 5510SOL     OW28165   2.841   3.116  11.574 -0.4032  0.2022  0.2620
 5510SOL    HW128166   2.869   3.198  11.614  0.7926 -0.1558  0.1551
 5510SOL    HW228167   2.766   3.091  11.628 -1.1798 -0.6695 -1.2203
 5511SOL     OW28168   3.489   1.836   2.592 -0.1799  0.1036 -0.3762
 5511SOL    HW128169   3.411   1.872   2.551  1.0663 -0.0235 -2.8828
 5511SOL    HW228170   3.455   1.822   2.681 -0.4200  2.8503 -0.0209
 5512SOL     OW28171   4.250   0.592  15.052  0.1997 -0.1880 -0.0812
 5512SOL    HW128172   4.287   0.661  14.997  0.9417 -0.7733 -0.3277
 5512SOL    HW228173   4.161   0.625  15.063 -0.2919 -0.7198 -2.6372
 5513SOL     OW28174   1.132   1.929  12.473  0.4935  0.1250 -0.0147
 5513SOL    HW128175   1.208   1.985  12.460  1.4713 -1.1387  0.2090
 5513SOL    HW228176   1.174   1.849  12.506 -2.5037 -0.3389  2.6950
 5514SOL     OW28177   1.428   3.155   0.105 -0.7057 -0.0062  0.1626
 5514SOL    HW128178   1.447   3.220   0.172 -0.2519 -1.3971  1.3944
 5514SOL    HW228179   1.340   3.185   0.085  0.2559  2.9009  0.2459
 5515SOL     OW28180   4.731   2.300   8.257  0.2145  0.0858 -0.1292
 5515SOL    HW128181   4.674   2.259   8.192  0.3824  2.1354 -1.5703
 5515SOL    HW228182   0.044   2.229   8.288  0.5826  0.2037 -0.5368
 5516SOL     OW28183   2.827   1.060   3.608 -0.5901  0.8787 -0.3919
 5516SOL    HW128184   2.779   1.011   3.542  0.6516 -0.4397 -0.3310
 5516SOL    HW228185   2.903   1.005   3.628  0.0188  1.6963 -0.4480
 5517SOL     OW28186   1.285   3.162   4.970  0.3766  0.2225 -0.0422
 5517SOL    HW128187   1.237   3.241   4.947  0.3129  0.6152  1.4343
 5517SOL    HW228188   1.233   3.089   4.936  0.6815 -0.1218  0.2270
 5518SOL     OW28189   2.658   3.022   2.602  0.3880 -0.1354  0.0679
 5518SOL    HW128190   2.680   3.101   2.651 -1.7187  0.9013 -0.6739
 5518SOL    HW228191   2.573   3.043   2.564 -0.1273 -1.0716  0.7036
 5519SOL     OW28192   0.501   0.168   4.288 -0.0726 -0.4820  0.1224
 5519SOL    HW128193   0.504   0.241   4.350 -1.2651  0.8213 -1.3344
 5519SOL    HW228194   0.410   0.144   4.305 -0.2591 -0.2935 -0.5771
 5520SOL     OW28195   0.834   1.217   2.555 -0.4813 -0.5072  0.0211
 5520SOL    HW128196   0.747   1.189   2.582 -1.8677  1.5684 -2.4091
 5520SOL    HW228197   0.850   1.271   2.632 -1.9900 -0.9895  0.6677
 5521SOL     OW28198   2.070   2.182   2.412  0.2528 -0.1588 -0.3777
 5521SOL    HW128199   2.116   2.119   2.467  0.1873 -1.2217 -1.5285
 5521SOL    HW228200   2.030   2.232   2.482  0.2359 -2.9310  1.5682
 5522SOL     OW28201   2.815   1.894   1.716  0.4169  0.1088 -0.0323
 5522SOL    HW128202   2.856   1.830   1.775 -1.0819 -0.0925  0.7893
 5522SOL    HW228203   2.845   1.882   1.626 -0.3666 -1.1570 -0.1309
 5523SOL     OW28204   4.415   3.275   2.395 -0.3345  0.2301 -0.8598
 5523SOL    HW128205   4.347   3.336   2.425 -1.4375 -0.8575 -1.1459
 5523SOL    HW228206   4.448   3.336   2.329  0.7695 -1.2747 -1.6873
 5524SOL     OW28207   1.190   2.081   3.564 -0.5542  0.5409  0.1006
 5524SOL    HW128208   1.263   2.021   3.582  0.2266  1.2277 -0.8015
 5524SOL    HW228209   1.112   2.026   3.569 -0.0037 -0.1374  1.3533
 5525SOL     OW28210   0.852   0.347   5.221  0.6140  0.4882  0.1572
 5525SOL    HW128211   0.777   0.313   5.269  0.0388  3.0168  1.0702
 5525SOL    HW228212   0.923   0.284   5.233 -0.8001 -1.2485 -0.7723
 5526SOL     OW28213   1.639   3.855  16.672  0.1906  0.0110  0.3875
 5526SOL    HW128214   1.723   3.838  16.628 -0.0162 -2.1857  0.8055
 5526SOL    HW228215   1.579   3.843  16.598 -0.5494  0.3210  0.9533
 5527SOL     OW28216   2.827   4.494   2.057  0.7016 -0.2679  0.7091
 5527SOL    HW128217   2.877   4.420   2.090  3.1658  1.2027  0.3158
 5527SOL    HW228218   2.754   4.441   2.027  0.5889  0.1745  0.1931
 5528SOL     OW28219   4.397   2.436   8.437 -0.2863  0.0214 -0.5211
 5528SOL    HW128220   4.476   2.479   8.404 -1.4629  2.6753  0.1721
 5528SOL    HW228221   4.386   2.490   8.516 -2.4205 -0.2862 -0.6260
 5529SOL     OW28222   2.216   1.035  16.116  0.0765 -0.2121  0.5550
 5529SOL    HW128223   2.231   1.056  16.208  0.0245 -0.4269  0.6144
 5529SOL    HW228224   2.233   0.940  16.112 -0.4451 -0.2247 -1.7042
 5530SOL     OW28225   3.780   4.216   5.798  0.3043 -0.2160 -0.4180
 5530SOL    HW128226   3.686   4.197   5.809  0.2090 -0.7991 -2.3648
 5530SOL    HW228227   3.822   4.161   5.864  1.9131  0.0480 -1.2346
 5531SOL     OW28228   2.777   2.005   8.793 -0.2762 -0.1481  0.3145
 5531SOL    HW128229   2.709   2.069   8.813 -0.7924 -0.8194  0.6957
 5531SOL    HW228230   2.728   1.923   8.792 -0.6626  0.0803  0.6340
 5532SOL     OW28231   0.668   1.206   4.794 -0.1411  0.2100 -1.0830
 5532SOL    HW128232   0.702   1.130   4.748  0.0258  0.5609 -1.5323
 5532SOL    HW228233   0.743   1.235   4.847 -0.3283 -0.4775 -0.4381
 5533SOL     OW28234   4.167   2.556  10.666  0.2968  0.1090 -0.0777
 5533SOL    HW128235   4.097   2.549  10.602 -0.1075 -1.9680  0.5816
 5533SOL    HW228236   4.148   2.479  10.720 -0.4465 -0.3897 -1.0620
 5534SOL     OW28237   1.141   4.358   5.464 -0.0102 -0.3850  0.1084
 5534SOL    HW128238   1.124   4.437   5.413  1.4817  0.1654  0.4456
 5534SOL    HW228239   1.123   4.291   5.399  0.4089 -1.7521  1.4120
 5535SOL     OW28240   4.026   3.407  16.830  0.1344 -0.1481  0.7754
 5535SOL    HW128241   4.040   3.322  16.788 -4.3530  0.2162 -1.5541
 5535SOL    HW228242   3.933   3.410  16.855 -0.0719 -3.0011  0.3479
 5536SOL     OW28243   3.115   2.252   7.843 -0.4445  0.0073  0.1655
 5536SOL    HW128244   3.174   2.295   7.781 -0.2567  1.5109  1.3918
 5536SOL    HW228245   3.146   2.162   7.834 -1.4551 -0.0096 -3.0846
 5537SOL     OW28246   2.207   4.547  14.809  0.2229 -0.2618  0.2621
 5537SOL    HW128247   2.146   4.532  14.881 -0.3149 -0.4970 -0.2452
 5537SOL    HW228248   2.150   4.597  14.750  1.2805 -0.0327 -0.5720
 5538SOL     OW28249   0.613   4.033   6.391  0.3734 -0.2650  0.4985
 5538SOL    HW128250   0.539   3.995   6.438  0.3842 -0.3844  0.4185
 5538SOL    HW228251   0.634   3.955   6.339 -0.0962 -0.1212  0.0880
 5539SOL     OW28252   1.714   0.623  11.912  0.3993 -0.9569  0.0232
 5539SOL    HW128253   1.746   0.607  11.823 -1.6796  1.6992 -1.2053
 5539SOL    HW228254   1.649   0.553  11.920  0.3317 -0.7465  1.3215
 5540SOL     OW28255   0.448   0.970   4.048  0.6873 -0.1631  0.6793
 5540SOL    HW128256   0.414   1.017   3.972  0.2371 -0.4016  0.7302
 5540SOL    HW228257   0.360   0.936   4.065  2.0531 -2.6807  2.5799
 5541SOL     OW28258   3.742   0.736   0.407  0.2653  0.3545 -0.1785
 5541SOL    HW128259   3.656   0.715   0.370  0.0698 -1.5394  1.3302
 5541SOL    HW228260   3.716   0.810   0.462 -1.1523 -1.1322  1.1767
 5542SOL     OW28261   1.370   3.547  16.518 -0.0843  0.4312 -0.1135
 5542SOL    HW128262   1.437   3.487  16.485  0.1083  0.7245 -0.2580
 5542SOL    HW228263   1.383   3.538  16.613 -1.7830 -1.1752 -0.0215
 5543SOL     OW28264   2.852   0.511   7.092 -0.2297 -0.1180 -0.3231
 5543SOL    HW128265   2.789   0.565   7.045 -0.6153 -1.7361 -1.6540
 5543SOL    HW228266   2.931   0.566   7.095 -1.7191  2.0039  0.1005
 5544SOL     OW28267   1.189   0.336   3.850  0.3887  0.1653 -0.2128
 5544SOL    HW128268   1.139   0.274   3.796  1.3734 -0.9203  0.1081
 5544SOL    HW228269   1.159   0.316   3.939 -0.9295  1.1147 -0.4496
 5545SOL     OW28270   4.522   2.583   5.862 -0.3111 -0.4014  0.1412
 5545SOL    HW128271   4.603   2.602   5.815 -0.7569 -2.8372 -1.5885
 5545SOL    HW228272   4.457   2.558   5.796  0.8696  1.8722 -1.8566
 5546SOL     OW28273   1.401   2.173  10.742  0.2673 -0.3143 -0.1896
 5546SOL    HW128274   1.493   2.150  10.756  0.1168 -0.2794  0.8446
 5546SOL    HW228275   1.348   2.097  10.767  0.7045 -0.2336  1.0076
 5547SOL     OW28276   0.978   2.543   9.294  0.4142 -0.4846  0.4038
 5547SOL    HW128277   1.046   2.596   9.336 -1.5931  3.1244 -0.8269
 5547SOL    HW228278   0.992   2.560   9.201  2.1505  3.1657  1.3055
 5548SOL     OW28279   1.149   2.124   9.359  0.0105  0.0257 -0.4841
 5548SOL    HW128280   1.187   2.197   9.311 -1.0565  1.3895  0.7493
 5548SOL    HW228281   1.089   2.171   9.417  0.0583  1.8061 -1.9020
 5549SOL     OW28282   3.782   1.509   4.257  0.2460 -0.0557  0.3215
 5549SOL    HW128283   3.738   1.431   4.291  0.8552 -0.6193 -0.1909
 5549SOL    HW228284   3.750   1.579   4.314 -0.9197  0.7084 -1.2478
 5550SOL     OW28285   1.732   4.600   5.731  0.0329 -0.1291  0.6465
 5550SOL    HW128286   1.658   4.640   5.777 -0.2309  0.3230 -0.1826
 5550SOL    HW228287   1.804   4.626   5.788  1.3931 -0.3583 -0.9785
 5551SOL     OW28288   0.253   3.803   8.609 -0.0714 -0.0087  0.6322
 5551SOL    HW128289   0.312   3.834   8.541  1.0034 -3.2848  0.0311
 5551SOL    HW228290   0.299   3.833   8.687  1.7314  1.0970 -0.8701
 5552SOL     OW28291   3.957   3.298   3.065  0.0130 -0.5854 -0.0013
 5552SOL    HW128292   4.045   3.285   3.029  0.2379  0.4282  0.1811
 5552SOL    HW228293   3.916   3.212   3.070  0.1927 -0.7547 -1.6782
 5553SOL     OW28294   3.131   0.365   3.748 -0.1053 -0.5446 -0.0300
 5553SOL    HW128295   3.153   0.292   3.690  0.4409 -2.8084  3.0914
 5553SOL    HW228296   3.044   0.332   3.770 -0.5285  1.8327  1.8586
 5554SOL     OW28297   3.846   3.027   3.103  0.1820 -0.3028 -0.0746
 5554SOL    HW128298   3.905   2.991   3.168  0.9578 -0.0862 -0.6549
 5554SOL    HW228299   3.815   2.949   3.057 -1.3701  0.8834 -1.0293
 5555SOL     OW28300   2.293   1.509   0.123 -0.4804 -0.0716 -1.1652
 5555SOL    HW128301   2.292   1.494   0.218 -1.5172  0.9634 -1.0043
 5555SOL    HW228302   2.323   1.423   0.095 -1.2759 -0.1282 -1.8289
 5556SOL     OW28303   4.420   0.666  15.345  0.2590 -0.7008 -0.5066
 5556SOL    HW128304   4.436   0.676  15.439  0.5041  0.1995 -0.6467
 5556SOL    HW228305   4.358   0.593  15.346 -0.0244 -0.4527  0.4685
 5557SOL     OW28306   0.959   2.749   3.212  0.0083  0.3705  0.1486
 5557SOL    HW128307   1.037   2.802   3.199  0.8028 -1.0053 -0.5976
 5557SOL    HW228308   0.991   2.690   3.279 -0.0173 -0.3088 -0.4412
 5558SOL     OW28309   0.721   3.763   4.971 -0.5407  0.3614 -0.4637
 5558SOL    HW128310   0.629   3.792   4.969 -0.7637 -0.4238 -1.3305
 5558SOL    HW228311   0.708   3.672   4.998 -2.2357  0.8011  0.2441
 5559SOL     OW28312   3.793   4.076   3.953 -0.0531 -0.3989 -0.5267
 5559SOL    HW128313   3.777   4.170   3.962 -1.2988 -0.6329 -0.2384
 5559SOL    HW228314   3.727   4.044   4.014 -1.0184 -0.9605 -1.8678
 5560SOL     OW28315   4.530   2.663  17.226 -0.1149  0.3635  0.5979
 5560SOL    HW128316   4.457   2.707  17.181  0.8157  0.5585 -0.7071
 5560SOL    HW228317   4.482   2.581  17.237  0.7606 -0.2149  0.0490
 5561SOL     OW28318   3.425   2.804  16.433 -0.2104  0.8547 -0.3304
 5561SOL    HW128319   3.343   2.755  16.430 -0.5557  1.5443 -2.0976
 5561SOL    HW228320   3.466   2.764  16.510 -0.5135 -0.0090 -0.6133
 5562SOL     OW28321   0.001   0.596   6.673  0.7889 -0.1253 -0.0550
 5562SOL    HW128322   0.036   0.616   6.587 -0.1119 -1.7591 -0.8036
 5562SOL    HW228323   0.075   0.539   6.695 -0.2182 -0.9645  1.1854
 5563SOL     OW28324   1.089   3.300   6.077 -0.4943 -0.4626  0.5327
 5563SOL    HW128325   1.044   3.278   5.995 -3.3655  0.0614  1.9437
 5563SOL    HW228326   1.087   3.394   6.060 -0.6946 -0.8682 -1.7071
 5564SOL     OW28327   0.719   2.605   6.673 -0.1927 -0.3911 -0.4443
 5564SOL    HW128328   0.630   2.621   6.640 -0.8545 -0.7117  1.1780
 5564SOL    HW228329   0.709   2.621   6.767 -1.7022 -0.9299 -0.5045
 5565SOL     OW28330   2.769   3.598   9.384 -0.1351  0.3143  0.2723
 5565SOL    HW128331   2.733   3.586   9.472 -1.3608 -0.0528 -0.2760
 5565SOL    HW228332   2.856   3.564   9.405  0.7098  2.6398  0.6222
 5566SOL     OW28333   3.177   1.646  10.066 -0.0506  0.2780 -0.3539
 5566SOL    HW128334   3.094   1.615  10.101  1.2066 -0.4886  1.9574
 5566SOL    HW228335   3.215   1.678  10.148  1.4895  0.8385 -1.2883
 5567SOL     OW28336   3.636   3.038   6.595  0.1233  0.0028 -0.0872
 5567SOL    HW128337   3.662   3.055   6.504  2.1747  0.0711  0.5106
 5567SOL    HW228338   3.686   2.957   6.607  0.9006  0.5002  0.0032
 5568SOL     OW28339   0.221   2.365   5.252 -1.0845  1.0831  0.0135
 5568SOL    HW128340   0.246   2.273   5.253 -0.7455  1.1720 -0.3641
 5568SOL    HW228341   0.127   2.366   5.234 -1.2878 -0.5614  1.0149
 5569SOL     OW28342   0.493   4.111   8.504 -0.1506 -0.6871  0.1434
 5569SOL    HW128343   0.452   4.049   8.444 -1.6176  1.4240 -1.0251
 5569SOL    HW228344   0.427   4.148   8.563 -0.5145 -0.2419 -0.5474
 5570SOL     OW28345   3.188   0.383  13.535  0.6712 -0.0418 -0.7485
 5570SOL    HW128346   3.204   0.433  13.615 -2.8887 -0.2124  0.0664
 5570SOL    HW228347   3.129   0.440  13.485  0.3670 -0.3885 -0.7863
 5571SOL     OW28348   2.690   4.434   0.209 -0.0972 -0.3379 -0.8332
 5571SOL    HW128349   2.730   4.351   0.181 -1.5829 -1.0439 -0.8494
 5571SOL    HW228350   2.608   4.403   0.245 -0.4640  2.2597  0.5273
 5572SOL     OW28351   4.204   3.506   6.227  0.0992  0.2016 -0.5837
 5572SOL    HW128352   4.207   3.411   6.216  3.8535  0.2674 -0.1562
 5572SOL    HW228353   4.111   3.510   6.205 -0.6944 -0.7055  2.7019
 5573SOL     OW28354   4.233   0.344   8.889 -0.4333 -0.4833  0.3821
 5573SOL    HW128355   4.216   0.437   8.870 -2.8107 -0.7016  1.4207
 5573SOL    HW228356   4.306   0.354   8.950  2.9341 -0.4741 -3.7036
 5574SOL     OW28357   1.705   2.960  13.391  0.5465  0.3231  0.2410
 5574SOL    HW128358   1.657   2.897  13.337  1.8258 -0.9840  0.6273
 5574SOL    HW228359   1.650   2.976  13.468  2.2457  0.4456  1.4465
 5575SOL     OW28360   2.676   4.459   8.323 -0.3139 -0.1172  0.0885
 5575SOL    HW128361   2.625   4.380   8.307 -0.6347  0.2284 -0.5905
 5575SOL    HW228362   2.764   4.421   8.326 -0.5087 -0.6806 -1.7091
 5576SOL     OW28363   3.643   4.063   5.206  0.3851 -0.5675  0.2856
 5576SOL    HW128364   3.594   4.142   5.227  2.2128  1.0089 -1.4090
 5576SOL    HW228365   3.605   4.034   5.123  0.5874 -2.0874  0.7138
 5577SOL     OW28366   2.750   0.681   5.291  0.2301 -0.6034 -0.0032
 5577SOL    HW128367   2.815   0.692   5.220 -0.1193  0.6941 -0.1086
 5577SOL    HW228368   2.681   0.638   5.240 -1.1980  0.9833  0.6077
 5578SOL     OW28369   1.656   2.504  10.352 -0.6485 -0.2473 -0.0886
 5578SOL    HW128370   1.638   2.591  10.389  0.7151 -0.0536  0.1112
 5578SOL    HW228371   1.657   2.461  10.438  0.7842 -1.2969 -0.6471
 5579SOL     OW28372   0.849   4.173   6.139 -0.1875  0.3919  0.1436
 5579SOL    HW128373   0.851   4.140   6.050  1.3005 -2.1337  1.1203
 5579SOL    HW228374   0.913   4.115   6.181 -0.7650 -0.1889  0.2162
 5580SOL     OW28375   1.068   3.301   6.697  0.3545 -0.2671  0.4147
 5580SOL    HW128376   1.008   3.310   6.622  0.2697  1.3302  0.6883
 5580SOL    HW228377   1.070   3.389   6.733  1.7375  0.0444 -0.4255
 5581SOL     OW28378   0.333   1.246   8.781 -0.6281 -0.5766 -0.2280
 5581SOL    HW128379   0.410   1.302   8.771 -0.7946 -0.0960  1.2674
 5581SOL    HW228380   0.323   1.260   8.875  2.8080 -2.7457  0.4690
 5582SOL     OW28381   0.451   0.723   5.870  0.8974  0.4753  0.2638
 5582SOL    HW128382   0.373   0.671   5.890  0.4641  1.9890  2.5120
 5582SOL    HW228383   0.517   0.654   5.876  0.5939  0.2110  0.5620
 5583SOL     OW28384   2.007   3.408   7.793 -0.8169  0.1737  0.2725
 5583SOL    HW128385   2.055   3.351   7.853 -1.7695  0.2015  1.0604
 5583SOL    HW228386   1.950   3.455   7.854 -1.4351  1.2103 -1.1017
 5584SOL     OW28387   3.309   1.376   8.768 -0.1989  0.4488 -0.1135
 5584SOL    HW128388   3.369   1.377   8.843  0.4244  0.3274 -0.6032
 5584SOL    HW228389   3.329   1.458   8.725 -1.3944  1.3103  0.9820
 5585SOL     OW28390   0.017   4.059   4.655 -0.3181  0.0679 -0.2432
 5585SOL    HW128391   0.109   4.042   4.633 -0.4145  0.3417 -0.8608
 5585SOL    HW228392   4.726   4.124   4.594  0.8657  0.9609  0.0290
 5586SOL     OW28393   0.860   0.191  11.845 -0.2887 -0.1378  0.0466
 5586SOL    HW128394   0.893   0.155  11.763  1.0217  1.2440 -0.0453
 5586SOL    HW228395   0.930   0.171  11.907 -0.9484 -1.4405  0.3658
 5587SOL     OW28396   0.410   3.969   7.082  0.1137 -0.4475 -0.1139
 5587SOL    HW128397   0.470   4.040   7.060  1.6119 -1.4725  0.6587
 5587SOL    HW228398   0.476   3.913   7.121 -0.2074 -0.1495  0.8500
 5588SOL     OW28399   0.731   3.437   6.243 -0.8621  0.0855  0.3466
 5588SOL    HW128400   0.653   3.457   6.294 -0.4918  0.5017  0.7510
 5588SOL    HW228401   0.707   3.477   6.159  2.2134 -1.7491 -1.3936
 5589SOL     OW28402   1.687   2.410  12.651 -0.0139 -0.6940  0.0665
 5589SOL    HW128403   1.621   2.379  12.589 -2.0219  1.8071  0.9512
 5589SOL    HW228404   1.677   2.505  12.657  0.0365 -0.7439  1.0281
 5590SOL     OW28405   3.092   1.843   7.002 -0.2331  0.1676  0.2682
 5590SOL    HW128406   3.098   1.881   6.914  1.5211 -0.9631 -0.1049
 5590SOL    HW228407   3.022   1.779   7.006 -0.8529  0.8400  0.0871
 5591SOL     OW28408   3.235   1.959   2.505 -0.0957  0.0202  0.3251
 5591SOL    HW128409   3.172   1.901   2.462 -1.3299  0.3631  1.6538
 5591SOL    HW228410   3.179   1.994   2.574  0.5130 -0.0158  0.8406
 5592SOL     OW28411   0.133   3.403   6.689  0.3847  0.1409  0.0407
 5592SOL    HW128412   0.049   3.413   6.646 -0.3007 -1.1798  1.0572
 5592SOL    HW228413   0.134   3.487   6.735 -1.8313 -0.0666  0.4836
 5593SOL     OW28414   3.558   0.633   5.836 -0.4845  0.6852 -0.0022
 5593SOL    HW128415   3.526   0.696   5.772  1.3434  0.8956 -0.7089
 5593SOL    HW228416   3.476   0.588   5.856  0.2517  0.4765  2.5011
 5594SOL     OW28417   3.994   0.374   5.554 -0.1188 -0.0213 -0.7090
 5594SOL    HW128418   3.952   0.296   5.591 -0.6571  1.0779  0.9681
 5594SOL    HW228419   3.990   0.438   5.624  1.8439  0.3234 -0.9294
 5595SOL     OW28420   4.139   2.904   0.157  0.7611  0.0490  0.4408
 5595SOL    HW128421   4.154   2.930   0.066 -2.4245 -1.2938 -0.4465
 5595SOL    HW228422   4.074   2.970   0.182 -1.1326 -1.2157 -1.2010
 5596SOL     OW28423   3.409   2.960  17.498  0.3552  0.0068  0.2278
 5596SOL    HW128424   3.493   2.967  17.453 -0.7716 -2.1854 -2.2007
 5596SOL    HW228425   3.425   3.043  17.542  1.3288 -0.1470  0.1494
 5597SOL     OW28426   0.746   0.412   1.542  0.3870  0.1808 -0.0688
 5597SOL    HW128427   0.755   0.505   1.563  1.2287  0.1258 -0.1994
 5597SOL    HW228428   0.829   0.398   1.496  0.6295 -0.9803  0.7162
 5598SOL     OW28429   2.604   2.793   6.080 -0.2695 -0.1916  0.0820
 5598SOL    HW128430   2.551   2.736   6.025  0.6001 -0.4512 -0.4882
 5598SOL    HW228431   2.569   2.780   6.168  0.0693 -0.4095  0.1853
 5599SOL     OW28432   4.528   2.977   3.087 -0.0927 -0.2072  0.2507
 5599SOL    HW128433   4.459   2.981   3.020  0.8565 -0.9848 -0.7728
 5599SOL    HW228434   4.556   3.068   3.075 -2.0402  0.2439 -0.8768
 5600SOL     OW28435   2.057   2.322   4.489  0.2763 -0.0133  0.1169
 5600SOL    HW128436   2.052   2.239   4.536  1.2798 -0.0596  0.1447
 5600SOL    HW228437   2.150   2.325   4.466  0.1939  0.5041 -0.1501
 5601SOL     OW28438   2.057   0.750   6.432  0.2419  0.2746  0.2580
 5601SOL    HW128439   2.144   0.716   6.411  0.2625 -0.0514  0.8555
 5601SOL    HW228440   2.015   0.668   6.459  0.7220 -0.1148 -0.1669
 5602SOL     OW28441   2.152   1.568  14.533  0.1223  0.4898 -0.0999
 5602SOL    HW128442   2.075   1.539  14.485  1.3836 -0.3962 -1.5915
 5602SOL    HW228443   2.120   1.547  14.621 -0.1898  0.3707 -0.2440
 5603SOL     OW28444   0.819   2.697   0.247 -0.2166  0.2381 -0.6573
 5603SOL    HW128445   0.764   2.732   0.177  0.7048 -1.2734 -2.1200
 5603SOL    HW228446   0.899   2.668   0.205  0.6661  0.2265  1.0161
 5604SOL     OW28447   0.989   2.592   8.742 -0.5040  0.0106 -0.1829
 5604SOL    HW128448   1.005   2.511   8.693  2.1206  0.4407  0.0059
 5604SOL    HW228449   0.907   2.622   8.701 -0.2117  1.8109  0.5336
 5605SOL     OW28450   4.443   2.983  12.601 -0.0146  0.6257 -0.6651
 5605SOL    HW128451   4.429   2.893  12.572 -0.2340  0.8398 -1.2127
 5605SOL    HW228452   4.485   2.973  12.687  0.6288  1.8911 -0.8248
 5606SOL     OW28453   3.048   0.427   7.589  0.4642 -0.2387  0.1719
 5606SOL    HW128454   2.972   0.383   7.551 -0.6843  1.8818  0.0080
 5606SOL    HW228455   3.079   0.368   7.658  0.7204 -1.9360 -1.4006
 5607SOL     OW28456   3.546   1.656   5.754 -0.0330  1.0231  0.2742
 5607SOL    HW128457   3.619   1.595   5.770  0.2641  1.5796  1.0288
 5607SOL    HW228458   3.464   1.618   5.785  0.2887  0.9020  0.9726
 5608SOL     OW28459   3.634   2.083  15.229 -0.0915 -0.6168  0.0219
 5608SOL    HW128460   3.588   2.037  15.300  2.0736 -3.2552 -0.2694
 5608SOL    HW228461   3.716   2.033  15.233  0.2167 -0.2078 -1.5501
 5609SOL     OW28462   1.749   3.948   6.540 -0.3095 -0.3550 -0.4871
 5609SOL    HW128463   1.844   3.936   6.546 -0.3725 -1.0483 -0.7860
 5609SOL    HW228464   1.741   4.039   6.511 -0.4299 -0.6575 -1.4039
 5610SOL     OW28465   2.578   2.910   5.444  0.6879 -0.4046 -0.2259
 5610SOL    HW128466   2.553   3.002   5.434 -3.1898 -1.3041  1.2312
 5610SOL    HW228467   2.492   2.877   5.472  0.7906  0.0406  0.6053
 5611SOL     OW28468   1.523   2.946  11.178 -0.1345  0.4774  0.0918
 5611SOL    HW128469   1.503   2.957  11.085 -1.8277 -0.5609  0.3285
 5611SOL    HW228470   1.527   2.852  11.193 -1.2759  0.5019  0.6232
 5612SOL     OW28471   2.774   2.363   1.157 -0.1340  0.0756  0.4267
 5612SOL    HW128472   2.847   2.402   1.109 -0.4474 -1.9579 -1.7086
 5612SOL    HW228473   2.757   2.430   1.223 -0.0027  1.5608 -1.0475
 5613SOL     OW28474   4.205   3.199  16.518  0.0081  0.1890  0.1289
 5613SOL    HW128475   4.140   3.131  16.507 -2.3858  2.2856  1.3214
 5613SOL    HW228476   4.283   3.149  16.544 -0.1617  0.3275  0.8962
 5614SOL     OW28477   3.958   4.729   7.920 -0.1179 -0.4049  0.2768
 5614SOL    HW128478   3.888   4.719   7.984  1.4006 -1.2479  1.7995
 5614SOL    HW228479   4.028   4.728   7.985 -0.2224  0.1337  0.3998
 5615SOL     OW28480   1.727   2.690   4.688 -0.2989 -0.1265  0.0259
 5615SOL    HW128481   1.711   2.689   4.782 -0.2646 -2.6960  0.0152
 5615SOL    HW228482   1.650   2.645   4.652  1.4882 -1.6344 -1.9808
 5616SOL     OW28483   1.372   1.402   7.365  0.0357  0.0121 -0.2647
 5616SOL    HW128484   1.390   1.367   7.452 -0.8973 -2.8103 -1.2072
 5616SOL    HW228485   1.406   1.321   7.328  0.6822  1.0617 -1.9732
 5617SOL     OW28486   2.493   3.045   5.999 -0.5507  0.4048  0.4855
 5617SOL    HW128487   2.465   3.034   5.908 -0.1991 -1.3733  0.6109
 5617SOL    HW228488   2.546   2.968   6.016  0.4373  0.6544 -1.4921
 5618SOL     OW28489   4.369   0.184   8.139  0.1258 -0.0423  0.4429
 5618SOL    HW128490   4.374   0.252   8.071 -1.0162  1.2020  1.5932
 5618SOL    HW228491   4.421   0.215   8.212  0.7686  1.7523 -0.7714
 5619SOL     OW28492   4.646   0.301   2.647 -0.4086  0.4129  0.1277
 5619SOL    HW128493   4.617   0.327   2.559  2.1853 -0.1046 -0.8682
 5619SOL    HW228494   4.563   0.273   2.688 -0.5573  1.5082  0.5666
 5620SOL     OW28495   0.345   4.472   5.794 -0.1498 -0.2659 -0.4674
 5620SOL    HW128496   0.383   4.511   5.873 -2.8501  0.0105  0.6932
 5620SOL    HW228497   0.302   4.395   5.831  1.0590 -1.1297 -0.8488
 5621SOL     OW28498   3.433   0.548   1.740 -0.2508  0.9686  0.4205
 5621SOL    HW128499   3.529   0.551   1.738 -0.1120 -1.8870  1.8465
 5621SOL    HW228500   3.423   0.457   1.710  2.1710  1.5980 -2.3123
 5622SOL     OW28501   1.714   0.224   4.708 -0.0680 -0.0309  0.2597
 5622SOL    HW128502   1.734   0.291   4.773 -0.9364  0.3520  0.1273
 5622SOL    HW228503   1.622   0.244   4.691 -0.2171 -1.1221 -0.2393
 5623SOL     OW28504   1.607   0.971   8.920  0.2174  0.0059  0.5981
 5623SOL    HW128505   1.630   1.054   8.961 -1.1080  0.9853 -0.6211
 5623SOL    HW228506   1.679   0.954   8.859 -0.8951 -1.7537 -0.2400
 5624SOL     OW28507   4.439   3.192   2.672 -0.0049 -0.3935  0.0443
 5624SOL    HW128508   4.377   3.120   2.658 -0.1594 -0.1888 -0.3352
 5624SOL    HW228509   4.457   3.217   2.582 -1.8379  1.2516  0.1350
 5625SOL     OW28510   4.061   1.526   7.234  0.0045 -0.5530  0.7147
 5625SOL    HW128511   4.016   1.518   7.150  1.7404  0.0628 -0.2625
 5625SOL    HW228512   4.123   1.595   7.212 -1.8393  0.8005 -0.2553
 5626SOL     OW28513   4.512   3.278   6.824  0.3639  0.2246  1.0534
 5626SOL    HW128514   4.543   3.236   6.904  0.9684 -2.4658 -0.6105
 5626SOL    HW228515   4.543   3.215   6.759 -0.1975  1.9014 -0.8526
 5627SOL     OW28516   1.741   2.840  13.124  0.6767  0.3964  0.2321
 5627SOL    HW128517   1.733   2.927  13.163  0.8395  0.7747 -0.5828
 5627SOL    HW228518   1.826   2.806  13.154  0.5961 -0.2928 -0.3288
 5628SOL     OW28519   2.023   0.596  16.400 -0.3179  0.4001  0.0303
 5628SOL    HW128520   2.045   0.685  16.429  1.2129 -0.0387  0.1918
 5628SOL    HW228521   1.927   0.598  16.404 -0.3160 -0.8671  0.5905
 5629SOL     OW28522   4.160   2.745   1.730 -0.0147 -0.3614 -0.7846
 5629SOL    HW128523   4.113   2.828   1.737  0.4924 -0.1037 -0.4286
 5629SOL    HW228524   4.142   2.696   1.810  1.2403 -0.9015 -0.8376
 5630SOL     OW28525   0.714   4.337  16.568 -0.1676 -0.7386  0.3463
 5630SOL    HW128526   0.650   4.330  16.497 -0.2686 -2.4644  0.6006
 5630SOL    HW228527   0.774   4.268  16.540 -0.1011 -0.6204  0.1947
 5631SOL     OW28528   0.838   2.457   4.771 -0.6004 -0.3432 -0.1146
 5631SOL    HW128529   0.894   2.525   4.735 -0.6121 -0.6293 -0.6819
 5631SOL    HW228530   0.891   2.380   4.750  0.4321 -0.4797  3.0963
 5632SOL     OW28531   1.712   2.766   1.760 -0.2260  0.1300  0.0992
 5632SOL    HW128532   1.625   2.784   1.724  1.1294  1.8740 -2.3552
 5632SOL    HW228533   1.746   2.756   1.671 -0.2537  0.4997  0.0483
 5633SOL     OW28534   4.020   2.710   8.165 -0.3804 -0.0821 -0.3243
 5633SOL    HW128535   4.108   2.692   8.201 -0.7568 -2.3918 -0.5240
 5633SOL    HW228536   3.985   2.758   8.240  0.7103 -0.7252  0.6116
 5634SOL     OW28537   2.678   2.616   1.984 -0.3429  0.3050 -0.5412
 5634SOL    HW128538   2.591   2.638   2.020 -1.1182  1.1128 -2.9184
 5634SOL    HW228539   2.694   2.537   2.036 -0.4490  1.0057  0.5678
 5635SOL     OW28540   1.438   3.055   2.774 -0.3148 -0.1443  0.0336
 5635SOL    HW128541   1.502   3.010   2.829  1.1082  1.1781 -0.5186
 5635SOL    HW228542   1.361   3.074   2.827 -1.0881  1.4221 -1.6267
 5636SOL     OW28543   3.041   0.414  12.510  0.1070  0.1395  0.0376
 5636SOL    HW128544   3.095   0.432  12.434  0.2288  1.9849  0.5369
 5636SOL    HW228545   3.040   0.502  12.549  0.9107 -0.2450  0.9230
 5637SOL     OW28546   2.719   3.554   8.298  0.3034 -0.4556  0.1007
 5637SOL    HW128547   2.804   3.598   8.300  0.0638 -0.0031  0.5176
 5637SOL    HW228548   2.708   3.546   8.203  2.3107 -0.0504 -0.1684
 5638SOL     OW28549   3.058   0.151   3.380 -0.3095 -0.0716 -0.1995
 5638SOL    HW128550   2.978   0.126   3.334 -0.1820 -2.0371  0.6634
 5638SOL    HW228551   3.027   0.151   3.471 -0.4953  0.1623 -0.2634
 5639SOL     OW28552   0.735   3.023   7.110 -0.0612 -0.2038 -0.1632
 5639SOL    HW128553   0.720   2.937   7.149  1.5498  0.6878  2.4090
 5639SOL    HW228554   0.828   3.031   7.127 -0.1939  1.0762 -0.0186
 5640SOL     OW28555   3.778   1.351   8.544 -0.5685  0.4424 -0.1210
 5640SOL    HW128556   3.815   1.306   8.468  1.2336 -1.8163  2.0949
 5640SOL    HW228557   3.690   1.315   8.532  0.7052 -2.7854  0.1112
 5641SOL     OW28558   0.694   1.584   3.834 -0.2674 -0.1761 -0.4241
 5641SOL    HW128559   0.603   1.560   3.847  0.7483 -2.8062  1.9059
 5641SOL    HW228560   0.697   1.605   3.740 -0.4725  0.7598 -0.2201
 5642SOL     OW28561   1.333   4.203   5.117  0.5377 -0.5065  0.0069
 5642SOL    HW128562   1.318   4.243   5.031  1.5742 -0.1304  0.0047
 5642SOL    HW228563   1.287   4.271   5.166 -2.2080 -2.0401 -0.4199
 5643SOL     OW28564   2.288   0.854   0.617 -0.1001 -0.7600 -0.1216
 5643SOL    HW128565   2.296   0.927   0.555  2.6126  1.4442  2.7855
 5643SOL    HW228566   2.376   0.817   0.617  0.0877 -0.3364 -1.0048
 5644SOL     OW28567   4.716   1.978   4.365  0.2299  0.5035  0.3731
 5644SOL    HW128568   0.012   1.930   4.293 -0.8767 -0.5323  0.4580
 5644SOL    HW228569   0.028   1.961   4.441  1.6092  1.6212 -0.3936
 5645SOL     OW28570   1.647   3.550   7.452 -0.1921  0.1717  0.2964
 5645SOL    HW128571   1.726   3.581   7.497 -0.5806 -1.7376  2.2911
 5645SOL    HW228572   1.684   3.532   7.366 -0.7405  4.0611 -0.7747
 5646SOL     OW28573   0.388   3.373  11.471  0.6923 -0.2890 -0.2154
 5646SOL    HW128574   0.445   3.429  11.420  1.8667 -0.5713  0.7865
 5646SOL    HW228575   0.388   3.419  11.555 -0.3060  0.4236 -0.6121
 5647SOL     OW28576   2.186   0.182   9.329  0.4648  0.5212  0.5238
 5647SOL    HW128577   2.195   0.176   9.234 -3.5196  2.8322 -0.0440
 5647SOL    HW228578   2.101   0.223   9.347  0.4092  1.7804 -2.6624
 5648SOL     OW28579   1.770   2.500   6.977 -0.3104  0.7390 -0.9028
 5648SOL    HW128580   1.794   2.434   7.041  0.8755  3.0026  0.9384
 5648SOL    HW228581   1.779   2.576   7.034  0.4135  1.4857 -2.0112
 5649SOL     OW28582   3.655   0.902   3.907 -0.0559 -0.1376 -0.0430
 5649SOL    HW128583   3.667   0.982   3.856  0.6654 -0.1738  0.0736
 5649SOL    HW228584   3.747   0.877   3.910 -0.3751 -1.2652  0.3925
 5650SOL     OW28585   2.961   2.771   5.159 -0.4902 -0.4565  0.2061
 5650SOL    HW128586   3.004   2.706   5.103  2.9187  1.9207  0.0664
 5650SOL    HW228587   2.984   2.857   5.122  0.5018 -0.2128  1.4053
 5651SOL     OW28588   3.778   0.584  10.188 -0.2453  0.3460  0.3954
 5651SOL    HW128589   3.713   0.611  10.123 -1.9149 -3.6948  0.3155
 5651SOL    HW228590   3.801   0.497  10.154  1.8521  1.1854 -0.2826
 5652SOL     OW28591   3.302   3.183   4.913  0.2377  0.1123 -0.4565
 5652SOL    HW128592   3.357   3.214   4.985 -0.4469 -0.1277  0.1590
 5652SOL    HW228593   3.368   3.180   4.843  1.1193  1.2690  0.3148
 5653SOL     OW28594   0.867   4.354   4.476 -0.2831  0.3135  0.0108
 5653SOL    HW128595   0.875   4.378   4.384 -0.3908  2.7637  0.6466
 5653SOL    HW228596   0.819   4.429   4.510 -2.1018 -1.1872  0.7970
 5654SOL     OW28597   4.573   0.184   1.218  0.4506  0.1052  0.3594
 5654SOL    HW128598   4.600   0.104   1.173  3.0771  1.5082 -0.6090
 5654SOL    HW228599   4.556   0.239   1.141  0.9677  2.0583  1.6448
 5655SOL     OW28600   2.403   2.932   5.137  0.5776 -0.5871  0.2396
 5655SOL    HW128601   2.383   3.002   5.074 -0.3327 -0.9402  0.1383
 5655SOL    HW228602   2.334   2.931   5.203  0.3590  2.9627  0.0816
 5656SOL     OW28603   4.576   3.088  14.594  0.0569 -0.1308 -0.0318
 5656SOL    HW128604   4.513   3.023  14.564 -0.0605  1.2049 -2.6958
 5656SOL    HW228605   4.526   3.168  14.579 -2.9160 -2.3137 -1.7774
 5657SOL     OW28606   1.340   3.350   8.599  0.3897  0.1205 -0.1421
 5657SOL    HW128607   1.422   3.302   8.596 -0.5907 -1.5432 -0.0496
 5657SOL    HW228608   1.282   3.282   8.633 -0.5043  0.3280 -1.2192
 5658SOL     OW28609   0.655   1.024   1.935  0.1040 -0.4721 -0.1875
 5658SOL    HW128610   0.574   0.981   1.906 -0.3107  0.5894 -0.5956
 5658SOL    HW228611   0.632   1.029   2.028 -1.6766  1.3054 -0.7332
 5659SOL     OW28612   4.691   0.500  15.263 -0.0872 -0.6579 -0.4137
 5659SOL    HW128613   4.696   0.521  15.169 -2.3583 -1.6971 -0.7582
 5659SOL    HW228614   4.601   0.467  15.265 -0.6307  0.8510  0.0812
 5660SOL     OW28615   0.379   1.064   3.336  0.0594  0.1783  0.3619
 5660SOL    HW128616   0.451   1.070   3.400 -0.2801 -0.0262  0.7620
 5660SOL    HW228617   0.364   1.158   3.326  0.4665  0.1350 -0.6146
 5661SOL     OW28618   3.306   0.743   2.338  0.2736  0.4671  0.5591
 5661SOL    HW128619   3.363   0.817   2.315  2.8296 -1.3198  1.1748
 5661SOL    HW228620   3.360   0.676   2.297  0.2860  1.0643 -0.4100
 5662SOL     OW28621   0.507   4.334   4.497 -0.6257  0.3172  0.4738
 5662SOL    HW128622   0.571   4.308   4.430 -1.4803  0.2800 -0.3391
 5662SOL    HW228623   0.560   4.363   4.570 -0.5562  0.1692  0.4821
 5663SOL     OW28624   4.274   3.224  15.006 -0.4333 -0.0699  0.0350
 5663SOL    HW128625   4.244   3.184  15.088  1.4535 -2.6187 -0.5147
 5663SOL    HW228626   4.362   3.247  15.035 -1.5321  1.3766  2.2245
 5664SOL     OW28627   2.260   0.980   4.106  0.3081  0.0125 -0.5497
 5664SOL    HW128628   2.179   0.948   4.146  0.4167  0.8897  0.3772
 5664SOL    HW228629   2.226   1.003   4.019 -0.7039  0.5275 -0.0323
 5665SOL     OW28630   1.706   0.118   2.155  0.2707 -0.2992 -0.4110
 5665SOL    HW128631   1.670   0.050   2.212 -0.1272  1.9470  2.0014
 5665SOL    HW228632   1.700   0.075   2.070 -3.1116  0.3050 -0.4592
 5666SOL     OW28633   2.678   1.775  15.874  0.3570  0.3043 -0.9836
 5666SOL    HW128634   2.733   1.702  15.904 -0.3195  0.0367 -0.3656
 5666SOL    HW228635   2.592   1.739  15.897  0.3629 -0.5529 -2.3244
 5667SOL     OW28636   2.690   0.727   9.050  0.0267 -0.0063 -0.0976
 5667SOL    HW128637   2.742   0.652   9.079  1.3981  0.7613 -0.5702
 5667SOL    HW228638   2.630   0.675   8.997 -0.4009  0.1112  0.2735
 5668SOL     OW28639   1.300   1.831  14.722  0.8243  0.6565 -0.2309
 5668SOL    HW128640   1.332   1.771  14.790 -2.1941 -1.8380 -1.0293
 5668SOL    HW228641   1.361   1.905  14.729  1.2331  0.2437  0.6070
 5669SOL     OW28642   4.236   3.157  11.393  0.4200 -0.1658 -0.0273
 5669SOL    HW128643   4.329   3.136  11.403  0.8672  1.6588 -0.3758
 5669SOL    HW228644   4.197   3.103  11.462 -0.3007 -1.6506 -1.5997
 5670SOL     OW28645   0.140   0.711   1.025  0.2119  0.0974 -0.2008
 5670SOL    HW128646   0.168   0.775   0.960  1.1611 -0.7784 -0.6512
 5670SOL    HW228647   0.066   0.679   0.975  0.9325  0.5751 -1.5857
 5671SOL     OW28648   3.485   3.006   5.706  0.0887  0.5583  0.3692
 5671SOL    HW128649   3.579   3.019   5.722  0.2531  0.6254 -0.6676
 5671SOL    HW228650   3.476   2.916   5.677 -1.9296  0.3905  1.5665
 5672SOL     OW28651   2.012   0.911   7.390 -0.1843  0.1637  0.3330
 5672SOL    HW128652   2.006   1.005   7.378 -0.3928  0.1157  0.0592
 5672SOL    HW228653   2.039   0.891   7.480  1.3646 -0.8909 -0.3640
 5673SOL     OW28654   2.811   2.120   5.186  0.0512 -0.1778 -0.5604
 5673SOL    HW128655   2.741   2.063   5.217 -1.2956  2.6934  1.7576
 5673SOL    HW228656   2.778   2.152   5.102  0.4489  2.5585  0.2938
 5674SOL     OW28657   1.700   3.486   1.930 -0.2407 -0.0115 -0.3411
 5674SOL    HW128658   1.722   3.395   1.908  0.5001  0.1705 -0.3436
 5674SOL    HW228659   1.788   3.514   1.955 -0.6063  1.3894 -0.6566
 5675SOL     OW28660   1.721   3.921  14.975 -0.0796  0.0610 -0.4337
 5675SOL    HW128661   1.672   3.863  14.917  0.8756 -0.4588 -0.7274
 5675SOL    HW228662   1.663   3.938  15.049 -0.2242  2.5786 -1.1269
 5676SOL     OW28663   1.532   3.755  12.810  0.0767 -0.0110  0.2206
 5676SOL    HW128664   1.444   3.726  12.786  0.1261  1.6147 -1.9372
 5676SOL    HW228665   1.594   3.720  12.746  0.6742  1.5415 -0.0490
 5677SOL     OW28666   3.490   1.828   4.185  0.1700  0.5234  0.0543
 5677SOL    HW128667   3.568   1.879   4.207  1.8341 -2.5639  1.3552
 5677SOL    HW228668   3.499   1.767   4.259  3.3748 -1.9000 -2.3226
 5678SOL     OW28669   2.080   2.478   7.931  0.1148 -0.2557 -0.3776
 5678SOL    HW128670   2.061   2.425   7.854  0.6238 -2.0143  0.7027
 5678SOL    HW228671   2.060   2.409   7.995 -0.2434  0.2128  0.0147
 5679SOL     OW28672   4.346   2.779   5.133  0.4491  0.3872 -0.4021
 5679SOL    HW128673   4.313   2.864   5.162  2.2228  1.8938 -2.8424
 5679SOL    HW228674   4.261   2.734   5.125  0.6533  0.0430 -0.6169
 5680SOL     OW28675   0.252   3.524   8.652  0.3339 -0.5335 -0.1065
 5680SOL    HW128676   0.242   3.617   8.630 -2.3101 -0.9512 -0.7580
 5680SOL    HW228677   0.320   3.503   8.589  0.3439  0.7388 -0.5119
 5681SOL     OW28678   0.877   1.671   7.447 -0.0323  0.1928 -0.4439
 5681SOL    HW128679   0.854   1.620   7.524 -1.7041  0.3794 -0.8151
 5681SOL    HW228680   0.791   1.692   7.410 -0.3833  2.6551  1.7609
 5682SOL     OW28681   2.153   2.045   2.635  0.0076  0.0374 -0.1437
 5682SOL    HW128682   2.106   2.026   2.716 -0.2324  4.0556  0.6454
 5682SOL    HW228683   2.151   1.959   2.594  2.6709 -1.8652  3.7067
 5683SOL     OW28684   0.421   1.111   9.433  0.4509 -0.4474  0.2430
 5683SOL    HW128685   0.398   1.019   9.421  0.1532 -0.1006 -1.9748
 5683SOL    HW228686   0.428   1.119   9.528 -0.7174 -3.0717  0.5293
 5684SOL     OW28687   4.468   0.732  11.943  0.0808  0.2239 -0.0981
 5684SOL    HW128688   4.495   0.820  11.917  2.6376 -0.6447 -0.3470
 5684SOL    HW228689   4.382   0.752  11.979  0.3578 -0.6209  1.0397
 5685SOL     OW28690   4.237   0.245   6.005  0.4378  0.0091  0.0385
 5685SOL    HW128691   4.187   0.171   5.969  0.0724  0.7523 -0.9659
 5685SOL    HW228692   4.330   0.229   5.990 -0.3886 -3.1857 -1.7307
 5686SOL     OW28693   4.431   0.108  10.074 -0.2759  0.7079  0.1818
 5686SOL    HW128694   4.446   0.039  10.138 -1.7822 -1.5916 -1.9827
 5686SOL    HW228695   4.370   0.166  10.119 -3.0706 -1.9913 -0.1738
 5687SOL     OW28696   4.739   0.180   8.071  0.9692 -0.1807 -0.1331
 5687SOL    HW128697   4.743   0.259   8.017  0.4217 -0.2339 -0.2487
 5687SOL    HW228698   0.050   0.123   8.018  0.6846 -1.0899  0.5609
 5688SOL     OW28699   3.228   2.911   4.127  0.2806 -0.0988  0.2921
 5688SOL    HW128700   3.221   3.006   4.118 -1.8070 -0.4576 -1.7638
 5688SOL    HW228701   3.147   2.879   4.088 -0.3589  0.6246  1.0460
 5689SOL     OW28702   1.076   0.181   2.187  0.5062  0.2958 -0.2772
 5689SOL    HW128703   1.083   0.096   2.143 -1.7387  0.5767 -1.1400
 5689SOL    HW228704   0.999   0.219   2.146 -0.6191 -2.8566 -1.0758
 5690SOL     OW28705   4.145   2.846  15.412 -0.2330  0.1706  0.2389
 5690SOL    HW128706   4.076   2.799  15.365 -0.1740  0.2596  0.0606
 5690SOL    HW228707   4.110   2.857  15.500 -3.0721  0.5191 -0.9111
 5691SOL     OW28708   0.156   3.541   1.014  0.3606 -0.6488 -0.3020
 5691SOL    HW128709   0.189   3.498   1.093 -2.4908 -0.0098  1.2195
 5691SOL    HW228710   0.213   3.501   0.948  0.6438 -2.6505  1.1511
 5692SOL     OW28711   0.564   0.509   4.118 -0.6734 -0.7416 -0.2868
 5692SOL    HW128712   0.563   0.605   4.117 -0.8962 -0.7560 -1.4962
 5692SOL    HW228713   0.528   0.489   4.204  0.2745  0.2273  0.3384
 5693SOL     OW28714   0.269   3.020   3.548 -0.2750  0.3720  0.1799
 5693SOL    HW128715   0.330   3.028   3.475  0.1196 -2.7697  0.1323
 5693SOL    HW228716   0.223   3.103   3.544  0.4596  0.5543 -3.8920
 5694SOL     OW28717   4.719   0.708   5.158  0.4230 -0.2139  0.4807
 5694SOL    HW128718   4.741   0.792   5.118 -0.0289  0.1627  1.0144
 5694SOL    HW228719   0.036   0.657   5.104 -0.4850 -1.0567  0.2609
 5695SOL     OW28720   4.721   4.463   5.446 -0.1993 -0.5291  0.2587
 5695SOL    HW128721   4.635   4.495   5.422  0.5734  2.1222  1.0821
 5695SOL    HW228722   4.727   4.388   5.386 -0.8000 -1.2359  1.0912
 5696SOL     OW28723   4.258   3.793  13.747 -0.2404 -0.1952  0.8906
 5696SOL    HW128724   4.183   3.747  13.784 -0.1227  0.2877  1.7282
 5696SOL    HW228725   4.235   3.800  13.654 -1.0812 -1.5522  1.0042
 5697SOL     OW28726   1.257   3.659  12.733  0.3870 -0.0364  0.2316
 5697SOL    HW128727   1.199   3.730  12.761  0.1297  0.6458 -1.9981
 5697SOL    HW228728   1.237   3.577  12.778  1.9593 -1.4541 -1.6394
 5698SOL     OW28729   4.619   0.486   2.443 -0.3456 -0.5886  0.3096
 5698SOL    HW128730   4.610   0.579   2.463 -0.2566 -0.3471 -0.7362
 5698SOL    HW228731   4.712   0.487   2.420 -0.7352 -0.9859 -1.3295
 5699SOL     OW28732   4.202   2.714   3.196 -0.3649  0.0857  0.3136
 5699SOL    HW128733   4.148   2.647   3.237 -0.5819  0.4046  0.5516
 5699SOL    HW228734   4.165   2.791   3.240 -0.7658 -0.8411  1.5874
 5700SOL     OW28735   2.940   1.307  10.542  0.3579 -0.1995  0.0922
 5700SOL    HW128736   2.923   1.258  10.623 -1.0163 -2.4033 -1.5193
 5700SOL    HW228737   3.030   1.329  10.566  0.6435 -0.5121 -0.6694
 5701SOL     OW28738   0.803   0.615  17.355 -0.1321  0.1507 -0.1219
 5701SOL    HW128739   0.796   0.706  17.325  2.3385  0.0724 -0.8909
 5701SOL    HW228740   0.897   0.608  17.344 -0.2336  0.2138 -0.9767
 5702SOL     OW28741   0.264   3.878   6.283 -0.1467 -0.9308  0.4859
 5702SOL    HW128742   0.318   3.911   6.211 -1.6928 -1.8049 -1.0406
 5702SOL    HW228743   0.176   3.889   6.248  0.4160  2.2255 -0.0218
 5703SOL     OW28744   2.146   0.016  17.054 -0.1747  0.2296 -0.1771
 5703SOL    HW128745   2.102   4.741  16.971 -0.3364 -1.1578  0.2282
 5703SOL    HW228746   2.234   0.002  17.019  0.4759  3.5557  0.1313
 5704SOL     OW28747   3.831   0.322   8.463 -0.1385  0.2075 -0.9714
 5704SOL    HW128748   3.884   0.342   8.541 -0.7972  0.7113 -0.6444
 5704SOL    HW228749   3.809   0.230   8.470 -1.3686  0.7074  1.9605
 5705SOL     OW28750   4.367   1.593   5.755 -0.0029  0.5969  0.4542
 5705SOL    HW128751   4.397   1.660   5.815 -0.9237  1.7222 -0.3428
 5705SOL    HW228752   4.274   1.587   5.774 -0.0927 -1.3985 -0.5294
 5706SOL     OW28753   1.486   3.404   6.850  0.0087 -0.3655  0.2655
 5706SOL    HW128754   1.476   3.310   6.834 -1.3617  0.1935 -2.2849
 5706SOL    HW228755   1.409   3.419   6.906  0.1790 -0.1603  0.4432
 5707SOL     OW28756   2.781   2.481  16.300  0.5296 -0.3787 -0.2923
 5707SOL    HW128757   2.796   2.503  16.392  1.2551  3.5696 -1.3681
 5707SOL    HW228758   2.815   2.551  16.246 -1.1249 -0.7984 -1.8812
 5708SOL     OW28759   2.199   1.196   1.609  0.6699 -0.0990 -0.0994
 5708SOL    HW128760   2.270   1.255   1.582  0.2532  1.5598  2.4209
 5708SOL    HW228761   2.151   1.170   1.531 -0.9406  1.0267  0.5165
 5709SOL     OW28762   1.512   1.879   5.299  0.4645 -0.2377 -0.0366
 5709SOL    HW128763   1.430   1.913   5.263  0.9132 -0.1429 -0.9637
 5709SOL    HW228764   1.543   1.959   5.341 -0.6790  0.3953 -0.4308
 5710SOL     OW28765   0.060   0.934  17.442 -0.1188 -0.3213 -0.5214
 5710SOL    HW128766   0.061   1.021  17.481 -1.1066 -0.7625  0.4855
 5710SOL    HW228767   0.127   0.892  17.496  1.2366  0.4392 -1.6163
 5711SOL     OW28768   4.389   0.210   2.717  0.2924  0.5056 -0.0586
 5711SOL    HW128769   4.380   0.296   2.675  1.3713 -0.3524 -2.0063
 5711SOL    HW228770   4.379   0.155   2.640  0.4146 -1.2950  1.2004
 5712SOL     OW28771   4.583   1.885  14.934  0.3691 -0.4657 -0.4434
 5712SOL    HW128772   4.674   1.873  14.961 -0.4698 -0.0195  2.6260
 5712SOL    HW228773   4.563   1.963  14.985 -0.1267 -1.6708  1.2313
 5713SOL     OW28774   0.060   2.386  13.109  0.0372  1.2484  0.2847
 5713SOL    HW128775   4.742   2.432  13.166 -2.2025  0.5175 -1.5237
 5713SOL    HW228776   0.137   2.383  13.166  0.6533  0.8714 -0.5712
 5714SOL     OW28777   4.278   1.175   9.241  0.3949  0.1294 -0.6075
 5714SOL    HW128778   4.224   1.188   9.163 -1.7734 -0.9292  0.7226
 5714SOL    HW228779   4.241   1.229   9.311 -1.3633 -0.6675 -0.9155
 5715SOL     OW28780   2.345   2.747   7.237  0.1834 -0.0822 -0.4929
 5715SOL    HW128781   2.311   2.660   7.258 -0.4537  0.3781  0.3771
 5715SOL    HW228782   2.394   2.717   7.160  0.3031 -0.5386 -0.2372
 5716SOL     OW28783   2.974   1.190   2.112  0.3922  0.0417  0.2765
 5716SOL    HW128784   2.931   1.195   2.197 -1.9176 -0.6924 -0.8552
 5716SOL    HW228785   2.899   1.200   2.053  1.8999  0.1519 -1.6152
 5717SOL     OW28786   1.843   2.237  13.915 -0.1507 -0.5574  0.6846
 5717SOL    HW128787   1.832   2.165  13.976  0.1198 -0.7678  0.4826
 5717SOL    HW228788   1.938   2.240  13.928  0.1125 -0.7140 -1.2271
 5718SOL     OW28789   3.647   0.710   4.406 -0.0993  0.1552 -0.5385
 5718SOL    HW128790   3.611   0.621   4.399  0.4044 -0.2849  2.1364
 5718SOL    HW228791   3.590   0.747   4.473 -1.6018 -2.9512 -0.0636
 5719SOL     OW28792   1.272   3.105   2.019 -0.4183  0.1702  0.0145
 5719SOL    HW128793   1.270   3.119   2.114  1.2185  0.7195 -0.0264
 5719SOL    HW228794   1.260   3.188   1.972 -2.1498 -1.2837 -2.0823
 5720SOL     OW28795   0.797   4.068   3.500 -0.1920  0.2426  0.3844
 5720SOL    HW128796   0.872   4.116   3.465  1.2526 -2.4827 -0.3024
 5720SOL    HW228797   0.753   4.141   3.543 -0.1694  0.0648  0.7133
 5721SOL     OW28798   2.025   2.700   2.016 -0.6669 -0.0068 -0.5862
 5721SOL    HW128799   2.104   2.645   2.014 -0.9911 -0.4783 -0.3383
 5721SOL    HW228800   2.008   2.701   2.110  0.2508  1.1278 -0.4336
 5722SOL     OW28801   1.854   0.662   5.951  0.0997  0.5308  0.9292
 5722SOL    HW128802   1.849   0.574   5.914  0.4298  1.2505 -0.8531
 5722SOL    HW228803   1.798   0.666   6.028 -1.3337  2.3258 -0.2080
 5723SOL     OW28804   3.649   3.002   7.627  0.1138 -0.1367 -0.1078
 5723SOL    HW128805   3.703   2.946   7.681  0.2285 -0.2315 -0.3216
 5723SOL    HW228806   3.706   3.077   7.608  0.3690 -0.6698 -1.4192
 5724SOL     OW28807   0.764   2.218   7.526 -0.5746  0.3579 -0.1115
 5724SOL    HW128808   0.747   2.243   7.617 -0.0589  0.1085  0.0499
 5724SOL    HW228809   0.852   2.252   7.514 -0.5355  0.6191  0.9487
 5725SOL     OW28810   3.751   0.967  15.032  0.3907 -0.8573 -0.3302
 5725SOL    HW128811   3.742   1.015  15.114  1.3448 -0.4664 -0.4532
 5725SOL    HW228812   3.771   0.876  15.055 -3.2892 -1.4977  0.2010
 5726SOL     OW28813   3.805   2.322  14.481  1.6945  0.3000  0.0993
 5726SOL    HW128814   3.723   2.370  14.469  1.2979 -0.4970 -0.3742
 5726SOL    HW228815   3.858   2.380  14.426  0.8474  0.4805 -0.5358
 5727SOL     OW28816   1.887   3.218   9.337 -0.0632 -0.6865  0.0130
 5727SOL    HW128817   1.910   3.188   9.425 -0.3707 -1.7187 -0.2643
 5727SOL    HW228818   1.898   3.138   9.285  0.4622 -0.3127 -0.4580
 5728SOL     OW28819   0.755   2.552   4.306 -0.1119  0.5143 -0.6019
 5728SOL    HW128820   0.827   2.603   4.271  1.1105 -0.0210  1.1457
 5728SOL    HW228821   0.722   2.508   4.228 -0.1456  1.7868 -1.3001
 5729SOL     OW28822   1.140   0.938   0.264  0.4275  0.3841  0.1653
 5729SOL    HW128823   1.125   1.015   0.319 -0.3090  0.8267 -0.6555
 5729SOL    HW228824   1.119   0.863   0.320 -1.1065  0.9492  0.3607
 5730SOL     OW28825   4.189   3.029  17.131  0.3047 -0.2462  0.1336
 5730SOL    HW128826   4.217   2.940  17.113  3.0388  0.7746 -0.7017
 5730SOL    HW228827   4.240   3.043  17.211  0.7441 -1.0502 -0.0039
 5731SOL     OW28828   3.566   3.775   7.384 -0.1764 -0.5011  0.0270
 5731SOL    HW128829   3.575   3.823   7.466 -1.7551  0.4669 -0.3655
 5731SOL    HW228830   3.649   3.729   7.373 -0.2936 -0.2686 -1.9407
 5732SOL     OW28831   4.241   3.494   2.485 -0.1358 -0.3641 -0.5832
 5732SOL    HW128832   4.267   3.584   2.505 -0.4727 -0.8831  2.0936
 5732SOL    HW228833   4.160   3.508   2.435 -0.6005 -1.7269 -0.2246
 5733SOL     OW28834   2.709   0.475  10.724  0.0028 -0.0422  0.8883
 5733SOL    HW128835   2.699   0.546  10.661 -0.9290 -0.4609  0.5708
 5733SOL    HW228836   2.775   0.508  10.786  2.2981  0.6967 -1.9301
 5734SOL     OW28837   0.719   4.716  11.420  0.0689  0.2587  1.0362
 5734SOL    HW128838   0.630   4.705  11.387 -0.3091  1.7792  1.5452
 5734SOL    HW228839   0.745   0.044  11.363  0.2005 -1.3160 -0.8887
 5735SOL     OW28840   2.844   3.273  14.866 -0.1685  0.4979  0.2559
 5735SOL    HW128841   2.812   3.185  14.845  2.6635  0.0371 -2.1200
 5735SOL    HW228842   2.938   3.258  14.876 -0.1035  0.6089 -0.1872
 5736SOL     OW28843   4.623   0.855  13.751 -0.4842 -1.1129 -0.2713
 5736SOL    HW128844   4.657   0.935  13.789 -1.7920 -1.4455  1.5667
 5736SOL    HW228845   4.701   0.810  13.718  1.7544  3.5619 -1.3624
 5737SOL     OW28846   0.030   0.866  14.022  0.1478  0.5969 -0.2100
 5737SOL    HW128847   0.013   0.930  13.952  0.0902  0.3102 -0.4557
 5737SOL    HW228848   0.074   0.921  14.087 -1.9704  1.6118  0.3837
 5738SOL     OW28849   3.751   0.621   3.590  0.3141  0.8041  0.1082
 5738SOL    HW128850   3.737   0.699   3.644 -0.5476 -0.4536  1.6932
 5738SOL    HW228851   3.723   0.554   3.652 -0.2037  1.1807  0.2826
 5739SOL     OW28852   0.638   2.892   2.234 -0.1357 -0.0893 -0.4273
 5739SOL    HW128853   0.713   2.832   2.227  0.3901  0.4963  0.1826
 5739SOL    HW228854   0.669   2.982   2.242  0.0862 -0.0547 -1.7907
 5740SOL     OW28855   4.021   3.263   6.682  0.1410  0.5908  0.8498
 5740SOL    HW128856   4.098   3.209   6.701  0.6553  0.8936 -0.3885
 5740SOL    HW228857   4.055   3.352   6.668  0.2441  0.6168  1.2674
 5741SOL     OW28858   3.096   3.405   7.572  0.1585  0.7496  0.3603
 5741SOL    HW128859   3.063   3.323   7.609  0.3886  0.2413 -0.5665
 5741SOL    HW228860   3.126   3.382   7.484  1.5330  1.9724  0.5003
 5742SOL     OW28861   0.044   4.082   5.877 -0.5184  0.1994  0.2798
 5742SOL    HW128862   0.100   4.117   5.946  1.0710 -1.6532 -0.0907
 5742SOL    HW228863   0.069   4.126   5.796 -1.1337 -0.8580 -0.4785
 5743SOL     OW28864   0.286   1.925   5.489 -0.1980  0.0531 -0.3339
 5743SOL    HW128865   0.207   1.890   5.530  1.0513  0.2408  2.3145
 5743SOL    HW228866   0.314   1.996   5.547  0.0283 -0.1454 -0.2011
 5744SOL     OW28867   2.092   0.027   7.119  0.1833  0.1637  0.1895
 5744SOL    HW128868   2.099   4.694   7.176  0.9379 -0.4782 -0.7827
 5744SOL    HW228869   2.102   0.084   7.196  1.4005  1.8916 -1.2426
 5745SOL     OW28870   0.273   3.340   0.244 -0.4732 -0.1262  0.6795
 5745SOL    HW128871   0.220   3.287   0.304 -1.5398  1.7439  1.3571
 5745SOL    HW228872   0.331   3.271   0.211 -1.8229 -0.7338 -0.4097
 5746SOL     OW28873   4.014   2.434   2.458 -0.7459  0.3403 -0.5261
 5746SOL    HW128874   4.004   2.528   2.469 -1.8153 -0.0551  1.7864
 5746SOL    HW228875   4.089   2.414   2.514 -0.0749 -1.2599 -2.0072
 5747SOL     OW28876   4.737   1.741   6.605  0.1741 -0.1489  0.1913
 5747SOL    HW128877   0.028   1.694   6.529 -1.5687  0.3222 -0.9052
 5747SOL    HW228878   4.690   1.667   6.644 -0.9509 -0.3295 -1.4892
 5748SOL     OW28879   2.786   3.227   1.097 -0.8932 -0.1555 -0.7336
 5748SOL    HW128880   2.781   3.321   1.116 -0.9484 -0.2890 -0.0824
 5748SOL    HW228881   2.869   3.218   1.049 -0.6308 -0.6570 -0.1761
 5749SOL     OW28882   2.581   1.842  11.535 -0.0210 -0.2476  0.3334
 5749SOL    HW128883   2.568   1.792  11.454  2.3955  1.0888 -0.8652
 5749SOL    HW228884   2.506   1.900  11.521  1.1503  1.0437 -0.5256
 5750SOL     OW28885   3.963   1.978   4.419  0.3766  0.0076  0.1500
 5750SOL    HW128886   4.053   1.996   4.393  0.2754  2.1055  1.3191
 5750SOL    HW228887   3.913   2.020   4.349  1.8674 -0.0092 -0.9275
 5751SOL     OW28888   3.350   2.215  10.893  0.0651 -0.6525 -0.7899
 5751SOL    HW128889   3.285   2.284  10.910  1.3135 -0.2210  2.1819
 5751SOL    HW228890   3.376   2.189  10.981  0.7659  2.6589 -0.0223
 5752SOL     OW28891   2.837   4.695   8.781  1.1473 -0.4982  0.5694
 5752SOL    HW128892   2.795   0.024   8.826  2.2643  0.3158  0.2884
 5752SOL    HW228893   2.927   4.720   8.760  0.8405  0.6463  0.6112
 5753SOL     OW28894   0.815   2.062   6.069  0.2843  0.1476 -0.5102
 5753SOL    HW128895   0.911   2.066   6.064  0.3541 -0.0939  0.6153
 5753SOL    HW228896   0.804   2.149   6.029  0.1276  0.7172  0.7571
 5754SOL     OW28897   2.588   4.709  14.841  0.4143  0.7141 -0.1563
 5754SOL    HW128898   2.586   4.739  14.750  0.0583 -0.8318 -0.6668
 5754SOL    HW228899   2.620   0.047  14.879  1.5928 -0.4014  1.1965
 5755SOL     OW28900   4.616   1.130   1.200  1.0354 -0.8227  0.3649
 5755SOL    HW128901   4.667   1.160   1.125  0.6536 -0.6746  0.1618
 5755SOL    HW228902   4.538   1.185   1.187  1.8183 -0.3486 -2.2888
 5756SOL     OW28903   2.813   4.159   7.898 -0.3505  0.0722  0.3832
 5756SOL    HW128904   2.816   4.243   7.943 -0.4967  0.2942 -0.0216
 5756SOL    HW228905   2.782   4.099   7.966 -0.2664 -0.1700  0.2076
 5757SOL     OW28906   1.446   1.733   4.262 -0.0039  0.6005 -0.3869
 5757SOL    HW128907   1.539   1.717   4.279  0.3597  0.8745 -2.0711
 5757SOL    HW228908   1.444   1.825   4.288 -0.7401  0.6886 -0.7554
 5758SOL     OW28909   0.340   3.822  15.254  0.3664 -0.1255 -0.4471
 5758SOL    HW128910   0.303   3.872  15.327  1.2546  0.1721 -0.1971
 5758SOL    HW228911   0.263   3.790  15.208  0.2618 -1.1924  0.4727
 5759SOL     OW28912   2.260   0.283   9.044  0.0686 -0.0489  0.4100
 5759SOL    HW128913   2.246   0.231   8.965 -1.3792  1.4996 -0.3411
 5759SOL    HW228914   2.352   0.309   9.035 -0.6394  2.2937 -0.0608
 5760SOL     OW28915   0.113   4.038   4.935  0.5136  0.0682  0.2378
 5760SOL    HW128916   0.129   4.075   4.848  2.2722 -1.7280 -0.2077
 5760SOL    HW228917   0.087   3.948   4.917  0.5911 -0.3968  2.4546
 5761SOL     OW28918   4.507   1.383   5.661  0.2445  0.2794  0.3241
 5761SOL    HW128919   4.447   1.322   5.618  0.5741  1.0926 -1.3153
 5761SOL    HW228920   4.454   1.456   5.693  0.7611  1.4519 -1.4837
 5762SOL     OW28921   4.602   2.009   3.045  0.6951 -0.2807  0.1563
 5762SOL    HW128922   4.574   2.090   3.002  0.2415  0.1132  1.1904
 5762SOL    HW228923   4.553   2.019   3.126 -1.4378  1.8550 -1.3873
 5763SOL     OW28924   4.619   1.968   5.510 -0.0557  0.2599 -0.3287
 5763SOL    HW128925   4.627   2.047   5.564 -0.7107  0.1355 -0.0581
 5763SOL    HW228926   4.685   1.909   5.547 -0.3259 -0.1741 -0.5433
 5764SOL     OW28927   2.933   1.490   8.259 -0.7057  0.1432 -0.3593
 5764SOL    HW128928   2.981   1.419   8.301  1.1798  1.2317 -0.6481
 5764SOL    HW228929   3.007   1.547   8.236  1.6427 -1.7421  2.5902
 5765SOL     OW28930   0.756   0.032  13.516 -0.0399  0.0190 -0.0619
 5765SOL    HW128931   0.690   0.067  13.455 -0.6846 -0.7497  0.1926
 5765SOL    HW228932   0.796   0.114  13.546 -1.8136  0.7081  0.4545
 5766SOL     OW28933   2.166   0.511   5.133  0.0364  0.1058 -0.7535
 5766SOL    HW128934   2.076   0.519   5.101  0.2398  0.6415 -1.1779
 5766SOL    HW228935   2.167   0.573   5.206 -0.3006 -0.3678 -0.3466
 5767SOL     OW28936   4.554   0.518   6.056 -0.2767  0.3596 -0.0830
 5767SOL    HW128937   4.479   0.574   6.036 -1.2299 -1.2073 -0.8993
 5767SOL    HW228938   4.619   0.582   6.030 -0.3043  0.3174 -0.2575
 5768SOL     OW28939   0.761   1.974  11.502 -0.1012  0.3632  0.8788
 5768SOL    HW128940   0.698   2.045  11.511  0.8093  1.5894 -2.3083
 5768SOL    HW228941   0.814   1.975  11.581 -0.1307 -0.0572  0.9053
 5769SOL     OW28942   3.374   4.102   7.639 -0.2799 -0.7335 -0.1720
 5769SOL    HW128943   3.435   4.041   7.599  1.5503  1.3133 -0.5234
 5769SOL    HW228944   3.293   4.059   7.613 -0.7773  0.1842 -0.1626
 5770SOL     OW28945   0.592   0.682  15.579 -0.6583 -0.2401  0.3871
 5770SOL    HW128946   0.520   0.702  15.520  0.3643  2.1717 -0.0433
 5770SOL    HW228947   0.615   0.767  15.615 -1.7795 -0.3406  1.3282
 5771SOL     OW28948   3.168   1.673   0.232 -0.2964 -0.1327  0.3617
 5771SOL    HW128949   3.089   1.698   0.184  0.4832  1.0986 -0.2795
 5771SOL    HW228950   3.125   1.619   0.298  0.6787 -2.7605 -1.1666
 5772SOL     OW28951   1.464   3.703  13.408  0.4874 -0.8511  0.0843
 5772SOL    HW128952   1.398   3.662  13.352  2.4532 -0.4923 -2.4716
 5772SOL    HW228953   1.506   3.754  13.339 -4.3499  0.2239 -2.0845
 5773SOL     OW28954   1.069   4.722  16.868 -0.4444  0.3498 -0.4655
 5773SOL    HW128955   0.986   4.712  16.823 -1.7463 -1.1562  2.3019
 5773SOL    HW228956   1.064   0.074  16.875  0.7509  0.3914 -0.2006
 5774SOL     OW28957   3.254   3.063   2.846 -0.7564  0.6497  0.0430
 5774SOL    HW128958   3.279   3.058   2.754  0.0459 -1.2498  0.3816
 5774SOL    HW228959   3.221   2.973   2.847  0.7824  0.0848 -1.5187
 5775SOL     OW28960   0.453   3.852  13.798  0.7201 -0.2103  0.2538
 5775SOL    HW128961   0.406   3.773  13.824 -1.1036  0.7146 -0.2417
 5775SOL    HW228962   0.515   3.818  13.733  0.0475 -1.2171  0.1397
 5776SOL     OW28963   1.155   4.711   5.827  0.1605 -0.4686  0.1592
 5776SOL    HW128964   1.206   4.667   5.759  2.5488 -0.3479  1.8579
 5776SOL    HW228965   1.101   4.634   5.841  0.1493 -0.6050 -0.6602
 5777SOL     OW28966   1.936   4.414   7.260 -0.1785 -0.2883 -0.3344
 5777SOL    HW128967   1.942   4.458   7.175  0.4653  0.5399  0.1403
 5777SOL    HW228968   1.980   4.335   7.229  2.0177  0.2345  1.4874
 5778SOL     OW28969   2.517   4.302   5.241  0.1188  0.2164 -0.0071
 5778SOL    HW128970   2.554   4.389   5.227  1.6456 -0.4837 -0.2707
 5778SOL    HW228971   2.431   4.321   5.204  0.4209 -0.0970 -0.8678
 5779SOL     OW28972   3.759   2.707   5.228 -0.1799  0.2838 -0.8216
 5779SOL    HW128973   3.759   2.626   5.280  0.7089  0.8912  0.1377
 5779SOL    HW228974   3.677   2.701   5.180 -1.4290  1.3288  1.1628
 5780SOL     OW28975   1.980   0.001   7.741  0.5211  0.1738  0.6300
 5780SOL    HW128976   2.007   0.091   7.723  1.3184 -1.0056 -4.0984
 5780SOL    HW228977   2.027   4.726   7.823  0.1002  0.0251  0.8387
 5781SOL     OW28978   2.252   1.101  16.369  0.1912  0.1970 -0.4946
 5781SOL    HW128979   2.208   1.174  16.413  2.1465 -0.7157  3.0607
 5781SOL    HW228980   2.325   1.088  16.431 -0.3763 -2.8040 -0.4811
 5782SOL     OW28981   1.858   4.742  10.513 -0.3789  0.3631  0.0197
 5782SOL    HW128982   1.831   0.024  10.425 -2.1891  1.5733  0.9400
 5782SOL    HW228983   1.771   4.730  10.550 -0.1040  0.6647  0.7648
 5783SOL     OW28984   1.429   0.108   9.147 -0.6639 -0.0330 -0.4158
 5783SOL    HW128985   1.411   0.018   9.119  0.5000 -0.1502 -0.8245
 5783SOL    HW228986   1.389   0.107   9.233  0.0166  1.4436 -0.0748
 5784SOL     OW28987   4.700   4.307   5.718 -0.3758  0.4439 -0.5317
 5784SOL    HW128988   4.743   4.355   5.789  1.1477  0.6590 -1.5992
 5784SOL    HW228989   4.732   4.348   5.638  0.2619 -0.8574 -0.9431
 5785SOL     OW28990   1.019   3.078   7.744  0.2211 -0.0052 -0.0914
 5785SOL    HW128991   1.012   3.068   7.839 -1.8151 -0.4202 -0.2838
 5785SOL    HW228992   0.929   3.060   7.717  0.1575  2.0950 -1.3442
 5786SOL     OW28993   4.021   4.178   2.719  0.0958  0.3880 -0.0120
 5786SOL    HW128994   4.018   4.221   2.634 -1.6840  0.7126  0.1999
 5786SOL    HW228995   3.925   4.172   2.722 -0.0005  2.0835  0.6731
 5787SOL     OW28996   2.380   2.079  16.164 -0.1960  0.2716 -0.1606
 5787SOL    HW128997   2.384   2.075  16.069  0.5876  1.9266 -0.2016
 5787SOL    HW228998   2.335   2.161  16.185 -1.1783 -0.1971 -0.4326
 5788SOL     OW28999   1.228   1.988   7.605  0.2580  0.5773  0.3006
 5788SOL    HW129000   1.219   2.079   7.577 -0.2297  0.3390 -0.3210
 5788SOL    HW229001   1.174   1.940   7.542  0.3420  0.4188  0.3481
 5789SOL     OW29002   2.600   1.881  15.277  0.0175 -0.9115 -0.7388
 5789SOL    HW129003   2.619   1.940  15.204  0.4545  0.3751  0.4203
 5789SOL    HW229004   2.511   1.912  15.290  0.7954  0.8328  0.3217
 5790SOL     OW29005   4.369   0.360   9.503 -0.0563  0.4397 -0.8175
 5790SOL    HW129006   4.292   0.407   9.535 -0.8260 -1.2634 -0.1964
 5790SOL    HW229007   4.392   0.424   9.436  2.5807  0.7893  0.4169
 5791SOL     OW29008   1.448   1.797   4.711 -0.3307 -0.4431  0.4662
 5791SOL    HW129009   1.384   1.751   4.766  0.8613 -0.5636  1.7742
 5791SOL    HW229010   1.527   1.749   4.737 -0.1905 -1.5254 -1.9661
 5792SOL     OW29011   2.659   1.890  15.625  0.1716 -0.0140  0.4368
 5792SOL    HW129012   2.635   1.970  15.671 -0.5124 -0.3589  0.6699
 5792SOL    HW229013   2.657   1.843  15.708  1.0018  0.8930  0.9656
 5793SOL     OW29014   1.449   4.518   3.490 -0.4819  0.0931  0.0164
 5793SOL    HW129015   1.430   4.433   3.530  0.8992 -1.0529 -1.7720
 5793SOL    HW229016   1.371   4.570   3.513 -0.0183  1.0252 -0.5272
 5794SOL     OW29017   0.687   3.017   6.075 -0.5659  0.1889 -0.5077
 5794SOL    HW129018   0.646   2.984   6.155  1.4703 -1.6181 -0.2249
 5794SOL    HW229019   0.725   3.100   6.105 -0.7090  0.6427 -1.5943
 5795SOL     OW29020   0.959   2.007   2.686  0.3102 -0.3869  0.1469
 5795SOL    HW129021   1.052   2.006   2.709  0.8841 -0.3864 -2.2108
 5795SOL    HW229022   0.964   2.074   2.619  0.6524 -0.8115 -0.2555
 5796SOL     OW29023   2.816   1.452   4.849 -0.3911  0.3889 -0.6899
 5796SOL    HW129024   2.844   1.480   4.936 -1.6335 -2.2000  0.5497
 5796SOL    HW229025   2.733   1.411   4.873 -1.0165  1.6187 -0.7304
 5797SOL     OW29026   2.613   3.386   9.289  0.2650 -0.3515  0.1977
 5797SOL    HW129027   2.615   3.342   9.374  1.4990 -1.2502 -0.2927
 5797SOL    HW229028   2.686   3.446   9.305 -0.0630  0.3388 -0.8577
 5798SOL     OW29029   1.260   4.476  13.269  0.3832  0.5580  0.7055
 5798SOL    HW129030   1.199   4.514  13.205  1.2520  0.0671 -0.4044
 5798SOL    HW229031   1.292   4.555  13.313  1.3921  0.8384 -0.5348
 5799SOL     OW29032   0.744   1.852   7.146 -0.2969  0.1361 -0.1940
 5799SOL    HW129033   0.649   1.845   7.136 -0.0564 -3.0054 -0.1816
 5799SOL    HW229034   0.760   1.818   7.234 -0.7628 -0.0998 -0.1985
 5800SOL     OW29035   4.506   1.349   3.664 -0.5135 -0.7806 -0.1931
 5800SOL    HW129036   4.423   1.351   3.617 -1.5129 -0.2919  1.6124
 5800SOL    HW229037   4.502   1.416   3.733 -5.4129 -0.4547 -0.8398
 5801SOL     OW29038   2.681   4.274   0.517 -0.1478 -0.4703  0.1581
 5801SOL    HW129039   2.765   4.228   0.512 -0.1426 -0.5712  1.3216
 5801SOL    HW229040   2.621   4.202   0.498 -0.6995  0.2223 -0.7586
 5802SOL     OW29041   3.136   0.439   6.407 -0.2105  0.1805  0.1182
 5802SOL    HW129042   3.058   0.443   6.462 -1.9496 -0.3832 -2.2847
 5802SOL    HW229043   3.169   0.527   6.389  1.2640 -0.5231 -0.5581
 5803SOL     OW29044   4.587   2.707   6.305 -0.1292 -0.0083 -0.3411
 5803SOL    HW129045   4.554   2.739   6.221  0.9226  4.1419  0.8636
 5803SOL    HW229046   4.563   2.614   6.301  0.0020  0.0308 -2.2900
 5804SOL     OW29047   3.637   1.341   4.731 -0.7689 -0.3772  0.1872
 5804SOL    HW129048   3.661   1.365   4.642 -1.0339  0.3097  0.2987
 5804SOL    HW229049   3.552   1.311   4.703 -0.8571  1.1065 -1.1284
 5805SOL     OW29050   3.953   2.166   3.265  0.1984 -0.3266 -0.0567
 5805SOL    HW129051   3.969   2.080   3.306 -1.5242  0.3753  2.1102
 5805SOL    HW229052   3.931   2.205   3.350 -0.1495 -1.9078  0.5840
 5806SOL     OW29053   2.580   2.112   5.695  0.5713  0.1526 -0.4269
 5806SOL    HW129054   2.565   2.133   5.603  1.9297  0.0277 -0.6824
 5806SOL    HW229055   2.505   2.052   5.704  2.3033 -1.8909  0.4381
 5807SOL     OW29056   3.091   0.406   5.485  0.0910  0.4038 -0.7379
 5807SOL    HW129057   3.016   0.348   5.493  0.0555  0.4535 -0.7086
 5807SOL    HW229058   3.058   0.495   5.501  0.1341  0.3726 -0.4823
 5808SOL     OW29059   0.167   2.931  17.684  0.1497  0.3745 -0.0085
 5808SOL    HW129060   0.106   3.002  17.666  0.3036  0.4222 -0.3402
 5808SOL    HW229061   0.254   2.967  17.667  0.9349 -1.0186  1.1185
 5809SOL     OW29062   2.916   3.803   7.031  0.0874 -0.0176 -0.1314
 5809SOL    HW129063   3.009   3.779   7.028  0.4801  1.6001 -0.7920
 5809SOL    HW229064   2.870   3.748   6.967  0.0513  1.0919 -1.0415
 5810SOL     OW29065   1.584   0.526   5.014  0.0128 -0.3644  0.8196
 5810SOL    HW129066   1.648   0.495   4.951  1.4371  0.4864  1.8502
 5810SOL    HW229067   1.569   0.448   5.068 -0.8104 -0.2994  0.6907
 5811SOL     OW29068   2.362   1.360   3.554  0.5591  0.2470 -0.8789
 5811SOL    HW129069   2.409   1.296   3.608 -1.9441 -0.2370  0.7442
 5811SOL    HW229070   2.391   1.322   3.471  2.2371  1.2164 -0.7343
 5812SOL     OW29071   0.563   3.897   6.802  0.1557 -0.5956 -0.1529
 5812SOL    HW129072   0.537   3.838   6.731 -0.1603  2.6820 -2.7259
 5812SOL    HW229073   0.492   3.962   6.806  0.9975  0.1514  2.8017
 5813SOL     OW29074   4.275   3.274   4.243 -0.4164 -0.1441 -0.2997
 5813SOL    HW129075   4.300   3.271   4.336 -0.3786 -1.5701 -0.3565
 5813SOL    HW229076   4.279   3.369   4.235 -2.2028  0.0850  1.6330
 5814SOL     OW29077   3.179   4.462   0.733 -0.0231 -1.0172  0.0349
 5814SOL    HW129078   3.260   4.411   0.735  0.8910  0.4013 -1.1725
 5814SOL    HW229079   3.207   4.541   0.779 -0.2401 -1.4838  0.9696
 5815SOL     OW29080   1.269   0.999   1.102  0.8859  0.8419  0.2578
 5815SOL    HW129081   1.340   0.936   1.111  0.7075  0.4932 -0.8769
 5815SOL    HW229082   1.293   1.036   1.017  0.2890 -0.5762 -0.5276
 5816SOL     OW29083   0.390   2.378   3.668  0.4800  0.1275  0.1593
 5816SOL    HW129084   0.348   2.456   3.632 -0.1598  0.7102  2.2031
 5816SOL    HW229085   0.422   2.333   3.589 -3.2953 -1.5060 -0.4481
 5817SOL     OW29086   1.531   3.133   4.707  0.0199 -0.4489  0.1400
 5817SOL    HW129087   1.547   3.185   4.785  1.3635  0.9130 -1.0605
 5817SOL    HW229088   1.476   3.060   4.737  1.6345 -1.3685  0.8886
 5818SOL     OW29089   3.697   0.963  12.345  0.1193 -0.2619 -0.0534
 5818SOL    HW129090   3.763   1.027  12.320  0.9429 -1.0434  0.0987
 5818SOL    HW229091   3.737   0.912  12.416  0.5847  0.8455  0.4738
 5819SOL     OW29092   2.673   2.634   4.682  0.5914 -0.0870  0.2015
 5819SOL    HW129093   2.710   2.688   4.752  0.8980  0.0045 -0.0299
 5819SOL    HW229094   2.600   2.585   4.720  1.2527 -0.9694  0.3154
 5820SOL     OW29095   0.867   1.703   3.177  0.4525 -0.0403  0.5217
 5820SOL    HW129096   0.809   1.667   3.244  1.0441  0.3911  1.2688
 5820SOL    HW229097   0.831   1.657   3.101 -0.5238  1.6100 -0.0130
 5821SOL     OW29098   3.140   1.430   0.364  0.2699 -0.0297  0.3612
 5821SOL    HW129099   3.137   1.344   0.322  3.3770  0.4603 -0.8889
 5821SOL    HW229100   3.050   1.446   0.393 -0.4154  0.6513 -2.1717
 5822SOL     OW29101   3.722   4.467   2.840  0.9954  0.3190 -0.2504
 5822SOL    HW129102   3.636   4.491   2.873  0.9403 -0.4559  0.1574
 5822SOL    HW229103   3.717   4.377   2.870 -2.0448  0.2374 -0.9783
 5823SOL     OW29104   1.841   3.787   2.358  0.1431  0.4869 -0.0357
 5823SOL    HW129105   1.888   3.870   2.365 -0.2210  0.8674 -2.0496
 5823SOL    HW229106   1.822   3.794   2.264  0.8810  2.2283 -0.0595
 5824SOL     OW29107   1.198   3.101   8.668 -0.5729  0.5809  0.5910
 5824SOL    HW129108   1.126   3.057   8.713 -0.9964  1.3157  0.6491
 5824SOL    HW229109   1.250   3.029   8.635  0.6551  0.6124  2.4798
 5825SOL     OW29110   0.503   0.723   6.581  0.5523  0.2815 -0.2163
 5825SOL    HW129111   0.500   0.687   6.670  0.3358 -1.4367 -0.9113
 5825SOL    HW229112   0.495   0.814   6.608 -0.2603 -0.3386  1.6712
 5826SOL     OW29113   2.071   0.707   0.678 -0.6316  0.6381  0.0271
 5826SOL    HW129114   2.161   0.737   0.669 -0.5397 -0.0167 -1.2510
 5826SOL    HW229115   2.038   0.795   0.696 -3.8068 -0.9873  2.2278
 5827SOL     OW29116   2.830   0.266  17.750 -0.2877  0.3438  0.1536
 5827SOL    HW129117   2.862   0.176  17.747  1.0794  0.8128  0.5824
 5827SOL    HW229118   2.883   0.302   0.049 -0.1866 -0.5623  0.5351
 5828SOL     OW29119   0.160   4.653   3.081  0.2350 -0.0263 -0.2319
 5828SOL    HW129120   0.212   4.635   3.003 -0.4033 -0.6717 -0.5138
 5828SOL    HW229121   0.117   4.734   3.052 -1.1006 -0.6468 -0.0124
 5829SOL     OW29122   2.961   4.137   1.387  0.0874 -0.3717  0.5202
 5829SOL    HW129123   2.992   4.073   1.324 -1.0778 -1.6211  1.2243
 5829SOL    HW229124   2.975   4.215   1.333 -0.6074 -0.6062 -0.0023
 5830SOL     OW29125   0.811   4.387  11.754  0.7059 -0.1434 -0.6145
 5830SOL    HW129126   0.824   4.372  11.848 -1.2064 -1.0201 -0.4992
 5830SOL    HW229127   0.841   4.475  11.730 -1.7793  1.0442  0.6566
 5831SOL     OW29128   2.939   1.637   3.480 -0.0440 -0.2992  0.4671
 5831SOL    HW129129   2.949   1.624   3.574  0.5738  1.5254  0.6493
 5831SOL    HW229130   2.887   1.717   3.469 -0.7194 -0.7315  0.5341
 5832SOL     OW29131   4.581   0.414   0.730 -0.8588 -0.1269 -0.3489
 5832SOL    HW129132   4.629   0.333   0.711 -0.2338  0.1489  0.0751
 5832SOL    HW229133   4.551   0.437   0.642 -1.3260  0.4048 -0.0484
 5833SOL     OW29134   0.633   4.673   4.159  0.1483 -0.0451 -0.4382
 5833SOL    HW129135   0.620   4.703   4.069 -1.0283  0.0693 -0.2209
 5833SOL    HW229136   0.563   4.725   4.198 -0.4596 -0.4037 -1.0628
 5834SOL     OW29137   0.337   4.486  16.885  0.4829  0.4431  0.4791
 5834SOL    HW129138   0.306   4.459  16.799  1.1494 -0.4490  0.5257
 5834SOL    HW229139   0.415   4.432  16.877 -0.1820 -0.6773  1.5366
 5835SOL     OW29140   3.900   2.899   2.696 -0.5682  0.6541  0.0964
 5835SOL    HW129141   3.940   2.957   2.760  0.2764 -1.2774  1.3365
 5835SOL    HW229142   3.808   2.912   2.718 -0.1751 -1.4196  2.9790
 5836SOL     OW29143   1.726   0.831  13.900 -0.2993  0.9365 -0.1896
 5836SOL    HW129144   1.689   0.747  13.873  1.1786 -0.2003  1.2553
 5836SOL    HW229145   1.804   0.847  13.847  0.7050 -2.5155  0.2626
 5837SOL     OW29146   2.914   4.363  13.242  0.3508  0.5558 -0.5634
 5837SOL    HW129147   3.007   4.370  13.220  0.4400  0.3712 -0.2326
 5837SOL    HW229148   2.881   4.310  13.169 -0.3525 -1.7930  1.4744
 5838SOL     OW29149   1.495   0.647   5.851  0.5615  0.2842  0.1506
 5838SOL    HW129150   1.422   0.648   5.913  0.5941 -0.0120  0.1895
 5838SOL    HW229151   1.561   0.676   5.914 -0.3385  2.6196  0.0209
 5839SOL     OW29152   2.239   3.264   4.303  0.4175  0.2387 -0.0155
 5839SOL    HW129153   2.145   3.281   4.297  0.3613 -0.3169 -0.6483
 5839SOL    HW229154   2.248   3.311   4.386  0.2433 -0.4016  0.3586
 5840SOL     OW29155   1.095   3.588   7.027 -0.0628 -0.0543 -0.2854
 5840SOL    HW129156   1.082   3.616   7.118 -1.3495 -1.6997  0.0421
 5840SOL    HW229157   1.170   3.531   7.040 -0.6203 -0.1791  2.3788
 5841SOL     OW29158   1.816   4.743   3.710  0.0273  0.2501  0.0318
 5841SOL    HW129159   1.896   4.742   3.658 -0.0904  1.1313 -0.1711
 5841SOL    HW229160   1.752   4.723   3.641  1.2024 -2.9990 -0.1243
 5842SOL     OW29161   1.150   3.236   5.310  0.1125  0.3639  0.4181
 5842SOL    HW129162   1.185   3.155   5.274  0.5503  1.2678 -1.1853
 5842SOL    HW229163   1.226   3.293   5.323  1.1269 -1.2325  1.4415
 5843SOL     OW29164   3.049   3.547   7.057 -0.0833 -0.2727  0.3656
 5843SOL    HW129165   2.968   3.501   7.075 -0.6702  1.5785  2.5142
 5843SOL    HW229166   3.047   3.542   6.962 -0.7193 -0.9573  0.4211
 5844SOL     OW29167   3.258   3.327   0.483  0.4392  0.2113 -0.4390
 5844SOL    HW129168   3.309   3.374   0.549 -1.0972  0.9870  0.1904
 5844SOL    HW229169   3.179   3.319   0.536  0.5276 -1.7474 -0.6085
 5845SOL     OW29170   3.322   0.520  10.085  0.4823 -0.1498  0.6309
 5845SOL    HW129171   3.303   0.426  10.077  0.6621  0.0163 -1.6251
 5845SOL    HW229172   3.276   0.547  10.165 -0.1613 -1.4255  0.7055
 5846SOL     OW29173   0.249   1.624   8.821 -0.1746 -0.4586 -0.4588
 5846SOL    HW129174   0.320   1.583   8.869  0.0034 -0.8925 -1.0874
 5846SOL    HW229175   0.175   1.588   8.871 -0.0895  0.9583  0.6710
 5847SOL     OW29176   1.269   2.963  15.715  0.3412  0.3289 -0.2220
 5847SOL    HW129177   1.319   2.919  15.646  0.0859  1.2723 -1.0221
 5847SOL    HW229178   1.192   2.990  15.664  2.0173  3.1593 -1.2425
 5848SOL     OW29179   0.684   3.697   6.979  0.0770  0.1953 -0.3810
 5848SOL    HW129180   0.654   3.753   6.906 -3.7739  0.8547  1.6925
 5848SOL    HW229181   0.644   3.750   7.049 -1.8650 -3.6051  1.3732
 5849SOL     OW29182   0.682   1.314  12.404 -0.3070 -0.1368 -0.0721
 5849SOL    HW129183   0.722   1.251  12.345  0.3983  0.2933 -0.0475
 5849SOL    HW229184   0.596   1.272  12.413 -0.8302  0.9586  0.1510
 5850SOL     OW29185   1.345   2.269   6.830 -0.8969  0.4251  0.0550
 5850SOL    HW129186   1.286   2.343   6.844 -0.7332  0.4748  0.5038
 5850SOL    HW229187   1.315   2.240   6.744  1.1444 -0.0364 -0.5090
 5851SOL     OW29188   1.386   3.414  10.385 -0.6621  0.2782  0.1837
 5851SOL    HW129189   1.435   3.465  10.320  1.2136  1.5166  2.5528
 5851SOL    HW229190   1.319   3.480  10.405 -1.2425 -0.3474  0.2895
 5852SOL     OW29191   3.492   1.319   2.725 -0.5442  0.2886  0.4992
 5852SOL    HW129192   3.547   1.241   2.729  0.3175  0.8300 -0.6987
 5852SOL    HW229193   3.448   1.315   2.810  1.4706  0.7756  1.5484
 5853SOL     OW29194   3.667   0.037  10.357 -0.1174  0.8554 -0.6099
 5853SOL    HW129195   3.726   4.731  10.414  1.0482  0.2268 -2.3516
 5853SOL    HW229196   3.656   0.113  10.413 -1.0258  0.7217 -0.6018
 5854SOL     OW29197   0.096   1.248   3.305 -0.1080 -0.1884 -0.2107
 5854SOL    HW129198   0.023   1.304   3.331  0.5122  0.8824 -0.8062
 5854SOL    HW229199   0.071   1.167   3.350  1.5648 -1.2685 -1.2187
 5855SOL     OW29200   1.547   2.249   3.151 -0.4030  0.7295 -0.0700
 5855SOL    HW129201   1.457   2.224   3.134 -1.2224  3.3471  0.4521
 5855SOL    HW229202   1.601   2.238   3.073 -2.3081  0.1171 -1.2917
 5856SOL     OW29203   3.541   1.919   5.749  0.3779 -0.6052  0.4719
 5856SOL    HW129204   3.547   1.825   5.768 -2.9369 -1.1070 -0.9395
 5856SOL    HW229205   3.630   1.944   5.725  0.1785  0.1807  0.5604
 5857SOL     OW29206   3.288   0.949   9.348 -0.4886  0.5472 -0.5886
 5857SOL    HW129207   3.262   1.034   9.383  0.0344  0.7547 -0.7158
 5857SOL    HW229208   3.306   0.901   9.429  2.9607 -0.6224 -2.0862
 5858SOL     OW29209   3.216   0.080   4.687 -0.2377  0.5438 -0.1417
 5858SOL    HW129210   3.131   0.122   4.673 -0.3692  0.7693  1.2905
 5858SOL    HW229211   3.193   4.732   4.703 -0.5127  0.6684  0.1751
 5859SOL     OW29212   2.708   0.382   1.031  0.0075 -0.1516  0.3578
 5859SOL    HW129213   2.635   0.410   0.976  0.2312 -2.1404 -0.9361
 5859SOL    HW229214   2.688   0.289   1.030  2.1030 -0.6425  3.9038
 5860SOL     OW29215   0.002   4.192   7.283 -0.9359  0.5367 -0.0189
 5860SOL    HW129216   0.090   4.155   7.273 -1.3034 -0.3437 -0.0459
 5860SOL    HW229217   0.020   4.283   7.305  0.5801  0.3020 -0.2798
 5861SOL     OW29218   0.561   0.216   5.530 -0.0087  0.0853 -0.1975
 5861SOL    HW129219   0.501   0.145   5.553 -0.1911 -0.4455 -2.3865
 5861SOL    HW229220   0.575   0.204   5.436  0.0488 -0.3922 -0.1281
 5862SOL     OW29221   3.735   4.726   8.147  0.7144  0.5605 -0.4732
 5862SOL    HW129222   3.654   0.028   8.125  0.6046 -0.2199 -1.7198
 5862SOL    HW229223   3.736   0.023   8.233 -0.1999 -1.6474  0.5819
 5863SOL     OW29224   2.440   2.751   2.044 -0.1117 -0.0890  0.2872
 5863SOL    HW129225   2.402   2.808   2.111  0.8183 -0.0703  0.7996
 5863SOL    HW229226   2.491   2.810   1.989 -0.3950  2.1034  2.3651
 5864SOL     OW29227   3.932   3.539   6.145 -0.2232 -0.3187 -0.2012
 5864SOL    HW129228   3.844   3.523   6.111  0.0336 -0.6131 -0.7160
 5864SOL    HW229229   3.906   3.578   6.229  1.5865 -0.7112  0.5409
 5865SOL     OW29230   0.880   4.544   9.251  0.6529 -0.3922 -0.3106
 5865SOL    HW129231   0.823   4.542   9.174  0.4178 -1.3263 -0.1130
 5865SOL    HW229232   0.930   4.462   9.247 -1.3505 -1.5668 -0.9501
 5866SOL     OW29233   2.145   2.293   4.805 -0.1513  0.4662 -0.4741
 5866SOL    HW129234   2.071   2.234   4.790 -0.4724  0.7319  0.0661
 5866SOL    HW229235   2.117   2.377   4.769 -1.6526  0.0256 -0.3615
 5867SOL     OW29236   1.517   1.262   5.558  0.0515  0.3425 -0.5569
 5867SOL    HW129237   1.553   1.347   5.531  1.9820 -0.8802 -1.7548
 5867SOL    HW229238   1.592   1.235   5.610 -1.1446 -0.6482  0.6431
 5868SOL     OW29239   4.238   0.567   8.430 -0.5119 -0.1404 -0.1185
 5868SOL    HW129240   4.180   0.524   8.493  2.7471 -2.7044  1.1615
 5868SOL    HW229241   4.316   0.512   8.427 -0.8842 -0.6656 -0.3248
 5869SOL     OW29242   0.138   1.929  10.333 -0.8702  0.2768  0.9659
 5869SOL    HW129243   0.204   1.865  10.358 -0.2925  0.1004 -1.0694
 5869SOL    HW229244   0.193   2.001  10.306 -1.6623  0.5663  0.1220
 5870SOL     OW29245   3.928   1.593  12.675  0.6310  0.2472  0.1471
 5870SOL    HW129246   3.844   1.608  12.719  1.4515 -0.0928  1.8198
 5870SOL    HW229247   3.976   1.543  12.741 -1.8606 -2.1906  0.1063
 5871SOL     OW29248   4.541   4.569  14.613 -0.4665 -0.9368 -0.8245
 5871SOL    HW129249   4.566   4.477  14.604  2.2473 -0.2264 -0.5715
 5871SOL    HW229250   4.489   4.579  14.533 -2.0367 -3.2950 -0.0987
 5872SOL     OW29251   1.118   2.198   7.987  0.2436 -0.3658 -0.1502
 5872SOL    HW129252   1.117   2.240   7.900  1.3866 -0.3298 -0.1496
 5872SOL    HW229253   1.158   2.116   7.959  2.2357 -0.2261  2.3284
 5873SOL     OW29254   3.334   3.451   8.481  0.2625  0.2824 -0.3358
 5873SOL    HW129255   3.266   3.512   8.453  0.8624  1.0011 -0.2147
 5873SOL    HW229256   3.284   3.399   8.544  1.4590  0.3170  0.6301
 5874SOL     OW29257   4.161   1.554   0.044  0.1288  0.0098 -0.2918
 5874SOL    HW129258   4.192   1.643   0.059  0.0805 -0.4163  2.2488
 5874SOL    HW229259   4.068   1.573   0.036 -0.4323 -3.1076 -1.0908
 5875SOL     OW29260   2.336   1.995   4.626  0.1939  0.4517  0.0502
 5875SOL    HW129261   2.359   1.936   4.555  0.1342 -1.5280  1.7018
 5875SOL    HW229262   2.243   1.974   4.628 -0.2060  2.1281 -0.4680
 5876SOL     OW29263   0.411   4.676   3.546 -0.2090 -0.0408 -0.4404
 5876SOL    HW129264   0.332   4.634   3.513  0.8098 -0.1459 -2.7402
 5876SOL    HW229265   0.436   4.623   3.623 -0.4943  0.6105  0.0984
 5877SOL     OW29266   2.050   1.935   5.729 -0.4884 -0.0380  0.3019
 5877SOL    HW129267   2.043   1.870   5.660 -3.5090 -0.3214  0.8490
 5877SOL    HW229268   1.992   1.895   5.793 -2.1518  1.2902 -0.3548
 5878SOL     OW29269   0.744   1.811   6.017  0.3342 -0.0730  0.3083
 5878SOL    HW129270   0.736   1.807   5.922 -0.4979  0.3030  0.3668
 5878SOL    HW229271   0.750   1.906   6.032 -1.1523  0.3966 -2.1878
 5879SOL     OW29272   3.577   2.714   1.925 -0.2549 -0.1101  0.5034
 5879SOL    HW129273   3.493   2.752   1.900 -1.0220 -1.6850  0.6972
 5879SOL    HW229274   3.561   2.621   1.910  0.0658 -0.3033  1.3235
 5880SOL     OW29275   0.871   1.946  16.417 -0.5378  0.7783  0.3352
 5880SOL    HW129276   0.944   1.967  16.476 -1.5296  1.2213  1.3982
 5880SOL    HW229277   0.807   1.924  16.484 -2.4184 -0.0890 -1.7401
 5881SOL     OW29278   4.338   4.074   7.244 -0.3039  0.3117 -0.5091
 5881SOL    HW129279   4.339   3.982   7.216  0.0081  0.3245 -0.5440
 5881SOL    HW229280   4.351   4.116   7.159 -1.3388 -1.1403 -1.3815
 5882SOL     OW29281   4.495   2.420   0.056 -0.4188 -0.1020 -0.6631
 5882SOL    HW129282   4.571   2.460   0.015  2.2963 -2.3899  2.0989
 5882SOL    HW229283   4.453   2.505   0.071  0.7533  0.7840 -2.4101
 5883SOL     OW29284   0.710   4.524  13.476 -0.8791  0.3565 -0.1469
 5883SOL    HW129285   0.760   4.605  13.487  1.8621 -1.4335  0.5401
 5883SOL    HW229286   0.627   4.542  13.521 -0.4046  1.1159  0.4342
 5884SOL     OW29287   4.423   2.361   9.096 -0.5302  0.5415  0.0713
 5884SOL    HW129288   4.362   2.427   9.063  0.7058  1.2991 -0.7435
 5884SOL    HW229289   4.396   2.286   9.043  1.6593  1.3873 -2.2811
 5885SOL     OW29290   1.740   1.285   5.727 -0.0252  0.0344  0.4367
 5885SOL    HW129291   1.708   1.273   5.816 -1.3654 -1.8941 -0.3102
 5885SOL    HW229292   1.817   1.229   5.734 -2.5544 -3.4086  0.7014
 5886SOL     OW29293   2.801   0.739   6.696  0.5866 -0.0267  0.2915
 5886SOL    HW129294   2.776   0.711   6.784 -0.3309  3.1255  1.0389
 5886SOL    HW229295   2.843   0.823   6.715 -0.3775  0.9873 -2.1289
 5887SOL     OW29296   1.493   1.954   8.999  0.2603 -0.1577  0.1587
 5887SOL    HW129297   1.428   1.957   9.068 -0.8964  0.8783 -0.9740
 5887SOL    HW229298   1.527   1.865   9.015  0.5347  0.2986  2.1060
 5888SOL     OW29299   3.300   3.681  17.750  0.5013 -0.2061  0.4402
 5888SOL    HW129300   3.279   3.655   0.067 -1.1099 -0.8680 -0.1264
 5888SOL    HW229301   3.227   3.743  17.745 -1.6463 -2.6143  2.1867
 5889SOL     OW29302   2.280   3.045   4.565 -0.1645  0.0323  0.2553
 5889SOL    HW129303   2.374   3.044   4.550 -0.3070  1.6985 -0.8179
 5889SOL    HW229304   2.237   3.051   4.479  0.1637 -3.4928 -0.1439
 5890SOL     OW29305   1.685   2.630   5.826 -0.5365  0.5270 -0.1365
 5890SOL    HW129306   1.684   2.713   5.778  1.1872 -0.1439 -1.3384
 5890SOL    HW229307   1.769   2.623   5.871  0.7265  0.2980 -2.5194
 5891SOL     OW29308   4.206   3.080   6.797 -0.2984 -0.4451  0.3039
 5891SOL    HW129309   4.193   2.985   6.798 -1.3501 -0.3114 -0.5054
 5891SOL    HW229310   4.230   3.106   6.885  2.8536 -1.0944 -0.3825
 5892SOL     OW29311   2.641   0.252  12.986 -0.4640  0.5556  0.5171
 5892SOL    HW129312   2.658   0.172  13.036 -1.0125 -0.1687 -0.4342
 5892SOL    HW229313   2.652   0.327  13.044 -0.5732  0.5072  0.6001
 5893SOL     OW29314   2.374   3.931   2.991 -0.2678  0.2294  0.2510
 5893SOL    HW129315   2.314   3.858   2.973 -1.3595  0.5704  2.4595
 5893SOL    HW229316   2.335   3.988   2.925 -2.7410  0.6815  2.0727
 5894SOL     OW29317   3.692   3.436  16.424  1.3239 -0.0355  0.1916
 5894SOL    HW129318   3.763   3.493  16.453 -1.4221  2.2191  2.5838
 5894SOL    HW229319   3.638   3.424  16.502 -2.7515 -0.3740 -2.7011
 5895SOL     OW29320   3.718   4.472   8.070  0.2060 -0.3721 -0.3340
 5895SOL    HW129321   3.760   4.425   8.142  0.8664 -1.3399 -1.3575
 5895SOL    HW229322   3.708   4.563   8.098  0.1335 -0.4224 -0.1967
 5896SOL     OW29323   1.315   0.130   4.374  0.1685  0.1463 -0.3242
 5896SOL    HW129324   1.255   0.076   4.425  1.3190 -0.7260  0.0899
 5896SOL    HW229325   1.396   0.083   4.391 -0.4292 -1.0432 -0.8065
 5897SOL     OW29326   0.499   1.238  12.063 -0.7324 -0.3614 -0.0679
 5897SOL    HW129327   0.584   1.193  12.054 -0.7357 -0.7848  2.0320
 5897SOL    HW229328   0.468   1.201  12.145 -0.2486 -0.8797 -0.1157
 5898SOL     OW29329   0.532   4.312   1.524  0.0730  0.8042  0.1292
 5898SOL    HW129330   0.503   4.397   1.494 -0.6015  0.0393 -1.3654
 5898SOL    HW229331   0.454   4.266   1.556  2.3951 -3.8414 -0.8709
 5899SOL     OW29332   1.422   3.341   3.121  0.2652  0.3897 -0.2800
 5899SOL    HW129333   1.488   3.317   3.186 -0.3593  0.0479  0.2328
 5899SOL    HW229334   1.414   3.435   3.137  0.6232  0.4583 -0.5126
 5900SOL     OW29335   3.032   2.797  15.135 -0.3147 -0.1584  0.1981
 5900SOL    HW129336   3.000   2.824  15.222 -1.1660 -2.2191  0.5136
 5900SOL    HW229337   3.072   2.876  15.100 -1.1614 -0.3558 -1.2027
 5901SOL     OW29338   1.272   4.598  14.179 -0.1525 -0.1062  0.0081
 5901SOL    HW129339   1.206   4.589  14.111  0.5643  0.6002 -0.7751
 5901SOL    HW229340   1.348   4.601  14.121 -0.8987  0.6115 -0.9155
 5902SOL     OW29341   2.028   3.947   5.207 -0.0359  0.3892 -0.1429
 5902SOL    HW129342   1.972   3.884   5.252 -1.3289  3.0841  2.0679
 5902SOL    HW229343   1.975   3.960   5.128 -0.7804  1.0636  0.4635
 5903SOL     OW29344   2.111   2.884   7.519 -0.6399  0.2445 -0.2724
 5903SOL    HW129345   2.021   2.914   7.531 -0.7527  0.6119 -1.9839
 5903SOL    HW229346   2.131   2.944   7.447  1.1322 -0.6555 -0.5287
 5904SOL     OW29347   1.615   2.884   1.298  0.4982 -0.1720 -0.1985
 5904SOL    HW129348   1.579   2.964   1.335  1.2862  0.8248 -1.5905
 5904SOL    HW229349   1.682   2.862   1.362 -1.3721 -1.0874  1.4519
 5905SOL     OW29350   3.238   1.353  10.936  0.2878  0.0638 -0.1041
 5905SOL    HW129351   3.270   1.361  10.846  0.3941  0.2815 -0.0454
 5905SOL    HW229352   3.189   1.434  10.943  0.0833 -0.2109  1.7455
 5906SOL     OW29353   3.429   3.489  14.513 -0.1811 -0.2605  0.3318
 5906SOL    HW129354   3.427   3.531  14.427  1.1326 -0.4216  0.2262
 5906SOL    HW229355   3.382   3.557  14.563  1.1491  0.3086  0.8138
 5907SOL     OW29356   3.542   2.068   7.437  0.7846 -0.1622  0.4261
 5907SOL    HW129357   3.535   1.973   7.446  0.5536 -0.2569 -0.7644
 5907SOL    HW229358   3.577   2.080   7.349  0.9937  2.0242  0.7935
 5908SOL     OW29359   3.812   1.588   2.101  0.0545 -0.2825  0.2157
 5908SOL    HW129360   3.835   1.513   2.047 -0.4179 -0.3307  0.0838
 5908SOL    HW229361   3.722   1.568   2.126  0.3127 -1.0686  0.5203
 5909SOL     OW29362   2.604   1.699  16.180  0.2995 -0.4203  0.4114
 5909SOL    HW129363   2.650   1.766  16.231  2.3058 -2.3515  1.1248
 5909SOL    HW229364   2.671   1.667  16.119  0.6853  0.6497  0.2724
 5910SOL     OW29365   4.142   1.423   5.413 -0.1806 -0.0438  0.0098
 5910SOL    HW129366   4.064   1.453   5.367 -0.4727  0.0801  0.5959
 5910SOL    HW229367   4.212   1.431   5.347 -1.1361 -1.1055 -1.1274
 5911SOL     OW29368   3.261   3.354  12.351 -0.3698  0.0301  0.3224
 5911SOL    HW129369   3.233   3.437  12.313  1.0034  0.0657 -0.6297
 5911SOL    HW229370   3.319   3.379  12.422  0.8437 -1.2731 -0.1909
 5912SOL     OW29371   1.168   2.295   1.874 -0.1077  0.5323  0.7977
 5912SOL    HW129372   1.176   2.385   1.905 -1.5930  0.8239  0.3425
 5912SOL    HW229373   1.079   2.283   1.906  0.0493 -1.1519  0.6261
 5913SOL     OW29374   1.274   3.471   2.354  0.4390 -0.5766  0.2337
 5913SOL    HW129375   1.365   3.458   2.328  0.6948  1.1402  0.2431
 5913SOL    HW229376   1.269   3.558   2.393  0.1133 -0.0753 -0.9221
 5914SOL     OW29377   4.371   3.202   5.047 -0.3567 -0.2788  0.1981
 5914SOL    HW129378   4.359   3.173   4.957  1.7977 -0.1840 -0.1102
 5914SOL    HW229379   4.328   3.130   5.094 -1.2264  0.8881  1.1741
 5915SOL     OW29380   0.967   3.523  13.041 -0.1680 -0.3477 -0.2876
 5915SOL    HW129381   1.024   3.535  13.117 -0.3379  1.8120 -0.5051
 5915SOL    HW229382   1.030   3.482  12.982  0.5881 -2.2683  1.8559
 5916SOL     OW29383   3.225   2.520   6.727 -0.6043 -0.8322  0.0791
 5916SOL    HW129384   3.270   2.500   6.645  1.1105 -1.8242  1.2470
 5916SOL    HW229385   3.174   2.439   6.731 -2.0494  0.1155  0.8367
 5917SOL     OW29386   2.868   4.470   4.558 -0.2477 -0.1308 -0.0428
 5917SOL    HW129387   2.854   4.478   4.464  0.5791  1.9782 -0.0002
 5917SOL    HW229388   2.846   4.562   4.574 -0.0631 -0.2550  0.9826
 5918SOL     OW29389   0.713   1.269   1.790 -0.0335 -0.5899 -0.2558
 5918SOL    HW129390   0.762   1.234   1.715  1.7380  0.1588  0.5523
 5918SOL    HW229391   0.664   1.195   1.827  0.6343  0.2017  2.1934
 5919SOL     OW29392   3.110   4.548   3.545  0.1272  0.2459 -0.3432
 5919SOL    HW129393   3.077   4.464   3.511 -1.3768  0.5777  0.3075
 5919SOL    HW229394   3.028   4.592   3.567 -1.4378 -2.3483 -0.9354
 5920SOL     OW29395   0.225   1.566  14.126  0.0149 -0.3843  0.0735
 5920SOL    HW129396   0.282   1.632  14.166  0.5688 -1.7131  1.4863
 5920SOL    HW229397   0.160   1.568  14.196  0.1945 -0.7253  0.2532
 5921SOL     OW29398   0.001   1.567  16.824  0.1478 -0.3873  0.4886
 5921SOL    HW129399   0.083   1.529  16.855  0.8153 -0.1870 -1.0585
 5921SOL    HW229400   4.718   1.507  16.754 -2.5927 -0.4951  1.6439
 5922SOL     OW29401   3.434   2.299   2.647  0.2830  0.2633 -0.5405
 5922SOL    HW129402   3.353   2.327   2.606  0.7657  1.2284 -0.8320
 5922SOL    HW229403   3.492   2.375   2.648  0.5298  0.0701  1.3937
 5923SOL     OW29404   3.232   3.226   1.438  0.5233 -0.0454  0.3820
 5923SOL    HW129405   3.268   3.206   1.524 -1.2192  1.4278  1.4584
 5923SOL    HW229406   3.165   3.158   1.426  0.8090 -0.0524 -1.2024
 5924SOL     OW29407   3.581   0.529   5.094  0.4232 -0.2040  0.5961
 5924SOL    HW129408   3.674   0.515   5.075  0.6981  0.5685  1.3381
 5924SOL    HW229409   3.579   0.617   5.131 -0.7629 -0.0833  0.2483
 5925SOL     OW29410   3.064   0.508   2.121  0.2558 -0.9718  0.0951
 5925SOL    HW129411   3.145   0.461   2.105  1.7084  1.8577 -0.8236
 5925SOL    HW229412   3.058   0.500   2.216 -1.3398  0.9289  0.1672
 5926SOL     OW29413   1.918   1.916   2.454 -1.0027  0.0341 -0.0537
 5926SOL    HW129414   1.845   1.976   2.441 -0.5853  0.2554 -1.4416
 5926SOL    HW229415   1.976   1.937   2.380  1.8823 -0.1288  2.1524
 5927SOL     OW29416   0.085   2.756   4.042  0.2580 -0.0694 -0.3019
 5927SOL    HW129417   0.117   2.675   4.082 -0.5613 -0.2130  0.0549
 5927SOL    HW229418   4.743   2.773   4.081 -0.6569  0.5921 -2.6286
 5928SOL     OW29419   1.244   0.982   2.183  0.1371  0.5649  0.4228
 5928SOL    HW129420   1.260   0.894   2.149 -1.2744  0.2877  0.4653
 5928SOL    HW229421   1.198   1.033   2.116  1.1114 -1.3607 -1.7141
 5929SOL     OW29422   0.013   2.006   8.000 -0.6044 -0.2778  0.1704
 5929SOL    HW129423   4.721   1.920   8.024  1.8051 -1.1158  0.7487
 5929SOL    HW229424   0.100   1.982   7.968 -1.1838  2.0090 -3.1254
 5930SOL     OW29425   2.219   3.686   9.878  0.9424  0.2524 -0.0932
 5930SOL    HW129426   2.297   3.740   9.864  0.8207  0.2959 -0.5809
 5930SOL    HW229427   2.200   3.718   9.966 -1.3210 -1.3740 -0.0017
 5931SOL     OW29428   2.598   0.131   1.006 -0.2231  0.0173 -0.5348
 5931SOL    HW129429   2.540   0.094   1.073  0.7213 -0.2890  0.1059
 5931SOL    HW229430   2.550   0.106   0.927  2.2916  0.9423 -2.3545
 5932SOL     OW29431   3.153   4.112  14.739 -0.1985  1.1717  0.2017
 5932SOL    HW129432   3.113   4.171  14.676 -0.9496  2.1486  1.6080
 5932SOL    HW229433   3.225   4.088  14.680 -1.2943 -0.2882 -0.5321
 5933SOL     OW29434   0.296   1.243   1.858  0.0970 -0.5648 -0.0302
 5933SOL    HW129435   0.220   1.273   1.807  0.2381  1.0106  0.7087
 5933SOL    HW229436   0.344   1.193   1.791 -1.9483 -2.6564  0.0496
 5934SOL     OW29437   1.746   1.816  16.967  0.3493 -0.1495 -0.4437
 5934SOL    HW129438   1.794   1.734  16.967 -1.2685 -1.1035  2.1107
 5934SOL    HW229439   1.786   1.857  17.044 -1.7093 -0.8711  1.0034
 5935SOL     OW29440   3.597   2.519   2.623  0.3211 -0.0637 -0.5066
 5935SOL    HW129441   3.657   2.460   2.578 -0.9272 -0.6809 -1.3843
 5935SOL    HW229442   3.628   2.605   2.597 -1.5614  0.1765 -1.9623
 5936SOL     OW29443   1.339   2.947   5.507  0.0455  0.5097 -0.8883
 5936SOL    HW129444   1.293   2.967   5.426  0.0359 -0.8159 -1.2062
 5936SOL    HW229445   1.340   2.851   5.508 -0.6373  0.5073 -0.1362
 5937SOL     OW29446   0.807   3.112   5.646 -0.4359  0.1480 -0.2597
 5937SOL    HW129447   0.852   3.036   5.609  1.3655  1.4910 -0.7912
 5937SOL    HW229448   0.750   3.069   5.710 -0.7622 -1.0798 -1.3678
 5938SOL     OW29449   3.168   0.232   8.303 -0.1731 -0.0090 -0.3779
 5938SOL    HW129450   3.238   0.180   8.342 -0.5324 -0.4663 -0.3458
 5938SOL    HW229451   3.219   0.312   8.287 -1.2897  0.7389 -0.2364
 5939SOL     OW29452   4.327   4.392   4.209 -0.3689 -0.1802  0.1605
 5939SOL    HW129453   4.319   4.484   4.235 -0.3818  0.1150 -0.9042
 5939SOL    HW229454   4.343   4.353   4.295 -0.1673  0.1101  0.2561
 5940SOL     OW29455   4.485   0.548   7.578 -0.5320 -0.2011 -0.6758
 5940SOL    HW129456   4.477   0.520   7.487  2.9438  2.4703 -1.8034
 5940SOL    HW229457   4.423   0.621   7.584 -0.0079  0.0638  1.5158
 5941SOL     OW29458   3.492   2.570  10.812 -0.0256  0.2985  0.0251
 5941SOL    HW129459   3.423   2.540  10.871  0.6923 -4.0278 -1.3834
 5941SOL    HW229460   3.564   2.533  10.863 -1.9243 -1.1351  1.6598
 5942SOL     OW29461   3.749   2.760   3.000  0.1162  0.0914  0.3810
 5942SOL    HW129462   3.681   2.775   2.934  1.5455  2.0091 -0.6684
 5942SOL    HW229463   3.813   2.712   2.948 -1.0885 -0.9604 -0.1205
 5943SOL     OW29464   3.545   2.852   8.969  0.0518 -0.2490  0.1861
 5943SOL    HW129465   3.471   2.807   8.929  0.2684  0.7107 -1.2929
 5943SOL    HW229466   3.512   2.937   8.997  0.8832  0.2945 -0.4968
 5944SOL     OW29467   0.573   3.040   4.692  0.6579 -0.2547  0.0355
 5944SOL    HW129468   0.535   3.119   4.652  0.0823 -0.7960 -0.4916
 5944SOL    HW229469   0.518   2.974   4.649  0.0299  1.2263 -1.4589
 5945SOL     OW29470   3.493   0.864   5.642 -0.2149 -0.4448  0.4650
 5945SOL    HW129471   3.461   0.799   5.579  1.4866  1.7278 -2.6573
 5945SOL    HW229472   3.560   0.907   5.589 -0.9181 -0.7972 -0.7087
 5946SOL     OW29473   1.605   0.402   9.674 -0.3153  0.0848  0.0468
 5946SOL    HW129474   1.553   0.449   9.608  1.3317  0.5332 -0.9466
 5946SOL    HW229475   1.547   0.390   9.748 -1.0096 -0.6641 -0.6150
 5947SOL     OW29476   0.237   2.636   5.260  0.1875  0.0788  0.7868
 5947SOL    HW129477   0.261   2.671   5.346 -0.8690  0.1048  1.0775
 5947SOL    HW229478   0.247   2.542   5.275  2.2935  0.2725  0.5541
 5948SOL     OW29479   4.520   2.621   3.550 -0.2644 -0.0924  0.6067
 5948SOL    HW129480   4.513   2.715   3.534 -1.3079 -0.3352 -0.3554
 5948SOL    HW229481   4.533   2.596   3.459 -0.5342  3.2292 -0.3126
 5949SOL     OW29482   4.410   0.073   4.853 -0.0613 -0.7923  0.2302
 5949SOL    HW129483   4.379   0.160   4.876 -1.1232 -1.4132  1.0955
 5949SOL    HW229484   4.353   0.012   4.900  0.6245 -1.7767 -0.1958
 5950SOL     OW29485   3.566   2.009   3.802  0.3387 -0.0602 -0.4955
 5950SOL    HW129486   3.518   1.931   3.772  0.8573 -0.5400 -0.0881
 5950SOL    HW229487   3.656   1.999   3.770  0.3932  0.1156 -0.3958
 5951SOL     OW29488   4.494   1.039  14.974 -0.7673  0.0406  0.1540
 5951SOL    HW129489   4.519   1.070  15.061 -0.4519 -0.8805  0.3825
 5951SOL    HW229490   4.490   0.945  14.987  0.1032  0.1141  0.9450
 5952SOL     OW29491   1.179   3.508   8.393 -0.0472  0.2675 -0.7417
 5952SOL    HW129492   1.270   3.538   8.401  0.3879 -1.5580  0.9946
 5952SOL    HW229493   1.183   3.414   8.410 -1.0753 -0.0526 -2.2612
 5953SOL     OW29494   1.620   3.616   0.410 -0.2253  0.3664  0.5291
 5953SOL    HW129495   1.530   3.646   0.424 -0.0355  1.4738 -0.5710
 5953SOL    HW229496   1.653   3.605   0.499  1.0870  0.1183  0.0138
 5954SOL     OW29497   3.369   2.657  12.573 -0.1195 -0.1331  0.1078
 5954SOL    HW129498   3.311   2.620  12.506 -1.8964 -0.1191  1.6711
 5954SOL    HW229499   3.311   2.720  12.614  0.6543 -0.6772  2.0109
 5955SOL     OW29500   3.744   2.445  10.190  0.1431  0.1366  0.8112
 5955SOL    HW129501   3.672   2.503  10.217  1.0530  1.3054  0.7098
 5955SOL    HW229502   3.814   2.509  10.191 -0.1459  0.4694 -0.6255
 5956SOL     OW29503   4.691   2.058   8.953  0.6581 -0.0817 -0.2615
 5956SOL    HW129504   0.007   1.984   8.941 -1.0369 -1.3103 -1.1257
 5956SOL    HW229505   4.606   2.018   8.938 -0.1840  1.1362  1.2651
 5957SOL     OW29506   3.790   0.066   8.436 -0.4982 -0.4654 -0.8023
 5957SOL    HW129507   3.734   4.743   8.476 -0.2918  0.6260  1.3098
 5957SOL    HW229508   3.876   0.024   8.446 -0.3378  0.4550  1.4789
 5958SOL     OW29509   3.773   1.079  15.317  0.4534  0.0721  0.4079
 5958SOL    HW129510   3.857   1.048  15.350  0.5586 -0.5679 -0.4609
 5958SOL    HW229511   3.711   1.026  15.367  1.1806  0.8444  2.1137
 5959SOL     OW29512   3.447   3.982   2.299 -0.5774 -0.3482  0.0961
 5959SOL    HW129513   3.479   3.993   2.389 -2.7528 -0.2202  0.8561
 5959SOL    HW229514   3.501   3.910   2.265  1.1253  2.0575 -2.3287
 5960SOL     OW29515   2.206   1.142   8.683 -0.3743 -0.0057  0.3092
 5960SOL    HW129516   2.151   1.220   8.686  0.2032  0.3914  0.4538
 5960SOL    HW229517   2.278   1.166   8.625 -1.6274  0.0385 -1.2146
 5961SOL     OW29518   2.705   1.164  10.027  0.2949 -0.0364  0.0030
 5961SOL    HW129519   2.720   1.127   9.940 -3.1799 -0.7740 -0.2747
 5961SOL    HW229520   2.681   1.084  10.072 -2.3466  0.2370 -0.9355
 5962SOL     OW29521   2.894   1.521   3.216  0.6082  0.1023 -0.4213
 5962SOL    HW129522   2.978   1.511   3.261  0.1479 -1.7902  0.0583
 5962SOL    HW229523   2.872   1.608   3.247  1.5070 -0.7764  2.6961
 5963SOL     OW29524   1.759   1.356   1.616 -0.7085 -0.6973  0.1519
 5963SOL    HW129525   1.688   1.310   1.661  0.1183  0.3627  2.5483
 5963SOL    HW229526   1.824   1.349   1.686 -2.4308  1.7073  2.0125
 5964SOL     OW29527   3.510   3.319   6.544  0.4073 -0.3152 -0.0688
 5964SOL    HW129528   3.534   3.231   6.513  0.9364  0.2800 -1.3214
 5964SOL    HW229529   3.596   3.358   6.530 -0.6207  1.7899 -0.4825
 5965SOL     OW29530   1.720   1.507  15.784 -0.4240  0.2453 -0.1064
 5965SOL    HW129531   1.741   1.445  15.853 -0.9517  0.9078  0.6435
 5965SOL    HW229532   1.640   1.546  15.819 -0.2035  2.7206 -2.3092
 5966SOL     OW29533   2.371   2.790   1.083 -0.0727  0.2584 -0.2426
 5966SOL    HW129534   2.307   2.785   1.013 -0.7951  0.6556  0.3958
 5966SOL    HW229535   2.337   2.863   1.134 -0.0541 -1.1690  1.8555
 5967SOL     OW29536   4.137   1.109   4.583 -0.4921 -0.8426  0.5347
 5967SOL    HW129537   4.108   1.173   4.648  1.0166  1.4480 -1.0685
 5967SOL    HW229538   4.213   1.083   4.636 -0.6233 -0.9579  0.6669
 5968SOL     OW29539   2.958   4.070   7.121  0.1690  0.6247  0.3985
 5968SOL    HW129540   2.910   4.122   7.056  0.6997  1.7513  0.9165
 5968SOL    HW229541   2.930   3.986   7.085 -0.1851  1.0073 -0.2269
 5969SOL     OW29542   0.180   0.152  13.059  0.0864 -0.7101  0.6826
 5969SOL    HW129543   0.146   0.227  13.108  0.5479  0.3063 -0.5536
 5969SOL    HW229544   0.232   0.107  13.126  1.5058 -0.5112 -0.2870
 5970SOL     OW29545   1.858   1.188   6.873  0.6742  0.1266  0.4984
 5970SOL    HW129546   1.839   1.134   6.949 -2.0662 -0.0756 -0.3398
 5970SOL    HW229547   1.849   1.124   6.802  0.1715  0.6792  0.0654
 5971SOL     OW29548   2.533   2.013   1.632  0.2388 -0.2130 -0.3506
 5971SOL    HW129549   2.453   2.067   1.633  0.3356 -0.1134  2.1587
 5971SOL    HW229550   2.599   2.073   1.597 -2.2393  2.5175 -0.3823
 5972SOL     OW29551   1.771   3.354   0.667 -0.2308 -0.1753  0.3614
 5972SOL    HW129552   1.819   3.357   0.584 -1.1786  1.2083 -0.1379
 5972SOL    HW229553   1.771   3.261   0.688  0.3873  0.2579  2.2453
 5973SOL     OW29554   1.884   3.562   7.613  0.2926  0.0385  0.0231
 5973SOL    HW129555   1.922   3.495   7.669 -0.2968 -0.1787  0.1666
 5973SOL    HW229556   1.967   3.601   7.588 -0.5412  0.3499 -2.3125
 5974SOL     OW29557   0.886   2.191   6.400  0.4620 -0.5518  0.2314
 5974SOL    HW129558   0.879   2.253   6.473 -0.6351 -3.7551  2.8216
 5974SOL    HW229559   0.802   2.200   6.356  0.7540 -0.0408 -0.2269
 5975SOL     OW29560   3.674   0.134   1.655  0.1790 -0.3871  0.0650
 5975SOL    HW129561   3.697   0.180   1.736 -0.4138  1.3209 -0.7242
 5975SOL    HW229562   3.614   0.190   1.606 -0.2327  0.4133  1.4903
 5976SOL     OW29563   2.928   4.418   5.313  0.2157 -0.2246  0.3294
 5976SOL    HW129564   2.904   4.365   5.389  0.6438  0.2395  0.7906
 5976SOL    HW229565   2.844   4.455   5.287  1.6714  2.6232 -0.2666
 5977SOL     OW29566   1.669   3.902  10.992  0.3075  0.2872  0.2061
 5977SOL    HW129567   1.742   3.873  10.937  0.7190  0.1211  0.8424
 5977SOL    HW229568   1.608   3.828  11.001 -0.3352  1.0815  2.2925
 5978SOL     OW29569   2.975   2.927   7.787  0.1902  0.3719 -0.1033
 5978SOL    HW129570   3.063   2.938   7.824 -1.0894  1.9897  2.4359
 5978SOL    HW229571   2.929   2.883   7.859 -0.9106  1.1732 -0.3224
 5979SOL     OW29572   1.185   4.180   8.666 -0.1366  0.9839  0.4785
 5979SOL    HW129573   1.190   4.093   8.625  1.3629  1.3197 -0.0707
 5979SOL    HW229574   1.097   4.205   8.640 -0.1389 -0.8226 -1.2797
 5980SOL     OW29575   3.720   0.916   9.743  0.3784 -0.2416  0.2237
 5980SOL    HW129576   3.787   0.965   9.791  0.9971  0.4128 -1.3327
 5980SOL    HW229577   3.777   0.877   9.677 -0.9123 -1.1737 -0.3506
 5981SOL     OW29578   2.876   1.104   9.272 -0.4145  0.7349 -0.6462
 5981SOL    HW129579   2.818   1.060   9.209  1.3693  0.3939 -2.0458
 5981SOL    HW229580   2.893   1.029   9.330 -1.4891  1.4026  0.5308
 5982SOL     OW29581   2.456   1.700   5.969  0.3110 -0.5105 -0.0551
 5982SOL    HW129582   2.373   1.655   5.978 -0.4708  0.8123 -0.6514
 5982SOL    HW229583   2.490   1.709   6.058 -1.4854  1.4036  0.4248
 5983SOL     OW29584   1.303   0.564   6.724  0.6676  0.0425  0.6432
 5983SOL    HW129585   1.367   0.501   6.692  1.3585  1.0090  0.0951
 5983SOL    HW229586   1.222   0.513   6.718  0.4006  0.5134  0.1380
 5984SOL     OW29587   2.837   1.455   7.999 -0.5432  0.6345 -0.2031
 5984SOL    HW129588   2.864   1.441   8.090 -1.9320 -0.4539  0.0458
 5984SOL    HW229589   2.913   1.444   7.942 -0.4245 -0.7213  0.2082
 5985SOL     OW29590   2.305   0.061   7.868 -0.2334 -0.5800 -0.3627
 5985SOL    HW129591   2.388   0.102   7.894 -1.5809  0.9019  1.6179
 5985SOL    HW229592   2.332   4.715   7.850 -1.6021 -1.0204 -0.1369
 5986SOL     OW29593   4.134   2.590   6.574  0.2956  0.3671 -0.3665
 5986SOL    HW129594   4.089   2.634   6.502 -0.7791 -1.7300 -0.9385
 5986SOL    HW229595   4.084   2.592   6.656 -0.9044  0.5563 -1.1008
 5987SOL     OW29596   0.491   2.179   3.882  0.0420 -0.5150 -0.2916
 5987SOL    HW129597   0.499   2.217   3.794  0.2690  2.3319  0.9482
 5987SOL    HW229598   0.567   2.230   3.912  0.7793 -1.2963 -0.8378
 5988SOL     OW29599   3.376   0.041   0.707 -0.2176 -0.3442  0.3782
 5988SOL    HW129600   3.402   0.133   0.721 -0.2524 -0.5493  1.8206
 5988SOL    HW229601   3.298   0.054   0.654  0.0095  1.5037  0.4946
 5989SOL     OW29602   4.339   3.282  14.521  0.4010 -0.0272  0.1435
 5989SOL    HW129603   4.332   3.343  14.447 -0.9134 -0.0312  0.2707
 5989SOL    HW229604   4.263   3.301  14.576 -0.0858  1.2120 -0.9554
 5990SOL     OW29605   4.658   4.703   1.127 -0.6130 -0.3668  0.1932
 5990SOL    HW129606   4.665   4.610   1.110  0.9798 -0.0812 -0.6599
 5990SOL    HW229607   4.712   4.722   1.203 -1.3125  0.8233  0.4020
 5991SOL     OW29608   4.661   2.725   6.589  0.8891  0.2699 -0.2935
 5991SOL    HW129609   4.675   2.772   6.507  0.7273 -0.1955 -0.5879
 5991SOL    HW229610   4.587   2.670   6.562 -1.2171  2.1454  1.7504
 5992SOL     OW29611   2.951   2.368   6.634 -0.0039  0.1009  0.1990
 5992SOL    HW129612   2.931   2.356   6.727  2.1757  1.5969  0.8679
 5992SOL    HW229613   2.888   2.425   6.590  1.2481  2.5763  1.6094
 5993SOL     OW29614   1.701   2.661   4.318  0.1786 -0.2453  0.7090
 5993SOL    HW129615   1.628   2.601   4.337  0.9046 -0.4204  2.9062
 5993SOL    HW229616   1.753   2.603   4.263 -2.9544 -3.4877  1.1516
 5994SOL     OW29617   4.294   3.141   7.047 -0.0549  0.1467 -0.4956
 5994SOL    HW129618   4.388   3.138   7.064 -0.3816  1.5332  1.5027
 5994SOL    HW229619   4.261   3.090   7.121 -1.4309  0.5423 -0.8397
 5995SOL     OW29620   0.728   1.130  10.332 -0.1016  0.3442  0.1259
 5995SOL    HW129621   0.810   1.168  10.364 -0.4002 -0.4209  1.8039
 5995SOL    HW229622   0.700   1.090  10.414 -0.6790  1.3894  0.4385
 5996SOL     OW29623   3.880   2.892   8.000 -0.0691 -0.0643 -0.4036
 5996SOL    HW129624   3.886   2.984   8.025 -1.5708 -0.0486 -0.0685
 5996SOL    HW229625   3.950   2.850   8.049  0.6713  1.0000 -0.5549
 5997SOL     OW29626   0.442   2.720  14.325 -0.1123  0.1432 -0.0322
 5997SOL    HW129627   0.496   2.798  14.340 -0.2187  0.1145  0.4757
 5997SOL    HW229628   0.442   2.715  14.229  2.2489  0.7190 -0.0614
 5998SOL     OW29629   3.750   3.836   1.550 -0.0176  0.0153 -0.0593
 5998SOL    HW129630   3.792   3.751   1.540  1.5720  0.7984 -0.0831
 5998SOL    HW229631   3.693   3.835   1.473 -1.5354  2.5046  1.0377
 5999SOL     OW29632   3.785   3.667  11.372 -0.0081  0.2088  0.1706
 5999SOL    HW129633   3.817   3.598  11.315 -0.9319  1.8786 -2.3432
 5999SOL    HW229634   3.845   3.652  11.445 -1.4541 -0.8233  1.1647
 6000SOL     OW29635   3.826   0.079   7.099 -0.1209 -0.1919  0.1193
 6000SOL    HW129636   3.832   4.736   7.138 -1.3982 -0.6840 -0.7769
 6000SOL    HW229637   3.761   0.074   7.030 -0.9695  0.8077  0.8474
 6001SOL     OW29638   3.260   2.081   9.984 -0.0722 -0.5155  0.1949
 6001SOL    HW129639   3.292   2.145   9.921  0.9200 -0.7965  0.4157
 6001SOL    HW229640   3.209   2.129  10.049  1.8515  0.3893  1.0251
 6002SOL     OW29641   0.586   3.193  17.403  0.3718  0.2043 -0.5381
 6002SOL    HW129642   0.562   3.209  17.311  1.5234 -3.0225 -1.3852
 6002SOL    HW229643   0.602   3.281  17.438  1.2919 -0.6507  1.1632
 6003SOL     OW29644   4.697   0.249   8.708  0.0550  0.2063 -0.5731
 6003SOL    HW129645   4.669   0.296   8.786  0.7875  0.6019 -0.5452
 6003SOL    HW229646   0.006   0.314   8.660  1.5869  0.1424  1.0215
 6004SOL     OW29647   1.881   0.342   8.162  0.4835 -0.2858  0.1914
 6004SOL    HW129648   1.967   0.343   8.204 -0.5372  3.2920  2.1271
 6004SOL    HW229649   1.891   0.264   8.106 -0.5303 -0.2338 -0.0517
 6005SOL     OW29650   2.571   4.030   2.308  0.2074 -0.5378  0.2999
 6005SOL    HW129651   2.566   4.044   2.402 -4.1184 -1.1926  0.1580
 6005SOL    HW229652   2.553   4.115   2.268  0.6291 -0.8849 -0.6276
 6006SOL     OW29653   1.977   0.501   0.485 -0.7557 -0.4503 -0.0086
 6006SOL    HW129654   1.925   0.435   0.530 -3.3999  2.1811  0.7712
 6006SOL    HW229655   2.023   0.542   0.559  0.4309 -0.6742 -0.6181
 6007SOL     OW29656   0.553   4.008   3.668 -0.0067  1.0810  0.3059
 6007SOL    HW129657   0.529   3.940   3.731  1.4689  2.5664  2.4891
 6007SOL    HW229658   0.645   3.990   3.649 -1.0432 -1.9414 -1.8310
 6008SOL     OW29659   0.002   3.918   6.211 -0.2649 -0.2929 -0.0742
 6008SOL    HW129660   4.685   3.983   6.246  0.1172 -0.4736  0.9230
 6008SOL    HW229661   4.689   3.862   6.158  1.0578 -1.7709  0.0911
 6009SOL     OW29662   2.920   2.177   2.932  0.2721 -0.3549 -0.0454
 6009SOL    HW129663   2.851   2.217   2.879 -0.0405  1.0260  1.4050
 6009SOL    HW229664   2.881   2.172   3.020 -1.8083  1.0452 -0.8863
 6010SOL     OW29665   1.007   4.593   5.358 -0.2879  0.1285  0.5265
 6010SOL    HW129666   1.003   4.639   5.442 -2.0818  3.3021 -1.2931
 6010SOL    HW229667   0.971   4.655   5.294  0.8831 -0.9543 -1.1928
 6011SOL     OW29668   3.920   0.201  12.379  0.1765 -0.0805 -0.3361
 6011SOL    HW129669   3.857   0.145  12.335  0.6707  1.2080 -2.6548
 6011SOL    HW229670   3.949   0.255  12.306  0.6222 -0.1311 -0.1962
 6012SOL     OW29671   3.035   1.160  10.306  0.5396 -0.6458  0.4387
 6012SOL    HW129672   3.071   1.238  10.265 -2.3373  0.1837 -0.4732
 6012SOL    HW229673   2.977   1.191  10.375 -1.0870  1.0098 -1.6979
 6013SOL     OW29674   2.810   2.651   8.177 -0.4492 -0.2621  0.1223
 6013SOL    HW129675   2.806   2.668   8.271 -2.3512  2.6554 -0.5135
 6013SOL    HW229676   2.903   2.638   8.162 -0.8898 -1.5221 -1.5117
 6014SOL     OW29677   4.140   1.159   2.472 -0.1722 -0.1914 -0.3532
 6014SOL    HW129678   4.234   1.159   2.457 -0.5932  2.4161 -2.9187
 6014SOL    HW229679   4.110   1.158   2.381 -1.1123 -0.6990 -0.0408
 6015SOL     OW29680   4.202   2.781   9.173 -0.0069 -0.1510 -0.4098
 6015SOL    HW129681   4.107   2.790   9.175 -0.0901 -0.9479 -0.6489
 6015SOL    HW229682   4.239   2.864   9.144 -1.5304  0.7923  0.3572
 6016SOL     OW29683   3.382   4.731   2.178  0.1961  0.3758  0.1680
 6016SOL    HW129684   3.385   4.645   2.137  2.7153  0.6899 -0.2959
 6016SOL    HW229685   3.391   0.048   2.104 -2.0865 -0.2128 -0.6131
 6017SOL     OW29686   2.761   0.564   3.990  0.2953 -0.5267 -0.4866
 6017SOL    HW129687   2.760   0.470   3.971 -0.8944 -0.5433 -0.3521
 6017SOL    HW229688   2.755   0.601   3.902 -0.7598  1.7560  0.5507
 6018SOL     OW29689   2.846   3.241   9.657 -0.5291 -0.4323 -0.5097
 6018SOL    HW129690   2.772   3.269   9.604 -0.3751  2.4191  0.7818
 6018SOL    HW229691   2.879   3.328   9.681 -1.4399 -0.4506  0.8129
 6019SOL     OW29692   2.067   4.604   7.960 -0.0261 -0.3374 -0.1507
 6019SOL    HW129693   2.161   4.599   7.977 -0.2896  3.7066  2.7147
 6019SOL    HW229694   2.058   4.543   7.888 -0.0269 -1.3709  0.7289
 6020SOL     OW29695   1.622   2.257  16.376  0.1801  0.7173 -0.0991
 6020SOL    HW129696   1.639   2.175  16.422 -1.0142 -0.0753 -1.0569
 6020SOL    HW229697   1.698   2.307  16.405  1.4018 -1.6444  0.7773
 6021SOL     OW29698   3.654   1.836   6.228 -0.2762  0.0307  0.0897
 6021SOL    HW129699   3.610   1.879   6.156  6.0364  2.1337 -2.5012
 6021SOL    HW229700   3.623   1.748   6.207 -0.9274 -0.1175  1.6030
 6022SOL     OW29701   1.552   4.460  16.901 -0.2093 -0.5141  0.1996
 6022SOL    HW129702   1.504   4.393  16.852 -0.2818 -0.8988  0.7998
 6022SOL    HW229703   1.476   4.499  16.944 -0.8163  0.8923 -2.1402
 6023SOL     OW29704   3.657   3.441   5.196  0.1605 -0.1269 -0.0722
 6023SOL    HW129705   3.737   3.455   5.144  2.0948  1.1165  3.2098
 6023SOL    HW229706   3.641   3.528   5.233  0.0614  0.5371 -1.6734
 6024SOL     OW29707   2.863   3.593   0.821  0.4351 -0.1458 -0.0607
 6024SOL    HW129708   2.837   3.674   0.864  4.0992  0.3307  1.2596
 6024SOL    HW229709   2.867   3.524   0.887 -0.1371  0.0588  0.1879
 6025SOL     OW29710   4.069   2.317   7.738 -0.1788 -0.0841 -0.5853
 6025SOL    HW129711   4.050   2.362   7.821  1.8207 -1.4564  0.6270
 6025SOL    HW229712   4.161   2.300   7.755 -0.5093 -2.0114 -0.6446
 6026SOL     OW29713   1.236   1.950   2.689 -0.2467 -0.4847  0.0280
 6026SOL    HW129714   1.291   2.008   2.638 -0.8420  0.2057  0.1683
 6026SOL    HW229715   1.254   1.984   2.777 -1.9611 -1.1527  0.6436
 6027SOL     OW29716   4.656   4.507   6.606 -0.6085 -0.5853  0.3447
 6027SOL    HW129717   4.617   4.470   6.685  1.5633 -0.0999  1.6613
 6027SOL    HW229718   4.622   4.596   6.609 -2.6657 -1.3717 -0.2425
 6028SOL     OW29719   0.142   0.411   2.329 -0.9432 -0.2133  0.2738
 6028SOL    HW129720   0.228   0.423   2.288 -1.2006  0.5394 -0.0542
 6028SOL    HW229721   0.089   0.377   2.256 -1.1752  2.2381 -0.6976
 6029SOL     OW29722   0.521   1.211   7.367 -0.6161  0.6777 -0.8928
 6029SOL    HW129723   0.427   1.193   7.371 -0.2135 -1.5168 -1.1766
 6029SOL    HW229724   0.553   1.145   7.429  1.0387 -0.4688 -2.9402
 6030SOL     OW29725   2.616   1.316   3.893 -0.5021  0.5933  0.5631
 6030SOL    HW129726   2.591   1.289   3.805 -0.6195 -0.5774  0.9589
 6030SOL    HW229727   2.541   1.287   3.944  0.4332 -0.4211  1.3740
 6031SOL     OW29728   2.943   3.369  15.770  0.1746  0.1280 -0.4079
 6031SOL    HW129729   2.947   3.455  15.729 -0.2497  0.3643  0.0548
 6031SOL    HW229730   3.030   3.363  15.809 -0.2822 -0.0327  0.5751
 6032SOL     OW29731   3.831   3.667   2.758 -0.2568  0.1524  0.2218
 6032SOL    HW129732   3.804   3.599   2.820  0.0167  0.7171  0.9516
 6032SOL    HW229733   3.885   3.728   2.807 -1.7509  0.5327  1.4002
 6033SOL     OW29734   2.028   2.512   0.874  0.0585 -0.2469  0.5157
 6033SOL    HW129735   1.951   2.522   0.930  0.2491 -0.2295  0.7729
 6033SOL    HW229736   2.001   2.441   0.815  0.2781  0.2994 -0.2343
 6034SOL     OW29737   4.038   0.611   4.592  0.3396 -0.4174 -0.4511
 6034SOL    HW129738   4.095   0.551   4.641 -1.1867 -0.8719  0.7797
 6034SOL    HW229739   4.044   0.690   4.645 -3.8232 -0.3048 -0.1488
 6035SOL     OW29740   0.249   2.083   5.261  0.2518 -0.2869  0.7235
 6035SOL    HW129741   0.232   2.032   5.340  0.7117 -0.9537  0.3891
 6035SOL    HW229742   0.162   2.112   5.234  0.5064  1.4544  1.7333
 6036SOL     OW29743   2.085   3.717   9.631 -0.3241  0.3562 -0.3086
 6036SOL    HW129744   2.146   3.763   9.572 -0.3136 -0.1220 -0.6738
 6036SOL    HW229745   2.132   3.687   9.709 -0.0540  2.1595  0.2151
 6037SOL     OW29746   2.131   1.667   0.901  0.2692 -0.0871  0.3349
 6037SOL    HW129747   2.106   1.606   0.970 -3.9064 -0.2888 -1.3722
 6037SOL    HW229748   2.127   1.617   0.819  1.2975  0.6817 -0.1759
 6038SOL     OW29749   2.162   3.977   3.899 -0.4123 -0.3590 -0.0067
 6038SOL    HW129750   2.113   4.001   3.820 -0.5580 -0.1281  0.1533
 6038SOL    HW229751   2.088   3.970   3.959 -0.4699 -1.6274 -0.2413
 6039SOL     OW29752   4.145   1.387   6.697  0.0965  0.2098  0.0423
 6039SOL    HW129753   4.162   1.336   6.618  0.4105  2.7816 -1.5784
 6039SOL    HW229754   4.172   1.325   6.764 -1.6624 -1.0539 -0.4118
 6040SOL     OW29755   0.151   1.014   6.029 -0.2359  0.0058  0.5215
 6040SOL    HW129756   0.089   0.948   6.060  0.7922 -1.2908 -0.1692
 6040SOL    HW229757   0.229   0.976   5.987 -1.3111 -1.8590  0.2131
 6041SOL     OW29758   0.643   3.995   3.963  0.0827 -0.3813  0.3041
 6041SOL    HW129759   0.679   4.075   3.925 -2.3759  1.1707  1.1998
 6041SOL    HW229760   0.702   3.982   4.037  1.1823  2.0192 -0.1545
 6042SOL     OW29761   4.414   2.843  15.480 -0.1871 -0.0062  0.1478
 6042SOL    HW129762   4.451   2.911  15.424 -1.0070 -0.1166 -0.5077
 6042SOL    HW229763   4.323   2.853  15.454  0.1309  1.9821 -0.1397
 6043SOL     OW29764   4.397   1.737   2.609 -0.0010 -0.2355 -0.3755
 6043SOL    HW129765   4.331   1.689   2.558 -2.2549  1.8026  0.5926
 6043SOL    HW229766   4.386   1.827   2.577  1.8699 -0.1375 -0.7430
 6044SOL     OW29767   2.065   4.514   3.444 -0.0095  0.2308 -0.4285
 6044SOL    HW129768   2.117   4.517   3.524 -1.5295  0.5188  0.5351
 6044SOL    HW229769   2.116   4.455   3.388  0.0947 -0.5312  0.4761
 6045SOL     OW29770   1.097   0.761   1.081  0.1315  0.4767 -0.1696
 6045SOL    HW129771   1.161   0.827   1.107 -0.9565  0.4788  2.4666
 6045SOL    HW229772   1.026   0.820   1.057  0.3828  1.1980  0.8751
 6046SOL     OW29773   3.407   0.630   5.513  0.3718 -0.3398 -0.3775
 6046SOL    HW129774   3.328   0.662   5.471 -0.2499 -1.8681 -0.3734
 6046SOL    HW229775   3.402   0.536   5.497  3.2404 -0.8759  1.8562
 6047SOL     OW29776   0.268   4.575   6.936  0.1474  0.3683  0.2057
 6047SOL    HW129777   0.198   4.510   6.935  0.0550  0.4441  1.5872
 6047SOL    HW229778   0.322   4.541   7.007 -0.5078  0.6525  0.8428
 6048SOL     OW29779   2.471   3.309  15.589  0.8734  0.0419  0.3006
 6048SOL    HW129780   2.545   3.250  15.601  0.2743 -0.5056  1.3025
 6048SOL    HW229781   2.471   3.307  15.493  1.4218  1.8923  0.2756
 6049SOL     OW29782   0.397   2.455  15.292  0.3102 -0.4744  0.0540
 6049SOL    HW129783   0.413   2.522  15.359  0.7626  0.6896 -1.2299
 6049SOL    HW229784   0.479   2.409  15.276  0.5287 -0.5115  1.2714
 6050SOL     OW29785   0.403   1.143   1.610 -0.2344 -0.3735  0.1418
 6050SOL    HW129786   0.407   1.079   1.539 -0.4500  0.6171 -0.7648
 6050SOL    HW229787   0.375   1.220   1.560 -0.3213 -1.8010 -2.0096
 6051SOL     OW29788   2.493   2.151  17.550  0.3199 -0.5046 -0.0771
 6051SOL    HW129789   2.411   2.190  17.579  0.2147 -1.4047  0.8618
 6051SOL    HW229790   2.513   2.206  17.475 -0.2578  0.6762  0.6431
 6052SOL     OW29791   4.430   4.558   3.144 -0.3597  0.5928  0.2350
 6052SOL    HW129792   4.361   4.596   3.199 -1.1619 -1.3661  0.5800
 6052SOL    HW229793   4.395   4.470   3.128  1.8544 -0.1438 -0.5961
 6053SOL     OW29794   0.128   1.651   5.020 -0.0098 -0.0407 -0.3837
 6053SOL    HW129795   0.045   1.656   5.068 -0.0135 -2.3881 -0.1353
 6053SOL    HW229796   0.190   1.606   5.077  0.1263  2.0310  1.1294
 6054SOL     OW29797   1.592   1.727  12.436 -0.0655  0.4410  0.1761
 6054SOL    HW129798   1.576   1.779  12.515  0.7982  0.6902  0.1908
 6054SOL    HW229799   1.679   1.690  12.455 -0.9046 -0.9286  1.3234
 6055SOL     OW29800   2.555   3.759   5.989  0.4428 -0.5668  0.7794
 6055SOL    HW129801   2.537   3.848   5.958  0.8967 -0.7316  0.0454
 6055SOL    HW229802   2.480   3.743   6.046 -0.7318 -0.9660 -0.8807
 6056SOL     OW29803   2.913   0.794   8.477  0.0380 -0.1830 -0.2841
 6056SOL    HW129804   2.879   0.725   8.420  0.6907 -1.5660  0.9960
 6056SOL    HW229805   2.834   0.838   8.508  0.3858 -0.4772  1.0226
 6057SOL     OW29806   0.248   1.680  13.719 -0.2676 -0.0317 -0.0212
 6057SOL    HW129807   0.256   1.617  13.649  2.4909  2.0064 -1.5090
 6057SOL    HW229808   0.152   1.683  13.727 -0.0908  1.1480  1.6736
 6058SOL     OW29809   2.829   3.497   5.614  0.0756  0.5472 -0.3120
 6058SOL    HW129810   2.789   3.563   5.671  1.1231  0.0108  1.0514
 6058SOL    HW229811   2.885   3.466   5.685 -0.1589  2.9007  0.9235
 6059SOL     OW29812   0.413   2.267   4.218 -0.0247  0.5008 -0.0563
 6059SOL    HW129813   0.412   2.204   4.146 -0.5622 -0.8250  1.1248
 6059SOL    HW229814   0.369   2.215   4.285  0.0297  1.1715  0.4969
 6060SOL     OW29815   4.563   0.456   0.468 -0.5942  0.0827  0.2184
 6060SOL    HW129816   4.633   0.431   0.408 -0.3163  1.5842 -0.0957
 6060SOL    HW229817   4.539   0.541   0.431 -2.0195 -0.6734 -0.5792
 6061SOL     OW29818   4.104   1.683   6.080 -0.5140 -0.1818 -0.0840
 6061SOL    HW129819   4.009   1.675   6.070 -0.6018  0.8507  0.0125
 6061SOL    HW229820   4.118   1.758   6.023  3.3966 -0.5196  0.4274
 6062SOL     OW29821   3.436   1.098   8.143  0.5896 -0.1341  0.2570
 6062SOL    HW129822   3.396   1.114   8.057  3.2528 -0.7967 -1.1024
 6062SOL    HW229823   3.518   1.051   8.125  1.7982  1.8368  0.5959
 6063SOL     OW29824   4.240   0.384   4.460  0.0816 -0.2769  0.9424
 6063SOL    HW129825   4.296   0.353   4.388  2.2653  3.8251  0.8919
 6063SOL    HW229826   4.161   0.341   4.428  0.2474  0.6027 -0.6384
 6064SOL     OW29827   0.397   4.613   6.484  0.0942  0.3723  0.2362
 6064SOL    HW129828   0.329   4.554   6.518 -1.7256  4.1620  3.1550
 6064SOL    HW229829   0.468   4.550   6.497  0.5989  0.6756 -1.0186
 6065SOL     OW29830   3.688   1.166   9.554  0.2709 -0.1650 -0.2600
 6065SOL    HW129831   3.663   1.074   9.564 -0.8502 -0.0879 -2.2877
 6065SOL    HW229832   3.611   1.201   9.509  1.0710  0.3407 -1.2393
 6066SOL     OW29833   1.520   0.218   8.266 -0.3708 -0.0688  0.4286
 6066SOL    HW129834   1.583   0.158   8.306  1.7241  0.8637 -1.4522
 6066SOL    HW229835   1.529   0.193   8.174 -0.1223  0.3889  0.3295
 6067SOL     OW29836   3.215   4.456   8.897  0.5842  0.1902 -0.1124
 6067SOL    HW129837   3.234   4.543   8.862  1.8814 -0.3565 -0.7459
 6067SOL    HW229838   3.281   4.400   8.856 -0.4838 -2.7599  2.1452
 6068SOL     OW29839   3.984   2.784   2.186  0.0498 -0.4087 -0.0531
 6068SOL    HW129840   3.889   2.795   2.186 -0.2893 -3.0697 -2.3385
 6068SOL    HW229841   4.005   2.853   2.123  0.0615 -2.2258 -2.0595
 6069SOL     OW29842   0.934   0.924   2.197 -0.0735  0.0349 -0.0155
 6069SOL    HW129843   0.902   0.888   2.279 -2.1768  1.4081 -0.2489
 6069SOL    HW229844   0.961   1.010   2.229 -0.0932  0.3708 -0.9121
 6070SOL     OW29845   0.710   1.442   1.458  0.6134 -0.7252  0.3565
 6070SOL    HW129846   0.759   1.382   1.514 -1.2073 -0.3731  2.3775
 6070SOL    HW229847   0.684   1.505   1.526  0.0082 -1.5416  0.8988
 6071SOL     OW29848   3.836   4.148   4.326 -0.7113  0.4535 -0.0662
 6071SOL    HW129849   3.892   4.081   4.285  0.6613  1.1748  0.6502
 6071SOL    HW229850   3.901   4.208   4.362 -0.2140 -1.6795  2.6187
 6072SOL     OW29851   3.978   1.664   3.971 -0.7572  0.4826 -0.3995
 6072SOL    HW129852   3.997   1.671   4.064  1.7711 -0.4296 -0.8341
 6072SOL    HW229853   3.884   1.647   3.968 -0.8373  1.0786 -1.1328
 6073SOL     OW29854   4.161   1.010   2.870  0.3838 -0.1402 -0.2679
 6073SOL    HW129855   4.107   0.979   2.798  0.5544 -2.8004  0.7800
 6073SOL    HW229856   4.178   1.101   2.842 -0.6764  0.3198  0.6000
 6074SOL     OW29857   2.637   3.170   2.288 -0.4547 -0.2349  0.4053
 6074SOL    HW129858   2.558   3.140   2.332 -0.8750 -0.2381 -0.3533
 6074SOL    HW229859   2.690   3.213   2.355  1.8719 -3.3336  0.5792
 6075SOL     OW29860   0.718   4.647   6.231  0.5257  0.6261  0.0746
 6075SOL    HW129861   0.749   4.595   6.305  0.6379  1.0254  0.3050
 6075SOL    HW229862   0.685   4.722   6.279  0.5845 -0.3815  1.6686
 6076SOL     OW29863   4.539   2.153   7.990 -0.4312  0.7411 -0.5243
 6076SOL    HW129864   4.545   2.170   7.896  1.3560 -1.2746 -0.7809
 6076SOL    HW229865   4.624   2.112   8.006 -0.6256  0.0055 -1.3810
 6077SOL     OW29866   0.306   2.928   4.651 -0.0772 -0.3238  0.5199
 6077SOL    HW129867   0.291   2.926   4.557 -0.4748  1.3678  0.5474
 6077SOL    HW229868   0.227   2.976   4.677 -0.7542  0.6822 -3.3262
 6078SOL     OW29869   2.856   0.903   2.611  0.4249 -0.2949 -0.4073
 6078SOL    HW129870   2.873   0.837   2.679 -0.9144 -0.1400  0.0747
 6078SOL    HW229871   2.917   0.880   2.540 -0.0995  0.5423 -1.1186
 6079SOL     OW29872   2.770   0.997   7.599 -0.2271 -0.5008  0.3313
 6079SOL    HW129873   2.683   1.037   7.590 -0.4473 -1.0544  0.0656
 6079SOL    HW229874   2.824   1.029   7.527  0.6928  0.5164  1.4536
 6080SOL     OW29875   2.231   3.006   1.942  0.4180  0.2336  0.2415
 6080SOL    HW129876   2.228   2.951   2.020 -1.7906  0.1398  0.1042
 6080SOL    HW229877   2.259   2.946   1.872  1.2169  1.2380 -0.3055
 6081SOL     OW29878   3.207   4.378  10.388 -0.1857 -0.0775  0.1314
 6081SOL    HW129879   3.236   4.467  10.367 -0.7569 -0.5253 -2.4958
 6081SOL    HW229880   3.188   4.389  10.481  1.7681 -2.1065  0.7846
 6082SOL     OW29881   1.281   1.051   4.384  0.1678 -0.1292 -0.2629
 6082SOL    HW129882   1.342   1.028   4.314  0.6894  0.9872 -0.1736
 6082SOL    HW229883   1.233   1.125   4.345 -0.0435 -0.1675 -0.0770
 6083SOL     OW29884   1.811   2.775   8.811 -0.4780 -0.6889  0.5480
 6083SOL    HW129885   1.767   2.832   8.749  0.5886 -0.8122 -0.3241
 6083SOL    HW229886   1.767   2.797   8.893  0.4470 -0.3419  0.9429
 6084SOL     OW29887   0.805   2.150   5.065  0.3885 -0.2509  0.3333
 6084SOL    HW129888   0.719   2.116   5.038 -0.6043  2.2695  0.2781
 6084SOL    HW229889   0.836   2.084   5.126 -3.2206 -0.1284  2.3071
 6085SOL     OW29890   2.016   4.059   7.897  0.6714  0.3189 -0.2508
 6085SOL    HW129891   2.061   4.070   7.814  1.1194 -1.7601 -0.2934
 6085SOL    HW229892   2.089   4.035   7.954  0.4564 -0.1673 -0.1754
 6086SOL     OW29893   2.281   1.238   6.359  0.2471  0.1603 -0.2791
 6086SOL    HW129894   2.254   1.307   6.420 -1.0716 -0.9335  0.3758
 6086SOL    HW229895   2.306   1.166   6.416 -1.6354 -1.0891 -1.0252
 6087SOL     OW29896   2.312   2.150   8.218  0.6330  0.5016  0.1336
 6087SOL    HW129897   2.403   2.154   8.245 -0.1734 -1.5485  3.1360
 6087SOL    HW229898   2.322   2.198   8.136  0.1219  0.5269  0.0865
 6088SOL     OW29899   4.064   4.141  11.732 -0.0118 -0.2672  0.6641
 6088SOL    HW129900   4.033   4.067  11.784 -1.0819 -0.2097  0.1005
 6088SOL    HW229901   4.032   4.212  11.788 -0.1139  1.1725 -1.2210
 6089SOL     OW29902   1.134   0.618   2.528  0.3587 -0.1062 -0.4813
 6089SOL    HW129903   1.216   0.635   2.575 -0.8357  1.2499  1.0644
 6089SOL    HW229904   1.079   0.578   2.595  1.1091 -1.8494 -0.9083
 6090SOL     OW29905   3.512   1.397   9.074  0.3458  0.1422 -0.3463
 6090SOL    HW129906   3.577   1.464   9.092  0.1095  0.1725  0.4022
 6090SOL    HW229907   3.442   1.429   9.131 -0.7221 -1.9986 -0.4421
 6091SOL     OW29908   2.687   4.018  11.328  0.2157  0.5650 -0.0867
 6091SOL    HW129909   2.599   4.010  11.365  0.4499 -0.3974  0.2623
 6091SOL    HW229910   2.737   4.014  11.409  0.8223 -0.8010 -0.5378
 6092SOL     OW29911   0.570   0.127   6.045  0.0212  0.7416  0.1505
 6092SOL    HW129912   0.623   0.053   6.074  0.5123  0.2095 -2.0467
 6092SOL    HW229913   0.548   0.110   5.953  0.4503  0.9876  0.0015
 6093SOL     OW29914   1.913   3.453   3.631 -0.0473 -0.0611 -0.4507
 6093SOL    HW129915   1.983   3.411   3.680 -0.9946 -0.2611  0.7305
 6093SOL    HW229916   1.846   3.461   3.699  2.6339 -1.3712  2.3390
 6094SOL     OW29917   4.519   0.867   7.936  0.2966 -0.1103  0.3050
 6094SOL    HW129918   4.553   0.780   7.912 -0.8036 -0.3640 -0.3609
 6094SOL    HW229919   4.432   0.829   7.952  1.4649 -2.3399  1.3259
 6095SOL     OW29920   3.972   3.736   4.966 -0.2543  0.2884  0.1803
 6095SOL    HW129921   3.946   3.818   4.924  1.2349  0.4517 -0.4038
 6095SOL    HW229922   4.066   3.750   4.952  0.1160 -0.9590  1.4163
 6096SOL     OW29923   3.119   3.629   8.610  0.0715  0.0190  0.2873
 6096SOL    HW129924   3.078   3.548   8.638 -2.4294  0.6261 -1.5409
 6096SOL    HW229925   3.104   3.692   8.680  0.8440 -0.2075  0.6562
 6097SOL     OW29926   4.240   1.160  11.971 -0.2643 -0.0186  0.0641
 6097SOL    HW129927   4.293   1.196  11.900 -1.8288 -0.0082 -1.1108
 6097SOL    HW229928   4.155   1.197  11.949 -0.2667  0.5157  1.0156
 6098SOL     OW29929   4.294   0.540   1.041 -0.4002 -0.0910  0.1894
 6098SOL    HW129930   4.210   0.498   1.020  0.6488 -0.9721 -2.1980
 6098SOL    HW229931   4.264   0.590   1.117  2.4432  1.0792  0.5237
 6099SOL     OW29932   2.258   1.441   6.536  0.2946 -0.1843 -0.2950
 6099SOL    HW129933   2.197   1.488   6.594  1.0930 -0.4003  0.7242
 6099SOL    HW229934   2.339   1.478   6.571  1.1607 -1.5992 -0.8150
 6100SOL     OW29935   2.847   1.217   3.961  1.0030  0.5798  0.3072
 6100SOL    HW129936   2.773   1.271   3.935  0.5934  0.2668  0.8351
 6100SOL    HW229937   2.892   1.285   4.012  3.5895 -0.9472  0.0980
 6101SOL     OW29938   4.577   3.299   6.385  0.3485  0.1727  0.2798
 6101SOL    HW129939   4.556   3.340   6.301  2.5940 -0.3370 -0.5286
 6101SOL    HW229940   4.560   3.371   6.445  0.4830 -2.0148  2.9441
 6102SOL     OW29941   3.731   1.831   7.394 -1.0411  0.1836  0.1025
 6102SOL    HW129942   3.827   1.837   7.396 -0.9075 -1.3160 -1.9549
 6102SOL    HW229943   3.717   1.771   7.467 -1.2622  1.8588  1.4457
 6103SOL     OW29944   4.414   2.739   9.771  0.1426  0.1407 -0.4007
 6103SOL    HW129945   4.473   2.674   9.733  0.4395  1.5657 -2.3325
 6103SOL    HW229946   4.341   2.710   9.716 -1.0345  1.4839  0.4694
 6104SOL     OW29947   1.449   3.843  16.895 -0.1638  0.0908  0.1067
 6104SOL    HW129948   1.407   3.890  16.823 -1.3328 -3.8817 -1.7773
 6104SOL    HW229949   1.527   3.801  16.858 -0.7227 -0.0497 -0.9173
 6105SOL     OW29950   2.553   2.033   7.050  0.8733  0.3577 -0.6001
 6105SOL    HW129951   2.557   2.006   6.958  0.3054 -1.0717 -0.2110
 6105SOL    HW229952   2.644   2.050   7.075  0.6709 -1.4240  1.2804
 6106SOL     OW29953   3.890   2.075   1.545 -0.6791 -0.3266  0.3601
 6106SOL    HW129954   3.934   2.121   1.473 -0.8831 -3.9864 -2.0896
 6106SOL    HW229955   3.955   2.008   1.562  0.5927  0.2290 -2.1862
 6107SOL     OW29956   2.263   3.032   7.758 -0.1547 -0.3938  0.9300
 6107SOL    HW129957   2.233   3.011   7.670  1.9690  2.0639 -0.3517
 6107SOL    HW229958   2.195   3.093   7.786 -0.7620  0.1602 -1.7679
 6108SOL     OW29959   3.759   2.351   2.455  0.1938 -0.3579 -0.0227
 6108SOL    HW129960   3.846   2.391   2.459  0.3074 -0.5361 -0.7359
 6108SOL    HW229961   3.796   2.265   2.474 -0.1796 -0.7069 -0.9038
 6109SOL     OW29962   4.058   1.372   3.306 -0.5540 -0.3114  0.1583
 6109SOL    HW129963   4.111   1.438   3.261  0.1577  0.2236  1.7954
 6109SOL    HW229964   3.968   1.404   3.304 -1.0656 -1.7791 -0.6723
 6110SOL     OW29965   1.976   2.286   1.577  0.5527 -0.6136 -0.3683
 6110SOL    HW129966   2.050   2.295   1.517 -0.6704 -1.2227 -1.9733
 6110SOL    HW229967   1.944   2.197   1.561 -1.1037  0.2371 -1.6466
 6111SOL     OW29968   0.220   0.953   6.342 -0.3734  0.5264  0.3174
 6111SOL    HW129969   0.267   0.875   6.369 -1.5583 -0.3170 -0.0622
 6111SOL    HW229970   0.136   0.908   6.331  1.3578 -2.1208 -1.9600
 6112SOL     OW29971   3.803   3.641   7.358 -0.2234 -0.0140  0.3902
 6112SOL    HW129972   3.880   3.609   7.404  0.3727  0.1557 -0.4995
 6112SOL    HW229973   3.791   3.564   7.304 -1.1573  0.9957 -0.8403
 6113SOL     OW29974   3.423   1.966   7.960  0.1906 -0.5788  0.4149
 6113SOL    HW129975   3.405   2.033   8.026  0.0158 -0.9216  0.7191
 6113SOL    HW229976   3.389   1.896   8.016 -0.3998  1.0034  2.0506
 6114SOL     OW29977   1.821   3.992   5.012  0.3207  0.1594 -0.2964
 6114SOL    HW129978   1.750   4.014   4.952 -0.2404 -0.7776  0.0297
 6114SOL    HW229979   1.772   3.996   5.094  0.0250 -0.7728 -0.4370
 6115SOL     OW29980   1.796   1.425  15.114  0.6377  0.1001 -0.5290
 6115SOL    HW129981   1.762   1.360  15.176 -0.1445 -1.0229 -2.1277
 6115SOL    HW229982   1.885   1.447  15.141  0.1265  0.2590  1.0343
 6116SOL     OW29983   0.774   2.567   3.901 -0.3319  0.2163 -0.1428
 6116SOL    HW129984   0.683   2.537   3.905 -0.4747  0.4646 -1.5849
 6116SOL    HW229985   0.819   2.510   3.838 -2.1150 -0.1533 -1.0998
 6117SOL     OW29986   4.104   1.783  11.474  0.5082 -0.0852 -0.0709
 6117SOL    HW129987   4.064   1.870  11.470  0.4013 -0.1993 -1.4232
 6117SOL    HW229988   4.062   1.754  11.555  0.6111 -0.2478 -0.0768
 6118SOL     OW29989   0.065   1.443   8.925  0.5151 -0.5151 -0.0517
 6118SOL    HW129990   0.118   1.380   8.973  0.2251 -1.7830 -1.4019
 6118SOL    HW229991   0.038   1.379   8.859 -4.5657 -1.1258  2.5703
 6119SOL     OW29992   3.392   2.430   3.849  0.1279  0.2782  0.0993
 6119SOL    HW129993   3.307   2.387   3.851  0.3651 -0.1469  1.0542
 6119SOL    HW229994   3.362   2.504   3.902 -0.8023 -0.2506  0.3156
 6120SOL     OW29995   2.104   4.692   5.586 -0.0435 -0.3880  0.3107
 6120SOL    HW129996   2.105   4.608   5.540  0.3107 -0.0219 -0.3528
 6120SOL    HW229997   2.192   4.704   5.621  0.0144 -0.8331  0.3155
 6121SOL     OW29998   3.506   3.257  10.130  0.2974  0.0397 -0.1798
 6121SOL    HW129999   3.561   3.235  10.205 -1.8540 -0.7971  1.1619
 6121SOL    HW230000   3.546   3.200  10.064  0.7720 -0.3327  0.4287
 6122SOL     OW30001   0.604   4.559  17.078  0.3576  0.2113 -0.7290
 6122SOL    HW130002   0.532   4.620  17.092  1.3604  1.2697 -0.1968
 6122SOL    HW230003   0.614   4.535  17.170  1.2103  1.7741 -0.4023
 6123SOL     OW30004   3.842   1.229   6.932  0.1990 -0.0613 -0.1895
 6123SOL    HW130005   3.750   1.207   6.949  0.5355 -0.5686  1.0204
 6123SOL    HW230006   3.877   1.156   6.984  0.4913  0.0709 -0.2010
 6124SOL     OW30007   4.147   4.244   1.921 -0.4041 -0.4379  0.1372
 6124SOL    HW130008   4.167   4.162   1.877 -1.0329  0.0437 -1.0651
 6124SOL    HW230009   4.051   4.239   1.926 -0.5802  3.5812  1.3256
 6125SOL     OW30010   1.362   1.569  16.250 -0.2109 -0.0450  0.5120
 6125SOL    HW130011   1.289   1.510  16.233 -0.4048 -1.3556  5.8482
 6125SOL    HW230012   1.319   1.655  16.251  1.1851  0.7019 -2.5023
 6126SOL     OW30013   2.215   4.408   0.415  0.2302  0.0232 -0.1012
 6126SOL    HW130014   2.189   4.395   0.324 -1.3194 -1.8776  0.6273
 6126SOL    HW230015   2.145   4.366   0.465 -0.3794  1.6868  0.4661
 6127SOL     OW30016   3.899   1.192  16.129  0.0031  0.7174 -0.2087
 6127SOL    HW130017   3.823   1.212  16.074  0.8478 -0.6497 -1.8850
 6127SOL    HW230018   3.854   1.150  16.202 -0.8976  1.3862 -0.3817
 6128SOL     OW30019   1.640   3.497  11.910  0.6760  0.2926 -0.1264
 6128SOL    HW130020   1.648   3.433  11.980 -0.1786 -1.1752 -1.3834
 6128SOL    HW230021   1.559   3.473  11.866 -0.1847 -0.6964  2.0239
 6129SOL     OW30022   3.726   2.699   6.004 -0.2438 -0.6013  0.0528
 6129SOL    HW130023   3.715   2.606   6.019 -2.5740 -0.2442  0.5371
 6129SOL    HW230024   3.719   2.712   5.909  1.1856 -1.2809 -0.1429
 6130SOL     OW30025   3.592   0.756   9.286  0.1213 -0.1595 -0.1825
 6130SOL    HW130026   3.632   0.675   9.317 -0.7629  0.0395  1.4669
 6130SOL    HW230027   3.512   0.752   9.339 -1.5804  2.3889 -2.5399
 6131SOL     OW30028   4.242   3.154   5.477  0.2988  0.1016 -0.1488
 6131SOL    HW130029   4.270   3.165   5.568 -0.5626  2.6184 -0.1675
 6131SOL    HW230030   4.234   3.248   5.458  0.1550  0.3040  0.9414
 6132SOL     OW30031   2.729   4.246   9.584  0.0834  0.0654  0.0966
 6132SOL    HW130032   2.650   4.233   9.530 -0.8973 -1.8433  2.0383
 6132SOL    HW230033   2.792   4.202   9.527 -0.0247  0.7093 -0.5252
 6133SOL     OW30034   1.021   3.335   3.153  0.0634 -0.0302  0.2778
 6133SOL    HW130035   0.980   3.326   3.067  1.0311 -0.8000 -0.0951
 6133SOL    HW230036   1.081   3.261   3.154  1.9877  1.5611  3.4439
 6134SOL     OW30037   1.104   2.129  17.101 -0.0717  0.3245 -0.4639
 6134SOL    HW130038   1.010   2.115  17.092 -0.4106  0.9866  2.0738
 6134SOL    HW230039   1.104   2.190  17.175  1.1390 -2.0498  1.4821
 6135SOL     OW30040   2.847   0.022   4.845 -0.1667 -0.2078 -0.2454
 6135SOL    HW130041   2.754   0.040   4.831 -0.0540  0.2755 -0.3641
 6135SOL    HW230042   2.889   0.077   4.779  2.8144 -0.6898  1.2172
 6136SOL     OW30043   3.106   0.254   2.567  0.1786  0.0554 -0.3143
 6136SOL    HW130044   3.125   0.263   2.660  0.5317 -3.5912 -0.0387
 6136SOL    HW230045   3.020   0.212   2.568  0.0896  0.2149 -0.9324
 6137SOL     OW30046   3.914   4.627   5.148  0.1943 -0.1025 -0.1779
 6137SOL    HW130047   4.005   4.610   5.170 -0.0814 -0.2413  0.8533
 6137SOL    HW230048   3.895   4.576   5.069 -0.2703 -2.5042  1.4491
 6138SOL     OW30049   3.317   0.140   3.574  0.0904  0.6624  0.7645
 6138SOL    HW130050   3.250   0.103   3.631 -0.5623  0.6747  0.0042
 6138SOL    HW230051   3.323   0.072   3.507  1.3017  0.1986  1.3495
 6139SOL     OW30052   1.003   2.782  12.693  0.6481 -0.4293  0.1425
 6139SOL    HW130053   1.052   2.805  12.773 -0.2687 -0.6955  0.7731
 6139SOL    HW230054   0.911   2.770  12.714  1.0883  0.9609  2.9131
 6140SOL     OW30055   2.494   0.664   3.797 -0.4817  0.4342 -0.1201
 6140SOL    HW130056   2.514   0.730   3.863 -1.8898 -0.8583  1.6317
 6140SOL    HW230057   2.582   0.649   3.763 -0.3459  0.3919  0.2444
 6141SOL     OW30058   1.291   0.801   4.511 -0.1143  0.2907 -0.0578
 6141SOL    HW130059   1.256   0.826   4.597  0.2795 -1.4089  0.5856
 6141SOL    HW230060   1.303   0.891   4.481  0.1529  1.0363  2.2821
 6142SOL     OW30061   2.125   0.872   1.622 -0.1535  0.4795 -0.5205
 6142SOL    HW130062   2.186   0.831   1.561  0.8410  0.8705  0.2022
 6142SOL    HW230063   2.087   0.930   1.556 -3.1658 -0.6055  0.2360
 6143SOL     OW30064   3.327   1.284   7.140  0.7845 -0.1874  0.0402
 6143SOL    HW130065   3.377   1.365   7.156 -0.0102  0.2402  0.3486
 6143SOL    HW230066   3.394   1.232   7.095 -0.1311 -0.8997 -0.4972
 6144SOL     OW30067   3.798   2.542  14.884  0.3031 -0.2777 -0.5872
 6144SOL    HW130068   3.880   2.578  14.850 -0.0609 -1.1991 -2.4278
 6144SOL    HW230069   3.735   2.574  14.819  2.1401  1.0126 -1.7156
 6145SOL     OW30070   1.729   1.635   1.477 -0.0141 -0.3720  0.0088
 6145SOL    HW130071   1.787   1.635   1.401 -0.5402  2.2638 -0.3934
 6145SOL    HW230072   1.796   1.622   1.544  0.6448 -0.5562 -0.6902
 6146SOL     OW30073   1.006   1.231   3.228 -0.6563 -0.0592  0.2366
 6146SOL    HW130074   1.093   1.270   3.234  0.5644 -2.4090 -2.1965
 6146SOL    HW230075   0.967   1.297   3.171 -1.0571 -0.5054 -0.0075
 6147SOL     OW30076   4.159   4.492   1.535 -0.2592  0.1262  0.2075
 6147SOL    HW130077   4.233   4.477   1.594 -1.8931 -1.1243  1.9217
 6147SOL    HW230078   4.137   4.579   1.568  0.2094  0.9026 -1.5486
 6148SOL     OW30079   0.169   2.875  15.183 -0.3760 -0.1030  0.9466
 6148SOL    HW130080   0.159   2.814  15.110  0.4795  1.1857 -0.2419
 6148SOL    HW230081   0.143   2.827  15.262 -0.0936 -0.4782  0.8058
 6149SOL     OW30082   0.138   2.767   7.158  0.1317  0.8732 -0.1248
 6149SOL    HW130083   0.105   2.702   7.096  1.0097 -0.8082  1.1392
 6149SOL    HW230084   0.172   2.842   7.109  0.4404 -1.0504 -2.8616
 6150SOL     OW30085   4.422   1.335  12.443 -0.1465  0.0894  0.2439
 6150SOL    HW130086   4.367   1.294  12.376 -0.1000 -0.1106  0.3291
 6150SOL    HW230087   4.389   1.425  12.438  1.0666  0.4563 -1.3562
 6151SOL     OW30088   2.502   2.227   3.901 -0.8313  0.1912 -0.1552
 6151SOL    HW130089   2.445   2.232   3.824 -1.5033 -1.2225  0.2409
 6151SOL    HW230090   2.582   2.252   3.856 -1.7240 -0.7885 -2.2628
 6152SOL     OW30091   0.903   2.848   6.891  0.0020 -0.1528 -0.3958
 6152SOL    HW130092   0.893   2.754   6.909 -3.7719  0.9535  3.2042
 6152SOL    HW230093   0.991   2.849   6.854 -0.0801  0.5140 -0.5708
 6153SOL     OW30094   0.476   3.467   2.908  0.5738 -0.8380 -0.2643
 6153SOL    HW130095   0.420   3.401   2.948 -0.3120 -1.5317 -2.6187
 6153SOL    HW230096   0.528   3.414   2.848  0.4920 -1.7274  0.4574
 6154SOL     OW30097   1.243   1.888   8.477  0.4583  0.4948 -0.2090
 6154SOL    HW130098   1.243   1.810   8.422  2.0230  0.9056 -0.7818
 6154SOL    HW230099   1.288   1.857   8.555  0.0545  0.4123 -0.0077
 6155SOL     OW30100   4.247   0.137  15.951  0.3397  0.1933 -0.1208
 6155SOL    HW130101   4.331   0.108  15.987 -0.0673  0.2729  0.8968
 6155SOL    HW230102   4.247   0.063  15.890  1.9199  0.8109 -0.8557
 6156SOL     OW30103   3.234   1.013   4.566  0.1054 -0.1988 -0.1294
 6156SOL    HW130104   3.313   1.035   4.517  1.7983  0.7386  2.9899
 6156SOL    HW230105   3.169   1.069   4.525  0.5875  0.2571 -0.2639
 6157SOL     OW30106   1.192   1.273   0.970  0.6912 -0.1030  0.0799
 6157SOL    HW130107   1.202   1.357   0.925 -0.5358 -0.3669 -0.6815
 6157SOL    HW230108   1.223   1.299   1.056 -0.8151 -0.2145  0.6482
 6158SOL     OW30109   4.412   2.949   7.299  0.0563  0.0992  0.1867
 6158SOL    HW130110   4.341   2.960   7.362 -0.9774 -2.7371 -0.4909
 6158SOL    HW230111   4.490   2.983   7.343  1.4135 -1.1339 -1.2369
 6159SOL     OW30112   4.394   3.140  12.399 -0.2788 -0.1264  0.4949
 6159SOL    HW130113   4.402   3.089  12.479 -0.8026 -0.6358  0.2266
 6159SOL    HW230114   4.449   3.214  12.423 -1.6627  0.4098  1.9658
 6160SOL     OW30115   2.609   1.877  14.006  0.0085  0.0971  0.3484
 6160SOL    HW130116   2.531   1.854  13.955  1.1107  0.8535 -1.7087
 6160SOL    HW230117   2.574   1.925  14.081 -0.4033  0.1936  0.0958
 6161SOL     OW30118   4.039   3.191   3.801  0.2024 -0.5129 -0.3906
 6161SOL    HW130119   4.118   3.231   3.839 -1.2889  2.0859  0.0486
 6161SOL    HW230120   4.079   3.173   3.716 -0.4829 -0.7073 -0.6703
 6162SOL     OW30121   2.056   3.456   2.404 -0.1928 -0.2209 -0.3708
 6162SOL    HW130122   2.051   3.488   2.494 -0.5500 -2.6120  0.4455
 6162SOL    HW230123   2.102   3.525   2.356 -0.9806  0.3567 -0.2915
 6163SOL     OW30124   3.550   2.320   3.242  0.5597 -0.3692  0.1694
 6163SOL    HW130125   3.461   2.311   3.276 -0.5311 -0.0518 -2.6770
 6163SOL    HW230126   3.583   2.231   3.233  0.2727 -0.2318 -2.1584
 6164SOL     OW30127   1.230   0.316   7.148  0.1447 -0.2413  0.5786
 6164SOL    HW130128   1.200   0.228   7.122  0.4202  0.3688 -1.8138
 6164SOL    HW230129   1.150   0.366   7.136  1.1515  0.8931 -1.4206
 6165SOL     OW30130   0.937   3.607   4.036  0.4663  0.0344 -1.0477
 6165SOL    HW130131   1.026   3.573   4.025 -0.3235 -1.9924 -1.2093
 6165SOL    HW230132   0.919   3.596   4.130 -2.4965  0.8640 -1.5211
 6166SOL     OW30133   3.866   4.270   8.878  0.1663 -0.0159  0.0893
 6166SOL    HW130134   3.928   4.203   8.907 -1.2273 -2.0215 -1.5947
 6166SOL    HW230135   3.864   4.241   8.787  0.7892 -2.2303  0.7692
 6167SOL     OW30136   0.013   0.957   3.790 -0.3661 -0.1507  0.1922
 6167SOL    HW130137   0.062   0.965   3.708 -0.5255  1.3758  0.2580
 6167SOL    HW230138   4.681   1.014   3.774  0.2281  0.4411 -0.5086
 6168SOL     OW30139   3.104   2.307  13.787  0.2751 -0.0370 -0.1097
 6168SOL    HW130140   3.057   2.390  13.792  0.5857  0.0954  0.7223
 6168SOL    HW230141   3.028   2.250  13.802 -0.6477  1.0493 -0.7306
 6169SOL     OW30142   0.161   2.146  13.035  0.6439 -0.1920 -0.1527
 6169SOL    HW130143   0.093   2.210  13.057  0.6600 -0.6931  1.3729
 6169SOL    HW230144   0.235   2.202  13.012 -0.5890  1.7018  0.3994
 6170SOL     OW30145   3.758   0.332  16.730  0.1081 -0.2307 -0.0831
 6170SOL    HW130146   3.807   0.305  16.807 -0.4944  0.4456  0.5483
 6170SOL    HW230147   3.680   0.276  16.729 -0.3441  0.4151 -2.1745
 6171SOL     OW30148   1.125   2.457   6.843  0.2552 -0.1181  0.2588
 6171SOL    HW130149   1.063   2.483   6.912  1.3965  2.6925  0.2067
 6171SOL    HW230150   1.108   2.525   6.777 -1.1556 -1.3346 -0.6314
 6172SOL     OW30151   2.000   2.275  12.614  0.1427  0.6735  0.2405
 6172SOL    HW130152   1.927   2.215  12.600 -0.0724  0.8435  0.6168
 6172SOL    HW230153   2.014   2.265  12.708 -2.3092  0.7598  0.6377
 6173SOL     OW30154   2.902   3.313   3.103 -0.3756  0.3499 -0.0753
 6173SOL    HW130155   2.990   3.278   3.115 -1.1109 -0.8030  1.9821
 6173SOL    HW230156   2.857   3.276   3.179 -0.8996 -0.0802 -0.5849
 6174SOL     OW30157   1.824   1.847   3.603  0.4445  0.3041  0.1941
 6174SOL    HW130158   1.819   1.848   3.507  0.5325  0.8313  0.1930
 6174SOL    HW230159   1.774   1.767   3.617  0.6197 -0.0054 -0.9747
 6175SOL     OW30160   1.152   2.669  12.512 -0.2011  0.1171 -0.3720
 6175SOL    HW130161   1.122   2.704  12.429  1.3391  2.1066 -0.1160
 6175SOL    HW230162   1.119   2.734  12.575  0.6688  0.0302  0.1796
 6176SOL     OW30163   0.597   4.527   8.639  0.8718 -0.1615 -0.4143
 6176SOL    HW130164   0.690   4.506   8.644  1.3868  1.9087 -1.2615
 6176SOL    HW230165   0.564   4.496   8.724  2.9787 -1.3794 -0.0378
 6177SOL     OW30166   1.647   2.444  13.958 -0.0821 -0.2062  0.2736
 6177SOL    HW130167   1.582   2.382  13.925 -0.8992  0.6532  0.2632
 6177SOL    HW230168   1.731   2.397  13.954 -0.8352 -1.3542 -2.1772
 6178SOL     OW30169   0.323   4.382   4.163 -0.2226  0.5193  0.0097
 6178SOL    HW130170   0.252   4.371   4.100  0.2517 -0.2263 -0.3962
 6178SOL    HW230171   0.309   4.308   4.223  1.4877 -0.4849 -0.8343
 6179SOL     OW30172   3.852   4.309   9.208  0.1587  0.5688  0.0095
 6179SOL    HW130173   3.898   4.233   9.172 -2.3567 -0.9297 -0.0070
 6179SOL    HW230174   3.768   4.265   9.215  0.8165 -0.7525 -0.4787
 6180SOL     OW30175   2.777   1.000   6.967  0.6454 -0.1074 -0.3412
 6180SOL    HW130176   2.826   1.069   7.011 -0.4270  0.2922  0.2282
 6180SOL    HW230177   2.850   0.949   6.933  0.2389 -1.8661  1.3836
 6181SOL     OW30178   0.079   3.891   7.700 -0.3847  0.6086 -0.2649
 6181SOL    HW130179   4.740   3.932   7.725 -1.0078 -0.4314 -0.6067
 6181SOL    HW230180   0.140   3.954   7.739  0.9611 -0.3327 -0.8439
 6182SOL     OW30181   2.319   2.232   2.012 -0.3333  0.0193  0.2298
 6182SOL    HW130182   2.247   2.248   2.073 -1.4265  0.0463 -1.0852
 6182SOL    HW230183   2.282   2.153   1.972 -0.0775  0.4830 -0.9166
 6183SOL     OW30184   3.814   3.112   9.714 -0.0730 -0.1486  0.0275
 6183SOL    HW130185   3.866   3.185   9.746  1.1682 -2.5652  3.4282
 6183SOL    HW230186   3.741   3.108   9.776 -0.4071 -1.7764 -0.4697
 6184SOL     OW30187   4.729   3.198   3.261  0.2070  0.3011 -0.1386
 6184SOL    HW130188   0.032   3.129   3.215  0.8116  0.5180  0.1443
 6184SOL    HW230189   4.717   3.268   3.197 -1.1583  1.8276  1.7844
 6185SOL     OW30190   4.653   4.555   3.572  1.2002  0.9368 -0.0141
 6185SOL    HW130191   4.561   4.567   3.596  0.9896 -0.9720  0.1380
 6185SOL    HW230192   4.662   4.564   3.477  0.7150 -2.7255 -0.3836
 6186SOL     OW30193   3.316   1.270  13.594  0.6334 -0.3770 -0.0815
 6186SOL    HW130194   3.390   1.264  13.654 -0.9423 -2.8836  1.6070
 6186SOL    HW230195   3.356   1.313  13.519  2.0191 -2.5170 -0.5627
 6187SOL     OW30196   2.000   3.944  14.998  0.6204  0.0374 -0.0500
 6187SOL    HW130197   1.916   3.910  14.967  0.6426 -0.0764  0.0167
 6187SOL    HW230198   2.003   3.887  15.075 -0.3168 -0.3805 -0.3145
 6188SOL     OW30199   2.328   1.368   2.553 -0.3567 -0.4181 -0.3281
 6188SOL    HW130200   2.349   1.281   2.585 -2.2829 -1.4472 -1.8235
 6188SOL    HW230201   2.243   1.378   2.596 -0.8487  0.1932 -1.4366
 6189SOL     OW30202   4.135   3.217   1.481 -0.7776 -0.1840  0.2074
 6189SOL    HW130203   4.091   3.132   1.488 -0.1639 -0.4091  1.3097
 6189SOL    HW230204   4.205   3.190   1.422 -1.1316  0.7238 -0.6233
 6190SOL     OW30205   1.162   0.537  10.370 -0.2504  0.5134 -0.0080
 6190SOL    HW130206   1.144   0.507  10.281  0.0681  0.8504 -0.1886
 6190SOL    HW230207   1.111   0.482  10.429  1.0929  1.3497  1.9258
 6191SOL     OW30208   3.672   1.552   0.228 -0.3549  0.4303  0.2264
 6191SOL    HW130209   3.689   1.480   0.289  0.1661  0.4033  0.0518
 6191SOL    HW230210   3.577   1.554   0.228 -0.4545 -2.8345 -0.5317
 6192SOL     OW30211   0.288   3.990  13.348 -0.0008 -0.0054  0.3682
 6192SOL    HW130212   0.219   4.024  13.291  1.3401 -0.9257 -1.8194
 6192SOL    HW230213   0.298   4.061  13.412 -0.7898  0.4649 -0.0354
 6193SOL     OW30214   0.614   4.376   2.396  0.0832 -0.1076  0.4243
 6193SOL    HW130215   0.538   4.415   2.440 -0.3800  0.9143 -1.2855
 6193SOL    HW230216   0.671   4.450   2.378  2.1288 -1.5040  1.2633
 6194SOL     OW30217   2.329   0.945  11.589  0.0642 -0.1023 -0.4136
 6194SOL    HW130218   2.249   0.988  11.559  0.8907  1.4345 -0.4296
 6194SOL    HW230219   2.398   0.989  11.539  0.8566  0.3682  1.0856
 6195SOL     OW30220   1.485   3.131   7.059  0.1404  0.2771 -0.4487
 6195SOL    HW130221   1.468   3.157   7.150  0.3197 -1.1780  0.0136
 6195SOL    HW230222   1.570   3.171   7.042 -0.8456  2.1632 -0.8143
 6196SOL     OW30223   0.543   0.797   7.412  0.5266 -0.1408 -0.6667
 6196SOL    HW130224   0.463   0.835   7.375  0.3388  0.3133  0.2251
 6196SOL    HW230225   0.522   0.711   7.447 -0.3560 -0.1901 -1.3062
 6197SOL     OW30226   0.657   2.282  11.272 -0.2516  0.1936  0.5021
 6197SOL    HW130227   0.684   2.342  11.341  1.6218 -2.4673  2.0781
 6197SOL    HW230228   0.606   2.225  11.330 -0.5217 -2.2477 -2.1451
 6198SOL     OW30229   3.280   0.515   8.731  0.7182 -0.3278  0.0696
 6198SOL    HW130230   3.319   0.603   8.738  0.9088 -0.3643 -0.5405
 6198SOL    HW230231   3.358   0.461   8.721 -1.0018 -3.1329  1.8112
 6199SOL     OW30232   1.099   0.459  10.089  0.0781  0.4259 -0.4076
 6199SOL    HW130233   1.118   0.457   9.996 -0.2785  3.5564 -0.5380
 6199SOL    HW230234   1.005   0.442  10.084  0.4834 -1.4872 -1.5081
 6200SOL     OW30235   4.000   1.695  11.701  0.4673  0.2143 -0.2774
 6200SOL    HW130236   3.961   1.762  11.757  4.4707 -0.2586  3.1019
 6200SOL    HW230237   3.963   1.613  11.737 -0.1745  1.7343  2.5329
 6201SOL     OW30238   1.289   2.370   7.191  0.1801  0.0166 -0.5355
 6201SOL    HW130239   1.377   2.347   7.219  0.3598  1.0659 -0.2521
 6201SOL    HW230240   1.301   2.378   7.096  0.7059 -0.5130 -0.5124
 6202SOL     OW30241   0.030   3.762   1.091  0.1991 -0.1599 -0.3882
 6202SOL    HW130242   0.103   3.716   1.049 -0.2074 -2.2350  1.1738
 6202SOL    HW230243   4.713   3.692   1.115 -1.7434  2.2509  1.7867
 6203SOL     OW30244   1.022   3.646   3.739  0.0215  0.4025 -0.1498
 6203SOL    HW130245   1.044   3.578   3.803  2.8345  0.5477 -0.9454
 6203SOL    HW230246   1.087   3.616   3.675  1.5352 -1.3136  2.1691
 6204SOL     OW30247   1.821   2.943   5.417 -0.3649  0.0988  0.6092
 6204SOL    HW130248   1.751   2.955   5.354  2.7369  0.6752 -2.7336
 6204SOL    HW230249   1.860   3.029   5.401 -2.7549  1.3844  1.6676
 6205SOL     OW30250   0.302   3.901   3.586 -0.2510  0.9632  0.3141
 6205SOL    HW130251   0.365   3.936   3.523  0.8710 -1.3208  0.1640
 6205SOL    HW230252   0.349   3.835   3.636 -0.4506 -0.6334 -1.5661
 6206SOL     OW30253   4.433   0.621   1.808 -0.4229  0.0253  0.1199
 6206SOL    HW130254   4.403   0.558   1.743  1.0935  0.5216 -1.0527
 6206SOL    HW230255   4.507   0.577   1.852 -0.4249 -0.2568 -0.1644
 6207SOL     OW30256   1.881   0.965   6.366 -0.6994 -0.3894 -0.0064
 6207SOL    HW130257   1.930   0.884   6.379 -1.9636 -0.9187  1.4195
 6207SOL    HW230258   1.942   0.990   6.297 -0.5201 -1.1328 -0.1255
 6208SOL     OW30259   0.785   4.664   9.474  0.3195 -0.1338  0.4494
 6208SOL    HW130260   0.818   4.612   9.400 -1.6572 -1.2779  0.3548
 6208SOL    HW230261   0.721   4.717   9.425  1.1989 -0.7603 -1.3596
 6209SOL     OW30262   3.323   0.264   2.986  0.2945 -0.1791  0.0803
 6209SOL    HW130263   3.326   0.226   3.074 -2.8623  1.2043  0.7766
 6209SOL    HW230264   3.398   0.221   2.945  1.1880  4.5973 -3.3597
 6210SOL     OW30265   2.452   0.773   2.791  0.1456 -0.0443  0.0719
 6210SOL    HW130266   2.531   0.822   2.814 -0.4322  1.4723 -1.1794
 6210SOL    HW230267   2.479   0.714   2.721  1.2723  1.2815 -0.6173
 6211SOL     OW30268   1.001   2.618   7.028  0.3211 -0.4513  0.2396
 6211SOL    HW130269   0.937   2.606   7.099 -0.5565  1.2241 -0.2589
 6211SOL    HW230270   1.087   2.619   7.069  0.3730  0.5031  0.1192
 6212SOL     OW30271   4.398   2.416   9.596  0.1646 -0.0989  0.2363
 6212SOL    HW130272   4.305   2.434   9.582  0.1380 -0.0986  0.4116
 6212SOL    HW230273   4.443   2.466   9.527 -0.3128  0.6406  0.4729
 6213SOL     OW30274   4.364   0.746   5.990  0.1925  0.3467 -0.2769
 6213SOL    HW130275   4.363   0.683   5.918 -2.1757 -1.6387  1.4858
 6213SOL    HW230276   4.270   0.762   6.004  0.7552  2.1702  1.3950
 6214SOL     OW30277   0.168   1.446   5.911  0.0684 -0.0251  0.2754
 6214SOL    HW130278   0.148   1.411   5.998 -1.3137  0.9656  0.3548
 6214SOL    HW230279   0.261   1.431   5.894  0.0923 -1.4157  1.5785
 6215SOL     OW30280   2.898   4.637   9.102  0.2968 -0.0665 -0.1769
 6215SOL    HW130281   2.909   4.567   9.037 -0.6673 -0.0333 -0.3785
 6215SOL    HW230282   2.942   4.707   9.055  0.0583  0.5177  0.4748
 6216SOL     OW30283   3.693   4.272  15.388  0.3537 -0.4814 -0.2068
 6216SOL    HW130284   3.725   4.228  15.466  0.4339 -1.6814 -0.9099
 6216SOL    HW230285   3.599   4.268  15.406  0.1699  2.6878 -0.4583
 6217SOL     OW30286   1.992   1.177   5.842 -0.1637 -0.3280  0.6051
 6217SOL    HW130287   2.085   1.154   5.843 -0.0241  0.1361 -0.6855
 6217SOL    HW230288   1.959   1.104   5.893  0.7150  1.1355  3.2667
 6218SOL     OW30289   3.565   1.412   8.275 -0.3808  0.1635  0.0562
 6218SOL    HW130290   3.604   1.325   8.270  1.6569  1.2261 -2.1915
 6218SOL    HW230291   3.597   1.456   8.197 -0.3049 -1.3186 -0.7328
 6219SOL     OW30292   2.823   3.957  16.212  0.6346 -0.4508 -0.0684
 6219SOL    HW130293   2.912   3.972  16.180 -0.0261 -0.0345 -1.7235
 6219SOL    HW230294   2.776   3.916  16.140 -0.3638  2.6274 -1.1765
 6220SOL     OW30295   0.264   3.571  16.901  0.1596  0.0393  0.1531
 6220SOL    HW130296   0.240   3.480  16.914  2.0205 -0.3372  0.9345
 6220SOL    HW230297   0.350   3.554  16.863 -1.0739 -0.3645 -2.4305
 6221SOL     OW30298   2.282   2.463   6.160 -0.1279 -0.0209  0.4719
 6221SOL    HW130299   2.246   2.374   6.158 -0.1056 -0.0183  0.0235
 6221SOL    HW230300   2.226   2.495   6.231 -3.4380 -1.9427 -1.3057
 6222SOL     OW30301   1.938   4.038   4.044  0.0438 -0.0923 -0.4861
 6222SOL    HW130302   1.855   4.030   3.995  0.0383  0.2195 -0.5297
 6222SOL    HW230303   1.949   4.132   4.053  0.7037 -0.3677  1.4101
 6223SOL     OW30304   1.401   4.569   3.199  0.5179  0.2790 -0.2286
 6223SOL    HW130305   1.311   4.580   3.230  0.4835 -0.9682  0.0933
 6223SOL    HW230306   1.450   4.540   3.276 -2.9900 -1.1851  1.4682
 6224SOL     OW30307   0.974   0.812   1.458 -0.1417  0.1280  0.8321
 6224SOL    HW130308   1.003   0.792   1.547 -2.5587 -1.6531  1.2141
 6224SOL    HW230309   0.886   0.837   1.485 -0.5345 -1.1963  0.7775
 6225SOL     OW30310   1.337   3.260  13.599 -0.2517 -0.3893  0.2268
 6225SOL    HW130311   1.325   3.316  13.675 -1.0310 -1.4849  0.8985
 6225SOL    HW230312   1.287   3.300  13.527 -1.7133  0.1288  1.5454
 6226SOL     OW30313   1.724   3.439   9.347 -0.3147  0.5334  0.5106
 6226SOL    HW130314   1.767   3.354   9.356  1.5051  1.5194  1.2010
 6226SOL    HW230315   1.762   3.492   9.418 -2.4166  1.5106  0.9034
 6227SOL     OW30316   3.688   1.761   8.473  0.0982  0.4143 -0.1789
 6227SOL    HW130317   3.613   1.735   8.420 -0.3931  1.2374  0.1073
 6227SOL    HW230318   3.643   1.794   8.551  1.5825  0.9546  0.4613
 6228SOL     OW30319   1.529   1.891   6.324  0.6075 -0.4576  0.2523
 6228SOL    HW130320   1.495   1.980   6.323  2.6876  0.3418  1.2181
 6228SOL    HW230321   1.529   1.868   6.417 -0.3047 -1.2394  0.0663
 6229SOL     OW30322   4.450   4.548   9.738  0.6298  0.5740  0.4866
 6229SOL    HW130323   4.481   4.515   9.823 -0.1824 -1.2899  0.0554
 6229SOL    HW230324   4.357   4.561   9.755  0.4439 -0.8632  0.6304
 6230SOL     OW30325   2.121   3.922   5.477  0.0540 -0.5625  0.2497
 6230SOL    HW130326   2.031   3.889   5.477  0.5768 -1.9852 -0.0319
 6230SOL    HW230327   2.162   3.872   5.407  1.9230 -2.1256  2.4387
 6231SOL     OW30328   1.883   3.951   1.741 -0.5832 -0.4583  0.1479
 6231SOL    HW130329   1.821   3.918   1.676 -2.1175 -1.9608  2.3729
 6231SOL    HW230330   1.831   3.945   1.821  0.4909  0.5181  0.9141
 6232SOL     OW30331   1.595   1.314  17.691  0.5325 -0.2321  0.4644
 6232SOL    HW130332   1.609   1.252  17.763 -0.3351 -0.5939  0.3189
 6232SOL    HW230333   1.501   1.319  17.675  0.4897 -0.3401  0.6764
 6233SOL     OW30334   3.692   4.429   7.330  0.0054  0.2797  0.1077
 6233SOL    HW130335   3.650   4.354   7.287  0.7671  0.0949 -0.3320
 6233SOL    HW230336   3.675   4.408   7.422 -0.8402  2.7197  0.5041
 6234SOL     OW30337   3.026   0.301   8.821  0.6307  0.2810 -0.4708
 6234SOL    HW130338   2.983   0.382   8.791 -0.1781  0.0021 -0.0650
 6234SOL    HW230339   3.109   0.338   8.850  0.2477 -2.3484  3.9316
 6235SOL     OW30340   3.887   1.515   0.049 -0.1855 -0.0750  0.2081
 6235SOL    HW130341   3.815   1.530   0.111  0.9514  1.0172  1.2503
 6235SOL    HW230342   3.916   1.426   0.066 -1.9661 -0.5834  0.6266
 6236SOL     OW30343   3.554   4.566   0.672 -0.4927  0.2741  0.2049
 6236SOL    HW130344   3.536   4.526   0.757  1.4726 -3.0372 -0.9146
 6236SOL    HW230345   3.488   4.635   0.674 -0.2308  0.5026  1.2998
 6237SOL     OW30346   2.145   2.640   7.636  0.0408 -0.7941  0.4143
 6237SOL    HW130347   2.169   2.729   7.609 -0.1777 -1.4741 -2.0856
 6237SOL    HW230348   2.198   2.629   7.714 -1.1118  1.5829  1.5424
 6238SOL     OW30349   0.142   2.436   3.844  0.5672  0.9999 -0.4649
 6238SOL    HW130350   0.066   2.490   3.824 -1.2799 -2.1462 -2.0041
 6238SOL    HW230351   0.159   2.446   3.937 -2.2768 -2.3016  0.4206
 6239SOL     OW30352   1.029   2.915   5.801  0.7838 -0.4188 -0.4445
 6239SOL    HW130353   1.026   2.910   5.706 -1.1371 -0.3886 -0.3810
 6239SOL    HW230354   1.108   2.968   5.811 -1.6886  2.9897  1.3916
 6240SOL     OW30355   2.214   3.136   9.073 -0.0987  0.0687 -0.1061
 6240SOL    HW130356   2.193   3.052   9.115 -1.7236 -0.5042 -2.0586
 6240SOL    HW230357   2.307   3.140   9.094 -0.2577 -1.1489  0.8412
 6241SOL     OW30358   1.722   4.541   2.187  0.2978  0.1401 -0.0750
 6241SOL    HW130359   1.708   4.446   2.191 -0.8781  0.2822 -0.8643
 6241SOL    HW230360   1.654   4.552   2.121 -1.4806 -1.2745  1.5338
 6242SOL     OW30361   1.657   0.970   7.882 -0.3293  0.0421 -0.0760
 6242SOL    HW130362   1.579   0.924   7.914 -0.0363  0.6882  1.5424
 6242SOL    HW230363   1.723   0.930   7.939  0.0466  0.6770 -0.0620
 6243SOL     OW30364   2.946   4.735   5.339  0.4668 -0.1611  0.6019
 6243SOL    HW130365   2.952   4.639   5.341  0.4145 -0.1833 -0.5701
 6243SOL    HW230366   2.974   0.019   5.426  0.8247 -2.1189  1.1179
 6244SOL     OW30367   1.862   3.597   6.051 -0.1616  0.3242  0.1423
 6244SOL    HW130368   1.885   3.533   6.119  1.1474  0.6259 -0.0066
 6244SOL    HW230369   1.896   3.549   5.975  2.1304  3.0530 -0.5738
 6245SOL     OW30370   4.222   2.198  17.726 -0.1367  0.7693 -0.1420
 6245SOL    HW130371   4.242   2.159   0.040 -1.2020  1.0056  0.2133
 6245SOL    HW230372   4.180   2.276  17.763  0.6377  0.9243  0.4014
 6246SOL     OW30373   0.505   1.631   5.025  0.1563 -0.2197 -0.5501
 6246SOL    HW130374   0.494   1.570   5.098  3.2923 -0.1225  0.0200
 6246SOL    HW230375   0.556   1.701   5.065  1.9970 -1.0351 -1.4928
 6247SOL     OW30376   2.965   0.015  10.383  0.5374 -0.2377 -0.0634
 6247SOL    HW130377   2.876   0.048  10.396  1.0432  0.7601  0.8299
 6247SOL    HW230378   2.937   4.673  10.351  1.2618 -1.8986  3.8625
 6248SOL     OW30379   3.675   0.287   9.552  0.2047 -0.4218  0.4710
 6248SOL    HW130380   3.682   0.192   9.542 -1.2963 -0.3138 -1.6107
 6248SOL    HW230381   3.640   0.296   9.640  1.6281 -0.9022  1.0826
 6249SOL     OW30382   3.414   0.787  12.323  0.0477 -0.1241 -0.4958
 6249SOL    HW130383   3.462   0.808  12.243 -2.4948  0.1040 -1.9572
 6249SOL    HW230384   3.483   0.741  12.370 -0.1078 -1.2809 -1.3830
 6250SOL     OW30385   0.245   0.130   5.310 -0.0418 -0.3459 -0.2155
 6250SOL    HW130386   0.276   0.219   5.291 -0.1151 -0.3519 -0.3588
 6250SOL    HW230387   0.208   0.105   5.226  0.2461  0.4388 -0.5728
 6251SOL     OW30388   0.041   2.113   3.456 -0.0896 -0.3808  0.6465
 6251SOL    HW130389   4.729   2.182   3.419  1.0299  0.2315  0.1005
 6251SOL    HW230390   0.035   2.118   3.551  0.0392  2.9193  0.4870
 6252SOL     OW30391   0.298   3.285  16.964  0.0570  0.2460 -0.4169
 6252SOL    HW130392   0.281   3.234  16.885 -0.0328  0.4663 -0.5371
 6252SOL    HW230393   0.382   3.325  16.941 -0.4662 -0.2150 -3.1303
 6253SOL     OW30394   0.994   0.975  15.017  0.1023 -0.2189  0.0213
 6253SOL    HW130395   0.936   0.900  14.999 -1.1120  0.6755  0.2240
 6253SOL    HW230396   1.009   0.952  15.109 -0.2806  0.3910  0.2345
 6254SOL     OW30397   3.220   3.810   9.588 -0.0280 -0.4551  0.3571
 6254SOL    HW130398   3.236   3.763   9.670  0.5025 -0.5001  0.2302
 6254SOL    HW230399   3.137   3.855   9.603  0.7434  0.0578  3.0755
 6255SOL     OW30400   1.582   1.999  16.907  0.0271 -0.3946  0.7366
 6255SOL    HW130401   1.642   1.931  16.938  1.2506  1.2811  2.1134
 6255SOL    HW230402   1.565   2.047  16.988  1.7736 -0.9753  1.4535
 6256SOL     OW30403   4.411   4.233   3.230 -0.1506 -0.1959  0.5875
 6256SOL    HW130404   4.368   4.254   3.147  1.2414  0.8732  0.1268
 6256SOL    HW230405   4.334   4.199   3.275 -0.2215  0.4541  0.9525
 6257SOL     OW30406   0.595   1.158   0.244  0.2538 -0.0280  0.2289
 6257SOL    HW130407   0.543   1.173   0.165  1.7398  0.3460 -0.6836
 6257SOL    HW230408   0.576   1.242   0.286  0.7343  1.1537 -1.9285
 6258SOL     OW30409   1.895   2.091   6.953 -0.5571 -0.2027  0.0015
 6258SOL    HW130410   1.919   2.155   7.021  1.1968 -0.3352 -0.4906
 6258SOL    HW230411   1.902   2.137   6.869  1.6729  2.1470  1.4627
 6259SOL     OW30412   3.067   0.144   2.225  0.5571  0.1022 -0.3429
 6259SOL    HW130413   2.979   0.154   2.260 -0.5708  1.0078 -3.3953
 6259SOL    HW230414   3.048   0.075   2.161 -0.2390 -0.5847  0.6439
 6260SOL     OW30415   0.706   2.463   8.266 -0.0356 -0.1649  0.1939
 6260SOL    HW130416   0.739   2.397   8.205 -0.6852 -3.1171  3.0734
 6260SOL    HW230417   0.739   2.423   8.346  0.0683 -0.3709  0.0479
 6261SOL     OW30418   3.186   2.769   8.242 -0.0215 -0.4671  0.1990
 6261SOL    HW130419   3.254   2.821   8.199 -0.8465  0.0012 -0.5396
 6261SOL    HW230420   3.109   2.812   8.205 -0.8445 -1.9304  0.2007
 6262SOL     OW30421   2.971   3.631  15.686 -0.4699 -0.3705 -0.0465
 6262SOL    HW130422   2.965   3.694  15.758  1.7252  0.5586 -0.6749
 6262SOL    HW230423   2.960   3.690  15.611 -1.7631 -0.3100  0.1859
 6263SOL     OW30424   1.691   1.436  11.872  0.9989  0.1845  0.6819
 6263SOL    HW130425   1.740   1.512  11.901  2.4033 -0.2586 -0.5626
 6263SOL    HW230426   1.611   1.437  11.925  0.4300 -0.8732 -0.1434
 6264SOL     OW30427   0.274   4.166  12.500  0.0121  0.2275 -0.7969
 6264SOL    HW130428   0.310   4.077  12.507 -1.9728 -0.6644 -1.9711
 6264SOL    HW230429   0.220   4.172  12.578  0.3734 -1.8061 -0.3719
 6265SOL     OW30430   4.221   0.155   7.146  0.2627  0.2028  0.3167
 6265SOL    HW130431   4.295   0.211   7.166 -0.0917  1.1548 -1.0477
 6265SOL    HW230432   4.151   0.213   7.117  0.4504  1.4639  2.3863
 6266SOL     OW30433   1.090   2.794  13.229 -0.1948 -0.2285 -0.2770
 6266SOL    HW130434   1.083   2.745  13.147 -1.2956  0.8902 -0.8523
 6266SOL    HW230435   1.183   2.816  13.224  0.0311 -0.7765  1.6444
 6267SOL     OW30436   1.529   1.815   6.033  0.4791  0.0020 -0.4692
 6267SOL    HW130437   1.581   1.738   6.057  1.7704  0.9073 -0.4002
 6267SOL    HW230438   1.508   1.846   6.122  0.2160  0.9961 -0.8834
 6268SOL     OW30439   4.214   0.308   8.598 -0.5355  0.2381 -0.5202
 6268SOL    HW130440   4.241   0.267   8.680 -3.7449  2.4312  1.6208
 6268SOL    HW230441   4.304   0.332   8.574 -1.3002  0.5078 -3.1936
 6269SOL     OW30442   3.472   4.244   7.401 -0.3022  0.4815 -0.4540
 6269SOL    HW130443   3.409   4.315   7.414  0.5500  1.5814 -2.3768
 6269SOL    HW230444   3.425   4.181   7.347 -1.3390 -0.2289  1.2422
 6270SOL     OW30445   2.499   1.147   7.997  0.5708 -0.0008  0.3321
 6270SOL    HW130446   2.551   1.158   7.918  1.1589 -1.2930  0.5391
 6270SOL    HW230447   2.413   1.175   7.965  0.9324  1.8010  0.9481
 6271SOL     OW30448   0.519   1.053   5.334 -0.4907  0.8955  0.6799
 6271SOL    HW130449   0.590   1.005   5.292 -0.5914  2.0856 -0.8613
 6271SOL    HW230450   0.546   1.074   5.423 -2.9132 -0.6601  1.7972
 6272SOL     OW30451   1.780   0.855   2.211  0.4784  0.0760  0.0570
 6272SOL    HW130452   1.688   0.833   2.224  0.8641 -0.3214  2.0981
 6272SOL    HW230453   1.814   0.805   2.286  0.2615 -0.3629 -0.1373
 6273SOL     OW30454   3.931   1.469   1.870  0.0303  0.4031  0.0793
 6273SOL    HW130455   3.977   1.407   1.927 -2.8226  0.4431  2.4694
 6273SOL    HW230456   3.987   1.546   1.882 -0.7351  1.0431 -0.4725
 6274SOL     OW30457   0.140   1.876   6.232 -0.1532  0.6080 -0.3680
 6274SOL    HW130458   0.187   1.920   6.161 -1.4210 -0.0539 -1.6322
 6274SOL    HW230459   0.191   1.795   6.222 -0.4255  0.4063 -0.1310
 6275SOL     OW30460   3.545   4.026   6.085 -0.3381 -0.3277  0.2362
 6275SOL    HW130461   3.559   3.952   6.027  0.7690  1.1466 -1.3860
 6275SOL    HW230462   3.516   3.983   6.166 -2.1148 -0.1645 -0.3256
 6276SOL     OW30463   1.797   1.188   4.556 -0.2036 -0.4429  0.1682
 6276SOL    HW130464   1.744   1.268   4.557  1.4755  0.7170 -1.8852
 6276SOL    HW230465   1.750   1.122   4.505 -1.1173 -0.8541  1.5759
 6277SOL     OW30466   2.466   1.389   7.704 -0.2815 -0.0567 -0.4808
 6277SOL    HW130467   2.539   1.390   7.643  0.7818 -1.5307  0.7759
 6277SOL    HW230468   2.438   1.298   7.696 -1.7676  0.2867  0.8053
 6278SOL     OW30469   3.115   2.559  10.271  0.4463 -0.3250 -0.9005
 6278SOL    HW130470   3.041   2.530  10.217 -0.3853 -0.7803  0.4842
 6278SOL    HW230471   3.078   2.572  10.358  0.6486  0.6446 -0.9605
 6279SOL     OW30472   4.160   1.967   6.992 -0.4776  0.5955 -0.6495
 6279SOL    HW130473   4.247   1.975   7.032  0.0324 -0.0246 -1.6335
 6279SOL    HW230474   4.192   1.981   6.903  0.6022 -0.8510 -0.4838
 6280SOL     OW30475   1.962   1.740  15.307 -0.0408  0.0096 -0.0082
 6280SOL    HW130476   2.038   1.771  15.355  0.4095  0.6155 -1.1092
 6280SOL    HW230477   1.910   1.813  15.340 -1.1620 -0.0835 -1.5375
 6281SOL     OW30478   0.751   2.873   8.184 -0.7711  0.6221  0.4395
 6281SOL    HW130479   0.810   2.870   8.109 -0.1136 -2.8436  1.1312
 6281SOL    HW230480   0.816   2.869   8.255 -1.7592  1.5315  1.4008
 6282SOL     OW30481   1.343   1.357   1.217  0.1631  0.2550  0.2433
 6282SOL    HW130482   1.417   1.376   1.274  1.2953  1.1539 -1.5226
 6282SOL    HW230483   1.291   1.307   1.280 -0.2891 -2.0022 -1.8916
 6283SOL     OW30484   0.513   0.044   5.784  0.0591 -0.1521  0.1657
 6283SOL    HW130485   0.597   4.741   5.777  0.4087  0.6028 -0.7910
 6283SOL    HW230486   0.481   0.051   5.694 -0.8783  1.5412  0.6438
 6284SOL     OW30487   2.815   3.410   4.177 -0.0089  0.6149  0.1608
 6284SOL    HW130488   2.883   3.426   4.112 -2.2603  0.3343 -2.2769
 6284SOL    HW230489   2.773   3.494   4.196  0.5985  1.2884 -1.5292
 6285SOL     OW30490   3.422   1.034   3.625  0.4967 -0.0478 -0.3696
 6285SOL    HW130491   3.340   1.082   3.616 -0.7264 -2.0846 -0.1394
 6285SOL    HW230492   3.438   1.001   3.537  0.1251 -2.4182  0.4450
 6286SOL     OW30493   2.273   4.262  10.885 -0.3564 -0.4278 -0.0142
 6286SOL    HW130494   2.368   4.267  10.894 -0.0610 -1.3137 -2.8627
 6286SOL    HW230495   2.255   4.177  10.925 -1.6752 -0.2093 -0.1417
 6287SOL     OW30496   3.565   3.558   8.423 -0.0711 -0.3112  0.1213
 6287SOL    HW130497   3.558   3.621   8.351  1.4110  0.8936  1.0316
 6287SOL    HW230498   3.478   3.517   8.424  0.7310 -1.9868  1.1016
 6288SOL     OW30499   2.625   1.568   4.074  0.0511  0.0822  1.0129
 6288SOL    HW130500   2.574   1.649   4.074  0.4472  0.3054 -2.5522
 6288SOL    HW230501   2.651   1.560   3.982 -2.4354 -0.5024  0.3495
 6289SOL     OW30502   1.303   2.411   8.634  0.4496  0.2668 -0.1723
 6289SOL    HW130503   1.397   2.415   8.652  0.4393  1.8216 -0.4530
 6289SOL    HW230504   1.299   2.315   8.626 -1.3682  0.3800 -0.6293
 6290SOL     OW30505   4.154   0.485   2.928 -0.1233  0.0141  0.5887
 6290SOL    HW130506   4.088   0.498   2.997 -0.4546  2.3760 -0.1542
 6290SOL    HW230507   4.122   0.399   2.901 -0.1084  0.6744 -1.5429
 6291SOL     OW30508   3.983   0.456   3.691 -0.0769  0.1490 -0.2896
 6291SOL    HW130509   3.898   0.455   3.736 -0.4718  0.5445 -1.0328
 6291SOL    HW230510   4.039   0.504   3.752 -0.0048  1.2071 -1.1973
 6292SOL     OW30511   1.622   4.729  10.305  0.5201  0.3744  0.1058
 6292SOL    HW130512   1.697   0.026  10.261  1.1064  0.0315  0.7943
 6292SOL    HW230513   1.586   4.672  10.237  1.1210  0.3314 -0.1796
 6293SOL     OW30514   1.756   0.432   1.515  0.7089 -0.4561 -0.0225
 6293SOL    HW130515   1.792   0.521   1.513 -0.1890 -0.0860  0.2129
 6293SOL    HW230516   1.746   0.426   1.420 -0.0287 -0.6943  0.0742
 6294SOL     OW30517   3.420   3.282   2.660 -0.4168  0.1389  0.2181
 6294SOL    HW130518   3.483   3.343   2.620 -1.6722  0.5776 -1.1070
 6294SOL    HW230519   3.475   3.245   2.729 -0.4555 -0.6153 -0.1586
 6295SOL     OW30520   4.561   0.746   9.165 -0.3141 -0.0266 -0.4907
 6295SOL    HW130521   4.558   0.651   9.168  1.9784 -0.1148 -0.9327
 6295SOL    HW230522   4.590   0.769   9.253 -1.3464  0.2067 -0.2101
 6296SOL     OW30523   0.537   2.714   2.061  0.2093 -0.5189  0.3529
 6296SOL    HW130524   0.626   2.681   2.073 -0.2450 -0.7131  3.2091
 6296SOL    HW230525   0.537   2.783   2.127  1.1583  0.0964 -0.3023
 6297SOL     OW30526   2.200   1.802   2.527 -0.3288 -0.2758 -0.3337
 6297SOL    HW130527   2.220   1.801   2.433 -0.0082 -2.5543 -0.2371
 6297SOL    HW230528   2.275   1.757   2.565 -0.2479 -0.2944 -0.5142
 6298SOL     OW30529   3.227   0.085   9.915  0.7486  0.3069  0.0077
 6298SOL    HW130530   3.216   0.018   9.847  0.5010  0.1092  0.2415
 6298SOL    HW230531   3.180   0.165   9.891  1.4485  0.9232  0.7289
 6299SOL     OW30532   0.117   2.738   2.765  0.2557  0.1141 -0.0394
 6299SOL    HW130533   0.066   2.662   2.795 -1.1560  0.5896 -1.2165
 6299SOL    HW230534   0.198   2.740   2.816  0.0218  0.4394  0.3244
 6300SOL     OW30535   3.650   4.574   6.644  0.4679 -0.1140 -0.0062
 6300SOL    HW130536   3.640   4.665   6.619  1.2536 -0.2082 -0.6371
 6300SOL    HW230537   3.561   4.540   6.651  0.0783  0.6354 -1.5711
 6301SOL     OW30538   3.575   3.877   1.353  0.2283  0.1045  0.1845
 6301SOL    HW130539   3.589   3.919   1.268 -0.0212 -1.2047 -0.5118
 6301SOL    HW230540   3.480   3.882   1.361  0.2178  0.2915 -0.0387
 6302SOL     OW30541   0.319   0.862   9.500  0.4472 -0.0745  0.1892
 6302SOL    HW130542   0.304   0.778   9.543  1.1634 -0.9908 -1.3642
 6302SOL    HW230543   0.280   0.840   9.416  0.8557  1.9546 -0.5410
 6303SOL     OW30544   1.269   2.894   7.607 -0.2172  0.9675  0.0969
 6303SOL    HW130545   1.228   2.914   7.691  0.4120  1.0198  0.3882
 6303SOL    HW230546   1.338   2.830   7.621 -0.1968  0.3850 -2.6974
 6304SOL     OW30547   2.766   4.390  11.251  0.2217  0.0866 -0.0031
 6304SOL    HW130548   2.786   4.310  11.202  0.5985  0.1795  0.0024
 6304SOL    HW230549   2.702   4.440  11.201  0.4777 -0.8433 -1.2666
 6305SOL     OW30550   3.480   3.958   3.802  0.0119  0.6840 -0.3753
 6305SOL    HW130551   3.556   3.900   3.805 -0.5169 -0.1291 -2.6180
 6305SOL    HW230552   3.427   3.903   3.744 -0.5318  0.4177  0.3711
 6306SOL     OW30553   0.288   4.363   3.570  0.4402 -0.5549 -0.3021
 6306SOL    HW130554   0.335   4.314   3.638  2.5578 -0.5786 -1.7915
 6306SOL    HW230555   0.213   4.393   3.622  2.4764  0.8447  1.8201
 6307SOL     OW30556   0.120   4.184   2.620 -0.4516 -0.0395 -0.2334
 6307SOL    HW130557   0.152   4.240   2.550  1.5837  0.6991  1.2988
 6307SOL    HW230558   0.152   4.230   2.697 -1.0404  2.8894 -1.7392
 6308SOL     OW30559   2.625   1.099  15.154 -0.3847  0.0664  0.1341
 6308SOL    HW130560   2.551   1.120  15.211  0.1117 -0.9151  1.1336
 6308SOL    HW230561   2.596   1.133  15.069 -0.8653 -3.0461 -0.9568
 6309SOL     OW30562   4.101   4.533   6.046 -0.4145 -0.2241 -0.1995
 6309SOL    HW130563   4.031   4.489   6.094 -0.7346  2.8150  2.0951
 6309SOL    HW230564   4.156   4.563   6.118  0.3860  0.6109 -1.1457
 6310SOL     OW30565   3.356   4.370  12.547  0.5963 -0.7918 -0.3449
 6310SOL    HW130566   3.411   4.297  12.519 -0.0797 -0.3967 -2.6685
 6310SOL    HW230567   3.406   4.411  12.618 -2.8393 -0.2180  1.7316
 6311SOL     OW30568   2.168   1.552   3.559 -0.3275  0.6220  0.2632
 6311SOL    HW130569   2.201   1.464   3.540 -2.7939 -0.4952  1.1936
 6311SOL    HW230570   2.177   1.594   3.474  1.9497 -0.3479  0.0174
 6312SOL     OW30571   0.757   1.006   5.487  0.3367 -0.8861 -0.0430
 6312SOL    HW130572   0.808   0.939   5.442  1.5665  0.4023 -0.5895
 6312SOL    HW230573   0.822   1.043   5.547 -1.9870  0.0747  1.9107
 6313SOL     OW30574   3.147   2.455   5.870  0.0099  0.2145 -0.2341
 6313SOL    HW130575   3.088   2.529   5.888 -1.4522 -0.2087 -3.2575
 6313SOL    HW230576   3.091   2.394   5.821  0.4671  0.1965 -0.7359
 6314SOL     OW30577   1.530   3.926   8.581  0.3628 -0.0776 -0.2390
 6314SOL    HW130578   1.577   4.010   8.580  2.1331 -1.0605 -0.2025
 6314SOL    HW230579   1.607   3.874   8.556  1.0555  1.5865 -1.5531
 6315SOL     OW30580   0.229   3.005   2.276  0.5456 -0.5607  0.2856
 6315SOL    HW130581   0.154   2.949   2.259  1.1094 -0.5728 -2.2039
 6315SOL    HW230582   0.204   3.078   2.333  1.3578 -0.5836  0.6752
 6316SOL     OW30583   2.535   1.938   2.221  0.6963 -0.1824  0.4400
 6316SOL    HW130584   2.472   1.870   2.199  0.5622  0.7180 -1.8916
 6316SOL    HW230585   2.575   1.961   2.137 -1.6156 -0.1725 -0.6407
 6317SOL     OW30586   4.709   2.520   7.864  0.2989 -0.1563 -0.0365
 6317SOL    HW130587   4.735   2.550   7.777 -3.2983  0.8099 -0.7928
 6317SOL    HW230588   0.033   2.457   7.888  0.1790 -0.1716  0.2585
 6318SOL     OW30589   2.235   2.475   8.875 -0.7591 -1.1310 -0.1763
 6318SOL    HW130590   2.159   2.532   8.879 -1.3554 -1.8582 -0.9814
 6318SOL    HW230591   2.254   2.470   8.781 -1.3466  0.9458 -0.4089
 6319SOL     OW30592   3.865   3.962   8.876 -0.3986  0.3123  0.5458
 6319SOL    HW130593   3.863   3.867   8.881  0.7075  0.4002  2.4954
 6319SOL    HW230594   3.899   3.989   8.962  0.0366 -0.9806  0.7747
 6320SOL     OW30595   4.335   0.800   6.690  0.4333  0.6316  0.0884
 6320SOL    HW130596   4.375   0.865   6.749 -0.2201  0.1427  1.0812
 6320SOL    HW230597   4.375   0.830   6.609  2.6045 -1.8778  0.2294
 6321SOL     OW30598   2.399   3.777   1.508 -0.5426 -0.1818 -0.3999
 6321SOL    HW130599   2.398   3.791   1.603  2.3321 -1.7980 -0.1028
 6321SOL    HW230600   2.419   3.683   1.511  0.2822  0.0297  0.9438
 6322SOL     OW30601   1.174   4.083   9.472 -0.1909  0.4965 -0.2827
 6322SOL    HW130602   1.126   4.140   9.532 -0.7295 -0.1264 -0.1284
 6322SOL    HW230603   1.157   4.000   9.516 -0.3508  0.6645 -0.0302
 6323SOL     OW30604   0.226   0.750   6.938 -0.8775  1.0161  0.3259
 6323SOL    HW130605   0.204   0.798   6.858 -2.9454 -1.0497 -0.3437
 6323SOL    HW230606   0.138   0.716   6.952 -1.3846  2.7049  1.2157
 6324SOL     OW30607   3.883   0.707   6.885 -0.2617  0.0409 -0.7338
 6324SOL    HW130608   3.971   0.686   6.854  0.2367  2.3645 -0.8965
 6324SOL    HW230609   3.873   0.638   6.951 -0.4573 -0.5972 -1.4291
 6325SOL     OW30610   0.264   1.720   9.214 -0.0182  0.3645  0.2600
 6325SOL    HW130611   0.250   1.802   9.165  0.2483  0.6674  0.6898
 6325SOL    HW230612   0.179   1.678   9.199 -0.8772  0.8948  3.5205
 6326SOL     OW30613   0.956   0.945   6.855  0.0178  0.8177  0.0465
 6326SOL    HW130614   0.963   0.936   6.950 -1.4011  0.4520  0.1161
 6326SOL    HW230615   1.046   0.963   6.826  0.0205  1.5664  0.5192
 6327SOL     OW30616   0.740   4.474   2.067 -0.1969  1.1880  0.6444
 6327SOL    HW130617   0.647   4.490   2.056 -0.5022 -0.0777  1.4839
 6327SOL    HW230618   0.774   4.535   2.001 -1.2323  0.7202 -0.3016
 6328SOL     OW30619   1.116   0.829   4.109 -0.1253  0.0289  0.1348
 6328SOL    HW130620   1.025   0.827   4.080  0.1658  1.8796 -0.8753
 6328SOL    HW230621   1.163   0.773   4.048  1.7465  1.4318  0.3091
 6329SOL     OW30622   0.549   3.447  15.384 -0.0613 -0.3386 -0.1632
 6329SOL    HW130623   0.544   3.538  15.354  2.1465  0.4326  1.8020
 6329SOL    HW230624   0.643   3.432  15.397 -0.1502  2.4719  3.6415
 6330SOL     OW30625   3.335   3.748  16.929  0.4238 -0.2591  0.3565
 6330SOL    HW130626   3.319   3.739  17.023  1.1254  2.3453  0.7347
 6330SOL    HW230627   3.347   3.843  16.918  0.6609  0.1294  4.1387
 6331SOL     OW30628   1.908   0.860   2.703 -0.0941  0.0691  0.1378
 6331SOL    HW130629   1.940   0.770   2.698  3.6075  1.5135 -2.1508
 6331SOL    HW230630   1.961   0.886   2.778 -0.3509  2.2704 -0.4425
 6332SOL     OW30631   3.081   2.736   1.292 -0.2778 -0.4993 -0.4381
 6332SOL    HW130632   2.994   2.717   1.327 -0.1626 -0.6091 -0.2132
 6332SOL    HW230633   3.058   2.773   1.207 -2.3497  0.3177  0.4860
 6333SOL     OW30634   2.378   3.766  17.444  0.7718  0.1773 -0.1658
 6333SOL    HW130635   2.309   3.700  17.457  0.4068  0.8637  1.4309
 6333SOL    HW230636   2.331   3.844  17.473  2.4367  0.5791  1.4204
 6334SOL     OW30637   2.031   0.925   9.352 -0.0189 -0.6309  0.1765
 6334SOL    HW130638   2.080   0.942   9.432  0.3737 -0.7966 -0.0282
 6334SOL    HW230639   2.080   0.846   9.330  2.2684  1.5822 -2.6603
 6335SOL     OW30640   1.709   1.970  14.036  0.3904  0.6469  0.2788
 6335SOL    HW130641   1.802   1.950  14.050  0.5012 -0.1411 -1.6148
 6335SOL    HW230642   1.690   2.013  14.119  1.8386  0.1002  0.8924
 6336SOL     OW30643   0.767   1.746  14.649 -0.5851 -0.7172  0.3537
 6336SOL    HW130644   0.781   1.679  14.582 -0.5919 -1.9042  1.5148
 6336SOL    HW230645   0.671   1.748  14.651 -0.5570  0.0950  0.9917
 6337SOL     OW30646   0.939   0.264   9.615 -0.2701  0.2756  0.9146
 6337SOL    HW130647   1.005   0.273   9.684  0.5884  0.0458  0.1170
 6337SOL    HW230648   0.899   0.350   9.607 -2.5397 -0.5747  2.9208
 6338SOL     OW30649   4.686   0.799   3.991  0.2233 -0.3106 -0.3932
 6338SOL    HW130650   4.660   0.714   3.956 -1.2708  0.2043 -0.5276
 6338SOL    HW230651   4.704   0.854   3.914 -0.0739 -1.0603 -1.0018
 6339SOL     OW30652   2.508   1.228  15.366  0.4060  0.1546  0.3740
 6339SOL    HW130653   2.588   1.280  15.360  0.8112 -0.2762  2.2147
 6339SOL    HW230654   2.503   1.206  15.459  2.1921  0.5340  0.5587
 6340SOL     OW30655   1.331   3.220   2.263 -0.3168  0.0562 -0.2214
 6340SOL    HW130656   1.294   3.306   2.281 -2.1365 -0.9303  0.7767
 6340SOL    HW230657   1.371   3.187   2.344 -1.7082  0.0781  0.4804
 6341SOL     OW30658   4.319   3.813  17.543 -0.1618  0.6095 -0.7845
 6341SOL    HW130659   4.387   3.875  17.513 -0.3167 -0.0671 -2.5659
 6341SOL    HW230660   4.257   3.868  17.590  0.3939 -0.7095  1.4523
 6342SOL     OW30661   3.055   0.519   8.211  0.5327  0.0386 -0.1065
 6342SOL    HW130662   3.079   0.523   8.303 -0.8801 -1.3658  0.3170
 6342SOL    HW230663   3.044   0.425   8.196 -0.2326 -0.2602  2.3588
 6343SOL     OW30664   3.248   1.033  16.396 -0.2350 -0.0959  0.2116
 6343SOL    HW130665   3.230   0.939  16.394  1.9397 -0.5208 -0.0347
 6343SOL    HW230666   3.297   1.037  16.478  2.0803 -2.1489 -1.0702
 6344SOL     OW30667   4.369   3.208   5.982 -0.2364  0.3231  0.3364
 6344SOL    HW130668   4.429   3.152   6.033  0.4699  0.3134 -0.4935
 6344SOL    HW230669   4.427   3.282   5.966  0.6185 -0.9167 -2.3643
 6345SOL     OW30670   3.758   2.930  14.402  0.1628 -0.2788 -0.1670
 6345SOL    HW130671   3.713   2.847  14.387 -0.5540 -0.3749  2.5630
 6345SOL    HW230672   3.767   2.954  14.310 -0.3711  0.9842  0.1067
 6346SOL     OW30673   2.081   3.054   4.755  0.0488  0.3601  0.3706
 6346SOL    HW130674   2.151   3.063   4.690  0.9582 -0.1719  1.2740
 6346SOL    HW230675   2.070   2.960   4.762  0.5830  0.0938 -2.4650
 6347SOL     OW30676   3.169   1.999   5.402  0.0706  0.4043  0.1859
 6347SOL    HW130677   3.226   2.031   5.333 -1.5643  1.5184 -0.6548
 6347SOL    HW230678   3.230   1.948   5.455 -1.1876  0.5215  1.7666
 6348SOL     OW30679   2.419   0.404  12.599  0.4362  0.8016  0.4576
 6348SOL    HW130680   2.512   0.382  12.591  0.4392  0.6516  0.9200
 6348SOL    HW230681   2.407   0.464  12.525 -1.4556  1.1531  1.0544
 6349SOL     OW30682   1.291   0.817  17.697 -0.4330  0.4148 -0.0559
 6349SOL    HW130683   1.243   0.844  17.618  1.1508 -1.1270 -1.5506
 6349SOL    HW230684   1.252   0.889  17.746 -0.4628  0.4755 -0.1695
 6350SOL     OW30685   2.354   0.873   9.083 -0.2618  0.2404  0.3839
 6350SOL    HW130686   2.364   0.796   9.139 -2.1525 -2.2442 -2.6888
 6350SOL    HW230687   2.306   0.838   9.008  1.0972 -1.3057  0.2538
 6351SOL     OW30688   4.367   1.135  10.821  0.1658 -0.4744  1.0149
 6351SOL    HW130689   4.306   1.078  10.775  0.3579 -0.1142  0.3008
 6351SOL    HW230690   4.309   1.189  10.875  0.6263  1.5681 -0.5163
 6352SOL     OW30691   0.428   3.283  11.044 -0.0556 -0.1578 -0.3626
 6352SOL    HW130692   0.502   3.270  10.986  1.3956  0.8171  1.2726
 6352SOL    HW230693   0.464   3.334  11.116  0.5532 -1.6746  0.4119
 6353SOL     OW30694   0.201   1.945  17.638  0.0467 -0.1748  0.2299
 6353SOL    HW130695   0.235   1.994  17.563 -2.6605 -0.8765 -1.4599
 6353SOL    HW230696   0.107   1.960  17.625  0.0524 -0.0239  0.3594
 6354SOL     OW30697   0.667   0.401   6.385 -0.1867 -0.6712 -0.6670
 6354SOL    HW130698   0.673   0.496   6.397  1.2869 -0.8430  0.0669
 6354SOL    HW230699   0.758   0.381   6.361 -0.1868 -0.0906 -1.1407
 6355SOL     OW30700   1.752   0.742   1.504  0.3602  0.4493 -0.3586
 6355SOL    HW130701   1.713   0.751   1.591  1.6083 -0.0998  0.2398
 6355SOL    HW230702   1.821   0.806   1.520  1.1656 -0.3682 -0.5546
 6356SOL     OW30703   3.080   3.745  14.149  0.9283  0.0118 -0.0076
 6356SOL    HW130704   3.153   3.744  14.087  0.8512 -0.7135 -0.0962
 6356SOL    HW230705   3.130   3.770  14.226 -1.4994  2.7182  0.6732
 6357SOL     OW30706   2.433   1.014   6.486  0.2010 -0.6172  0.1537
 6357SOL    HW130707   2.525   1.039   6.484 -0.1283  0.7192  1.9573
 6357SOL    HW230708   2.400   1.072   6.554  0.0355  0.0799 -0.5119
 6358SOL     OW30709   0.726   0.336   3.016 -0.2653 -1.0541  0.3243
 6358SOL    HW130710   0.670   0.377   3.081 -1.7555 -1.2658 -0.8283
 6358SOL    HW230711   0.712   0.407   2.954  0.6093 -0.6430  0.5971
 6359SOL     OW30712   3.527   3.724   8.206 -0.4838  0.1666 -0.0001
 6359SOL    HW130713   3.514   3.791   8.273  2.4010  0.8659 -0.1623
 6359SOL    HW230714   3.559   3.770   8.129  2.8236 -1.3170  0.5115
 6360SOL     OW30715   1.387   0.524   8.913  0.0604  0.7650  0.5165
 6360SOL    HW130716   1.358   0.610   8.942  0.1468  0.3771  1.7566
 6360SOL    HW230717   1.416   0.489   8.998 -0.7486 -1.4779 -0.1265
 6361SOL     OW30718   1.313   0.493   5.186  0.0863  0.5570 -0.0122
 6361SOL    HW130719   1.391   0.437   5.184 -1.0520 -1.0872  1.7623
 6361SOL    HW230720   1.297   0.490   5.280  0.4426 -1.5361 -0.0079
 6362SOL     OW30721   2.300   0.204   5.010  0.4382 -0.2340 -0.0335
 6362SOL    HW130722   2.372   0.177   5.067 -0.3433  2.4272  2.1893
 6362SOL    HW230723   2.225   0.193   5.068  0.2828  1.5622  0.0926
 6363SOL     OW30724   4.478   3.443  15.774  0.3567 -0.1024  0.3044
 6363SOL    HW130725   4.565   3.409  15.798 -0.3833 -1.1937  1.4443
 6363SOL    HW230726   4.478   3.438  15.679  2.0636  2.4223  0.1396
 6364SOL     OW30727   3.029   0.826   2.275 -0.0200  0.1998 -0.5421
 6364SOL    HW130728   3.106   0.789   2.319 -0.0546  0.1426 -0.5311
 6364SOL    HW230729   3.028   0.772   2.196  0.7455 -0.9062  0.2073
 6365SOL     OW30730   4.191   2.237   6.174 -0.1987 -0.1735  0.0648
 6365SOL    HW130731   4.128   2.226   6.103  2.1556 -1.1944 -1.8919
 6365SOL    HW230732   4.227   2.323   6.153  1.7185 -1.1590 -0.7890
 6366SOL     OW30733   4.429   0.490   9.259 -1.3750 -0.5772 -0.1787
 6366SOL    HW130734   4.408   0.469   9.167 -0.4535 -2.8357  0.1276
 6366SOL    HW230735   4.522   0.471   9.266 -1.2375 -0.3579 -1.2981
 6367SOL     OW30736   0.592   2.126   1.756  0.4964 -0.5226  0.5683
 6367SOL    HW130737   0.564   2.039   1.784  0.1774 -0.0667  1.6800
 6367SOL    HW230738   0.611   2.178   1.835 -0.9125  1.0155 -0.0913
 6368SOL     OW30739   2.888   3.934   3.302  0.2011  0.0093  0.2637
 6368SOL    HW130740   2.802   3.897   3.323  1.0105 -2.2315 -0.3977
 6368SOL    HW230741   2.868   4.026   3.283  0.0920 -0.5755 -2.4617
 6369SOL     OW30742   2.274   2.987   0.259 -0.4531  0.0100 -0.0818
 6369SOL    HW130743   2.318   2.903   0.274 -0.4160 -0.1023 -0.8635
 6369SOL    HW230744   2.347   3.043   0.233  0.6153  0.2743  3.4586
 6370SOL     OW30745   1.591   4.381   9.142 -0.0579 -0.0999 -0.3476
 6370SOL    HW130746   1.615   4.296   9.179  0.0393  0.7726  1.6056
 6370SOL    HW230747   1.656   4.383   9.072  0.2761 -2.1634 -0.0792
 6371SOL     OW30748   3.944   3.721   5.294 -0.6512 -0.0319  0.3404
 6371SOL    HW130749   3.863   3.761   5.326 -0.8698  0.6489 -1.0961
 6371SOL    HW230750   3.923   3.669   5.216  0.8415  0.4449 -0.3595
 6372SOL     OW30751   2.240   4.026   8.055 -0.1820 -0.2489  0.1597
 6372SOL    HW130752   2.334   4.006   8.053  0.3339  2.0941  0.3553
 6372SOL    HW230753   2.213   3.977   8.132  0.5384 -1.4523 -0.3562
 6373SOL     OW30754   2.524   0.209   7.975  0.5970 -0.9059  0.3279
 6373SOL    HW130755   2.588   0.139   7.986  1.1495 -0.5586 -0.7021
 6373SOL    HW230756   2.527   0.256   8.059 -1.0119 -0.6324  0.2228
 6374SOL     OW30757   0.642   4.298   7.144 -0.2121 -0.0677 -0.2318
 6374SOL    HW130758   0.670   4.289   7.235  1.4027 -0.5035 -0.7751
 6374SOL    HW230759   0.676   4.216   7.110  2.3285  0.3739  1.2066
 6375SOL     OW30760   2.922   1.266   6.482 -0.3244  0.2640  0.6435
 6375SOL    HW130761   2.886   1.326   6.549  2.3170 -0.8651  3.0628
 6375SOL    HW230762   3.003   1.311   6.459 -1.8408  2.8500  0.2950
 6376SOL     OW30763   4.465   4.495   7.548 -0.1281  0.1232 -0.3445
 6376SOL    HW130764   4.446   4.436   7.475 -2.8511  1.1240 -0.4676
 6376SOL    HW230765   4.560   4.487   7.546 -0.3239 -1.5655 -3.6265
 6377SOL     OW30766   1.939   4.043   1.245 -0.0342 -0.2344  0.0641
 6377SOL    HW130767   2.030   4.041   1.215  0.4277 -0.4076  1.4957
 6377SOL    HW230768   1.894   3.968   1.207  1.3725 -2.7844  3.4407
 6378SOL     OW30769   3.530   0.722   2.739 -0.3263 -0.7854 -0.9176
 6378SOL    HW130770   3.615   0.765   2.752 -0.7049  0.0769 -1.2435
 6378SOL    HW230771   3.527   0.645   2.795  0.6702  0.6947  1.1930
 6379SOL     OW30772   3.182   2.377  15.622 -0.2794  0.6983  0.3197
 6379SOL    HW130773   3.264   2.384  15.573 -0.0166  0.6645  0.7591
 6379SOL    HW230774   3.218   2.398  15.708  0.1596 -1.0516  0.5579
 6380SOL     OW30775   1.507   3.179   5.480 -0.1748 -0.1156 -0.1673
 6380SOL    HW130776   1.561   3.125   5.422  0.8846  2.1105 -1.2200
 6380SOL    HW230777   1.429   3.125   5.495 -0.0633 -0.4417 -0.7521
 6381SOL     OW30778   2.332   1.277  13.616 -0.4549 -0.1046 -0.3706
 6381SOL    HW130779   2.238   1.259  13.617 -0.4264 -0.0866  1.9517
 6381SOL    HW230780   2.342   1.351  13.676  0.0642  0.5430 -1.2646
 6382SOL     OW30781   1.177   0.170  12.441  0.2419  0.2553  0.0453
 6382SOL    HW130782   1.196   0.264  12.451 -1.9171  0.7540 -0.4324
 6382SOL    HW230783   1.085   0.177  12.467  0.9107  0.1640  2.4302
 6383SOL     OW30784   0.817   2.674   2.237 -0.1266 -0.1001  0.4442
 6383SOL    HW130785   0.843   2.597   2.186 -0.0873  1.1666 -1.4708
 6383SOL    HW230786   0.753   2.634   2.295  1.9524 -3.3235  0.5432
 6384SOL     OW30787   3.822   3.675   4.151  0.2481  0.1288 -0.4447
 6384SOL    HW130788   3.784   3.587   4.158  0.8155 -0.0797  0.0600
 6384SOL    HW230789   3.842   3.691   4.243 -1.8348  2.2476 -0.3558
 6385SOL     OW30790   0.380   4.167  13.060  0.5879 -0.1837  0.3475
 6385SOL    HW130791   0.364   4.114  12.982 -1.9319  1.6617 -0.3773
 6385SOL    HW230792   0.474   4.184  13.063  0.8808 -1.3169 -2.7996
 6386SOL     OW30793   0.262   2.576   3.499  0.1113  0.1192 -0.1147
 6386SOL    HW130794   0.197   2.628   3.452  0.2145 -0.2679 -0.6828
 6386SOL    HW230795   0.275   2.512   3.429 -2.6691 -0.5119 -0.0652
 6387SOL     OW30796   0.815   4.604  15.483  0.0876 -0.1700 -0.5246
 6387SOL    HW130797   0.860   4.685  15.458 -3.4013  2.4570  1.7319
 6387SOL    HW230798   0.732   4.608  15.435 -0.1776  2.5437  0.1545
 6388SOL     OW30799   4.326   2.305   7.804 -0.5242 -0.6828 -0.1103
 6388SOL    HW130800   4.355   2.378   7.860 -0.3508  1.0705 -2.5144
 6388SOL    HW230801   4.407   2.287   7.757 -1.1476 -1.5568 -0.8586
 6389SOL     OW30802   0.448   3.516  12.728 -0.8623 -0.1458 -0.1201
 6389SOL    HW130803   0.521   3.474  12.683 -1.9250  0.4496 -2.3650
 6389SOL    HW230804   0.381   3.497  12.662  0.4729 -1.8469 -0.9968
 6390SOL     OW30805   4.352   2.791  17.061 -0.8206  0.5274  0.4993
 6390SOL    HW130806   4.418   2.804  16.993 -2.4253 -0.8663 -1.3482
 6390SOL    HW230807   4.299   2.725  17.016  0.1805 -0.2817  0.4996
 6391SOL     OW30808   3.016   4.664   2.082 -0.1512 -0.4227  0.1800
 6391SOL    HW130809   2.953   4.595   2.063  1.1558 -1.4727 -0.3332
 6391SOL    HW230810   3.096   4.623   2.048  0.1082  0.0798  0.1825
 6392SOL     OW30811   0.077   3.504   2.732  0.2911 -0.6741 -0.2281
 6392SOL    HW130812   0.135   3.550   2.671  0.3543 -1.7465 -0.9739
 6392SOL    HW230813   4.735   3.546   2.727  0.5964 -0.1295 -0.9321
 6393SOL     OW30814   2.010   1.695   1.825 -0.3865  0.0064  0.0437
 6393SOL    HW130815   1.918   1.720   1.816  0.3533  1.9730 -1.9332
 6393SOL    HW230816   1.995   1.602   1.842  0.3148  0.0580  0.9612
 6394SOL     OW30817   1.905   1.785   9.110 -0.3343  0.5622 -0.2851
 6394SOL    HW130818   1.812   1.781   9.088 -0.9129  0.6190  2.1459
 6394SOL    HW230819   1.917   1.707   9.164  0.1898  0.5880 -0.3627
 6395SOL     OW30820   1.806   3.143  12.904 -0.2528  0.0763 -0.0146
 6395SOL    HW130821   1.844   3.228  12.923 -0.1170 -0.4718  2.1803
 6395SOL    HW230822   1.714   3.168  12.891  0.0145  0.3488 -1.3717
 6396SOL     OW30823   2.669   4.732   7.445 -0.5465  0.0023 -0.2423
 6396SOL    HW130824   2.684   4.711   7.537 -1.7517 -0.3911 -0.1333
 6396SOL    HW230825   2.673   0.083   7.450  0.8323  0.0614 -2.5824
 6397SOL     OW30826   1.542   2.352   7.648  0.0326  0.7678 -0.0919
 6397SOL    HW130827   1.603   2.354   7.722  0.0934 -0.9625 -0.0953
 6397SOL    HW230828   1.579   2.278   7.600 -1.9574 -0.6855  0.6258
 6398SOL     OW30829   0.673   1.902   2.256  0.0033 -0.1759  0.2350
 6398SOL    HW130830   0.692   1.965   2.186  1.9598 -2.3014 -1.1604
 6398SOL    HW230831   0.671   1.960   2.332 -1.4748 -0.5330  0.4622
 6399SOL     OW30832   3.692   4.354   2.504  0.6899 -0.0165  0.4559
 6399SOL    HW130833   3.600   4.365   2.479  0.4479  0.0919  1.3748
 6399SOL    HW230834   3.719   4.446   2.496  0.2262  0.0550 -0.3731
 6400SOL     OW30835   1.315   2.212   6.530  0.2596 -0.2501 -0.0698
 6400SOL    HW130836   1.385   2.211   6.464  1.0309  1.4052  0.7018
 6400SOL    HW230837   1.260   2.285   6.502 -1.2895 -0.0895  3.4268
 6401SOL     OW30838   2.456   0.182   2.673 -0.1663  0.5847  0.1786
 6401SOL    HW130839   2.374   0.203   2.719  0.1062  2.0327  0.0182
 6401SOL    HW230840   2.473   0.091   2.697  0.0498  0.5546 -0.1006
 6402SOL     OW30841   3.620   4.272   7.098  0.5361  0.0427  0.2018
 6402SOL    HW130842   3.655   4.359   7.077  1.3194 -0.0889  0.9961
 6402SOL    HW230843   3.535   4.269   7.053  0.1772  1.0693  0.8137
 6403SOL     OW30844   0.282   1.751   7.431 -0.1179  0.5302 -0.3539
 6403SOL    HW130845   0.324   1.706   7.358  0.9503 -0.7508  1.0468
 6403SOL    HW230846   0.201   1.701   7.434  0.0310  0.3289  0.2659
 6404SOL     OW30847   1.525   3.724   9.710 -0.6504  0.1787  0.3703
 6404SOL    HW130848   1.561   3.697   9.625 -3.1978  0.6638 -0.8678
 6404SOL    HW230849   1.606   3.761   9.743  0.8351 -2.2933 -0.5240
 6405SOL     OW30850   0.660   0.849   9.031  0.2415 -0.4504 -0.0464
 6405SOL    HW130851   0.736   0.901   9.005  0.0189 -0.9192 -1.6578
 6405SOL    HW230852   0.628   0.813   8.948  0.3403  0.6987 -0.5861
 6406SOL     OW30853   1.381   2.791  17.376 -0.6423  0.4238 -0.4811
 6406SOL    HW130854   1.357   2.836  17.458  0.9164  2.0016 -0.8846
 6406SOL    HW230855   1.399   2.861  17.313 -0.7258  0.0131 -0.9577
 6407SOL     OW30856   2.830   0.355   2.823 -0.1525  0.2496  0.7558
 6407SOL    HW130857   2.816   0.288   2.756  1.4580 -1.1001  1.7720
 6407SOL    HW230858   2.864   0.317   2.904  3.2122  0.0733 -0.7515
 6408SOL     OW30859   4.671   1.394  14.052  0.5735 -0.4279 -0.0998
 6408SOL    HW130860   4.735   1.390  13.982  0.0368 -0.9278 -0.5628
 6408SOL    HW230861   4.722   1.400  14.133 -1.4048  3.1923  0.9252
 6409SOL     OW30862   4.114   2.539   1.109 -0.2739 -0.1359 -0.2220
 6409SOL    HW130863   4.043   2.474   1.101  0.7954 -1.7491  3.5476
 6409SOL    HW230864   4.075   2.590   1.179  1.0233  1.3502 -0.5853
 6410SOL     OW30865   3.472   3.327   6.177 -0.0265  0.3241 -0.0899
 6410SOL    HW130866   3.391   3.277   6.185 -0.5877  1.4518  1.1159
 6410SOL    HW230867   3.538   3.265   6.208  0.4810  0.5455 -0.7262
 6411SOL     OW30868   0.938   3.683  14.575 -0.1121 -0.2741  0.1833
 6411SOL    HW130869   0.931   3.748  14.646 -1.7759 -0.0024 -0.2432
 6411SOL    HW230870   0.999   3.730  14.518  1.6414 -3.8495 -0.8775
 6412SOL     OW30871   0.209   4.530  14.054 -0.1255  0.4134  0.1214
 6412SOL    HW130872   0.249   4.568  14.133 -1.1556  1.1872  0.2557
 6412SOL    HW230873   0.158   4.607  14.031 -0.4826  0.0610 -0.2619
 6413SOL     OW30874   4.310   0.823   2.999  0.1739  0.2736 -0.0366
 6413SOL    HW130875   4.259   0.896   2.962  1.0231  1.0424  0.2943
 6413SOL    HW230876   4.343   0.856   3.083 -0.6008  1.6720 -0.2674
 6414SOL     OW30877   3.116   2.194   6.485 -0.1664  0.3440  0.2063
 6414SOL    HW130878   3.195   2.243   6.506  1.5814 -1.9828 -0.9087
 6414SOL    HW230879   3.048   2.250   6.522  0.9014  0.8586  1.4001
 6415SOL     OW30880   3.595   3.554   3.074 -0.2087  0.7314 -0.4344
 6415SOL    HW130881   3.604   3.648   3.084 -0.5097  0.6386  0.7471
 6415SOL    HW230882   3.582   3.521   3.163  0.6946 -1.6512 -1.1800
 6416SOL     OW30883   3.237   4.087   6.315  0.3443  0.3284  0.2254
 6416SOL    HW130884   3.224   4.089   6.409  0.7417 -1.8114  0.3426
 6416SOL    HW230885   3.149   4.109   6.286  0.9776 -0.2190 -2.1353
 6417SOL     OW30886   1.289   0.227  10.370  0.1848 -0.5159  0.0751
 6417SOL    HW130887   1.243   0.261  10.448  0.6425 -0.9721  0.5458
 6417SOL    HW230888   1.236   0.154  10.338 -0.4259 -0.0181 -0.0511
 6418SOL     OW30889   0.552   3.351  16.888 -0.0195  0.1080  0.0236
 6418SOL    HW130890   0.589   3.277  16.840  0.2864 -0.3255  0.9235
 6418SOL    HW230891   0.631   3.403  16.904 -0.5562  0.4616  1.4790
 6419SOL     OW30892   3.740   3.943  16.292 -0.2956  0.4001  0.2799
 6419SOL    HW130893   3.736   4.031  16.254  1.7528  0.4985  0.2673
 6419SOL    HW230894   3.790   3.957  16.373 -0.0066 -0.0898  0.1882
 6420SOL     OW30895   1.131   3.129  17.069  0.5797 -0.3870  0.2374
 6420SOL    HW130896   1.146   3.210  17.019 -1.1742  0.8522  1.6980
 6420SOL    HW230897   1.192   3.065  17.033 -0.1762  0.2078 -2.1325
 6421SOL     OW30898   1.132   1.296   7.971 -0.1055  0.1109 -0.4801
 6421SOL    HW130899   1.218   1.283   8.011  0.3141  0.6930 -1.1827
 6421SOL    HW230900   1.095   1.208   7.970  1.0389 -0.3836  0.7360
 6422SOL     OW30901   3.438   2.508   3.592  1.1411 -0.5207 -0.1858
 6422SOL    HW130902   3.466   2.598   3.609 -1.2126  0.4392 -1.3006
 6422SOL    HW230903   3.408   2.481   3.679 -0.6345 -1.7742 -1.1754
 6423SOL     OW30904   1.470   2.921   4.307  0.3972  0.4456  0.7096
 6423SOL    HW130905   1.521   2.895   4.230 -3.6031  0.5419 -1.9472
 6423SOL    HW230906   1.521   2.993   4.345 -1.8840  1.5773  1.6759
 6424SOL     OW30907   3.067   3.940  16.100 -0.1067  0.2456  0.1234
 6424SOL    HW130908   3.126   3.980  16.037  1.1179  0.4896  1.4202
 6424SOL    HW230909   3.112   3.858  16.119 -1.5846 -0.4333  0.7284
 6425SOL     OW30910   3.948   3.708  14.877 -0.0157  0.4653 -0.3418
 6425SOL    HW130911   3.980   3.645  14.942  0.6057 -1.4748 -2.5201
 6425SOL    HW230912   3.861   3.674  14.857  0.1532  0.3076 -0.8228
 6426SOL     OW30913   0.069   4.376   4.780 -0.4113 -0.5713  0.4123
 6426SOL    HW130914   0.073   4.447   4.844  1.0580  0.6969 -1.0713
 6426SOL    HW230915   0.161   4.353   4.763 -0.3264 -0.0174  0.1142
 6427SOL     OW30916   3.311   3.142   1.706  0.3447  0.0398  0.1546
 6427SOL    HW130917   3.306   3.053   1.742 -0.8925  0.6638  1.5003
 6427SOL    HW230918   3.326   3.197   1.783  1.1960 -0.7934  0.5891
 6428SOL     OW30919   0.451   0.409   3.373  0.2096  0.0250 -0.4930
 6428SOL    HW130920   0.458   0.325   3.328 -1.6720  0.1085 -0.9626
 6428SOL    HW230921   0.490   0.399   3.460  0.5722  1.5471 -0.4819
 6429SOL     OW30922   1.397   2.772   4.020  0.3722 -0.0742  0.3736
 6429SOL    HW130923   1.433   2.856   3.992 -0.7217 -0.0559 -0.9549
 6429SOL    HW230924   1.313   2.771   3.975  1.4770 -0.5934 -1.6818
 6430SOL     OW30925   3.889   3.874   9.526 -0.2577  0.1234  0.3173
 6430SOL    HW130926   3.854   3.839   9.608 -2.3171 -0.0383 -0.6295
 6430SOL    HW230927   3.899   3.792   9.478 -3.3565 -0.2778  0.3297
 6431SOL     OW30928   2.546   2.523   3.021  0.1386 -0.6909  0.3614
 6431SOL    HW130929   2.560   2.437   3.061  2.0790 -0.1352  0.8262
 6431SOL    HW230930   2.531   2.501   2.929  1.2268  1.8802 -0.4314
 6432SOL     OW30931   4.011   0.496   3.154  0.5739 -0.9251  0.3326
 6432SOL    HW130932   3.954   0.425   3.124  0.9509 -1.5270  1.0551
 6432SOL    HW230933   3.982   0.507   3.245 -0.9004 -0.9043 -0.1386
 6433SOL     OW30934   3.994   1.489   6.938  0.2944 -0.8207 -0.3010
 6433SOL    HW130935   4.062   1.476   6.873  0.9378  0.0283  0.2055
 6433SOL    HW230936   3.929   1.420   6.926 -0.3934  0.0019 -1.4254
 6434SOL     OW30937   0.606   3.704  12.169  0.3623 -0.1638 -0.3476
 6434SOL    HW130938   0.572   3.780  12.122 -0.4578 -0.1802  0.2055
 6434SOL    HW230939   0.699   3.725  12.162  0.5676 -0.8491  0.2680
 6435SOL     OW30940   0.754   3.460   2.658 -0.7866 -0.0672  0.1127
 6435SOL    HW130941   0.673   3.422   2.623 -0.4754 -0.7913  0.2017
 6435SOL    HW230942   0.719   3.546   2.682 -3.6200 -1.1891  0.0084
 6436SOL     OW30943   0.264   4.411   7.841  0.4859  0.0009 -0.3960
 6436SOL    HW130944   0.335   4.379   7.897 -0.2045 -0.3683  0.2625
 6436SOL    HW230945   0.307   4.488   7.803 -0.4339  1.6464  1.8875
 6437SOL     OW30946   1.122   0.272   4.109 -0.4644 -0.5238  0.0524
 6437SOL    HW130947   1.076   0.213   4.168 -0.6780 -1.4929 -1.0711
 6437SOL    HW230948   1.144   0.337   4.176  1.6212 -0.5165 -0.6442
 6438SOL     OW30949   3.418   3.561   6.613  0.0809  0.4907  0.4684
 6438SOL    HW130950   3.492   3.611   6.578 -0.0467  0.9234  0.8180
 6438SOL    HW230951   3.437   3.472   6.584  2.0669  1.0240  0.1038
 6439SOL     OW30952   1.159   0.593   0.880 -0.6771  0.0450 -0.0287
 6439SOL    HW130953   1.146   0.500   0.897 -0.2126 -0.1112 -0.5692
 6439SOL    HW230954   1.116   0.629   0.958  0.8409  3.7213 -0.8799
 6440SOL     OW30955   1.224   1.944   6.841 -0.1285  0.1479 -0.1274
 6440SOL    HW130956   1.185   1.986   6.765 -2.8550 -0.3853  0.9901
 6440SOL    HW230957   1.201   1.851   6.832  0.8797 -0.1304  0.1280
 6441SOL     OW30958   1.389   3.765   3.503  0.4316  0.3305 -0.3917
 6441SOL    HW130959   1.414   3.840   3.448  0.3371  0.4204 -0.3130
 6441SOL    HW230960   1.477   3.729   3.511  0.4113  0.5871  0.9953
 6442SOL     OW30961   0.080   4.394   6.909 -0.2145  0.3119  0.2365
 6442SOL    HW130962   4.735   4.429   6.896 -0.9121 -1.9737 -1.0926
 6442SOL    HW230963   0.077   4.319   6.849 -1.4735 -1.6660  2.7691
 6443SOL     OW30964   2.970   1.591   9.045  0.1166  0.0591 -0.0478
 6443SOL    HW130965   3.038   1.647   9.081 -0.9201 -0.0703  2.0796
 6443SOL    HW230966   2.913   1.588   9.122  1.1475 -0.6793  0.6910
 6444SOL     OW30967   2.054   2.443   7.095 -0.2983 -0.0264  0.3086
 6444SOL    HW130968   2.093   2.382   7.033 -0.3325  2.1721 -1.8497
 6444SOL    HW230969   2.064   2.398   7.179 -1.7643  0.1725  0.5951
 6445SOL     OW30970   3.639   4.153   6.688 -0.0092  0.4385 -0.7383
 6445SOL    HW130971   3.657   4.072   6.734 -1.4105  0.7774  0.4162
 6445SOL    HW230972   3.545   4.151   6.706  0.0024 -0.0742 -0.7448
 6446SOL     OW30973   3.234   1.525   4.255 -0.4240  0.3044  0.4375
 6446SOL    HW130974   3.159   1.584   4.249 -0.2238  0.7901  2.4786
 6446SOL    HW230975   3.282   1.546   4.176 -1.1810 -2.7982 -0.8428
 6447SOL     OW30976   0.166   2.965   6.546  0.4520  0.4940 -0.2432
 6447SOL    HW130977   0.148   3.048   6.591 -1.8278 -0.4851  0.6690
 6447SOL    HW230978   0.136   2.991   6.459  0.6918  0.1130 -0.4376
 6448SOL     OW30979   3.053   1.875   1.422  0.0320 -0.2768  0.4583
 6448SOL    HW130980   2.969   1.906   1.390  1.1992  2.5792  0.1265
 6448SOL    HW230981   3.067   1.793   1.373 -0.9026 -0.5645  0.6889
 6449SOL     OW30982   1.598   4.604   1.906  0.2227 -0.0600  0.1675
 6449SOL    HW130983   1.628   4.518   1.937  0.0633  0.5666  2.0982
 6449SOL    HW230984   1.600   4.588   1.812 -1.5739  0.7292  0.0018
 6450SOL     OW30985   1.718   4.180  11.293  0.1837 -0.3070  0.2935
 6450SOL    HW130986   1.786   4.248  11.288  1.0093 -1.1673 -0.1150
 6450SOL    HW230987   1.705   4.177  11.388 -0.8252  0.3324  0.1799
 6451SOL     OW30988   1.955   0.492   6.475 -0.1844  0.4724  0.0246
 6451SOL    HW130989   1.916   0.454   6.553 -0.0099  0.6175  0.1858
 6451SOL    HW230990   2.028   0.432   6.464  0.9625  1.4888  1.9295
 6452SOL     OW30991   1.059   0.950  15.675  0.2062  0.3407  0.3766
 6452SOL    HW130992   0.979   0.911  15.711  0.2357  0.3286  0.4292
 6452SOL    HW230993   1.115   0.872  15.675 -0.3413 -0.0597  2.3437
 6453SOL     OW30994   4.445   0.388   2.212 -0.8590 -0.0682  0.0972
 6453SOL    HW130995   4.370   0.447   2.215 -0.0984  0.8408  1.4383
 6453SOL    HW230996   4.496   0.417   2.288 -0.0307  0.1786 -0.5507
 6454SOL     OW30997   2.477   0.258   1.705  0.2313 -0.4552 -0.4844
 6454SOL    HW130998   2.484   0.270   1.610  1.3513  2.9859  0.0224
 6454SOL    HW230999   2.527   0.332   1.741  1.6539 -1.9010  0.4980
 6455SOL     OW31000   0.790   1.535   5.160  0.3093 -0.1144 -0.0498
 6455SOL    HW131001   0.819   1.529   5.251  0.7283  0.4527 -0.1487
 6455SOL    HW231002   0.711   1.481   5.167  0.0707  0.0446 -1.5594
 6456SOL     OW31003   0.187   0.766   8.695  0.1681  0.1473 -0.1984
 6456SOL    HW131004   0.236   0.752   8.776  0.6356  1.7204 -0.2190
 6456SOL    HW231005   0.200   0.860   8.684 -0.3679  0.1769 -0.5901
 6457SOL     OW31006   0.406   4.569   2.926 -0.3767  0.6102  0.3270
 6457SOL    HW131007   0.491   4.563   2.884  0.4106  0.2907  1.9481
 6457SOL    HW231008   0.372   4.638   2.869 -1.3567  0.7533  1.0755
 6458SOL     OW31009   3.809   1.947   3.703 -0.3240 -0.2589 -0.0021
 6458SOL    HW131010   3.858   1.884   3.650 -2.0405  1.3839 -3.5601
 6458SOL    HW231011   3.794   2.013   3.636 -1.6553 -1.0126 -0.4384
 6459SOL     OW31012   1.633   1.902   9.427  0.2534 -0.8185  0.0236
 6459SOL    HW131013   1.661   1.811   9.432  0.1324 -0.9545 -1.7705
 6459SOL    HW231014   1.675   1.946   9.353  1.1678 -0.1205  0.9476
 6460SOL     OW31015   1.078   1.210   1.690 -0.2316 -0.2875  0.1382
 6460SOL    HW131016   1.095   1.298   1.726  1.3080 -1.0767  1.3216
 6460SOL    HW231017   1.013   1.167   1.746 -0.5063 -1.2183 -0.9027
 6461SOL     OW31018   3.405   3.163   8.298 -0.0665  0.2362 -0.2524
 6461SOL    HW131019   3.481   3.217   8.319 -0.8964 -0.0349  3.4785
 6461SOL    HW231020   3.370   3.147   8.386 -0.9814 -0.6161 -0.7702
 6462SOL     OW31021   2.151   1.423   3.144 -0.2256 -0.4287  0.3599
 6462SOL    HW131022   2.215   1.482   3.106  1.0700 -2.2935 -0.3477
 6462SOL    HW231023   2.158   1.429   3.240  1.2574 -2.1921  0.3474
 6463SOL     OW31024   2.724   0.003  11.797  0.8747  0.5705  0.1318
 6463SOL    HW131025   2.652   4.703  11.751  0.5372  0.9547  0.2905
 6463SOL    HW231026   2.805   4.710  11.764  0.3016 -1.5192  1.0199
 6464SOL     OW31027   0.274   0.888   7.658 -0.2633 -0.3714  0.0253
 6464SOL    HW131028   0.226   0.907   7.739 -1.0595  1.4797 -0.8956
 6464SOL    HW231029   0.246   0.797   7.644  0.9127 -0.7772  0.3208
 6465SOL     OW31030   3.362   3.108   5.439  0.1157  0.1693 -0.0957
 6465SOL    HW131031   3.398   3.096   5.526 -0.1544  1.4988  0.2027
 6465SOL    HW231032   3.438   3.141   5.389 -1.0435  1.6598 -0.8914
 6466SOL     OW31033   0.496   3.883  13.171 -0.3591 -0.2576 -0.3565
 6466SOL    HW131034   0.459   3.947  13.232  0.5709  0.9100 -1.0164
 6466SOL    HW231035   0.416   3.843  13.137 -0.2192 -2.9424  2.5114
 6467SOL     OW31036   0.940   1.310  10.442  0.2319 -0.3286  0.5984
 6467SOL    HW131037   0.987   1.246  10.496 -0.7937 -2.2694 -0.8301
 6467SOL    HW231038   1.018   1.360  10.419  0.2197  0.5305  2.4072
 6468SOL     OW31039   3.182   0.416   9.518  0.0399 -0.1920  0.5290
 6468SOL    HW131040   3.226   0.334   9.498  1.8800  1.0830 -0.6551
 6468SOL    HW231041   3.092   0.385   9.533  0.1476 -0.2352  1.0794
 6469SOL     OW31042   1.180   1.888   9.482  0.2781  0.3234  0.2443
 6469SOL    HW131043   1.237   1.859   9.411 -1.7631 -2.7834 -0.0947
 6469SOL    HW231044   1.136   1.969   9.452  1.1842  0.3185 -1.0871
 6470SOL     OW31045   2.054   3.551   2.750  0.2639  0.0065 -0.6918
 6470SOL    HW131046   2.117   3.600   2.803  2.5554 -3.0825 -0.5577
 6470SOL    HW231047   2.101   3.470   2.731 -0.4269 -0.7497  0.9238
 6471SOL     OW31048   4.390   1.273   1.206  0.4540  0.1010 -0.0221
 6471SOL    HW131049   4.333   1.280   1.282 -0.2361 -1.3122 -0.4036
 6471SOL    HW231050   4.331   1.299   1.135 -0.9605  0.2997  1.2186
 6472SOL     OW31051   0.759   4.118   4.480  0.2702  0.4909 -0.1762
 6472SOL    HW131052   0.755   4.094   4.572  3.2211  2.3234  0.4318
 6472SOL    HW231053   0.818   4.194   4.482  1.8010 -0.6288 -2.4204
 6473SOL     OW31054   1.075   0.092   6.895  0.3832 -0.0372 -0.0334
 6473SOL    HW131055   1.064   0.019   6.956  1.7673  0.9263  1.3700
 6473SOL    HW231056   1.143   0.050   6.843  1.4781  0.1778  1.2180
 6474SOL     OW31057   4.565   3.821  16.061  0.7638 -0.0696 -0.2199
 6474SOL    HW131058   4.469   3.814  16.068  0.7087 -0.5722 -1.5806
 6474SOL    HW231059   4.589   3.797  16.151 -0.8204 -0.0923  0.2086
 6475SOL     OW31060   0.444   1.035  12.218 -0.6784  0.2972  0.3842
 6475SOL    HW131061   0.372   1.072  12.167  0.4157  1.3263 -0.4035
 6475SOL    HW231062   0.395   1.008  12.296 -0.5321 -1.5353 -0.1719
 6476SOL     OW31063   1.388   0.841  16.289 -0.0645 -1.2246 -0.7646
 6476SOL    HW131064   1.419   0.930  16.274 -1.0282 -0.7580  0.0555
 6476SOL    HW231065   1.312   0.844  16.231 -0.1039  3.8987 -0.4116
 6477SOL     OW31066   2.324   1.502  15.450 -0.9864 -0.6532 -0.0201
 6477SOL    HW131067   2.412   1.540  15.458 -1.0362 -0.2599 -1.3716
 6477SOL    HW231068   2.273   1.539  15.521  0.5778 -0.9546  1.2774
 6478SOL     OW31069   0.238   0.937   1.744 -0.1178  0.0669  0.1552
 6478SOL    HW131070   0.148   0.907   1.732 -0.9480  3.0694 -0.9611
 6478SOL    HW231071   0.231   1.017   1.692  0.6391  0.9588  1.4299
 6479SOL     OW31072   3.208   1.025   6.088  0.0918  0.0299 -0.4662
 6479SOL    HW131073   3.280   1.056   6.143 -0.6421  1.0927 -0.1091
 6479SOL    HW231074   3.243   1.017   6.000  1.6931  1.6343  0.0326
 6480SOL     OW31075   1.552   2.835   0.339  0.1626  0.5083 -0.3117
 6480SOL    HW131076   1.571   2.821   0.432  0.9585  0.5422 -0.4765
 6480SOL    HW231077   1.634   2.873   0.310  1.0281 -0.9511  0.2231
 6481SOL     OW31078   0.002   2.293   6.391  0.0815 -0.0264 -0.3592
 6481SOL    HW131079   4.735   2.199   6.378 -0.6881  0.2341 -1.6148
 6481SOL    HW231080   4.734   2.301   6.486 -0.9471 -0.3396 -0.4562
 6482SOL     OW31081   1.147   3.692   4.428  0.6958  0.4665 -0.3201
 6482SOL    HW131082   1.187   3.777   4.410 -1.1305  1.4176  0.1325
 6482SOL    HW231083   1.081   3.722   4.489 -0.3440  0.4212 -1.4252
 6483SOL     OW31084   1.309   1.077   9.336 -0.0601  0.1056  0.4995
 6483SOL    HW131085   1.261   0.994   9.346 -0.1183  0.2433  1.3871
 6483SOL    HW231086   1.397   1.049   9.312 -0.0080 -0.4062  1.2837
 6484SOL     OW31087   3.802   0.938  15.788  0.2928 -0.1939 -0.0649
 6484SOL    HW131088   3.788   0.911  15.879  0.4658 -1.0385 -0.2825
 6484SOL    HW231089   3.814   1.032  15.795 -1.3391  0.0633 -0.6286
 6485SOL     OW31090   3.167   3.434   2.037 -0.8452 -0.0277  0.4715
 6485SOL    HW131091   3.202   3.491   2.105 -1.5995  0.4898  0.4267
 6485SOL    HW231092   3.130   3.498   1.976  1.2983  1.2782  0.5204
 6486SOL     OW31093   3.369   3.202   2.299 -0.1709  0.4236  0.4580
 6486SOL    HW131094   3.447   3.246   2.264 -0.5309 -0.3640 -1.3362
 6486SOL    HW231095   3.300   3.268   2.302 -0.4111 -0.0121  4.3606
 6487SOL     OW31096   2.714   3.027  12.836  0.1129 -0.4315 -0.5549
 6487SOL    HW131097   2.777   3.092  12.867  1.3949 -1.6214 -0.6839
 6487SOL    HW231098   2.770   2.965  12.790  0.3923 -0.7510  0.2139
 6488SOL     OW31099   0.401   4.132   3.391 -0.2175  0.3370 -0.6109
 6488SOL    HW131100   0.351   4.181   3.325  1.0910 -2.6775 -3.8742
 6488SOL    HW231101   0.358   4.174   3.466  0.4665  0.3338 -0.2224
 6489SOL     OW31102   1.297   1.519   8.898  0.1396  0.7838  0.1121
 6489SOL    HW131103   1.262   1.522   8.986 -0.7297 -4.9389 -0.0013
 6489SOL    HW231104   1.374   1.575   8.908  0.5929  0.3438 -0.8182
 6490SOL     OW31105   0.661   2.612   6.940 -0.1159  0.1390 -0.5464
 6490SOL    HW131106   0.616   2.668   7.004 -0.2632 -1.1999  0.5173
 6490SOL    HW231107   0.690   2.533   6.984  0.8203  0.4256 -0.6628
 6491SOL     OW31108   4.588   2.613  16.220  0.0410  0.1997  0.3557
 6491SOL    HW131109   4.665   2.576  16.263  2.1864  0.9345 -2.8179
 6491SOL    HW231110   4.539   2.662  16.286  0.5742  0.6277  0.4318
 6492SOL     OW31111   4.554   1.520  17.516  0.2882  0.3232  0.3130
 6492SOL    HW131112   4.502   1.524  17.596 -0.1610 -1.3039  0.1028
 6492SOL    HW231113   4.562   1.425  17.510  3.4727  0.6224 -0.1751
 6493SOL     OW31114   4.228   2.676   5.978 -0.3316 -0.2694 -0.4092
 6493SOL    HW131115   4.219   2.702   5.886  0.6548  1.4679 -0.0057
 6493SOL    HW231116   4.190   2.590   5.959  2.5147 -1.3647 -1.0811
 6494SOL     OW31117   3.189   1.323  10.165  0.2709  0.1986 -0.2172
 6494SOL    HW131118   3.217   1.269  10.091 -0.9645  0.4586 -0.8764
 6494SOL    HW231119   3.269   1.330  10.217  0.5401 -2.0757 -0.3366
 6495SOL     OW31120   1.148   1.100   1.310  0.2114  0.3634  0.0972
 6495SOL    HW131121   1.177   1.056   1.230  2.1340 -0.6756  1.3433
 6495SOL    HW231122   1.187   1.040   1.375 -3.7470  1.0987  3.1160
 6496SOL     OW31123   1.331   1.677   1.261 -0.7849 -0.1739  0.6258
 6496SOL    HW131124   1.275   1.718   1.195 -3.0315 -1.6449  1.6190
 6496SOL    HW231125   1.368   1.598   1.222  2.4466  2.1927 -1.1142
 6497SOL     OW31126   2.720   1.921  17.386  0.1161  0.2720 -0.1314
 6497SOL    HW131127   2.748   1.986  17.450 -1.1603  1.1258 -0.4359
 6497SOL    HW231128   2.625   1.925  17.396 -0.1111 -1.2596 -1.6027
 6498SOL     OW31129   1.662   4.393  16.107  0.1620 -0.5853  0.2085
 6498SOL    HW131130   1.680   4.474  16.059 -1.6475 -0.8984 -0.9637
 6498SOL    HW231131   1.638   4.434  16.190  1.5453 -0.1762  0.4100
 6499SOL     OW31132   1.134   1.465  10.696 -0.0763  0.0776 -0.0136
 6499SOL    HW131133   1.054   1.413  10.689  1.8082 -2.8359  0.2266
 6499SOL    HW231134   1.128   1.517  10.777  1.0304  0.7741 -0.3675
 6500SOL     OW31135   0.959   3.975   7.232 -0.2589  0.0488 -0.4701
 6500SOL    HW131136   1.019   3.975   7.306  1.4198 -1.6299 -1.8518
 6500SOL    HW231137   0.941   3.882   7.226 -0.0629  0.0616 -1.2929
 6501SOL     OW31138   1.682   4.108  17.438 -0.1110 -0.1291  0.6667
 6501SOL    HW131139   1.722   4.192  17.414 -1.9565  0.7763  0.8204
 6501SOL    HW231140   1.616   4.129  17.504 -1.5918 -1.4979 -0.3947
 6502SOL     OW31141   4.588   4.390   7.911 -0.5366  0.1097  0.3439
 6502SOL    HW131142   4.521   4.351   7.855 -0.1530 -2.1535  1.4947
 6502SOL    HW231143   4.570   4.482   7.893 -0.3057  0.3280  1.2246
 6503SOL     OW31144   0.360   0.190   3.889  0.0438  0.1100 -0.3887
 6503SOL    HW131145   0.279   0.139   3.895 -1.2701  2.4062  1.3649
 6503SOL    HW231146   0.342   0.236   3.808  1.5401  1.9867  0.3479
 6504SOL     OW31147   3.067   2.297   4.572 -0.2395  0.3578  0.6700
 6504SOL    HW131148   3.093   2.236   4.503 -2.0341  0.5866 -0.2206
 6504SOL    HW231149   3.010   2.364   4.534 -1.6347  0.0613  2.2255
 6505SOL     OW31150   2.094   1.169   1.050  0.0522  0.4758 -0.1544
 6505SOL    HW131151   2.159   1.237   1.068 -2.3136  2.7783 -0.2849
 6505SOL    HW231152   2.032   1.223   1.001  1.0639 -0.3949 -2.3739
 6506SOL     OW31153   3.481   3.253   5.098  0.1122 -0.0791 -0.0218
 6506SOL    HW131154   3.533   3.333   5.096 -1.2904  0.8137 -0.0643
 6506SOL    HW231155   3.455   3.251   5.190 -0.0677  1.3367 -0.0395
 6507SOL     OW31156   2.671   3.144   7.448 -0.1712 -0.1743 -0.1626
 6507SOL    HW131157   2.667   3.145   7.543  4.2137  0.4842  0.0001
 6507SOL    HW231158   2.599   3.084   7.426 -2.0472  1.9985  0.0751
 6508SOL     OW31159   3.641   2.193   5.854 -0.4057 -0.0625  0.3506
 6508SOL    HW131160   3.561   2.244   5.853  0.3554  1.1536  0.6645
 6508SOL    HW231161   3.633   2.139   5.933  0.6950  0.2994  0.7166
 6509SOL     OW31162   2.556   2.068   4.108 -0.6284  0.6182  0.6742
 6509SOL    HW131163   2.550   1.984   4.061 -0.2459  0.0300  1.6802
 6509SOL    HW231164   2.536   2.124   4.033  2.5751  0.2500 -0.4385
 6510SOL     OW31165   3.439   4.296  15.501  0.4046  0.2242  0.1699
 6510SOL    HW131166   3.367   4.334  15.551  0.8558  1.3950 -0.0656
 6510SOL    HW231167   3.495   4.374  15.496  1.5556 -0.7076 -1.2924
 6511SOL     OW31168   0.281   3.124  12.809  0.4823  0.7798 -0.2525
 6511SOL    HW131169   0.334   3.045  12.811  0.8548  1.0117 -0.7064
 6511SOL    HW231170   0.288   3.137  12.714  0.1203 -0.9697 -0.5275
 6512SOL     OW31171   1.783   3.514   2.428  0.4438 -0.0804 -0.4752
 6512SOL    HW131172   1.813   3.605   2.432 -0.0307  0.0696 -0.3411
 6512SOL    HW231173   1.863   3.463   2.419 -0.0887 -1.2485  1.4423
 6513SOL     OW31174   1.606   2.903   2.941  0.1206  0.2914  0.0907
 6513SOL    HW131175   1.677   2.863   2.890  0.3799  0.1641  0.5506
 6513SOL    HW231176   1.611   2.835   3.009  0.8003  1.1335  0.8700
 6514SOL     OW31177   0.453   0.264   9.355  0.3050 -0.5007 -0.0858
 6514SOL    HW131178   0.477   0.356   9.346 -0.0016 -0.6508 -2.5238
 6514SOL    HW231179   0.485   0.244   9.443  2.8998  0.4183 -0.8258
 6515SOL     OW31180   1.761   0.816   9.711  0.1684  0.6277 -0.0946
 6515SOL    HW131181   1.796   0.733   9.742 -1.5629  0.3237  1.0370
 6515SOL    HW231182   1.778   0.805   9.618 -3.0427 -0.0192 -0.6125
 6516SOL     OW31183   4.548   2.485   7.358 -0.1447 -0.5592 -0.3493
 6516SOL    HW131184   4.553   2.390   7.348  0.3234 -0.7721  2.0138
 6516SOL    HW231185   4.454   2.501   7.366  0.1413  0.6133  0.6959
 6517SOL     OW31186   1.326   3.997  16.708 -0.0823  0.6556 -0.6378
 6517SOL    HW131187   1.231   4.005  16.711  0.0849  2.2568  0.1739
 6517SOL    HW231188   1.331   3.951  16.624 -0.4871 -0.1915 -0.1922
 6518SOL     OW31189   4.484   4.120   2.872  0.4633 -0.8650 -0.2914
 6518SOL    HW131190   4.410   4.092   2.819 -0.0575  1.0714 -0.5646
 6518SOL    HW231191   4.492   4.210   2.841  0.8598 -0.5447  0.7259
 6519SOL     OW31192   4.344   3.435  16.570 -0.3395  0.2460 -0.2886
 6519SOL    HW131193   4.291   3.356  16.561 -0.3925  0.4224 -1.5750
 6519SOL    HW231194   4.392   3.425  16.653 -0.4149 -1.2340 -0.4273
 6520SOL     OW31195   1.571   4.728   4.347  0.1992 -0.0228  0.2780
 6520SOL    HW131196   1.583   4.651   4.402  1.1702 -0.6528 -0.8192
 6520SOL    HW231197   1.656   4.731   4.303 -0.4553 -0.2438 -1.0003
 6521SOL     OW31198   4.666   2.423   4.623  0.3120  0.2856  0.4349
 6521SOL    HW131199   4.727   2.389   4.688 -0.0030  1.3887  1.3138
 6521SOL    HW231200   4.619   2.343   4.601 -1.7834  1.7976 -0.5945
 6522SOL     OW31201   4.339   0.448   2.606 -0.5002 -0.5218  0.3970
 6522SOL    HW131202   4.389   0.511   2.658 -0.4806 -0.9205  0.8639
 6522SOL    HW231203   4.325   0.511   2.535  1.2479  1.0648  1.4649
 6523SOL     OW31204   2.683   1.171   7.784  0.6385  0.5917  0.0374
 6523SOL    HW131205   2.712   1.089   7.744 -0.4892  0.2366 -0.0660
 6523SOL    HW231206   2.768   1.209   7.805 -0.5908  1.9101  2.7504
 6524SOL     OW31207   4.096   3.549   7.921  0.2063 -1.2013  0.1647
 6524SOL    HW131208   4.090   3.589   8.008 -0.6744 -0.2768 -0.3325
 6524SOL    HW231209   4.108   3.632   7.875 -2.3764 -0.8177  0.1983
 6525SOL     OW31210   4.315   4.182  11.200 -0.1307 -0.3107 -0.1677
 6525SOL    HW131211   4.263   4.116  11.153 -1.3054  0.9228 -0.6395
 6525SOL    HW231212   4.393   4.127  11.202 -0.0893 -0.2519 -0.1928
 6526SOL     OW31213   4.087   2.614   5.067  0.5332 -0.3180 -0.2165
 6526SOL    HW131214   4.145   2.543   5.038 -1.4129 -1.7054 -0.7122
 6526SOL    HW231215   4.016   2.552   5.082 -1.7456  2.0606 -1.3515
 6527SOL     OW31216   3.129   3.137   5.746 -0.3553  0.3156  0.0965
 6527SOL    HW131217   3.109   3.211   5.689  0.2735 -0.6890 -1.4331
 6527SOL    HW231218   3.224   3.133   5.743 -0.4044 -0.1492 -0.9870
 6528SOL     OW31219   2.889   2.948  16.537 -0.1521  0.0651 -0.4431
 6528SOL    HW131220   2.945   2.894  16.591 -2.0285 -1.4553 -0.0148
 6528SOL    HW231221   2.953   2.975  16.471 -1.0298  0.5213 -1.1043
 6529SOL     OW31222   2.171   2.990  13.163 -0.2220  0.3337  0.2999
 6529SOL    HW131223   2.132   2.905  13.146  0.3059 -0.0651  1.0675
 6529SOL    HW231224   2.116   3.015  13.238 -1.7009 -1.5347 -0.1659
 6530SOL     OW31225   3.937   1.500   4.938 -0.0118  0.3336 -0.1512
 6530SOL    HW131226   3.885   1.552   4.878 -1.7309  0.4221  1.4103
 6530SOL    HW231227   3.969   1.558   5.007  0.1247 -0.5614  0.5414
 6531SOL     OW31228   0.822   2.353   8.478  0.1237 -0.0942  0.3584
 6531SOL    HW131229   0.875   2.304   8.540 -0.3919  0.1213  0.9682
 6531SOL    HW231230   0.775   2.413   8.535 -1.0515 -0.4710 -0.2056
 6532SOL     OW31231   4.512   3.460   1.897 -0.0897 -0.2801  0.7430
 6532SOL    HW131232   4.535   3.540   1.944  0.6903 -0.2622  0.3263
 6532SOL    HW231233   4.431   3.441   1.945 -0.9718  0.0172 -0.6188
 6533SOL     OW31234   3.497   0.727  10.345  0.2451  0.4752  0.3341
 6533SOL    HW131235   3.407   0.698  10.360  0.1345 -0.1383 -1.4730
 6533SOL    HW231236   3.517   0.750  10.436  0.3574 -1.7994  0.8837
 6534SOL     OW31237   1.950   4.624   6.248 -0.0817 -0.0541  0.0543
 6534SOL    HW131238   1.902   4.549   6.213  0.3274  0.0553 -0.7609
 6534SOL    HW231239   2.019   4.620   6.182  1.4234  0.2321  1.6120
 6535SOL     OW31240   4.483   3.518   6.515 -0.0115  0.4748  0.2291
 6535SOL    HW131241   4.548   3.576   6.554  0.0795  0.2139  0.4633
 6535SOL    HW231242   4.470   3.574   6.438 -0.0450  1.4514  0.9384
 6536SOL     OW31243   2.708   2.921   7.647  0.6049  0.2351 -0.3714
 6536SOL    HW131244   2.664   2.996   7.687  0.2501 -1.0260  1.5717
 6536SOL    HW231245   2.776   2.911   7.714 -0.3361 -1.0395  0.3674
 6537SOL     OW31246   3.709   1.752   1.672 -0.5065  0.2835 -0.3739
 6537SOL    HW131247   3.767   1.807   1.725  0.2051  0.0917 -0.9581
 6537SOL    HW231248   3.622   1.784   1.698  0.1131  2.8773 -1.5220
 6538SOL     OW31249   2.403   2.563   9.795 -0.0356  0.1973  0.4816
 6538SOL    HW131250   2.408   2.513   9.876 -1.1317 -2.4284 -1.0507
 6538SOL    HW231251   2.428   2.500   9.727  2.1262  1.5800 -0.0132
 6539SOL     OW31252   1.005   4.182  10.816  0.0027  0.0793 -0.1991
 6539SOL    HW131253   1.049   4.248  10.870  1.6953 -1.5471  0.3729
 6539SOL    HW231254   0.932   4.156  10.872  1.6340 -0.6430  1.5757
 6540SOL     OW31255   3.941   3.163   7.195  0.1067 -0.4836  0.1199
 6540SOL    HW131256   3.911   3.229   7.132  0.5521  0.3680  0.8132
 6540SOL    HW231257   3.902   3.084   7.156  0.1724 -0.9042  0.9173
 6541SOL     OW31258   1.074   0.371   6.806 -0.3191 -0.4586 -0.4052
 6541SOL    HW131259   1.065   0.287   6.851  1.5056 -0.5252 -0.1720
 6541SOL    HW231260   1.013   0.426   6.854  1.1369  1.0924 -0.3438
 6542SOL     OW31261   1.988   0.363   2.642 -0.2257 -0.2751 -0.0781
 6542SOL    HW131262   2.023   0.451   2.628  0.0033 -0.3995 -0.3020
 6542SOL    HW231263   1.893   0.371   2.642 -0.1914  0.1424  1.1349
 6543SOL     OW31264   1.912   4.555   8.737  0.3169  0.4484 -0.5858
 6543SOL    HW131265   1.824   4.562   8.773  0.4097 -2.0269  0.1460
 6543SOL    HW231266   1.930   4.646   8.713 -0.7100  0.5661 -0.8772
 6544SOL     OW31267   2.613   3.853   2.783  0.6126  0.1817  0.1151
 6544SOL    HW131268   2.694   3.857   2.835  1.4557  1.7666 -1.3167
 6544SOL    HW231269   2.560   3.907   2.841 -0.8859  1.1918 -2.1980
 6545SOL     OW31270   1.663   1.425   4.641  0.0920  0.1113 -0.1132
 6545SOL    HW131271   1.669   1.391   4.731 -1.8153  0.6047  0.1990
 6545SOL    HW231272   1.568   1.424   4.626  0.3338 -1.8235 -1.4714
 6546SOL     OW31273   3.981   3.096  14.866 -0.0138  0.2979 -0.0329
 6546SOL    HW131274   3.981   3.158  14.793  0.8062  0.2164 -0.1025
 6546SOL    HW231275   4.069   3.111  14.900 -0.1113  0.0090  0.3415
 6547SOL     OW31276   0.085   3.996   3.397  0.7837 -0.1212 -0.6442
 6547SOL    HW131277   0.176   3.995   3.426  0.5918  0.4024  0.0018
 6547SOL    HW231278   0.043   4.068   3.445  0.8410  0.3355 -1.2788
 6548SOL     OW31279   0.963   3.965   4.189  0.4934  0.0608 -0.2809
 6548SOL    HW131280   1.023   3.897   4.217  1.2951 -0.0453 -2.2822
 6548SOL    HW231281   1.025   4.038   4.192 -0.8155  1.1630  0.6320
 6549SOL     OW31282   1.206   3.255   6.320 -0.2404  0.0488  0.5769
 6549SOL    HW131283   1.177   3.249   6.229  0.1839 -2.3451  0.5884
 6549SOL    HW231284   1.153   3.327   6.354  2.5759  0.6978  3.5254
 6550SOL     OW31285   4.467   2.371   1.914  0.0068 -0.1754 -0.1547
 6550SOL    HW131286   4.478   2.462   1.943  0.9314 -0.4874  0.4486
 6550SOL    HW231287   4.536   2.332   1.966 -0.3564  0.6398  0.9332
 6551SOL     OW31288   2.326   0.945   4.934  0.5009  0.1018 -0.5948
 6551SOL    HW131289   2.382   0.999   4.989 -0.5846 -0.4619  1.0464
 6551SOL    HW231290   2.375   0.864   4.924 -2.0021 -1.6489  1.2473
 6552SOL     OW31291   4.069   3.416   8.373  0.0195  0.1138  0.3934
 6552SOL    HW131292   4.120   3.456   8.444  0.8684 -2.0191  0.9929
 6552SOL    HW231293   4.012   3.489   8.347  0.7335  0.8091  0.7737
 6553SOL     OW31294   0.420   2.022   6.429  0.1106  0.1062  0.0136
 6553SOL    HW131295   0.438   2.049   6.339 -0.2063  1.3830  0.3310
 6553SOL    HW231296   0.391   1.931   6.421 -0.7206  0.7842 -4.7638
 6554SOL     OW31297   3.679   1.055   6.266  0.2454  0.3925 -0.2396
 6554SOL    HW131298   3.604   1.018   6.220  1.0043 -2.0156  0.4882
 6554SOL    HW231299   3.649   1.047   6.357  0.2002 -0.4278 -0.3329
 6555SOL     OW31300   4.328   1.291   3.224 -0.1784 -0.1322  0.4534
 6555SOL    HW131301   4.421   1.286   3.202 -0.7008 -0.5077 -1.6477
 6555SOL    HW231302   4.301   1.369   3.176  0.2638 -1.4284 -1.8631
 6556SOL     OW31303   3.464   2.251   9.840 -0.4769  0.0335 -0.4092
 6556SOL    HW131304   3.549   2.209   9.828 -0.1988  0.5452 -0.2167
 6556SOL    HW231305   3.458   2.285   9.751 -1.1175 -0.9928 -0.7615
 6557SOL     OW31306   2.769   3.665   0.578  0.2105  1.3196 -0.2853
 6557SOL    HW131307   2.746   3.757   0.589  0.4722  1.4196 -0.5824
 6557SOL    HW231308   2.785   3.631   0.666  0.6209 -0.1165 -0.9065
 6558SOL     OW31309   2.997   3.024  12.613 -0.6876 -0.5612 -0.3031
 6558SOL    HW131310   3.080   3.047  12.654 -1.2074  0.6838  0.0280
 6558SOL    HW231311   3.001   2.928  12.617 -0.2133 -0.6181 -2.1307
 6559SOL     OW31312   0.422   4.461  16.381 -0.3724  1.1723 -0.1603
 6559SOL    HW131313   0.494   4.470  16.318 -1.5357 -0.0170 -1.6541
 6559SOL    HW231314   0.362   4.520  16.335 -1.4972  1.5557  1.8085
 6560SOL     OW31315   3.454   0.056   1.129 -0.2308  0.0421  0.0161
 6560SOL    HW131316   3.389   0.108   1.177 -2.2893 -2.1829 -0.3709
 6560SOL    HW231317   3.411   0.070   1.045 -0.1851  0.9658  0.1524
 6561SOL     OW31318   3.705   2.877   7.383  0.4298 -0.1627 -0.0458
 6561SOL    HW131319   3.677   2.786   7.395 -3.8480  0.7479 -3.0030
 6561SOL    HW231320   3.659   2.919   7.456 -0.1771 -0.9876  0.0497
 6562SOL     OW31321   0.084   1.587   6.394  0.2553  0.0308 -0.0815
 6562SOL    HW131322   0.101   1.493   6.402  2.5644  0.2940 -1.7588
 6562SOL    HW231323   0.117   1.604   6.306 -1.2320  0.1935 -0.5925
 6563SOL     OW31324   2.683   0.918   8.542 -0.0751 -0.2369  0.1763
 6563SOL    HW131325   2.707   0.988   8.482  1.6457 -2.2991 -1.5434
 6563SOL    HW231326   2.645   0.982   8.602 -2.3345 -0.0045 -1.5123
 6564SOL     OW31327   4.270   3.511   2.114  0.4867 -0.2919 -0.1869
 6564SOL    HW131328   4.237   3.542   2.030 -2.8716 -1.6157  0.6355
 6564SOL    HW231329   4.185   3.491   2.154 -0.4707  1.2005 -1.4798
 6565SOL     OW31330   1.024   1.576   8.219  0.0786  0.6433  0.2154
 6565SOL    HW131331   1.087   1.627   8.269  1.2453 -0.6717  0.0837
 6565SOL    HW231332   1.040   1.613   8.132  0.4319 -2.2281 -0.9723
 6566SOL     OW31333   1.278   3.373   3.414 -0.2731 -0.4285 -0.1582
 6566SOL    HW131334   1.242   3.301   3.361 -1.2403 -0.8260  1.0446
 6566SOL    HW231335   1.341   3.419   3.358 -0.9124  0.1297 -0.4090
 6567SOL     OW31336   0.675   3.511   7.578  0.1872 -0.3737 -0.1558
 6567SOL    HW131337   0.743   3.551   7.633 -0.1335 -0.2348  0.1366
 6567SOL    HW231338   0.720   3.431   7.552 -0.4953 -0.7162 -0.2713
 6568SOL     OW31339   3.183   0.738   8.093  0.1026  0.6620 -0.5933
 6568SOL    HW131340   3.160   0.646   8.108 -0.7859  1.0146  0.2285
 6568SOL    HW231341   3.123   0.764   8.023  0.2006 -0.8671 -1.2506
 6569SOL     OW31342   0.227   1.862   8.313 -0.3858 -0.3038 -0.1536
 6569SOL    HW131343   0.315   1.832   8.293 -0.0105  1.8869 -1.8059
 6569SOL    HW231344   0.203   1.804   8.386 -1.5395  1.6063  0.9891
 6570SOL     OW31345   3.490   1.242   9.400  0.1990  0.3570 -0.4951
 6570SOL    HW131346   3.420   1.303   9.376  1.5228  1.8345 -0.5887
 6570SOL    HW231347   3.509   1.210   9.312 -0.7195 -1.5114 -0.0130
 6571SOL     OW31348   2.102   1.233   0.351  0.0055 -0.6050  0.3330
 6571SOL    HW131349   2.133   1.166   0.290  2.9264  0.7647  0.2928
 6571SOL    HW231350   2.042   1.181   0.403  0.2589  0.1270  1.3468
 6572SOL     OW31351   2.301   1.230   5.640 -0.2160 -0.4352 -0.2355
 6572SOL    HW131352   2.315   1.136   5.631  0.3509 -0.4279  0.5364
 6572SOL    HW231353   2.392   1.261   5.638  0.3529 -2.0558  0.5169
 6573SOL     OW31354   3.940   3.998   4.874  0.5559 -0.3444  0.2144
 6573SOL    HW131355   3.985   4.081   4.859 -0.4638  0.0520 -0.6595
 6573SOL    HW231356   3.905   4.017   4.961  1.1318 -0.5809  0.4980
 6574SOL     OW31357   3.901   1.795   2.405  0.4299 -0.0370  0.8712
 6574SOL    HW131358   3.955   1.759   2.335 -0.0877  1.5659 -0.3682
 6574SOL    HW231359   3.824   1.825   2.358  0.3961 -1.8773 -0.2273
 6575SOL     OW31360   3.453   4.572   5.795  0.1624  0.1753  0.1215
 6575SOL    HW131361   3.490   4.657   5.818 -0.2855  0.0582  1.2775
 6575SOL    HW231362   3.423   4.585   5.705 -1.1317 -1.0988  0.3694
 6576SOL     OW31363   2.127   3.262   6.062 -0.5203 -0.2025  0.3406
 6576SOL    HW131364   2.041   3.264   6.105  0.2562  1.1340  1.8522
 6576SOL    HW231365   2.106   3.332   6.000 -2.1770 -2.6312 -1.8344
 6577SOL     OW31366   1.275   3.650  13.079  0.1970  0.6656 -0.0965
 6577SOL    HW131367   1.273   3.555  13.091  1.4558  0.7268  0.5796
 6577SOL    HW231368   1.366   3.678  13.094  1.6880 -3.7468 -0.7316
 6578SOL     OW31369   3.800   3.358   4.144 -0.2596 -0.1387  0.6298
 6578SOL    HW131370   3.735   3.303   4.100  0.1252 -0.4179  0.4082
 6578SOL    HW231371   3.851   3.297   4.197  0.6764  0.3432  0.2816
 6579SOL     OW31372   4.033   2.583   8.820  0.3994 -0.0564  0.9068
 6579SOL    HW131373   4.079   2.507   8.785  1.2877  0.1181  1.7168
 6579SOL    HW231374   3.947   2.550   8.791  0.0355  0.2085  1.6865
 6580SOL     OW31375   0.795   1.852   1.192 -0.2005 -0.1665 -0.2787
 6580SOL    HW131376   0.876   1.841   1.241  0.0774  1.9865 -0.2326
 6580SOL    HW231377   0.792   1.948   1.189  1.6440 -0.0123  3.0753
 6581SOL     OW31378   3.203   3.854   8.235  0.0754  0.3494  0.4060
 6581SOL    HW131379   3.236   3.944   8.233  1.2765 -0.1852 -2.8245
 6581SOL    HW231380   3.231   3.830   8.323 -2.6024  0.3741  1.2702
 6582SOL     OW31381   2.389   2.800   1.592  0.2917  0.4790  0.1271
 6582SOL    HW131382   2.306   2.756   1.611  0.7100 -1.4495 -2.4969
 6582SOL    HW231383   2.346   2.876   1.554  0.2826  0.0067 -0.7980
 6583SOL     OW31384   1.179   4.472   6.742  0.1227  0.7743  0.0181
 6583SOL    HW131385   1.149   4.498   6.829  0.5074  0.8338  0.1314
 6583SOL    HW231386   1.108   4.413   6.716  0.3511 -0.2131  1.6138
 6584SOL     OW31387   1.858   2.110   8.981 -0.0772 -0.0180  0.1903
 6584SOL    HW131388   1.791   2.177   8.969  0.0657  0.0922  0.0108
 6584SOL    HW231389   1.848   2.062   8.899  0.9325 -1.9527  1.1892
 6585SOL     OW31390   1.327   4.398   8.776 -0.2790 -0.1397  0.7341
 6585SOL    HW131391   1.268   4.329   8.746 -1.8251 -0.4001  4.3597
 6585SOL    HW231392   1.342   4.372   8.867 -2.7790 -0.5546  1.0345
 6586SOL     OW31393   0.701   1.528   9.108  0.4841 -0.4601 -0.6050
 6586SOL    HW131394   0.610   1.541   9.080  0.6620  0.2113 -0.8799
 6586SOL    HW231395   0.685   1.484   9.191  0.3943 -0.0163 -0.3848
 6587SOL     OW31396   4.547   2.853   2.538 -0.0880 -0.0169  0.0703
 6587SOL    HW131397   4.541   2.841   2.443  3.0169  0.8258 -0.2131
 6587SOL    HW231398   4.453   2.857   2.554  0.3076 -1.8395  2.8282
 6588SOL     OW31399   0.898   1.586   4.030  0.1682 -0.2986 -0.0093
 6588SOL    HW131400   0.885   1.541   4.113 -2.7607  1.7210  0.6274
 6588SOL    HW231401   0.845   1.540   3.965 -0.0927 -2.5777  1.8133
 6589SOL     OW31402   3.956   2.960  12.255  0.0044  0.1104  0.1053
 6589SOL    HW131403   4.035   2.918  12.289  0.9209  2.5842  1.0502
 6589SOL    HW231404   3.885   2.914  12.300  1.9843 -1.5329  1.5337
 6590SOL     OW31405   0.652   0.256  14.711  0.4323  0.7551 -0.5255
 6590SOL    HW131406   0.571   0.307  14.701  1.3445  2.4373  0.5935
 6590SOL    HW231407   0.671   0.228  14.621  1.1102 -2.0869  0.5344
 6591SOL     OW31408   4.450   2.430   8.779 -0.3082 -0.0679  0.0957
 6591SOL    HW131409   4.430   2.490   8.851 -0.9808  0.3943 -0.4722
 6591SOL    HW231410   4.461   2.342   8.815 -1.5240  0.1048  0.8734
 6592SOL     OW31411   3.820   1.258   6.181 -0.4650 -0.5365 -0.3756
 6592SOL    HW131412   3.775   1.322   6.235 -0.6286  1.0205 -2.3343
 6592SOL    HW231413   3.761   1.183   6.183  0.4798 -1.2694  0.5230
 6593SOL     OW31414   0.690   3.067   3.171  0.7030  0.4544  0.7580
 6593SOL    HW131415   0.714   2.989   3.121  0.7762  0.9989 -0.0540
 6593SOL    HW231416   0.774   3.098   3.207  1.1607 -0.0358  0.0852
 6594SOL     OW31417   1.096   2.127   1.294  0.5394 -0.3607  0.0848
 6594SOL    HW131418   1.160   2.109   1.363 -1.0629 -2.4356  1.0429
 6594SOL    HW231419   1.012   2.130   1.340  0.2600 -1.2205 -0.3783
 6595SOL     OW31420   0.766   0.741   8.588  0.5552  0.0304 -0.0876
 6595SOL    HW131421   0.767   0.787   8.673  1.3338 -0.3572  0.1192
 6595SOL    HW231422   0.844   0.686   8.584  0.6201  0.2752 -1.9740
 6596SOL     OW31423   0.866   0.184   4.152  0.7380  0.1818 -0.0550
 6596SOL    HW131424   0.909   0.263   4.119  1.1578 -0.5928 -1.3953
 6596SOL    HW231425   0.789   0.180   4.095  0.6639 -0.8904  0.1188
 6597SOL     OW31426   4.023   0.967   1.831  0.3774 -0.0682  0.5466
 6597SOL    HW131427   4.090   0.901   1.815 -1.5995 -1.4154 -2.1544
 6597SOL    HW231428   4.076   1.021   1.889 -0.1510  0.3464  0.6491
 6598SOL     OW31429   2.020   3.412   5.877 -0.5074 -0.2449  0.3628
 6598SOL    HW131430   1.980   3.326   5.866  0.4932 -0.8956  1.8513
 6598SOL    HW231431   2.072   3.421   5.797 -1.0053  1.8124  0.2686
 6599SOL     OW31432   3.422   4.625   5.510 -0.6699 -0.6402 -0.4265
 6599SOL    HW131433   3.384   4.573   5.439 -0.3685  0.2486 -1.2383
 6599SOL    HW231434   3.386   4.710   5.486  0.4830  0.0738  0.3926
 6600SOL     OW31435   0.016   3.887   4.040  0.1898 -0.1823 -0.6480
 6600SOL    HW131436   0.060   3.833   3.975 -0.0319 -0.5239 -0.5135
 6600SOL    HW231437   4.724   3.954   3.981  0.2750 -0.0749 -0.5786
 6601SOL     OW31438   3.938   3.177  17.168 -0.3518  0.4547  0.5959
 6601SOL    HW131439   3.932   3.165  17.263  1.1531  1.9550  0.8863
 6601SOL    HW231440   4.006   3.116  17.142 -0.2797  1.4837 -1.6274
 6602SOL     OW31441   2.576   2.189   0.092  0.2994  0.0816 -0.4338
 6602SOL    HW131442   2.564   2.167  17.772  1.2547 -1.0586 -0.2908
 6602SOL    HW231443   2.568   2.100   0.127 -1.1582  1.2400  2.1365
 6603SOL     OW31444   4.254   4.330   9.679 -0.1472  0.4628 -0.3273
 6603SOL    HW131445   4.221   4.419   9.665 -0.1076  0.7560  1.4546
 6603SOL    HW231446   4.346   4.331   9.652  1.1414  0.2373  3.9878
 6604SOL     OW31447   4.673   1.889   8.541  0.1768  0.0105  0.2918
 6604SOL    HW131448   4.734   1.903   8.613  2.4069  2.5139 -2.0777
 6604SOL    HW231449   4.691   1.796   8.526 -0.3511  0.0511 -0.5908
 6605SOL     OW31450   4.718   4.186   3.562  0.4200  0.7672 -0.3019
 6605SOL    HW131451   4.623   4.179   3.560  0.3412  1.5186  0.7468
 6605SOL    HW231452   4.724   4.278   3.588  1.0478  0.0594  2.0529
 6606SOL     OW31453   2.649   1.745   4.700 -0.2041  0.2107  0.0213
 6606SOL    HW131454   2.667   1.756   4.794  0.4968 -1.2787  0.0601
 6606SOL    HW231455   2.589   1.818   4.683 -1.0305 -0.4105  0.2337
 6607SOL     OW31456   1.666   3.650   6.836  0.1459  0.7710 -0.4315
 6607SOL    HW131457   1.701   3.661   6.748  0.5382  0.2329 -0.3451
 6607SOL    HW231458   1.623   3.565   6.836  0.3137  0.6900 -1.3574
 6608SOL     OW31459   0.813   0.444  10.116 -0.6766  0.6318 -0.4059
 6608SOL    HW131460   0.768   0.395  10.185  0.6230 -0.0501 -0.0389
 6608SOL    HW231461   0.814   0.527  10.164  1.6046  1.5457 -2.0416
 6609SOL     OW31462   0.286   4.489   8.835  0.0543 -0.0246  0.4337
 6609SOL    HW131463   0.361   4.472   8.779 -0.4933  0.6179 -0.4841
 6609SOL    HW231464   0.300   4.414   8.893  1.3118  0.6194  0.9497
 6610SOL     OW31465   2.151   2.662   4.040  0.3723 -0.3922 -0.2594
 6610SOL    HW131466   2.094   2.611   4.098  0.1691  0.0017 -0.1106
 6610SOL    HW231467   2.236   2.646   4.081  0.7165 -1.2564 -1.3138
 6611SOL     OW31468   3.604   1.269   5.166 -0.4315 -0.1023  0.1249
 6611SOL    HW131469   3.523   1.227   5.136 -0.4640 -0.1060  0.2189
 6611SOL    HW231470   3.607   1.347   5.110 -3.0736  0.4417  0.7255
 6612SOL     OW31471   1.260   4.654   5.577 -0.4948 -0.5215  1.0259
 6612SOL    HW131472   1.282   4.735   5.530  0.3319 -0.1401  2.0786
 6612SOL    HW231473   1.351   4.623   5.576 -0.5816 -0.6356 -2.5265
 6613SOL     OW31474   3.554   1.716   3.752  0.2870  0.5669 -0.1806
 6613SOL    HW131475   3.633   1.688   3.705  0.8814  0.5446  0.8435
 6613SOL    HW231476   3.595   1.701   3.837  3.6951  2.3133 -1.4953
 6614SOL     OW31477   1.974   1.529   1.063  0.5447 -0.1120  0.4107
 6614SOL    HW131478   1.956   1.439   1.091  1.3879 -0.5650 -0.4612
 6614SOL    HW231479   1.916   1.556   0.992  1.9455  2.5390  0.2715
 6615SOL     OW31480   4.175   0.790   9.026  0.9064 -0.5080 -0.1114
 6615SOL    HW131481   4.188   0.783   9.121  1.1865 -1.4123 -0.2163
 6615SOL    HW231482   4.082   0.772   9.014  0.9603 -0.1988 -0.9700
 6616SOL     OW31483   3.481   4.003   8.641 -0.3182  0.1668  0.4756
 6616SOL    HW131484   3.396   3.986   8.681  0.0127 -1.6283  0.3941
 6616SOL    HW231485   3.535   4.026   8.716 -0.4523 -0.0466  0.6370
 6617SOL     OW31486   0.761   1.955  16.767  0.3711 -0.1728 -0.6394
 6617SOL    HW131487   0.703   1.911  16.704 -0.4843  1.4107 -0.9680
 6617SOL    HW231488   0.693   2.007  16.811 -1.6781 -1.0850 -2.6736
 6618SOL     OW31489   0.803   1.220   3.724  0.0160  0.2971 -0.1652
 6618SOL    HW131490   0.710   1.236   3.739  0.1074  2.7985 -2.2524
 6618SOL    HW231491   0.817   1.285   3.655 -0.0277  0.5640  0.0737
 6619SOL     OW31492   0.694   4.542   4.576 -0.2663  0.6461 -0.6306
 6619SOL    HW131493   0.684   4.607   4.646  1.0512 -0.3043  0.4340
 6619SOL    HW231494   0.687   4.602   4.502 -1.1833  0.4258 -0.7222
 6620SOL     OW31495   1.801   1.948   2.137 -0.4304  0.3355 -0.4733
 6620SOL    HW131496   1.787   2.007   2.212  1.1899 -0.4129  0.4005
 6620SOL    HW231497   1.893   1.971   2.127 -0.0476 -0.1186  2.0445
 6621SOL     OW31498   2.459   2.458   4.224  0.2439 -0.2112  0.3272
 6621SOL    HW131499   2.494   2.529   4.278  2.0549 -0.1324 -0.9319
 6621SOL    HW231500   2.520   2.458   4.149  1.4097  1.7113  1.2822
 6622SOL     OW31501   2.602   1.405   9.274 -0.3108  0.2001  0.4941
 6622SOL    HW131502   2.515   1.445   9.273 -1.5639 -2.6002 -2.7524
 6622SOL    HW231503   2.577   1.336   9.336  0.6801 -1.2180 -0.6750
 6623SOL     OW31504   4.033   3.507   4.036 -0.3213 -0.1186  0.0504
 6623SOL    HW131505   3.981   3.457   4.099  1.0411 -0.4759  0.9101
 6623SOL    HW231506   4.046   3.591   4.079  0.5953 -1.0778  1.6606
 6624SOL     OW31507   1.385   3.827   2.186  0.0958  0.4560 -0.6690
 6624SOL    HW131508   1.441   3.808   2.110  1.2201  1.0313  0.0197
 6624SOL    HW231509   1.359   3.739   2.212  1.3245  0.3870  0.3500
 6625SOL     OW31510   1.081   3.527   5.090 -0.1306  0.2991  0.0604
 6625SOL    HW131511   1.047   3.466   5.024  0.9683 -2.1125  1.7073
 6625SOL    HW231512   1.001   3.533   5.141 -0.3727 -0.3652 -0.2432
 6626SOL     OW31513   2.385   0.411  13.146 -0.6402 -0.7110 -1.1107
 6626SOL    HW131514   2.472   0.452  13.141 -0.9642 -0.2019 -2.5178
 6626SOL    HW231515   2.329   0.483  13.117  1.1209  1.1218  0.0435
 6627SOL     OW31516   3.400   4.630   3.510 -0.4238 -0.2702  0.1045
 6627SOL    HW131517   3.318   4.593   3.479  0.5737 -1.1172 -1.4989
 6627SOL    HW231518   3.452   4.598   3.436  1.5496 -0.1968  1.4705
 6628SOL     OW31519   3.465   1.928  10.042 -0.1310 -0.1709  0.2396
 6628SOL    HW131520   3.404   1.992  10.006 -1.6090 -1.9731 -0.4803
 6628SOL    HW231521   3.529   1.985  10.084  3.0192 -2.8957 -0.8524
 6629SOL     OW31522   2.496   2.559   2.480  0.2546 -0.0609 -0.3417
 6629SOL    HW131523   2.544   2.605   2.411  0.0050 -0.6208 -0.8886
 6629SOL    HW231524   2.457   2.490   2.426  1.5335 -2.1970  1.4590
 6630SOL     OW31525   0.136   1.231  13.144 -0.1751 -1.4485  0.1832
 6630SOL    HW131526   0.127   1.166  13.075  0.0311 -0.4313 -0.8002
 6630SOL    HW231527   0.146   1.317  13.103  0.0335 -1.6257 -0.1388
 6631SOL     OW31528   2.020   0.679   8.057  0.0888  0.4833 -0.3111
 6631SOL    HW131529   1.942   0.624   8.058  1.6395 -1.6861  0.4594
 6631SOL    HW231530   2.073   0.638   7.989  0.7563 -0.3586  0.7200
 6632SOL     OW31531   2.150   3.304   2.677 -0.4716  0.3679 -0.0202
 6632SOL    HW131532   2.141   3.270   2.588  0.3732  0.0058  0.0282
 6632SOL    HW231533   2.240   3.337   2.674 -0.6930  0.8990 -0.6937
 6633SOL     OW31534   2.769   1.808   3.111 -0.6663  0.1185 -0.6191
 6633SOL    HW131535   2.719   1.874   3.063 -2.3457 -0.3026  0.5190
 6633SOL    HW231536   2.848   1.855   3.136 -1.3137 -0.1121  1.9131
 6634SOL     OW31537   1.839   4.101   7.154 -0.3486 -0.1591  0.2267
 6634SOL    HW131538   1.789   4.064   7.081  0.7099 -2.9974  0.9591
 6634SOL    HW231539   1.919   4.050   7.154 -0.1209  0.2065  1.6682
 6635SOL     OW31540   1.938   3.804   3.773 -0.7140 -0.4521  0.3836
 6635SOL    HW131541   1.917   3.870   3.707  3.2037 -0.0889 -0.4956
 6635SOL    HW231542   2.027   3.786   3.742  0.4502 -0.0124  3.4925
 6636SOL     OW31543   3.454   2.028   5.389 -0.5348 -0.2420 -0.1075
 6636SOL    HW131544   3.408   1.951   5.424  1.7396 -2.6267 -2.3972
 6636SOL    HW231545   3.542   1.995   5.408  0.7875  1.2060 -3.7655
 6637SOL     OW31546   3.179   3.677   6.587 -0.8220  0.4293  0.1040
 6637SOL    HW131547   3.263   3.633   6.585 -0.9352  0.3204 -1.5762
 6637SOL    HW231548   3.153   3.662   6.497 -1.0654  0.0536  0.2364
 6638SOL     OW31549   0.868   1.738   5.564  0.2492  0.0931 -0.0811
 6638SOL    HW131550   0.814   1.665   5.593 -1.7493  1.8106  0.5314
 6638SOL    HW231551   0.901   1.775   5.646  0.8654 -2.4276  0.8180
 6639SOL     OW31552   3.185   3.114   4.538  0.1574 -0.0526 -0.2410
 6639SOL    HW131553   3.244   3.079   4.471 -0.0278 -0.8034 -0.0174
 6639SOL    HW231554   3.218   3.202   4.554  0.9489 -0.5025  0.5730
 6640SOL     OW31555   2.428   1.014   7.278 -0.3124  0.2118 -0.0964
 6640SOL    HW131556   2.352   0.962   7.250 -1.4296  1.2512  0.9745
 6640SOL    HW231557   2.407   1.106   7.264 -1.8232 -0.3205 -1.2219
 6641SOL     OW31558   4.314   0.839   8.446  0.2192  0.3245 -0.2250
 6641SOL    HW131559   4.281   0.894   8.374 -1.2553 -0.5749 -0.2408
 6641SOL    HW231560   4.269   0.757   8.425  0.1189 -0.0162  1.3438
 6642SOL     OW31561   4.461   0.025  16.184  0.3070  0.2094 -0.7759
 6642SOL    HW131562   4.440   0.048  16.275  0.0434  2.8546 -1.5118
 6642SOL    HW231563   4.453   4.674  16.197 -1.7910  0.3358 -1.1552
 6643SOL     OW31564   2.733   4.241   4.235  0.0960 -0.2807 -0.1977
 6643SOL    HW131565   2.762   4.185   4.163  1.3470  2.2146 -1.6674
 6643SOL    HW231566   2.813   4.250   4.286 -1.1352  0.6406  1.5664
 6644SOL     OW31567   1.231   4.490   7.761 -0.2030 -0.2196  0.4559
 6644SOL    HW131568   1.231   4.396   7.739  0.3538 -0.6830  2.4768
 6644SOL    HW231569   1.142   4.490   7.796 -0.2927 -0.4637  0.2324
 6645SOL     OW31570   0.790   1.318   7.538 -0.1126 -0.0548  0.1482
 6645SOL    HW131571   0.883   1.324   7.560 -0.2210  1.1290  0.2584
 6645SOL    HW231572   0.765   1.280   7.622 -2.2756  0.8609 -0.0843
 6646SOL     OW31573   1.693   3.461  13.199  0.5744  0.2802 -0.3352
 6646SOL    HW131574   1.678   3.393  13.266  0.9494 -0.5656 -1.1050
 6646SOL    HW231575   1.750   3.519  13.249 -0.3856  1.7514 -0.9421
 6647SOL     OW31576   3.221   4.394   4.476  0.2578 -0.4581  0.1595
 6647SOL    HW131577   3.192   4.480   4.444 -0.3021 -1.4279 -1.9344
 6647SOL    HW231578   3.253   4.422   4.562 -1.4066 -5.0553  2.2456
 6648SOL     OW31579   4.678   0.211   7.002  0.1528  0.8067 -0.1546
 6648SOL    HW131580   0.025   0.182   6.989 -0.7495 -2.1202  0.2045
 6648SOL    HW231581   4.635   0.127   7.017 -0.2697  1.1177  0.4134
 6649SOL     OW31582   4.173   2.310   6.887  0.8264  0.1119  0.3580
 6649SOL    HW131583   4.160   2.355   6.804 -0.6999 -0.6273  0.2025
 6649SOL    HW231584   4.217   2.230   6.859  1.4728  0.4924  0.2735
 6650SOL     OW31585   2.313   3.048   8.079 -0.2511  0.3243 -0.8277
 6650SOL    HW131586   2.241   3.072   8.021 -0.0520  0.4773 -1.0142
 6650SOL    HW231587   2.363   3.129   8.074  0.1400  0.0068 -2.1712
 6651SOL     OW31588   0.001   3.338   3.036  1.0978  0.2734 -0.0597
 6651SOL    HW131589   0.088   3.311   3.005 -0.1759 -1.6292 -1.9216
 6651SOL    HW231590   4.685   3.282   2.988  0.0546  1.8258 -0.5707
 6652SOL     OW31591   4.492   1.747  17.142  0.0199  0.2222 -0.1841
 6652SOL    HW131592   4.581   1.784  17.143 -0.3160  0.9577  1.9778
 6652SOL    HW231593   4.460   1.802  17.070  0.1676  1.1829  0.4880
 6653SOL     OW31594   1.305   1.887  12.085 -0.0634 -0.3265  0.1285
 6653SOL    HW131595   1.217   1.898  12.122  0.3899  0.4092  0.9844
 6653SOL    HW231596   1.346   1.816  12.135  0.9875  0.2580  0.0766
 6654SOL     OW31597   0.641   3.809   1.214 -0.1554  0.6605 -0.6909
 6654SOL    HW131598   0.651   3.893   1.259  1.9250  0.4074 -0.7061
 6654SOL    HW231599   0.598   3.762   1.285 -0.8067  3.7140  0.9428
 6655SOL     OW31600   1.682   3.250   1.019 -0.1812  0.2636 -0.4978
 6655SOL    HW131601   1.704   3.180   0.958  0.8471  0.5552 -0.4569
 6655SOL    HW231602   1.658   3.324   0.964  0.2059 -0.8204 -2.1120
 6656SOL     OW31603   4.595   3.860   5.347  0.2275 -0.2354 -0.1543
 6656SOL    HW131604   4.685   3.829   5.347 -0.1071 -1.2166  0.0804
 6656SOL    HW231605   4.560   3.850   5.436 -2.4738 -3.3721 -1.5875
 6657SOL     OW31606   4.041   0.071  12.840 -0.1722  0.0622 -0.4608
 6657SOL    HW131607   4.105   0.001  12.822 -0.6754 -0.1960 -1.2826
 6657SOL    HW231608   4.055   0.129  12.765 -1.5354 -0.0640 -0.8220
 6658SOL     OW31609   2.124   2.784   1.668  0.3041 -0.5820 -0.5035
 6658SOL    HW131610   2.042   2.734   1.659 -0.4641  0.7192 -0.6930
 6658SOL    HW231611   2.085   2.866   1.699 -1.1858 -1.8274  0.9492
 6659SOL     OW31612   2.335   2.434  10.058  0.1217 -0.2712 -0.1030
 6659SOL    HW131613   2.265   2.380  10.021 -0.9187  1.3278 -0.4895
 6659SOL    HW231614   2.278   2.482  10.119 -0.4276  0.2311 -1.0109
 6660SOL     OW31615   3.715   2.810   2.148  0.2817  0.2708  0.2102
 6660SOL    HW131616   3.679   2.788   2.062  0.1318  0.4173  0.2371
 6660SOL    HW231617   3.646   2.857   2.193  0.2764  0.2850  0.1874
 6661SOL     OW31618   2.640   2.816   7.048 -0.5492 -0.4941 -0.1543
 6661SOL    HW131619   2.701   2.780   7.113 -0.9231  1.0435  1.0217
 6661SOL    HW231620   2.581   2.741   7.041  1.7689 -1.9706 -4.0896
 6662SOL     OW31621   4.606   0.249   8.292 -0.0961 -0.3961  0.1726
 6662SOL    HW131622   4.640   0.335   8.319  0.3909 -0.8999  1.1757
 6662SOL    HW231623   4.665   0.236   8.218 -1.3123  2.5446 -1.3353
 6663SOL     OW31624   2.338   3.006   1.257  0.0098 -0.4535  0.3384
 6663SOL    HW131625   2.425   3.046   1.257  0.2440 -0.9800  2.1797
 6663SOL    HW231626   2.308   3.029   1.345 -2.4784 -1.3841 -0.2515
 6664SOL     OW31627   2.492   1.791   7.827 -0.3238  0.0664 -0.0802
 6664SOL    HW131628   2.402   1.759   7.819 -0.7856  1.8294 -1.7221
 6664SOL    HW231629   2.547   1.712   7.835 -0.1227  0.2844  0.6976
 6665SOL     OW31630   1.891   1.111   2.133  0.0923  0.2277  0.0366
 6665SOL    HW131631   1.863   1.020   2.124  0.3780 -0.1346  2.8113
 6665SOL    HW231632   1.973   1.087   2.176 -0.2452 -0.9026  0.0487
 6666SOL     OW31633   4.302   2.715   2.619 -0.1420  0.6472 -1.2049
 6666SOL    HW131634   4.266   2.676   2.539  0.2606 -2.2513  0.0264
 6666SOL    HW231635   4.281   2.656   2.691 -0.5139  2.3739  0.1035
 6667SOL     OW31636   0.992   0.739  11.174  0.0750 -0.2088 -0.2223
 6667SOL    HW131637   0.977   0.725  11.081 -0.9979 -1.1849  0.0913
 6667SOL    HW231638   0.909   0.782  11.193 -0.2781 -1.0111  0.0650
 6668SOL     OW31639   0.458   1.607  12.163 -0.7717 -0.3308 -0.3297
 6668SOL    HW131640   0.510   1.530  12.191 -0.0009  0.3077  0.0054
 6668SOL    HW231641   0.373   1.564  12.157 -1.4638  1.1807 -1.3320
 6669SOL     OW31642   0.451   1.207  12.471  0.1405 -0.4227 -0.2240
 6669SOL    HW131643   0.358   1.227  12.468  0.0101 -0.9808  0.1202
 6669SOL    HW231644   0.447   1.112  12.462  0.4911 -0.2898 -1.7227
 6670SOL     OW31645   3.773   0.275   9.201  0.2249  0.1845 -0.3322
 6670SOL    HW131646   3.779   0.196   9.255  1.1731  0.5501  0.1090
 6670SOL    HW231647   3.865   0.277   9.173  0.3196 -0.5906 -0.0725
 6671SOL     OW31648   4.587   4.383   9.915 -0.0592  0.5187  0.2533
 6671SOL    HW131649   4.598   4.428   9.998 -0.1178 -0.4006  0.7560
 6671SOL    HW231650   4.597   4.293   9.946 -0.9109  0.3371 -0.0173
 6672SOL     OW31651   0.930   1.136   8.532 -0.1953  0.1513  0.3950
 6672SOL    HW131652   0.852   1.097   8.570  0.4032 -0.7001  0.7539
 6672SOL    HW231653   0.972   1.054   8.505  1.6389  1.4671 -0.7335
 6673SOL     OW31654   3.290   0.852   0.274  0.1866 -0.5107 -0.2892
 6673SOL    HW131655   3.310   0.926   0.331  1.1174 -1.6213  0.8400
 6673SOL    HW231656   3.368   0.798   0.287  1.4069  1.2388 -0.4170
 6674SOL     OW31657   0.132   0.986   1.230 -0.4034 -0.2527 -0.0979
 6674SOL    HW131658   0.138   0.981   1.135  1.0261 -0.0102 -0.0175
 6674SOL    HW231659   0.040   1.014   1.231 -0.2847  0.1003  0.8411
 6675SOL     OW31660   0.183   0.194   2.933 -0.4676 -0.3055  0.9768
 6675SOL    HW131661   0.215   0.275   2.974  0.0284 -0.8987  1.7607
 6675SOL    HW231662   0.094   0.190   2.968 -0.3035  1.3342  1.6026
 6676SOL     OW31663   3.514   3.550   5.576 -0.0453  0.4192 -0.1168
 6676SOL    HW131664   3.553   3.594   5.500  0.3649 -2.2358 -1.4355
 6676SOL    HW231665   3.421   3.565   5.557  0.1119  2.0052  0.3156
 6677SOL     OW31666   0.662   3.378   4.255  0.1558 -0.1495 -0.4103
 6677SOL    HW131667   0.611   3.362   4.334  0.6807 -0.0239 -0.0446
 6677SOL    HW231668   0.744   3.421   4.281 -1.0427  0.6439  2.0238
 6678SOL     OW31669   2.649   2.385   5.094 -0.0577 -0.2832  0.3685
 6678SOL    HW131670   2.584   2.419   5.155  1.5790 -1.4384  2.7722
 6678SOL    HW231671   2.599   2.305   5.077  0.7717 -0.6972 -0.1265
 6679SOL     OW31672   1.910   1.441   1.395  0.8362 -0.1020  0.2438
 6679SOL    HW131673   1.872   1.391   1.322  1.6638  0.8825 -0.8653
 6679SOL    HW231674   1.864   1.397   1.466 -0.3324 -0.4364 -0.7130
 6680SOL     OW31675   3.804   1.933   5.624 -0.0262  0.0088  0.6034
 6680SOL    HW131676   3.825   1.907   5.534  1.4477 -0.2836  1.0288
 6680SOL    HW231677   3.784   2.026   5.611 -1.2631 -0.2329  0.7976
 6681SOL     OW31678   1.555   3.575   8.676  0.3719 -0.2126  0.6595
 6681SOL    HW131679   1.616   3.619   8.735 -0.5376  1.3901  0.4002
 6681SOL    HW231680   1.481   3.563   8.736 -0.3691 -1.2563 -0.4437
 6682SOL     OW31681   1.533   2.161   8.267  0.4680 -0.6025 -0.4616
 6682SOL    HW131682   1.439   2.146   8.274  0.0149  0.3052 -4.6022
 6682SOL    HW231683   1.575   2.088   8.312 -0.5876 -0.3815  0.8472
 6683SOL     OW31684   2.233   3.652   2.943 -0.0080 -0.0504 -0.1751
 6683SOL    HW131685   2.197   3.592   3.008  1.2721  0.2223  0.7757
 6683SOL    HW231686   2.317   3.612   2.921  0.5810  0.6372  0.8696
 6684SOL     OW31687   3.265   4.228  17.133  0.0797  0.4826  0.7246
 6684SOL    HW131688   3.233   4.151  17.084  2.5253 -0.4083  0.5572
 6684SOL    HW231689   3.358   4.209  17.122  0.3565  2.2766  0.0234
 6685SOL     OW31690   3.820   4.647   5.585  0.1853 -1.0377 -0.7345
 6685SOL    HW131691   3.892   4.711   5.578  0.6867 -1.5935 -0.6012
 6685SOL    HW231692   3.832   4.598   5.666 -0.3768  1.8368  1.0855
 6686SOL     OW31693   0.951   0.298   4.613  0.1494 -0.0512 -0.3145
 6686SOL    HW131694   0.886   0.316   4.546 -0.1641  2.8410  0.7727
 6686SOL    HW231695   0.902   0.308   4.695  1.2373 -2.6130  0.6639
 6687SOL     OW31696   1.258   2.557   5.982  0.7343  0.2754  0.1715
 6687SOL    HW131697   1.242   2.639   6.027 -2.0476 -0.3331  0.3125
 6687SOL    HW231698   1.345   2.523   6.004 -0.3266 -2.2370  0.4854
 6688SOL     OW31699   3.014   1.825   4.571  0.6883  0.1068 -0.3124
 6688SOL    HW131700   2.941   1.767   4.549  0.7993 -0.3280  0.4649
 6688SOL    HW231701   2.993   1.849   4.661  2.1941  2.5355 -0.6148
 6689SOL     OW31702   0.999   0.869   7.133 -0.1848  0.4856  0.0070
 6689SOL    HW131703   0.926   0.895   7.189 -0.9535 -2.2714  0.2807
 6689SOL    HW231704   1.055   0.811   7.184  2.2394  2.1053 -0.7755
 6690SOL     OW31705   1.701   2.228   5.576 -0.1721  0.2085  0.7963
 6690SOL    HW131706   1.789   2.197   5.599  1.1342  1.7586 -1.9626
 6690SOL    HW231707   1.650   2.211   5.655 -1.4514 -0.1512 -0.1100
 6691SOL     OW31708   1.651   3.254   6.021  0.0806  0.6892  0.5765
 6691SOL    HW131709   1.651   3.297   6.107  1.9963  0.9591  0.4646
 6691SOL    HW231710   1.604   3.319   5.968 -0.6434 -1.8869 -1.9192
 6692SOL     OW31711   3.711   4.334   4.026  0.1096  0.1336  0.3613
 6692SOL    HW131712   3.663   4.269   4.078  2.9262 -2.8053 -0.6959
 6692SOL    HW231713   3.637   4.392   4.005  0.1517  0.8003  2.0648
 6693SOL     OW31714   4.500   1.782   6.226 -0.1182 -0.6159 -0.0666
 6693SOL    HW131715   4.545   1.821   6.152 -2.2465  1.9589  0.0001
 6693SOL    HW231716   4.475   1.862   6.272  2.6825 -0.7572  1.7365
 6694SOL     OW31717   3.315   0.509   4.380  0.6828  0.0249  0.4699
 6694SOL    HW131718   3.298   0.595   4.340  0.5271  0.1317  0.7704
 6694SOL    HW231719   3.406   0.511   4.408  0.4825  1.6160  1.0116
 6695SOL     OW31720   2.121   3.196  12.898 -0.0475 -0.2482 -0.6904
 6695SOL    HW131721   2.087   3.261  12.836 -0.3391  0.7840  0.5234
 6695SOL    HW231722   2.051   3.133  12.915 -0.0394 -0.0414  0.1265
 6696SOL     OW31723   2.621   1.078   8.747  0.0683 -0.0795 -0.4163
 6696SOL    HW131724   2.685   1.035   8.803 -0.8625  0.2423  0.8708
 6696SOL    HW231725   2.621   1.168   8.780  0.3290 -0.9110  1.8172
 6697SOL     OW31726   2.246   3.694   5.337 -0.4005  0.7600  0.1675
 6697SOL    HW131727   2.341   3.705   5.333 -0.2832 -0.9944 -2.1867
 6697SOL    HW231728   2.219   3.649   5.257  0.4616  0.2554  0.1572
 6698SOL     OW31729   1.990   3.532   7.087  0.0200 -0.1546 -0.4217
 6698SOL    HW131730   2.070   3.578   7.113  0.2938  0.3965 -2.2394
 6698SOL    HW231731   2.032   3.447   7.072  0.8932  0.0779  0.7194
 6699SOL     OW31732   4.722   1.477   7.707  0.2834  0.2041  0.2834
 6699SOL    HW131733   0.045   1.478   7.775  0.7595  1.3834 -0.1934
 6699SOL    HW231734   4.650   1.527   7.744  0.0946  1.8763 -2.3150
 6700SOL     OW31735   4.125   0.167   4.655 -0.2196  0.8304  0.0339
 6700SOL    HW131736   4.166   0.083   4.634 -3.0224 -0.4771 -0.1529
 6700SOL    HW231737   4.111   0.196   4.565  1.7540 -1.0081 -0.8671
 6701SOL     OW31738   0.474   1.806  10.823  0.4130  0.4457  0.5892
 6701SOL    HW131739   0.482   1.743  10.895  2.1058 -0.6337 -0.5514
 6701SOL    HW231740   0.560   1.844  10.808  1.1202 -1.1478  0.6787
 6702SOL     OW31741   0.917   0.164   9.369 -0.3221  0.5435  0.4635
 6702SOL    HW131742   0.930   0.213   9.451  1.2647 -0.5032  0.8621
 6702SOL    HW231743   0.913   0.075   9.405  0.9146  1.0152  1.8126
 6703SOL     OW31744   0.026   1.223  11.490 -0.5279 -0.4660  0.8880
 6703SOL    HW131745   4.731   1.174  11.418 -1.5566 -0.4467  1.4210
 6703SOL    HW231746   0.106   1.244  11.443  0.2605 -2.5175  1.2951
 6704SOL     OW31747   0.452   3.825   4.178  0.0143  0.5459  0.2301
 6704SOL    HW131748   0.542   3.857   4.189 -0.0717  0.5945  0.7685
 6704SOL    HW231749   0.405   3.890   4.125  2.1975  1.9945  0.0517
 6705SOL     OW31750   0.235   3.974   5.438 -0.0241 -0.3611  0.7071
 6705SOL    HW131751   0.228   4.040   5.368  0.8246  0.0081  0.9793
 6705SOL    HW231752   0.301   3.919   5.395 -1.3929 -0.4971 -1.2532
 6706SOL     OW31753   0.359   2.253   3.140 -0.4837  0.2774 -0.6026
 6706SOL    HW131754   0.351   2.160   3.121 -0.7410 -0.1209  1.5032
 6706SOL    HW231755   0.450   2.250   3.170 -0.5610 -2.3483 -0.6266
 6707SOL     OW31756   2.073   2.014  16.295  0.4186 -0.3282  0.1166
 6707SOL    HW131757   2.071   2.038  16.202  1.6082  2.3008  0.7730
 6707SOL    HW231758   1.979   2.011  16.312 -0.0281 -0.3875 -2.4221
 6708SOL     OW31759   0.099   1.786   1.503 -0.0418 -0.2835  0.1818
 6708SOL    HW131760   0.072   1.867   1.458  3.2567  0.3159 -0.7090
 6708SOL    HW231761   0.139   1.822   1.582 -0.5495 -0.5181  0.5462
 6709SOL     OW31762   2.936   0.467   6.615 -0.1461  0.0432  0.5850
 6709SOL    HW131763   2.915   0.560   6.623  0.3944  0.2952 -1.0502
 6709SOL    HW231764   2.956   0.447   6.707 -0.9824  3.5490  1.5416
 6710SOL     OW31765   3.297   2.753   5.185  0.3445 -0.2744  0.7016
 6710SOL    HW131766   3.222   2.712   5.140  0.4307  0.2511  0.0875
 6710SOL    HW231767   3.267   2.733   5.273  3.3043 -0.7929  1.5865
 6711SOL     OW31768   4.507   1.273   9.130  0.0763  0.1331 -0.1814
 6711SOL    HW131769   4.487   1.355   9.086  1.6423  0.5174 -0.1907
 6711SOL    HW231770   4.426   1.247   9.174 -0.2210 -0.0178 -0.8222
 6712SOL     OW31771   1.332   3.327   9.894 -0.4422  0.1619 -0.3680
 6712SOL    HW131772   1.347   3.419   9.872  1.4359 -0.3275 -1.1753
 6712SOL    HW231773   1.382   3.288   9.822  0.3992 -0.8406  0.7512
 6713SOL     OW31774   3.087   4.045   8.532 -0.4836  0.0719  0.1592
 6713SOL    HW131775   3.020   3.981   8.555 -2.0254  1.7693  0.3466
 6713SOL    HW231776   3.167   4.007   8.569  1.9934  2.3120 -2.8469
 6714SOL     OW31777   4.023   0.514   6.069 -0.3795 -0.2927  0.1516
 6714SOL    HW131778   3.958   0.446   6.085 -0.7460 -0.6048 -2.5628
 6714SOL    HW231779   4.103   0.463   6.073  0.1997  0.6769  0.9342
 6715SOL     OW31780   1.932   0.575   7.688  0.1333  0.3566 -0.6544
 6715SOL    HW131781   1.836   0.581   7.682  0.0342 -1.5368 -1.0547
 6715SOL    HW231782   1.954   0.553   7.598  0.6829  0.2565 -0.4966
 6716SOL     OW31783   2.148   3.974  10.503 -0.4041 -0.9395  0.7380
 6716SOL    HW131784   2.127   3.920  10.427  1.1626 -0.0245 -0.3548
 6716SOL    HW231785   2.169   4.053  10.453 -0.4434 -0.9036  0.7779
 6717SOL     OW31786   4.458   1.946   5.248 -0.4559 -0.0422  0.0527
 6717SOL    HW131787   4.504   1.931   5.330 -0.2941  0.0903 -0.0131
 6717SOL    HW231788   4.525   1.974   5.186  2.2652 -2.2805  1.9894
 6718SOL     OW31789   1.973   4.420   5.867 -0.2267 -0.3445 -0.1735
 6718SOL    HW131790   1.939   4.404   5.779  0.0439  0.0577 -0.3453
 6718SOL    HW231791   2.010   4.507   5.857 -1.0485 -0.1655 -1.6486
 6719SOL     OW31792   1.363   3.109   6.815 -0.5903  0.0452  0.2970
 6719SOL    HW131793   1.423   3.110   6.889  1.9372  1.2558 -1.7622
 6719SOL    HW231794   1.280   3.130   6.856 -0.6943  1.2368 -0.5036
 6720SOL     OW31795   3.089   3.512  10.451 -0.5985 -0.0395  0.1474
 6720SOL    HW131796   3.139   3.431  10.450 -1.2628 -0.4393 -0.9213
 6720SOL    HW231797   3.159   3.577  10.459 -1.8165  1.1603  1.1529
 6721SOL     OW31798   3.781   3.960   7.812  0.2712  0.3594  0.4373
 6721SOL    HW131799   3.829   3.891   7.858 -1.3391 -1.0148  0.0695
 6721SOL    HW231800   3.846   4.002   7.755  1.3560 -1.0492  0.6198
 6722SOL     OW31801   4.360   3.461   8.012  0.4160  0.3706  0.1177
 6722SOL    HW131802   4.409   3.541   7.992  1.1674 -0.2370 -0.4909
 6722SOL    HW231803   4.278   3.475   7.966  0.4520 -0.3925 -0.1763
 6723SOL     OW31804   1.026   3.897   1.357 -0.3704  0.2532 -0.2817
 6723SOL    HW131805   0.938   3.888   1.393 -0.8492  0.0556 -1.5019
 6723SOL    HW231806   1.017   3.851   1.274  0.4124  2.1346 -1.3938
 6724SOL     OW31807   4.497   0.698   0.367  0.1429  0.0938 -0.3091
 6724SOL    HW131808   4.563   0.736   0.309 -0.0940  0.1308 -0.5551
 6724SOL    HW231809   4.423   0.720   0.311 -0.8184 -0.3402  0.7842
 6725SOL     OW31810   3.307   1.034   3.179 -0.0574 -0.2898  0.2143
 6725SOL    HW131811   3.356   1.010   3.257 -1.8684 -0.5246  1.2688
 6725SOL    HW231812   3.328   0.964   3.118  1.0125  0.1227  0.1126
 6726SOL     OW31813   3.952   3.456   9.128  0.2933 -0.9936 -0.0794
 6726SOL    HW131814   4.021   3.414   9.075  0.3396 -1.8426  0.6532
 6726SOL    HW231815   3.906   3.381   9.165 -1.6702 -0.5401 -1.5663
 6727SOL     OW31816   2.256   2.320   4.041  0.1277  0.1745 -0.1020
 6727SOL    HW131817   2.286   2.382   4.108 -0.2499 -0.6462  0.8244
 6727SOL    HW231818   2.340   2.283   4.014  0.8487  1.6305  0.0943
 6728SOL     OW31819   2.507   0.777   7.113  0.2836 -0.3861 -0.6343
 6728SOL    HW131820   2.439   0.803   7.051 -0.0784 -3.0907 -1.3532
 6728SOL    HW231821   2.480   0.821   7.194 -0.6920 -2.5845  0.2177
 6729SOL     OW31822   0.902   4.128  11.419  0.3069 -0.1865 -0.3806
 6729SOL    HW131823   0.864   4.042  11.403  0.6201 -0.3338 -0.3266
 6729SOL    HW231824   0.979   4.125  11.362  1.8079  1.8384  1.5281
 6730SOL     OW31825   2.772   0.156   9.810 -0.5166 -0.8571 -0.4641
 6730SOL    HW131826   2.781   0.089   9.742  0.3541 -0.4838 -0.7188
 6730SOL    HW231827   2.681   0.140   9.833 -1.1196  1.5306 -1.2402
 6731SOL     OW31828   4.536   4.309   7.145 -0.6421  0.5130 -0.0598
 6731SOL    HW131829   4.599   4.261   7.199 -1.1936  1.1490  1.1588
 6731SOL    HW231830   4.551   4.294   7.052 -0.0454  1.0369 -0.0483
 6732SOL     OW31831   3.764   0.228   6.426  0.1172  0.7549  0.0559
 6732SOL    HW131832   3.854   0.259   6.412  0.9650 -2.5111 -1.9813
 6732SOL    HW231833   3.748   0.192   6.338  1.1517  2.3451 -0.7870
 6733SOL     OW31834   3.994   4.422   9.433  0.1394 -0.5628  0.0868
 6733SOL    HW131835   3.955   4.378   9.357  0.0287 -0.7134  0.2300
 6733SOL    HW231836   4.064   4.465   9.385  1.0402  0.0741  1.9671
 6734SOL     OW31837   3.435   2.545   7.229 -0.2641  0.9355 -0.3205
 6734SOL    HW131838   3.502   2.612   7.213 -0.1261  0.3458 -2.3033
 6734SOL    HW231839   3.436   2.528   7.323  0.0930  0.9775 -0.3177
 6735SOL     OW31840   0.329   0.116   2.146  0.3150 -0.1488  0.0026
 6735SOL    HW131841   0.299   0.045   2.088  0.5389 -1.1632  1.1412
 6735SOL    HW231842   0.388   0.061   2.196 -1.7959 -0.4786  2.1551
 6736SOL     OW31843   4.549   4.291   2.509 -0.3647 -0.7336  0.3607
 6736SOL    HW131844   4.514   4.310   2.596 -1.2593  1.6914 -0.5292
 6736SOL    HW231845   4.482   4.232   2.474 -0.1734 -1.8466  1.8977
 6737SOL     OW31846   1.871   3.958  10.466  0.2617  0.1927  0.4211
 6737SOL    HW131847   1.961   3.948  10.496  0.3896  0.7750  0.2396
 6737SOL    HW231848   1.831   4.007  10.538  1.4557  0.6088  0.8101
 6738SOL     OW31849   2.701   2.347   7.629  0.5730  0.0461  0.0083
 6738SOL    HW131850   2.686   2.296   7.708 -1.3731  1.1069  0.3103
 6738SOL    HW231851   2.645   2.420   7.653  0.0079 -0.5045  0.3658
 6739SOL     OW31852   0.142   2.807   5.506  0.4027  0.0555  0.0686
 6739SOL    HW131853   0.163   2.872   5.440  2.2160 -0.3424  0.2469
 6739SOL    HW231854   0.046   2.802   5.508  0.2734  2.0765 -1.4907
 6740SOL     OW31855   4.326   3.121   3.763  0.5910 -0.0367 -0.0486
 6740SOL    HW131856   4.390   3.182   3.728  0.9352 -0.6400 -0.4801
 6740SOL    HW231857   4.340   3.136   3.856  0.8572  0.3212 -0.1492
 6741SOL     OW31858   3.024   1.917   6.540 -0.0065  0.3000 -0.2083
 6741SOL    HW131859   3.028   2.000   6.493 -1.3108 -0.6227 -1.9696
 6741SOL    HW231860   3.020   1.946   6.631 -1.9236  0.3990 -0.3319
 6742SOL     OW31861   4.080   2.614  12.204  0.0295  0.1591 -0.5935
 6742SOL    HW131862   4.122   2.633  12.119 -0.6353  2.2037 -0.4706
 6742SOL    HW231863   4.095   2.520  12.215 -1.1378 -0.0749 -1.0549
 6743SOL     OW31864   3.292   0.631  12.024 -0.4378  0.7806  0.0266
 6743SOL    HW131865   3.315   0.717  11.988 -0.3586  2.1692  3.4065
 6743SOL    HW231866   3.360   0.574  11.989  0.5174  1.1868  1.2392
 6744SOL     OW31867   4.294   1.731  17.531 -0.0119  0.7027  0.0904
 6744SOL    HW131868   4.363   1.711  17.595 -0.8169  1.0784  1.0729
 6744SOL    HW231869   4.331   1.803  17.480 -0.9087  2.2364  1.5887
 6745SOL     OW31870   2.659   2.180   7.871  0.3099 -0.4537 -0.4911
 6745SOL    HW131871   2.699   2.098   7.842 -0.2452 -0.1124 -2.2266
 6745SOL    HW231872   2.734   2.224   7.911  0.2056 -3.8818  3.4544
 6746SOL     OW31873   1.612   3.601   3.538 -0.1411 -0.2450  0.0920
 6746SOL    HW131874   1.620   3.505   3.540  1.9831 -0.0875 -1.1701
 6746SOL    HW231875   1.660   3.628   3.616 -0.6522 -2.3108  1.1382
 6747SOL     OW31876   2.722   2.294   1.637  0.5237  0.4255  0.7437
 6747SOL    HW131877   2.786   2.250   1.694 -0.5976 -2.8108 -0.4767
 6747SOL    HW231878   2.668   2.333   1.706  0.1197  0.8802  0.1619
 6748SOL     OW31879   2.654   1.123   6.609  0.2283  0.4484 -0.5417
 6748SOL    HW131880   2.680   1.200   6.660 -1.3768 -0.4568  1.6588
 6748SOL    HW231881   2.737   1.076   6.613  0.5395  0.9908 -0.5456
 6749SOL     OW31882   3.558   1.355   0.027  0.3108  0.0674 -0.4911
 6749SOL    HW131883   3.502   1.424   0.062  0.9557 -0.5787  1.8022
 6749SOL    HW231884   3.508   1.279   0.058  0.6386 -0.5113 -1.3627
 6750SOL     OW31885   3.072   4.437   6.887  0.3737  0.1330  0.5625
 6750SOL    HW131886   3.109   4.434   6.975  0.8332  0.2251  0.3746
 6750SOL    HW231887   2.991   4.481   6.911  1.6855  2.7403  0.2147
 6751SOL     OW31888   2.632   1.266  13.485 -0.2806 -0.4260  0.2520
 6751SOL    HW131889   2.701   1.330  13.467  0.2688 -1.3343 -0.9071
 6751SOL    HW231890   2.577   1.333  13.526  0.4034  1.1655 -1.4550
 6752SOL     OW31891   3.769   4.491   5.327  0.7340  0.0644 -0.3457
 6752SOL    HW131892   3.816   4.553   5.273  1.2991 -0.0584 -0.0015
 6752SOL    HW231893   3.780   4.524   5.417  2.0008  1.4153 -0.9947
 6753SOL     OW31894   2.889   0.772  10.004 -0.1191  0.1848 -0.0566
 6753SOL    HW131895   2.824   0.835  10.037 -1.8244 -0.8619 -1.4376
 6753SOL    HW231896   2.965   0.825   9.979 -1.7252  2.7191  0.4332
 6754SOL     OW31897   0.215   0.997   4.325  0.4202  0.7374  0.1518
 6754SOL    HW131898   0.158   1.070   4.299 -0.1134 -0.6572 -2.6238
 6754SOL    HW231899   0.212   0.944   4.245  4.0447  0.4637  0.2020
 6755SOL     OW31900   2.128   4.359   7.758 -0.2569 -0.2510 -0.6032
 6755SOL    HW131901   2.077   4.393   7.685 -0.0391  0.6503 -0.3456
 6755SOL    HW231902   2.132   4.268   7.731  1.0163 -0.7375  1.2052
 6756SOL     OW31903   0.201   1.671   7.000  0.3382 -0.0684  0.0375
 6756SOL    HW131904   0.107   1.683   7.015  0.6802  0.6748  1.5389
 6756SOL    HW231905   0.211   1.695   6.907  1.0564  2.2654  0.7207
 6757SOL     OW31906   0.242   1.745  17.272 -0.3193  0.1245  0.5173
 6757SOL    HW131907   0.264   1.722  17.363  2.4739 -0.0013 -0.1815
 6757SOL    HW231908   0.167   1.688  17.257 -0.3794 -0.1061  1.6711
 6758SOL     OW31909   4.274   2.978  11.192  0.7438  0.2358  0.8582
 6758SOL    HW131910   4.192   2.962  11.145 -0.3225  1.7927  2.2168
 6758SOL    HW231911   4.250   3.058  11.237 -0.9839  0.6397 -0.8326
 6759SOL     OW31912   3.150   2.778   6.788 -0.3549  0.4952 -0.2908
 6759SOL    HW131913   3.064   2.791   6.830 -0.3713 -0.5668  0.0230
 6759SOL    HW231914   3.156   2.683   6.779  0.1349  0.4259  0.7881
 6760SOL     OW31915   3.266   4.053   2.677 -0.4030  0.0846  0.2159
 6760SOL    HW131916   3.198   4.097   2.626 -1.0882 -0.2300  0.8569
 6760SOL    HW231917   3.224   3.968   2.693  0.0823 -0.5600 -1.8237
 6761SOL     OW31918   2.853   3.192   4.574  1.0601 -0.2589  0.8882
 6761SOL    HW131919   2.866   3.120   4.513 -2.1556 -0.6705  0.6993
 6761SOL    HW231920   2.837   3.154   4.661  0.4748  0.9331  1.3159
 6762SOL     OW31921   1.661   2.881   9.035  0.2144 -0.4513 -0.1446
 6762SOL    HW131922   1.567   2.895   9.021  0.2789  1.2136  1.0776
 6762SOL    HW231923   1.653   2.855   9.127 -0.7029 -0.1280 -0.1282
 6763SOL     OW31924   0.026   1.609   5.399 -0.0615  0.0795 -0.4967
 6763SOL    HW131925   4.721   1.627   5.319 -2.1502 -2.6773  0.1882
 6763SOL    HW231926   4.735   1.523   5.424 -1.2410  0.4789 -0.8109
 6764SOL     OW31927   4.685   3.489   8.761  0.0231 -0.3437 -0.0377
 6764SOL    HW131928   4.674   3.464   8.853  2.9592  2.4337  1.0672
 6764SOL    HW231929   0.037   3.492   8.758  0.0025  0.3891  0.1058
 6765SOL     OW31930   2.395   4.390   1.983 -0.1236  0.1287 -0.5370
 6765SOL    HW131931   2.334   4.341   1.927 -0.5892  0.6734 -0.5022
 6765SOL    HW231932   2.476   4.359   1.944  2.0749  3.2139  1.5503
 6766SOL     OW31933   2.920   2.807  15.396  0.2601 -0.2382  0.1050
 6766SOL    HW131934   2.979   2.745  15.439  0.4724 -0.6620 -0.7871
 6766SOL    HW231935   2.836   2.797  15.442  0.8388  0.1068  1.2279
 6767SOL     OW31936   1.340   1.620   6.613  0.0578 -0.3343 -0.1817
 6767SOL    HW131937   1.254   1.648   6.646  0.4983 -1.6466  2.1259
 6767SOL    HW231938   1.333   1.651   6.523 -0.9804  0.4609  0.1586
 6768SOL     OW31939   0.637   0.915   5.806  0.4747 -0.5236  0.1710
 6768SOL    HW131940   0.658   0.852   5.737  0.4255 -0.8472  0.4523
 6768SOL    HW231941   0.556   0.888   5.848 -0.2495 -0.8524 -1.4495
 6769SOL     OW31942   2.539   1.263   3.117  0.0150 -0.0932  0.3564
 6769SOL    HW131943   2.450   1.235   3.140 -0.0025 -0.2657  0.0734
 6769SOL    HW231944   2.519   1.297   3.030 -2.1884  2.1995  1.7718
 6770SOL     OW31945   4.117   2.976   3.250 -0.3564 -0.2984  0.4264
 6770SOL    HW131946   4.204   3.012   3.266 -0.4652  0.5212 -0.8108
 6770SOL    HW231947   4.059   3.040   3.293  0.1166  0.1902  0.3425
 6771SOL     OW31948   0.773   2.175   7.235 -0.2681 -0.3152 -0.0066
 6771SOL    HW131949   0.750   2.187   7.327  0.2305  3.2521 -0.3521
 6771SOL    HW231950   0.841   2.108   7.239  0.0135 -0.1091 -1.2959
 6772SOL     OW31951   0.093   0.721   3.230 -0.0484  0.1165 -0.4574
 6772SOL    HW131952   0.078   0.636   3.272 -0.0364  0.4378  0.1942
 6772SOL    HW231953   0.060   0.711   3.140  1.1544 -0.9040 -0.7937
 6773SOL     OW31954   3.100   0.561   8.486 -0.1622 -0.5340 -0.0893
 6773SOL    HW131955   3.048   0.639   8.506  2.5703  1.0551  0.7643
 6773SOL    HW231956   3.152   0.535   8.562  0.7224  0.0008 -0.5119
 6774SOL     OW31957   0.906   1.770   6.906 -0.1628 -0.4487 -0.2035
 6774SOL    HW131958   0.916   1.865   6.898 -0.4158 -0.3833  0.2453
 6774SOL    HW231959   0.852   1.775   6.985 -0.4167  1.6579 -0.5135
 6775SOL     OW31960   2.324   3.554  11.590  0.6599  0.3946  0.9951
 6775SOL    HW131961   2.297   3.545  11.499 -0.7747  3.3995  1.1111
 6775SOL    HW231962   2.244   3.552  11.643  0.4118  1.1354  0.6488
 6776SOL     OW31963   2.613   0.631   6.532  0.1073  0.0356  0.3694
 6776SOL    HW131964   2.585   0.553   6.579  1.2418 -0.6074 -0.0246
 6776SOL    HW231965   2.660   0.670   6.606  2.5673  3.3657 -2.9657
 6777SOL     OW31966   3.898   3.527  16.152  0.0677  0.4368  0.0522
 6777SOL    HW131967   3.891   3.579  16.232 -0.3759 -0.9507  0.9083
 6777SOL    HW231968   3.949   3.453  16.185 -1.0721 -1.0895 -1.5734
 6778SOL     OW31969   1.034   0.238  16.885 -0.4212 -0.3124  0.1656
 6778SOL    HW131970   1.064   0.318  16.928 -0.5022 -0.6565  0.8671
 6778SOL    HW231971   0.961   0.267  16.830 -0.7778 -1.7091 -0.1124
 6779SOL     OW31972   3.164   0.539   9.004  0.2579  0.2672  0.2941
 6779SOL    HW131973   3.143   0.629   9.030  0.0264  0.3725 -0.2767
 6779SOL    HW231974   3.119   0.528   8.921 -0.9046  0.6155  0.8832
 6780SOL     OW31975   4.585   2.471  10.835 -0.1016 -0.0839 -0.5908
 6780SOL    HW131976   4.590   2.447  10.742  3.2499  0.2447 -0.5115
 6780SOL    HW231977   4.508   2.421  10.862  0.0809  1.0216  1.9742
 6781SOL     OW31978   3.360   1.525   3.477  0.0676  0.8724  0.1542
 6781SOL    HW131979   3.365   1.471   3.398  0.3084 -1.1255  1.5375
 6781SOL    HW231980   3.395   1.454   3.531  0.9237 -0.0008 -1.5347
 6782SOL     OW31981   2.227   3.638  10.721 -0.1698  0.7757  0.2158
 6782SOL    HW131982   2.263   3.553  10.748 -1.6206  0.1405  0.1447
 6782SOL    HW231983   2.170   3.611  10.649  0.4863 -0.8313  0.2955
 6783SOL     OW31984   1.591   3.984  15.218 -0.1644  0.1255 -0.4144
 6783SOL    HW131985   1.664   4.011  15.274 -1.2449 -1.1234  1.6419
 6783SOL    HW231986   1.546   3.917  15.270 -1.0520 -0.0155 -1.3603
 6784SOL     OW31987   1.981   2.975  12.308 -0.2521 -0.1299  1.0950
 6784SOL    HW131988   2.068   2.973  12.268 -1.1456 -2.5811 -0.7279
 6784SOL    HW231989   1.957   2.886  12.334  1.4770 -0.4188  1.6943
 6785SOL     OW31990   0.824   1.742   4.277  0.2739  0.1425 -0.1154
 6785SOL    HW131991   0.759   1.678   4.303 -0.1267  0.7059  0.2704
 6785SOL    HW231992   0.824   1.731   4.181  1.1618  0.4786 -0.1564
 6786SOL     OW31993   1.140   0.833   9.876 -0.0378  0.0402 -0.2083
 6786SOL    HW131994   1.072   0.900   9.884 -2.1971 -1.9156 -1.9983
 6786SOL    HW231995   1.211   0.875   9.923  1.3860 -2.3652 -0.1991
 6787SOL     OW31996   1.336   0.986   8.996  0.0895  0.7546  0.3394
 6787SOL    HW131997   1.429   0.995   8.979  0.4331 -1.2991  1.0680
 6787SOL    HW231998   1.301   1.005   8.909  0.2033  2.2122  0.6122
 6788SOL     OW31999   0.453   0.987   6.605  0.0677  0.5162 -0.1373
 6788SOL    HW132000   0.438   1.014   6.696 -1.0593 -1.3921  0.2310
 6788SOL    HW232001   0.465   1.074   6.566  1.5057  0.1069 -0.6158
 6789SOL     OW32002   1.891   1.375   2.837  0.3962  0.4061  0.3012
 6789SOL    HW132003   1.865   1.285   2.816  0.1091  0.1206  1.8654
 6789SOL    HW232004   1.860   1.394   2.926  1.2421 -2.3118  1.1721
 6790SOL     OW32005   0.966   4.411  16.979  0.5077 -0.2735 -0.1898
 6790SOL    HW132006   1.037   4.361  17.020  1.4612  0.2209 -1.2470
 6790SOL    HW232007   0.987   4.490  17.030  1.9415 -0.2556 -0.8140
 6791SOL     OW32008   3.317   3.010   1.046  0.0575 -0.1709  0.3158
 6791SOL    HW132009   3.308   3.085   0.988 -0.7866 -0.3206  0.2528
 6791SOL    HW232010   3.400   2.976   1.011 -0.9217 -2.4620  0.1843
 6792SOL     OW32011   3.816   2.934   3.459  0.5189 -0.0693 -0.6532
 6792SOL    HW132012   3.765   2.916   3.538 -0.7498 -0.9517 -1.6788
 6792SOL    HW232013   3.843   3.025   3.472 -3.5678  0.7386  2.3218
 6793SOL     OW32014   0.793   0.542   2.848 -0.1898  0.1748 -0.7241
 6793SOL    HW132015   0.875   0.492   2.843  0.7084  1.3015  2.6554
 6793SOL    HW232016   0.736   0.494   2.788  1.9768 -3.6246  0.2903
 6794SOL     OW32017   0.825   2.740   1.314 -0.0886  0.0970 -0.5170
 6794SOL    HW132018   0.858   2.659   1.353  1.9346  1.7856  1.2265
 6794SOL    HW232019   0.735   2.711   1.297 -0.3272  0.1918  0.6197
 6795SOL     OW32020   0.809   0.745  15.336 -0.4534 -0.5669 -0.3381
 6795SOL    HW132021   0.814   0.705  15.249 -3.2767 -0.4356 -0.5805
 6795SOL    HW232022   0.734   0.707  15.382 -0.2798 -0.3075  0.1635
 6796SOL     OW32023   0.993   0.013   8.896 -1.0835 -0.3067 -0.4896
 6796SOL    HW132024   1.024   0.001   8.986 -0.2491  2.0275 -0.4684
 6796SOL    HW232025   0.901   0.034   8.912 -1.3666 -0.8098 -1.4450
 6797SOL     OW32026   0.539   3.777   7.189  0.3385 -0.5670  0.1501
 6797SOL    HW132027   0.563   3.794   7.280  1.6167 -0.3104 -0.2292
 6797SOL    HW232028   0.454   3.735   7.202 -0.6753  1.1482 -1.0315
 6798SOL     OW32029   1.335   4.698  12.370 -0.4712  0.4353 -0.2748
 6798SOL    HW132030   1.273   0.018  12.403 -1.1746 -0.3104 -0.1450
 6798SOL    HW232031   1.303   4.621  12.418 -0.4225 -0.6542 -1.9736
 6799SOL     OW32032   3.391   3.631  11.036  0.1856  0.0167 -0.0880
 6799SOL    HW132033   3.420   3.722  11.027 -1.9100  0.6825 -0.2199
 6799SOL    HW232034   3.438   3.615  11.118  1.1889 -0.0783 -0.6901
 6800SOL     OW32035   0.641   3.744   9.676 -0.2431  0.8661 -0.5986
 6800SOL    HW132036   0.728   3.772   9.646 -0.0110 -0.4273 -1.1045
 6800SOL    HW232037   0.627   3.809   9.745 -0.2634 -0.3492  0.5372
 6801SOL     OW32038   3.653   2.129   5.140 -0.0519 -0.6666 -0.2625
 6801SOL    HW132039   3.676   2.070   5.212 -5.6675 -0.3954  1.7609
 6801SOL    HW232040   3.560   2.107   5.142 -0.0155 -0.6257  1.4155
 6802SOL     OW32041   0.055   2.551   8.656 -0.2309  0.3229 -0.1670
 6802SOL    HW132042   0.120   2.584   8.594  1.3090 -1.3815  0.5453
 6802SOL    HW232043   4.717   2.595   8.631  0.8328  2.2443 -0.2800
 6803SOL     OW32044   2.897   0.352   4.293  0.4501 -0.3045  0.1255
 6803SOL    HW132045   2.883   0.447   4.294 -1.4191 -0.5858 -0.4852
 6803SOL    HW232046   2.806   0.326   4.300  0.2156  0.4625 -0.0212
 6804SOL     OW32047   1.205   4.591   3.580 -0.0578  0.2515 -0.8571
 6804SOL    HW132048   1.109   4.592   3.577 -0.0800 -1.3955 -0.4909
 6804SOL    HW232049   1.211   4.631   3.666  1.9747  0.4638 -1.0930
 6805SOL     OW32050   2.754   4.035   2.990  0.2510 -0.6787  0.2031
 6805SOL    HW132051   2.831   4.065   3.040  1.8814 -1.1045 -2.0752
 6805SOL    HW232052   2.746   3.950   3.032  1.1264 -1.1769 -0.6437
 6806SOL     OW32053   2.136   2.928   3.980  0.5732 -0.3829 -0.4353
 6806SOL    HW132054   2.180   2.847   4.006  2.0172  0.1728 -1.1167
 6806SOL    HW232055   2.066   2.930   4.045 -0.8849 -0.2073 -2.0162
 6807SOL     OW32056   4.354   2.128   8.917 -0.3568  0.0558 -0.5769
 6807SOL    HW132057   4.402   2.046   8.900  0.7343  0.7046 -0.5965
 6807SOL    HW232058   4.293   2.135   8.843 -0.2327 -2.4481 -0.9277
 6808SOL     OW32059   0.316   4.114   4.640 -0.3950 -0.1576 -0.4121
 6808SOL    HW132060   0.393   4.132   4.586 -0.0669  0.4660  0.2657
 6808SOL    HW232061   0.289   4.205   4.656 -3.8147 -0.8898 -2.0195
 6809SOL     OW32062   0.271   1.290  11.422  0.2449 -0.0250  0.5038
 6809SOL    HW132063   0.357   1.262  11.392  0.5582 -0.1324  1.4962
 6809SOL    HW232064   0.300   1.351  11.491  2.4196  1.0739 -1.4033
 6810SOL     OW32065   2.601   2.907   0.868 -0.5021  0.4553 -0.0418
 6810SOL    HW132066   2.530   2.970   0.874  0.0913  1.0144  0.9776
 6810SOL    HW232067   2.571   2.840   0.929 -1.3677 -2.1604 -3.3115
 6811SOL     OW32068   2.553   1.420  15.665 -0.2529  0.5604  0.0243
 6811SOL    HW132069   2.506   1.344  15.631  1.6377 -1.1063  1.1390
 6811SOL    HW232070   2.488   1.466  15.719 -1.8278 -0.1039 -1.3036
 6812SOL     OW32071   2.933   1.616   1.618 -0.4744 -0.6344  0.4266
 6812SOL    HW132072   3.027   1.615   1.600 -0.2449 -1.0021  1.6639
 6812SOL    HW232073   2.938   1.641   1.710  0.1302 -0.3920  0.3289
 6813SOL     OW32074   2.016   0.912   4.211 -0.3097 -0.1756 -0.0848
 6813SOL    HW132075   1.978   0.830   4.181  0.9481 -1.2078  1.1782
 6813SOL    HW232076   2.041   0.877   4.297 -1.8515  0.1294  0.4808
 6814SOL     OW32077   3.828   2.863   5.494  0.2008 -0.2448  0.2087
 6814SOL    HW132078   3.830   2.911   5.412 -2.4045  1.0788  0.9263
 6814SOL    HW232079   3.790   2.926   5.555  0.4617  0.8398 -0.7430
 6815SOL     OW32080   1.133   0.682   6.918  0.8475  0.1158  0.2752
 6815SOL    HW132081   1.165   0.748   6.980  0.9629  0.7771 -0.4849
 6815SOL    HW232082   1.215   0.654   6.877 -0.3238 -2.1821 -0.4792
 6816SOL     OW32083   0.010   3.440   0.506  0.1646 -0.2881  0.1763
 6816SOL    HW132084   0.040   3.369   0.450  0.0414 -1.9328  2.2006
 6816SOL    HW232085   0.087   3.448   0.562  0.1649 -1.5279  0.3469
 6817SOL     OW32086   2.404   4.128   6.236  0.5200  0.4431  0.2005
 6817SOL    HW132087   2.379   4.203   6.182  0.9777 -0.5569 -1.4123
 6817SOL    HW232088   2.388   4.057   6.173  0.3061 -0.2166  1.0091
 6818SOL     OW32089   1.972   1.211   4.854  0.4543 -0.0360  0.6215
 6818SOL    HW132090   1.914   1.256   4.793 -0.7479 -1.8440  0.4464
 6818SOL    HW232091   1.975   1.277   4.923 -0.1722  1.0300 -0.3753
 6819SOL     OW32092   0.821   3.735   2.894 -0.6254 -0.1880 -0.3214
 6819SOL    HW132093   0.767   3.737   2.973  0.3722  1.4823  0.3034
 6819SOL    HW232094   0.750   3.726   2.830 -2.6207  0.1485  1.8459
 6820SOL     OW32095   1.679   2.317   8.958  0.5653 -0.2784 -0.2816
 6820SOL    HW132096   1.681   2.409   8.984  0.6237 -0.3374 -0.0802
 6820SOL    HW232097   1.595   2.285   8.990 -0.4485  0.0067 -2.6590
 6821SOL     OW32098   2.029   4.071   0.677 -0.3730  0.2084  0.4357
 6821SOL    HW132099   1.977   4.094   0.754 -0.2609  1.2286  0.2121
 6821SOL    HW232100   2.036   3.976   0.673 -2.7399  0.0320  0.4788
 6822SOL     OW32101   0.366   2.376   5.775  0.1854  0.1092  0.3700
 6822SOL    HW132102   0.340   2.468   5.785 -2.7496 -1.1248  4.5057
 6822SOL    HW232103   0.456   2.386   5.805  0.4196 -2.8140  0.6513
 6823SOL     OW32104   0.835   3.514   5.849 -0.6512 -0.5514 -0.1842
 6823SOL    HW132105   0.903   3.581   5.849 -0.6653 -0.5453 -2.0974
 6823SOL    HW232106   0.876   3.428   5.841 -2.5390 -1.4882  0.0723
 6824SOL     OW32107   1.345   1.840   8.744  0.0951 -0.1535  0.3582
 6824SOL    HW132108   1.402   1.854   8.819  1.6184 -4.5655  0.0300
 6824SOL    HW232109   1.264   1.810   8.786  1.3631 -2.5482  1.0836
 6825SOL     OW32110   0.257   2.949   9.023  0.3351  0.5396  0.0601
 6825SOL    HW132111   0.196   2.918   9.090 -0.7864  0.9203 -0.7853
 6825SOL    HW232112   0.275   2.864   8.982 -0.0240  0.2253  0.5617
 6826SOL     OW32113   4.151   4.405   7.485 -0.4837 -0.2344  0.3253
 6826SOL    HW132114   4.244   4.382   7.480 -0.4890 -0.0975 -0.4716
 6826SOL    HW232115   4.122   4.368   7.401  0.8205  0.5392 -0.4622
 6827SOL     OW32116   1.360   2.323   5.750 -0.3778  0.1871  0.2265
 6827SOL    HW132117   1.429   2.262   5.775  0.0128 -0.1647 -1.7231
 6827SOL    HW232118   1.365   2.372   5.832  2.7040  1.3135 -0.6243
 6828SOL     OW32119   0.128   0.251   7.810  0.1579 -0.3654  0.3175
 6828SOL    HW132120   0.188   0.197   7.759  1.6671  1.4985  0.1190
 6828SOL    HW232121   0.072   0.283   7.739  2.1906  0.4192 -0.9377
 6829SOL     OW32122   2.288   4.513   9.437 -0.1565  0.1685 -0.1727
 6829SOL    HW132123   2.377   4.487   9.458 -0.2064 -2.5101 -3.1423
 6829SOL    HW232124   2.286   4.465   9.354 -2.1451 -1.4145  0.7951
 6830SOL     OW32125   2.357   3.342   3.560  0.2147 -0.1700  0.5793
 6830SOL    HW132126   2.409   3.399   3.617  0.9435 -0.9782  0.7150
 6830SOL    HW232127   2.399   3.258   3.575  0.2517 -0.0817  0.9582
 6831SOL     OW32128   1.023   4.347   0.858  0.0242 -0.0615  0.1522
 6831SOL    HW132129   1.078   4.423   0.842 -0.4541  0.0895 -0.7491
 6831SOL    HW232130   0.948   4.390   0.899  1.7701  2.2168  0.9178
 6832SOL     OW32131   1.487   2.308   8.026 -0.4048  0.0631  0.4313
 6832SOL    HW132132   1.578   2.327   8.005 -0.7530  1.7895  0.5164
 6832SOL    HW232133   1.501   2.258   8.107 -0.4527  0.6342  0.7946
 6833SOL     OW32134   3.423   4.195  10.370 -0.3183  0.8287 -0.0062
 6833SOL    HW132135   3.352   4.257  10.381  0.9626  2.5384 -1.3130
 6833SOL    HW232136   3.502   4.248  10.359 -0.2199  0.1514 -2.5654
 6834SOL     OW32137   0.301   3.371   5.582  0.7435 -0.0646  0.1405
 6834SOL    HW132138   0.229   3.360   5.645  0.7721  1.1087  0.3877
 6834SOL    HW232139   0.360   3.301   5.610  1.2328 -0.5297 -2.0141
 6835SOL     OW32140   0.916   1.983  14.633 -0.3371 -0.3386  0.1172
 6835SOL    HW132141   0.846   2.046  14.651  3.1645  3.4980  0.3233
 6835SOL    HW232142   0.868   1.903  14.655 -1.5843  0.9387  2.0712
 6836SOL     OW32143   2.407   0.117   3.773  0.0352  0.0357 -0.0391
 6836SOL    HW132144   2.394   0.098   3.680  0.4041  0.6440 -0.2136
 6836SOL    HW232145   2.429   0.210   3.767  1.2200 -0.0837  2.5354
 6837SOL     OW32146   2.476   3.472   0.783  0.1811  0.3012 -0.0325
 6837SOL    HW132147   2.495   3.380   0.800  2.0354  0.5083 -1.0507
 6837SOL    HW232148   2.507   3.509   0.866 -3.7490  0.8104  1.2247
 6838SOL     OW32149   1.743   0.096   2.827 -0.3138 -0.4788  0.3683
 6838SOL    HW132150   1.691   0.022   2.859 -1.6744  0.0927 -0.5196
 6838SOL    HW232151   1.766   0.149   2.903  0.5227  0.9851 -0.9176
 6839SOL     OW32152   1.816   3.770  13.751 -0.5635  0.5318  0.1135
 6839SOL    HW132153   1.882   3.754  13.818  0.7326  0.3066 -1.2226
 6839SOL    HW232154   1.843   3.852  13.709  0.6519 -0.7645 -1.6638
 6840SOL     OW32155   2.579   4.472   9.413  0.1133  0.3396 -0.0474
 6840SOL    HW132156   2.666   4.485   9.452 -0.1597 -0.1164  0.7028
 6840SOL    HW232157   2.576   4.543   9.348  0.1143  0.0323 -0.3865
 6841SOL     OW32158   2.687   3.685   4.107 -0.1029  0.4612  0.1404
 6841SOL    HW132159   2.637   3.763   4.130 -0.7693 -0.5765  2.2469
 6841SOL    HW232160   2.669   3.676   4.014  1.0226  0.7531 -0.1069
 6842SOL     OW32161   0.407   2.175   7.547 -0.4694  0.1239  0.4678
 6842SOL    HW132162   0.491   2.138   7.521 -1.6877 -0.8182 -2.0987
 6842SOL    HW232163   0.424   2.258   7.591  0.6758  0.6672 -0.9937
 6843SOL     OW32164   0.224   2.302  17.619 -0.7336  0.9035  0.4623
 6843SOL    HW132165   0.239   2.369  17.552  0.5682 -0.5205 -0.6715
 6843SOL    HW232166   0.233   2.225  17.562  1.2718  0.5639  1.2395
 6844SOL     OW32167   2.967   1.873   4.833 -0.2661  0.4584  0.7838
 6844SOL    HW132168   2.905   1.815   4.878 -0.0631  0.2908  0.8463
 6844SOL    HW232169   2.940   1.963   4.851  0.4629  0.2384  2.9109
 6845SOL     OW32170   2.531   4.332   4.846  0.4577  0.4088 -0.0600
 6845SOL    HW132171   2.530   4.419   4.887  1.9110 -0.5243  1.9382
 6845SOL    HW232172   2.470   4.278   4.896  0.1708  1.8582  1.1727
 6846SOL     OW32173   1.205   4.525   8.158  0.2127  0.1349  0.3987
 6846SOL    HW132174   1.183   4.570   8.076  1.3777  1.1419  0.6431
 6846SOL    HW232175   1.301   4.529   8.153  0.1631  1.4479  0.7013
 6847SOL     OW32176   3.503   0.647   4.009  0.4387  0.0361  0.5160
 6847SOL    HW132177   3.531   0.679   3.924 -0.9757  1.5357  0.6186
 6847SOL    HW232178   3.471   0.721   4.061  1.6318 -0.2372  1.6244
 6848SOL     OW32179   0.407   3.559   6.248  0.2753  0.0205 -0.3268
 6848SOL    HW132180   0.396   3.487   6.185 -0.5546 -0.0676 -0.0808
 6848SOL    HW232181   0.452   3.520   6.323  0.7977 -0.7040 -1.0134
 6849SOL     OW32182   0.011   3.679   4.546 -0.2718 -0.3334 -0.7006
 6849SOL    HW132183   0.025   3.718   4.459 -1.3441  1.6828  0.0326
 6849SOL    HW232184   0.086   3.619   4.553 -0.2506 -0.0360  1.7099
 6850SOL     OW32185   4.641   1.126  10.783 -0.2083  0.1571  0.1789
 6850SOL    HW132186   4.553   1.153  10.809  0.6195  0.2748  2.8550
 6850SOL    HW232187   4.632   1.088  10.696 -0.5168 -2.1257  1.2213
 6851SOL     OW32188   3.688   1.818   7.989 -0.3619  0.0656 -0.2557
 6851SOL    HW132189   3.648   1.904   7.979 -3.6604 -1.1432  2.3160
 6851SOL    HW232190   3.737   1.834   8.070 -0.1620 -0.1867 -0.3271
 6852SOL     OW32191   0.356   2.009   3.018 -0.3144  0.0075 -0.2594
 6852SOL    HW132192   0.271   1.965   3.012 -0.9889  1.5162 -1.6006
 6852SOL    HW232193   0.424   1.943   3.007 -0.4282 -0.0680 -0.5226
 6853SOL     OW32194   1.947   3.654   8.219 -0.1528 -0.5852 -0.0978
 6853SOL    HW132195   1.925   3.670   8.311 -0.3384  0.6679 -0.3490
 6853SOL    HW232196   1.951   3.742   8.181  0.1264 -0.7528 -0.4656
 6854SOL     OW32197   4.185   0.589   2.143 -0.4177  0.2496  0.4758
 6854SOL    HW132198   4.129   0.564   2.216  0.2018  0.3815  0.9985
 6854SOL    HW232199   4.181   0.685   2.140 -0.4829  0.1954 -1.1960
 6855SOL     OW32200   2.675   0.288   2.122 -0.9953  0.3807 -0.1703
 6855SOL    HW132201   2.624   0.359   2.084  1.4940  2.3910  0.2013
 6855SOL    HW232202   2.609   0.221   2.139 -1.1904  0.4103 -0.7916
 6856SOL     OW32203   1.303   0.801   5.686  0.2298 -0.9100  0.4159
 6856SOL    HW132204   1.374   0.751   5.725  1.3078 -1.7366 -2.6136
 6856SOL    HW232205   1.234   0.757   5.735  0.6616  0.2285  2.0478
 6857SOL     OW32206   3.587   3.199   0.219  0.4740 -0.2904 -0.1118
 6857SOL    HW132207   3.571   3.143   0.295  2.1609 -0.4256  0.1239
 6857SOL    HW232208   3.502   3.239   0.199  1.1178  1.0591 -0.1377
 6858SOL     OW32209   0.105   1.893  16.634  1.0337 -0.4022 -0.4074
 6858SOL    HW132210   0.080   1.912  16.725 -0.3740 -0.2750 -0.8242
 6858SOL    HW232211   0.017   1.876  16.598 -0.3834  0.9603  2.3990
 6859SOL     OW32212   3.356   3.212   7.726 -0.1506 -0.3527  0.4875
 6859SOL    HW132213   3.303   3.156   7.783  2.8644 -4.8563 -1.0912
 6859SOL    HW232214   3.382   3.161   7.649  1.5506  1.2935 -0.0257
 6860SOL     OW32215   2.824   2.686   1.360  0.5865 -0.2194  0.0168
 6860SOL    HW132216   2.775   2.737   1.295  0.0816  0.7459  1.1522
 6860SOL    HW232217   2.764   2.612   1.364  0.1516  0.2388  1.7308
 6861SOL     OW32218   3.148   2.248  14.305  0.1715 -0.8961 -0.7081
 6861SOL    HW132219   3.180   2.289  14.225 -0.4047 -1.0077 -0.9939
 6861SOL    HW232220   3.092   2.180  14.268  2.3367 -1.1747 -3.4970
 6862SOL     OW32221   2.533   2.339   1.835  0.5845  0.4000  0.0588
 6862SOL    HW132222   2.444   2.305   1.845 -0.1607  2.9317  2.1070
 6862SOL    HW232223   2.555   2.340   1.928  0.9017 -0.5343 -0.0044
 6863SOL     OW32224   1.306   4.565  17.009 -0.1787  0.0717 -0.6252
 6863SOL    HW132225   1.285   4.487  17.059 -1.1202 -0.7212 -2.2464
 6863SOL    HW232226   1.223   4.588  16.967 -0.7543 -1.1262 -0.1300
 6864SOL     OW32227   3.923   3.283   9.352  0.0595  0.1658 -0.4576
 6864SOL    HW132228   4.004   3.233   9.352  0.0425  0.1390  0.5185
 6864SOL    HW232229   3.861   3.222   9.313 -2.4163  1.2624  1.7593
 6865SOL     OW32230   4.694   4.030   6.821  0.4452  0.4418  0.0826
 6865SOL    HW132231   4.717   3.950   6.868  1.2173  0.3249 -0.4928
 6865SOL    HW232232   4.621   4.065   6.873 -0.2024  0.1252 -0.6067
 6866SOL     OW32233   4.588   3.331  12.401 -0.3081 -0.3105  0.5804
 6866SOL    HW132234   4.650   3.342  12.329 -1.3626 -2.1714 -0.6125
 6866SOL    HW232235   4.647   3.289  12.464 -0.6089  1.8878  2.3058
 6867SOL     OW32236   1.578   3.321   4.906  0.2241  0.2897 -0.1283
 6867SOL    HW132237   1.631   3.364   4.973 -2.2490  1.1998  1.2799
 6867SOL    HW232238   1.539   3.397   4.863  1.4951  1.2135  0.3699
 6868SOL     OW32239   1.467   0.455  15.875 -0.0636 -0.1800  0.7657
 6868SOL    HW132240   1.488   0.446  15.968  1.1656 -0.5961  0.4393
 6868SOL    HW232241   1.459   0.365  15.845  0.6716 -0.8824  2.6470
 6869SOL     OW32242   4.688   4.557   6.330 -0.0948  0.0735 -0.4769
 6869SOL    HW132243   4.663   4.644   6.300 -1.1707  0.5211  1.7156
 6869SOL    HW232244   4.673   4.560   6.424 -0.3273  0.0739 -0.5155
 6870SOL     OW32245   1.049   4.280   6.467 -0.4492  0.0679 -0.3254
 6870SOL    HW132246   1.019   4.192   6.491 -2.0201  0.8733  0.6587
 6870SOL    HW232247   0.979   4.328   6.511  0.2917  0.7156  0.1273
 6871SOL     OW32248   3.129   2.219   8.509 -0.3427  0.0744 -0.7514
 6871SOL    HW132249   3.035   2.217   8.528  0.0819  0.7556  1.4686
 6871SOL    HW232250   3.163   2.142   8.554 -0.4829 -0.1277 -0.9917
 6872SOL     OW32251   2.250   0.380   4.563 -0.2850 -0.2267  0.2033
 6872SOL    HW132252   2.169   0.350   4.523  0.2032 -0.3205 -0.7161
 6872SOL    HW232253   2.225   0.469   4.587 -0.4922 -0.9932  2.8877
 6873SOL     OW32254   2.165   0.919   7.822  0.0971  0.0161 -0.4193
 6873SOL    HW132255   2.115   0.840   7.841 -1.2038  0.5372 -1.6820
 6873SOL    HW232256   2.251   0.888   7.794 -0.4614 -0.9884 -1.0344
 6874SOL     OW32257   1.964   3.358   4.290  0.1920  0.5826  0.3949
 6874SOL    HW132258   1.869   3.360   4.304  0.1264 -2.6799  0.5341
 6874SOL    HW232259   1.988   3.450   4.299  0.3685  0.4532  1.3223
 6875SOL     OW32260   0.270   3.427   3.349  0.6228  0.4622  1.1601
 6875SOL    HW132261   0.213   3.490   3.393 -0.1629  0.0597  0.7293
 6875SOL    HW232262   0.265   3.449   3.256  0.9787 -0.1033  1.0042
 6876SOL     OW32263   3.654   4.258   9.562 -0.4810  0.5475  0.1749
 6876SOL    HW132264   3.585   4.212   9.610  1.0185  0.9497  2.7438
 6876SOL    HW232265   3.693   4.186   9.513  0.4416  0.8873  0.4110
 6877SOL     OW32266   4.031   0.452   5.792  0.0121  0.3027 -0.3544
 6877SOL    HW132267   4.029   0.379   5.854 -3.5447  1.1737  0.5967
 6877SOL    HW232268   4.078   0.522   5.837 -1.5738 -0.1084  1.9538
 6878SOL     OW32269   0.665   3.818   8.454  0.5997 -0.2906  0.3557
 6878SOL    HW132270   0.754   3.821   8.417 -0.5239 -1.1596 -2.4575
 6878SOL    HW232271   0.686   3.785   8.541  1.2333  0.9316  0.6652
 6879SOL     OW32272   0.051   3.575   7.775  0.3770  0.1513  0.0819
 6879SOL    HW132273   0.026   3.491   7.813  1.0886 -0.7650 -1.4643
 6879SOL    HW232274   0.030   3.628   7.852 -0.8948  1.9985 -1.5401
 6880SOL     OW32275   2.195   1.928  15.127 -0.3434  0.5955  0.2323
 6880SOL    HW132276   2.213   1.834  15.133  0.2249  0.6816 -0.1325
 6880SOL    HW232277   2.169   1.932  15.035 -0.7554  2.5284  0.4525
 6881SOL     OW32278   0.571   2.711   3.618 -0.1787 -0.1393 -0.0959
 6881SOL    HW132279   0.487   2.699   3.661 -0.5928 -0.0592 -0.8794
 6881SOL    HW232280   0.635   2.730   3.687 -1.0263  2.6056 -0.0628
 6882SOL     OW32281   1.629   0.578   2.831  0.0010  0.8109 -0.4856
 6882SOL    HW132282   1.676   0.651   2.871  1.6444  0.1709 -1.2815
 6882SOL    HW232283   1.586   0.539   2.907  1.4917 -2.1111 -1.1509
 6883SOL     OW32284   2.550   4.111   2.602 -0.4300  0.6583 -1.0407
 6883SOL    HW132285   2.499   4.191   2.586 -2.3300 -0.2449  0.4423
 6883SOL    HW232286   2.579   4.126   2.692 -1.2302  1.7020 -0.9585
 6884SOL     OW32287   2.381   4.738   7.529 -0.4398 -0.4960 -0.8175
 6884SOL    HW132288   2.447   4.741   7.598 -2.3042 -0.2925  0.9583
 6884SOL    HW232289   2.354   4.647   7.531 -1.8750 -0.0574  0.0479
 6885SOL     OW32290   3.653   1.537   8.038  0.0141 -0.0974 -0.4349
 6885SOL    HW132291   3.570   1.525   7.992  0.6480 -2.8642 -0.8201
 6885SOL    HW232292   3.664   1.632   8.027 -0.6298  0.3428  2.7119
 6886SOL     OW32293   2.710   1.209  11.571 -0.2684 -0.1991 -0.0544
 6886SOL    HW132294   2.660   1.128  11.574 -2.0586  0.9700  1.9209
 6886SOL    HW232295   2.799   1.177  11.560  0.0053  0.5776 -0.0835
 6887SOL     OW32296   0.088   0.979  15.961 -0.4797  0.0607  0.7780
 6887SOL    HW132297   0.148   1.048  15.990  0.4516 -0.3913 -0.0669
 6887SOL    HW232298   0.127   0.952  15.878  0.6918 -3.3181  2.4043
 6888SOL     OW32299   4.374   2.288   7.499  0.4550  0.2679 -0.3735
 6888SOL    HW132300   4.298   2.239   7.466 -0.5946 -0.1350  2.6474
 6888SOL    HW232301   4.449   2.235   7.473  0.9442  0.2778  1.0122
 6889SOL     OW32302   2.543   3.687   5.286 -0.1221 -0.0555 -0.3676
 6889SOL    HW132303   2.582   3.757   5.234  2.1899 -0.8899  0.2329
 6889SOL    HW232304   2.607   3.617   5.277  2.1777  1.8474  0.8719
 6890SOL     OW32305   3.204   3.739   7.172  0.0835 -0.1157  0.1557
 6890SOL    HW132306   3.185   3.657   7.127  2.8976  0.9238 -2.8704
 6890SOL    HW232307   3.279   3.766   7.119  0.2434 -0.2701  0.3019
 6891SOL     OW32308   1.284   2.245   3.098  0.6916  0.3697  0.0780
 6891SOL    HW132309   1.228   2.193   3.040  0.2674  3.1723 -2.0368
 6891SOL    HW232310   1.223   2.295   3.153  1.2879 -2.1468  3.0083
 6892SOL     OW32311   0.497   1.458  10.506  0.2386 -0.5457 -0.2453
 6892SOL    HW132312   0.465   1.450  10.416 -3.6793  2.6684  0.8854
 6892SOL    HW232313   0.427   1.506  10.549  1.7485  1.0674  0.4065
 6893SOL     OW32314   3.618   2.718   8.486  0.4520 -0.2474 -0.1254
 6893SOL    HW132315   3.615   2.795   8.543  0.3660 -0.4365  0.1267
 6893SOL    HW232316   3.621   2.761   8.401 -0.9510 -1.8677 -0.9878
 6894SOL     OW32317   4.410   3.632   7.652 -0.1656 -0.1581 -0.5231
 6894SOL    HW132318   4.468   3.664   7.583 -0.1651 -2.1394 -1.4501
 6894SOL    HW232319   4.404   3.538   7.636 -2.0192 -0.1820  0.2933
 6895SOL     OW32320   3.078   2.981   3.247  0.5889  0.4156 -0.3685
 6895SOL    HW132321   3.050   3.048   3.309  1.9490  2.2647 -1.7442
 6895SOL    HW232322   2.994   2.955   3.208  0.0623  2.0066 -0.3000
 6896SOL     OW32323   1.140   4.230   7.385  0.1989 -0.0679  0.5768
 6896SOL    HW132324   1.174   4.148   7.421  1.2990  0.6600  1.2137
 6896SOL    HW232325   1.214   4.259   7.333  0.5970 -0.7834  0.7454
 6897SOL     OW32326   3.564   2.430   1.863 -0.1680  0.8035 -0.1293
 6897SOL    HW132327   3.573   2.367   1.791 -1.9438  1.7574 -1.1965
 6897SOL    HW232328   3.647   2.414   1.906 -0.5579  1.7172  0.9503
 6898SOL     OW32329   1.411   2.426   9.294  0.3261 -0.4205  0.1266
 6898SOL    HW132330   1.425   2.425   9.389  0.2093 -1.0434  0.1402
 6898SOL    HW232331   1.505   2.414   9.276  0.9421  0.7737  2.5985
 6899SOL     OW32332   4.000   3.118   5.644  0.0085  0.4619 -0.3474
 6899SOL    HW132333   3.977   3.211   5.642 -1.3769  0.1134 -1.0046
 6899SOL    HW232334   4.077   3.113   5.587 -0.0531  1.1171 -0.4978
 6900SOL     OW32335   2.425   0.613  16.265  0.3332 -0.0681 -0.4456
 6900SOL    HW132336   2.520   0.618  16.275  0.3084 -2.2082  1.0900
 6900SOL    HW232337   2.412   0.696  16.220  0.2448 -0.7947 -1.7597
 6901SOL     OW32338   3.228   0.620   2.587  0.8205 -0.8434 -0.0878
 6901SOL    HW132339   3.250   0.703   2.545  0.2737  0.1858  1.6677
 6901SOL    HW232340   3.177   0.576   2.520  2.4519 -1.9528 -0.6088
 6902SOL     OW32341   1.072   0.778   3.013 -0.1730  0.2411  0.3196
 6902SOL    HW132342   1.037   0.835   3.082 -1.4455  0.8943 -0.8669
 6902SOL    HW232343   1.000   0.789   2.951 -1.9158 -0.4786  2.2555
 6903SOL     OW32344   4.175   2.013   7.278  0.8410  0.0842  0.1747
 6903SOL    HW132345   4.166   2.060   7.361  0.5116  0.4783 -0.0865
 6903SOL    HW232346   4.223   2.089   7.246  1.1722 -0.1785  0.0487
 6904SOL     OW32347   2.639   2.703  12.543  0.3544 -0.6677  0.2759
 6904SOL    HW132348   2.686   2.714  12.626 -1.3620  0.9994  1.0036
 6904SOL    HW232349   2.631   2.607  12.545 -0.4546 -0.6073 -0.2474
 6905SOL     OW32350   3.851   1.051   5.379  0.2205 -0.3484 -0.1292
 6905SOL    HW132351   3.828   1.004   5.459  0.5481  0.6359  0.5387
 6905SOL    HW232352   3.897   0.981   5.333  1.8296  0.2058  0.6398
 6906SOL     OW32353   0.236   4.515   1.632 -0.3199 -0.1813 -0.0944
 6906SOL    HW132354   0.290   4.519   1.553 -2.7413  0.4142 -1.7536
 6906SOL    HW232355   0.226   4.419   1.635  1.1069 -0.2908  0.8440
 6907SOL     OW32356   1.954   1.389   1.808  0.4457 -0.0670 -0.0582
 6907SOL    HW132357   1.998   1.306   1.826 -0.3080 -0.2299  0.9952
 6907SOL    HW232358   1.959   1.420   1.898 -1.2307 -1.1102  0.4000
 6908SOL     OW32359   3.073   0.235  12.725 -0.5445 -0.1651  0.1934
 6908SOL    HW132360   3.069   0.293  12.648  1.2270 -1.0978 -0.6002
 6908SOL    HW232361   3.005   0.273  12.780 -0.8501  2.0063 -1.6482
 6909SOL     OW32362   0.748   1.857   9.579 -0.2154  0.1950  0.0037
 6909SOL    HW132363   0.813   1.799   9.618 -0.2238  0.5460  0.5329
 6909SOL    HW232364   0.673   1.820   9.625  0.9401 -0.7555  1.1195
 6910SOL     OW32365   3.352   2.915   2.308 -0.4071 -0.4639  0.3390
 6910SOL    HW132366   3.345   2.932   2.214  1.8088 -0.3082  0.1914
 6910SOL    HW232367   3.358   3.006   2.335  1.4062 -0.8901  1.3972
 6911SOL     OW32368   3.843   2.089   8.382  0.7396 -0.4961 -0.1855
 6911SOL    HW132369   3.886   2.004   8.368 -1.9775 -2.3189  2.3958
 6911SOL    HW232370   3.783   2.094   8.308  0.1809  1.7741  0.4275
 6912SOL     OW32371   0.651   1.483   2.817  0.0777  0.1685  0.4286
 6912SOL    HW132372   0.725   1.542   2.835 -0.8448  1.2405  0.6958
 6912SOL    HW232373   0.633   1.498   2.724 -0.3130 -0.5048  0.4030
 6913SOL     OW32374   3.879   1.562   8.363  0.4551 -0.0668 -0.1051
 6913SOL    HW132375   3.828   1.640   8.384  2.1633  0.9257  0.3076
 6913SOL    HW232376   3.868   1.506   8.440  1.2005  1.7002  1.2704
 6914SOL     OW32377   1.895   3.858  10.829  0.4947  0.1997 -0.3536
 6914SOL    HW132378   1.978   3.907  10.828 -0.4267  1.8102  2.4756
 6914SOL    HW232379   1.843   3.928  10.789  0.9342  0.2932 -0.7647
 6915SOL     OW32380   0.463   2.645  15.463  0.2479 -0.2854  0.0555
 6915SOL    HW132381   0.406   2.614  15.533 -0.5066 -0.9016 -0.8206
 6915SOL    HW232382   0.511   2.709  15.514 -0.3576 -0.3234  0.6680
 6916SOL     OW32383   1.616   3.079   1.503  0.3834  0.9756 -0.6953
 6916SOL    HW132384   1.702   3.102   1.539 -0.0085 -1.2468  1.6536
 6916SOL    HW232385   1.560   3.138   1.554 -1.3883 -1.5488  0.2239
 6917SOL     OW32386   2.736   3.909   9.688  0.0364 -0.0068  0.2128
 6917SOL    HW132387   2.672   3.861   9.635  0.1874  0.0312 -0.0002
 6917SOL    HW232388   2.674   3.960   9.741 -1.8034 -2.2823  0.2434
 6918SOL     OW32389   1.092   1.681  14.640 -0.1321  0.6252 -0.6579
 6918SOL    HW132390   1.170   1.733  14.655  0.5154 -0.2729 -0.9166
 6918SOL    HW232391   1.034   1.755  14.618  0.1596  0.0596 -3.3718
 6919SOL     OW32392   3.672   3.621  15.479 -0.0627  0.2947  0.3035
 6919SOL    HW132393   3.647   3.713  15.467  0.3665  0.2522 -0.9577
 6919SOL    HW232394   3.738   3.627  15.548 -0.6173  0.0391  0.8504
 6920SOL     OW32395   2.490   2.954   7.352 -0.5092 -0.1682  0.2660
 6920SOL    HW132396   2.545   2.983   7.280  0.1991 -2.7304 -0.2314
 6920SOL    HW232397   2.429   2.892   7.312  0.8132 -1.8986  0.9426
 6921SOL     OW32398   3.255   1.841  13.993 -0.8585 -0.2920  0.5132
 6921SOL    HW132399   3.318   1.830  14.065  0.0863 -1.3373 -0.4757
 6921SOL    HW232400   3.278   1.931  13.968  2.1905 -1.1605  0.1259
 6922SOL     OW32401   1.530   2.517   7.433  0.0524 -0.6738  0.1671
 6922SOL    HW132402   1.572   2.457   7.372 -2.2134 -0.2973 -1.7440
 6922SOL    HW232403   1.543   2.477   7.519 -3.5471  0.5600  1.2895
 6923SOL     OW32404   3.704   3.393   8.879  0.1994  0.0909 -0.0895
 6923SOL    HW132405   3.651   3.441   8.943 -0.1738  0.4681 -0.6841
 6923SOL    HW232406   3.738   3.327   8.939  1.2196  0.3739 -0.3666
 6924SOL     OW32407   4.350   3.542  16.267  0.4578 -1.0791  0.0173
 6924SOL    HW132408   4.356   3.540  16.363 -1.9154  0.4806  0.2123
 6924SOL    HW232409   4.337   3.632  16.235  0.1696 -1.3613 -0.6640
 6925SOL     OW32410   3.957   1.410   8.735 -0.1992 -0.0899 -0.3296
 6925SOL    HW132411   3.892   1.417   8.665 -0.8284 -1.4032  0.1270
 6925SOL    HW232412   3.933   1.331   8.784  1.1223  1.2356  2.4716
 6926SOL     OW32413   1.667   2.528   5.566 -0.5429  0.4956  0.5479
 6926SOL    HW132414   1.637   2.531   5.657  0.2362  2.4920  0.7318
 6926SOL    HW232415   1.669   2.433   5.557  1.4679  0.5854  0.0177
 6927SOL     OW32416   1.486   3.022   3.931  0.3350 -0.2812  0.3182
 6927SOL    HW132417   1.471   3.117   3.935 -1.5978 -0.6120  1.0060
 6927SOL    HW232418   1.472   3.011   3.837  0.5378 -0.1320  0.2713
 6928SOL     OW32419   2.687   0.745   7.596  0.7489  0.2112  0.4220
 6928SOL    HW132420   2.720   0.668   7.642 -2.1179  0.3849  2.7745
 6928SOL    HW232421   2.753   0.811   7.618  0.5031  1.3852 -2.3901
 6929SOL     OW32422   2.566   0.233   3.050 -0.3545  0.3918  0.1916
 6929SOL    HW132423   2.476   0.260   3.029  0.2792  0.7632 -2.0142
 6929SOL    HW232424   2.618   0.314   3.049  3.1189 -1.8678 -0.5671
 6930SOL     OW32425   3.547   4.297   8.248 -0.0043  0.5618  0.0931
 6930SOL    HW132426   3.595   4.297   8.166 -1.7094 -2.7267 -0.9049
 6930SOL    HW232427   3.614   4.276   8.312 -2.7997 -2.1297  2.1523
 6931SOL     OW32428   3.873   3.121  11.224 -0.4869  0.5284  0.5858
 6931SOL    HW132429   3.922   3.142  11.145 -0.3102 -1.4302  0.1799
 6931SOL    HW232430   3.783   3.129  11.190  0.4691  0.2929 -1.9727
 6932SOL     OW32431   3.179   4.377   3.199 -0.2639 -0.4729  0.3502
 6932SOL    HW132432   3.171   4.469   3.172  0.9670 -0.4595  0.0267
 6932SOL    HW232433   3.259   4.354   3.153  0.7628 -0.8843  2.3721
 6933SOL     OW32434   3.255   0.762   4.269  0.5478 -0.3840 -0.0892
 6933SOL    HW132435   3.197   0.822   4.315  0.8168 -0.4566  0.3505
 6933SOL    HW232436   3.315   0.820   4.222 -0.0205  2.1829  2.3005
 6934SOL     OW32437   3.156   0.675   7.615 -0.2043  0.2446 -0.4117
 6934SOL    HW132438   3.116   0.691   7.529 -0.3263  2.3854  0.0490
 6934SOL    HW232439   3.127   0.584   7.616 -1.2084  0.5644 -0.2557
 6935SOL     OW32440   1.305   2.480   3.700  0.5630  0.5038 -0.0737
 6935SOL    HW132441   1.315   2.439   3.614 -0.2370 -1.8269  0.9495
 6935SOL    HW232442   1.390   2.457   3.738  0.8777 -0.3850 -1.3227
 6936SOL     OW32443   1.800   0.016   5.500 -0.3912 -0.0394  0.3751
 6936SOL    HW132444   1.895   0.009   5.493 -0.5110  2.0274 -3.2028
 6936SOL    HW232445   1.767   4.710   5.575 -3.3335  2.0523  0.5001
 6937SOL     OW32446   1.175   3.488   3.915 -0.6662 -0.0783 -0.1113
 6937SOL    HW132447   1.207   3.409   3.957  0.5951  0.6328  0.2557
 6937SOL    HW232448   1.218   3.473   3.831  0.1960 -0.7695  0.4629
 6938SOL     OW32449   0.740   0.423  12.302 -0.4731  0.1818  0.0872
 6938SOL    HW132450   0.744   0.364  12.227  3.3267 -0.0082  0.4204
 6938SOL    HW232451   0.799   0.491  12.269 -1.2139  1.4379  1.3736
 6939SOL     OW32452   1.413   3.247  17.113  0.2593 -0.0984  0.3230
 6939SOL    HW132453   1.379   3.235  17.025  0.2459  1.4879  0.1273
 6939SOL    HW232454   1.389   3.339  17.125 -1.9538 -0.4181 -1.7554
 6940SOL     OW32455   1.796   0.429   4.105  0.0113 -0.0916  0.1084
 6940SOL    HW132456   1.746   0.378   4.169 -2.1016  2.2585  0.3321
 6940SOL    HW232457   1.788   0.521   4.130  0.0902  0.2462 -1.1114
 6941SOL     OW32458   3.664   2.407   2.192 -0.0510  0.5504  0.0345
 6941SOL    HW132459   3.581   2.377   2.153  0.8862  0.6161 -2.0207
 6941SOL    HW232460   3.665   2.383   2.284  2.0914 -1.2655 -0.4377
 6942SOL     OW32461   0.514   1.958   8.548 -0.5321 -0.0875 -0.4000
 6942SOL    HW132462   0.447   1.891   8.562 -0.4957  0.1010  0.6886
 6942SOL    HW232463   0.594   1.905   8.555  0.4745  1.4050 -0.4676
 6943SOL     OW32464   4.720   0.552   0.897 -0.1704  0.4870 -0.2785
 6943SOL    HW132465   4.661   0.542   0.971 -0.0298  0.8930 -0.1148
 6943SOL    HW232466   4.668   0.513   0.826 -0.3250  1.4389 -0.6823
 6944SOL     OW32467   4.599   1.987   4.739 -0.0460  0.3955  0.4452
 6944SOL    HW132468   4.578   2.066   4.689 -2.2925  0.0641  0.8806
 6944SOL    HW232469   4.533   1.925   4.709  1.6498 -1.8413  1.3175
 6945SOL     OW32470   0.158   0.219   3.320 -0.1288  0.4311  0.1724
 6945SOL    HW132471   0.124   0.134   3.290 -2.8742  1.1008  1.3408
 6945SOL    HW232472   0.224   0.192   3.385  2.1250  1.9054 -1.5351
 6946SOL     OW32473   3.940   1.814   6.926  0.4303 -0.0314 -0.4677
 6946SOL    HW132474   3.950   1.719   6.938 -0.2047 -0.0137  0.2104
 6946SOL    HW232475   4.027   1.853   6.920  0.6924 -0.5672 -0.2057
 6947SOL     OW32476   2.009   0.037   3.148  0.3769 -0.3570  0.7024
 6947SOL    HW132477   2.005   0.030   3.053 -3.8629 -1.0618  0.9349
 6947SOL    HW232478   2.081   4.724   3.175 -0.5795 -3.2265 -2.8378
 6948SOL     OW32479   1.440   2.881  14.365 -0.1311 -0.2612  0.5995
 6948SOL    HW132480   1.465   2.968  14.334  1.2428 -1.3404 -1.2560
 6948SOL    HW232481   1.503   2.830  14.315 -0.8022 -0.8443  0.3442
 6949SOL     OW32482   4.044   2.232   5.378 -0.3077  0.4938  0.7319
 6949SOL    HW132483   4.043   2.324   5.403  2.1397  1.2686 -2.0216
 6949SOL    HW232484   4.087   2.237   5.293  0.8669  0.2255  1.3042
 6950SOL     OW32485   2.403   3.136   0.486 -0.4426 -0.7926  0.1030
 6950SOL    HW132486   2.316   3.129   0.525 -0.5011 -0.5056  0.0233
 6950SOL    HW232487   2.461   3.144   0.562 -0.2349  1.5469 -0.3117
 6951SOL     OW32488   0.834   1.327   7.238  0.1499 -0.3306 -0.5521
 6951SOL    HW132489   0.825   1.341   7.332  1.1894  0.7581 -0.6075
 6951SOL    HW232490   0.925   1.352   7.223  0.0518 -0.8172 -1.9775
 6952SOL     OW32491   1.356   0.785   7.731 -0.1686  0.0287 -0.4893
 6952SOL    HW132492   1.357   0.857   7.668  1.4676  0.7834  0.3810
 6952SOL    HW232493   1.333   0.711   7.674 -1.1437  1.2400 -1.6574
 6953SOL     OW32494   0.378   2.684   1.418  0.0240 -0.4500  0.5108
 6953SOL    HW132495   0.466   2.652   1.439 -0.1206 -0.1534  1.5382
 6953SOL    HW232496   0.340   2.708   1.502 -1.2731  0.3926 -0.3110
 6954SOL     OW32497   2.145   1.091  12.679 -0.4263 -0.6488 -0.1761
 6954SOL    HW132498   2.217   1.036  12.707  1.2498  1.7982  0.2666
 6954SOL    HW232499   2.147   1.102  12.584  0.2901  0.1751 -0.0564
 6955SOL     OW32500   1.024   2.244  10.075  0.0928 -0.0962 -0.3067
 6955SOL    HW132501   1.015   2.179  10.006 -1.6931 -0.2751  0.0848
 6955SOL    HW232502   1.009   2.329  10.033  0.1030 -1.2233 -2.5584
 6956SOL     OW32503   3.441   0.393   3.906 -0.4323 -0.0068 -0.7382
 6956SOL    HW132504   3.471   0.462   3.965 -0.2414 -1.4743  0.8856
 6956SOL    HW232505   3.398   0.331   3.965  0.3585 -0.7025 -0.9057
 6957SOL     OW32506   2.646   3.643   1.335 -0.0416 -0.4361 -0.1486
 6957SOL    HW132507   2.703   3.695   1.391 -0.7547 -0.0613  0.2281
 6957SOL    HW232508   2.582   3.604   1.394 -0.3477 -0.1081 -0.2625
 6958SOL     OW32509   2.037   3.550   3.949 -0.2180  0.1120 -0.3616
 6958SOL    HW132510   1.946   3.576   3.941 -0.3344 -0.7911 -1.8694
 6958SOL    HW232511   2.035   3.455   3.938  2.1892 -0.0501  0.5767
 6959SOL     OW32512   2.674   1.962   2.454  0.1555  0.1135 -0.4292
 6959SOL    HW132513   2.619   1.933   2.381 -1.0370  0.1808  0.4459
 6959SOL    HW232514   2.708   1.881   2.492  0.2930  1.2154  1.8338
 6960SOL     OW32515   0.011   4.008  13.137 -0.9305  0.0167  0.3918
 6960SOL    HW132516   4.677   4.047  13.096 -0.3397  1.2143  0.4137
 6960SOL    HW232517   0.019   3.939  13.072  2.0712  2.0109 -1.3206
 6961SOL     OW32518   1.761   2.383   4.688 -0.4320 -0.2044 -0.1659
 6961SOL    HW132519   1.770   2.402   4.781  2.2132  2.7535 -1.0142
 6961SOL    HW232520   1.666   2.377   4.683 -0.6287  1.7197  1.5442
 6962SOL     OW32521   2.012   4.039  16.365  0.0324  0.2492 -0.0146
 6962SOL    HW132522   2.072   4.111  16.382 -0.9517  1.2632 -0.7712
 6962SOL    HW232523   2.031   4.035  16.271  0.5649  0.7207  0.0706
 6963SOL     OW32524   1.483   2.697   3.523  0.2952  0.1524  0.4607
 6963SOL    HW132525   1.448   2.767   3.579 -0.1010 -0.1978  0.6564
 6963SOL    HW232526   1.560   2.665   3.570  1.4625  1.3644 -0.6319
 6964SOL     OW32527   1.797   1.607  17.340  0.2560 -0.2031 -0.0055
 6964SOL    HW132528   1.834   1.696  17.339  0.0618 -0.1164  0.5623
 6964SOL    HW232529   1.740   1.616  17.416 -1.3605  1.0477 -1.3500
 6965SOL     OW32530   2.829   2.397  15.209 -0.4862  0.6055  0.1443
 6965SOL    HW132531   2.890   2.440  15.148  0.1129 -0.2564  0.1347
 6965SOL    HW232532   2.862   2.308  15.194 -0.2467  0.2836  2.5410
 6966SOL     OW32533   2.113   2.924   6.865 -0.1434 -0.2895 -0.1294
 6966SOL    HW132534   2.198   2.958   6.837 -0.2187 -0.1466 -0.1848
 6966SOL    HW232535   2.130   2.903   6.957 -0.1763  1.7943  0.3511
 6967SOL     OW32536   0.412   1.998  13.047 -0.0955 -0.1125 -0.5440
 6967SOL    HW132537   0.320   1.992  13.074 -0.0609  0.0125 -0.4010
 6967SOL    HW232538   0.448   1.918  13.086  2.3244  1.0615 -0.3921
 6968SOL     OW32539   3.995   2.196   5.963  0.4133 -0.2829  0.1052
 6968SOL    HW132540   3.966   2.107   5.986  0.9946 -0.6583 -0.6323
 6968SOL    HW232541   3.967   2.197   5.872 -1.6411 -1.8523  0.7110
 6969SOL     OW32542   4.061   4.673   9.970  0.2179  0.4431 -0.3068
 6969SOL    HW132543   3.979   4.623   9.974  1.0281 -0.8858 -0.5184
 6969SOL    HW232544   4.109   4.640  10.047 -2.1187 -0.3466  0.8258
 6970SOL     OW32545   3.860   1.991   6.080  0.2913 -0.4636 -0.4979
 6970SOL    HW132546   3.767   1.987   6.098  0.2177 -1.2662 -1.0361
 6970SOL    HW232547   3.875   1.901   6.051  2.3076  0.4824 -2.4508
 6971SOL     OW32548   2.284   1.000  10.448 -0.2605 -0.7312 -0.1384
 6971SOL    HW132549   2.203   1.048  10.430  0.4889  0.6833  0.1897
 6971SOL    HW232550   2.295   0.951  10.366 -1.7452 -1.3728  0.0571
 6972SOL     OW32551   1.929   3.203  16.089 -0.1268 -0.1262 -0.8313
 6972SOL    HW132552   2.006   3.187  16.035  1.8153  2.0324  1.3097
 6972SOL    HW232553   1.885   3.273  16.041  1.6577  0.0662 -2.1716
 6973SOL     OW32554   2.381   1.490  16.201 -0.0183 -0.1121 -0.4750
 6973SOL    HW132555   2.367   1.585  16.203 -1.4617 -0.3366  0.4501
 6973SOL    HW232556   2.379   1.473  16.295 -1.4288 -0.0697 -0.4881
 6974SOL     OW32557   4.551   1.547   0.937  0.5963 -0.0446  0.5360
 6974SOL    HW132558   4.626   1.541   0.995  0.8215  1.8216  0.4319
 6974SOL    HW232559   4.479   1.566   0.998  0.4032 -2.2779  1.0422
 6975SOL     OW32560   3.007   3.629   6.797  0.4963  0.4214 -0.4211
 6975SOL    HW132561   3.078   3.629   6.732 -0.8846  1.6767 -1.9198
 6975SOL    HW232562   2.940   3.585   6.745  1.3023  1.8394 -2.6345
 6976SOL     OW32563   4.279   2.248   2.367 -0.4217  0.2699  0.0756
 6976SOL    HW132564   4.206   2.259   2.306  0.8684 -0.9505 -1.7048
 6976SOL    HW232565   4.323   2.324   2.330  0.8172  0.0334  1.0742
 6977SOL     OW32566   2.111   0.848  14.979  0.3095  0.1541  0.0948
 6977SOL    HW132567   2.146   0.855  15.068 -0.4821  0.7124  0.3623
 6977SOL    HW232568   2.133   0.936  14.946  1.8353 -0.3307 -0.1711
 6978SOL     OW32569   1.666   3.140   2.111  0.2998 -0.2864  0.3979
 6978SOL    HW132570   1.579   3.152   2.148 -0.4722 -1.1469 -1.1496
 6978SOL    HW232571   1.694   3.064   2.162  0.5926  0.2466  1.0410
 6979SOL     OW32572   2.396   2.355   3.658  0.3849 -0.0386 -0.0265
 6979SOL    HW132573   2.444   2.426   3.615  1.6010 -0.7418  0.1654
 6979SOL    HW232574   2.424   2.276   3.613  0.9259  0.1284  0.0124
 6980SOL     OW32575   1.198   3.415   4.289  0.2277  0.4159  0.0640
 6980SOL    HW132576   1.248   3.365   4.354  1.2736  0.6955 -0.5244
 6980SOL    HW232577   1.186   3.504   4.323 -1.8438 -0.2923  1.2104
 6981SOL     OW32578   3.109   4.518   2.881  0.0725 -0.0764  0.0742
 6981SOL    HW132579   3.059   4.436   2.878  1.0342 -0.7454  2.3767
 6981SOL    HW232580   3.095   4.557   2.795 -1.2956 -1.4159 -0.3108
 6982SOL     OW32581   1.096   1.589   5.760 -0.5272  0.1648  0.0075
 6982SOL    HW132582   1.086   1.507   5.713 -1.3794  0.5581 -0.4975
 6982SOL    HW232583   1.111   1.645   5.684 -0.6941  1.6790  1.0795
 6983SOL     OW32584   4.303   0.928   3.732  0.4966  0.5118  0.1519
 6983SOL    HW132585   4.297   1.024   3.728 -1.6597  0.3694 -0.4286
 6983SOL    HW232586   4.278   0.911   3.641  0.7647 -0.5804  0.2898
 6984SOL     OW32587   2.789   2.488   8.945 -0.3193 -0.2080 -0.4613
 6984SOL    HW132588   2.835   2.405   8.953  0.8221  0.4541 -0.2165
 6984SOL    HW232589   2.861   2.548   8.926 -0.7314  0.3103 -0.4289
 6985SOL     OW32590   0.200   1.517   4.693 -0.2671  0.2337 -0.4296
 6985SOL    HW132591   0.241   1.575   4.758  0.3812 -1.0265  0.2952
 6985SOL    HW232592   0.183   1.446   4.754  0.2360  0.3620 -0.1417
 6986SOL     OW32593   3.567   3.129   3.138  0.0740 -0.7241 -0.1083
 6986SOL    HW132594   3.657   3.135   3.169 -0.2576 -1.0313  0.9281
 6986SOL    HW232595   3.522   3.080   3.208 -1.0086 -0.7930 -0.8481
 6987SOL     OW32596   2.319   1.438   5.026  0.8548  0.2679  0.1986
 6987SOL    HW132597   2.254   1.441   4.956  1.9140 -1.6369 -0.8590
 6987SOL    HW232598   2.314   1.521   5.074  0.6746  0.5687 -0.3430
 6988SOL     OW32599   2.558   3.358   5.573  0.0433  0.7410 -0.0072
 6988SOL    HW132600   2.522   3.385   5.657  2.0719 -2.0033  1.7857
 6988SOL    HW232601   2.644   3.400   5.579  0.4537 -0.6585  3.6668
 6989SOL     OW32602   0.287   3.286   4.992 -0.2921 -0.7945  0.5277
 6989SOL    HW132603   0.291   3.191   4.986  0.2983 -0.7290 -0.1052
 6989SOL    HW232604   0.363   3.291   5.049  0.7177 -2.7422 -0.6490
 6990SOL     OW32605   4.684   2.194   1.831 -0.1872 -0.0626 -0.0115
 6990SOL    HW132606   4.725   2.176   1.746  2.0718 -0.8828  1.2418
 6990SOL    HW232607   4.593   2.219   1.816 -0.4655 -0.8352  0.4060
 6991SOL     OW32608   4.619   3.136   3.607  0.1699 -0.3921  0.6178
 6991SOL    HW132609   4.699   3.173   3.571  0.1602 -1.1814 -0.2114
 6991SOL    HW232610   4.571   3.214   3.635 -3.4533 -1.7288 -1.7884
 6992SOL     OW32611   3.357   0.825   8.826  0.1815  0.2394  1.2265
 6992SOL    HW132612   3.382   0.810   8.917  1.1683  1.0798  1.0997
 6992SOL    HW232613   3.411   0.901   8.804  0.9770 -0.6613  0.0610
 6993SOL     OW32614   3.707   2.486   1.022 -0.2668  0.2588  0.3029
 6993SOL    HW132615   3.703   2.541   1.100 -0.5831  0.0307  0.4463
 6993SOL    HW232616   3.657   2.409   1.050  0.4217 -0.2801  0.0628
 6994SOL     OW32617   0.544   1.990  15.864 -0.2484 -0.7472 -0.3331
 6994SOL    HW132618   0.627   1.975  15.817 -0.2152  2.0051 -1.1336
 6994SOL    HW232619   0.477   2.009  15.798  1.3143 -2.2181 -2.3508
 6995SOL     OW32620   1.519   1.737   3.184  0.1197  0.1148 -0.1935
 6995SOL    HW132621   1.533   1.655   3.232 -0.3963 -0.7136 -1.4562
 6995SOL    HW232622   1.453   1.767   3.247 -0.2032  0.3039 -0.6229
 6996SOL     OW32623   0.579   1.356   9.684  0.0771 -0.2005  0.2550
 6996SOL    HW132624   0.499   1.356   9.631 -0.9595 -1.5002  1.8457
 6996SOL    HW232625   0.570   1.276   9.735  0.1262 -0.1496  0.3429
 6997SOL     OW32626   3.804   2.827   6.579  0.5020 -0.0340  0.1064
 6997SOL    HW132627   3.755   2.762   6.629 -1.3315  0.5040 -0.9916
 6997SOL    HW232628   3.882   2.777   6.553  1.4713  1.4252  0.1878
 6998SOL     OW32629   0.695   1.723  12.446  0.1945 -0.1937 -0.2028
 6998SOL    HW132630   0.684   1.717  12.541  1.5411 -0.9573 -0.1142
 6998SOL    HW232631   0.752   1.800  12.445  1.6280 -1.2074  2.4816
 6999SOL     OW32632   4.209   1.565  17.226 -0.3413 -0.9839  0.2938
 6999SOL    HW132633   4.284   1.582  17.169 -0.5116 -3.4676 -0.6725
 6999SOL    HW232634   4.245   1.512  17.297  1.4827  1.2298  1.0098
 7000SOL     OW32635   1.053   1.179   5.035  0.0441  0.1967 -0.6955
 7000SOL    HW132636   1.096   1.104   4.996  0.6599  0.5877 -0.7747
 7000SOL    HW232637   1.115   1.252   5.033  1.9037 -1.4057 -0.9662
 7001SOL     OW32638   0.825   0.902  11.330 -0.0433  0.3812 -0.1299
 7001SOL    HW132639   0.798   0.993  11.342 -3.5916 -0.7463  0.4621
 7001SOL    HW232640   0.776   0.854  11.397 -1.3934  1.9151 -0.0147
 7002SOL     OW32641   1.163   1.432  10.368 -0.1207 -0.4245  0.3562
 7002SOL    HW132642   1.152   1.472  10.281 -0.4978  1.8756  1.4522
 7002SOL    HW232643   1.258   1.438  10.370  0.0362 -2.4672 -1.2623
 7003SOL     OW32644   4.469   0.114   9.808 -0.3712  0.5171  0.1280
 7003SOL    HW132645   4.460   0.115   9.903  0.4042  0.1148  0.2048
 7003SOL    HW232646   4.377   0.113   9.784 -0.5133 -0.7238  0.7559
 7004SOL     OW32647   1.195   1.671   3.211  0.5513  0.1961 -0.6376
 7004SOL    HW132648   1.216   1.733   3.281  1.4067  1.4841 -2.0305
 7004SOL    HW232649   1.101   1.676   3.193  0.9037 -0.2906 -2.5898
 7005SOL     OW32650   0.837   3.170   6.262  0.4280  0.5570 -0.1183
 7005SOL    HW132651   0.805   3.256   6.290 -1.0845 -0.0582  0.0366
 7005SOL    HW232652   0.915   3.197   6.213  1.0275  1.1435  1.1481
 7006SOL     OW32653   0.523   2.813   5.495 -0.1140 -0.7171 -0.8275
 7006SOL    HW132654   0.552   2.904   5.483  0.3444 -0.5098  1.8030
 7006SOL    HW232655   0.458   2.822   5.566 -1.7038 -1.0471 -2.2383
 7007SOL     OW32656   0.895   2.179   1.465  0.1562  0.2454 -0.0017
 7007SOL    HW132657   0.917   2.109   1.527  0.2100  1.8165  1.7494
 7007SOL    HW232658   0.800   2.178   1.467  0.1308  1.5645 -0.6647
 7008SOL     OW32659   2.314   3.063   8.348 -0.1483 -0.9561  0.1423
 7008SOL    HW132660   2.224   3.051   8.377  0.2790 -0.0841  1.8229
 7008SOL    HW232661   2.306   3.039   8.256  2.0884  0.8453 -0.5453
 7009SOL     OW32662   3.661   4.395   2.159  0.0018  0.4008  0.4024
 7009SOL    HW132663   3.633   4.346   2.082  0.4680  1.3417 -0.3589
 7009SOL    HW232664   3.709   4.471   2.127  0.2182  0.2020  0.2577
 7010SOL     OW32665   0.787   3.926   4.749  0.6512 -0.2893  0.5230
 7010SOL    HW132666   0.770   3.867   4.822 -1.3018 -1.0187 -0.5145
 7010SOL    HW232667   0.717   3.991   4.760 -0.5361 -1.7104  1.4857
 7011SOL     OW32668   4.193   3.627   5.344  0.5323  0.6213  0.0723
 7011SOL    HW132669   4.238   3.626   5.260 -0.1313 -1.2002 -0.2479
 7011SOL    HW232670   4.116   3.670   5.309  0.7791  1.0908  0.0977
 7012SOL     OW32671   4.218   2.541   1.431  0.6410 -0.5466  0.0319
 7012SOL    HW132672   4.224   2.626   1.475 -0.7407 -0.4741  0.0793
 7012SOL    HW232673   4.131   2.545   1.391  1.2380  1.7253 -1.0506
 7013SOL     OW32674   2.258   3.250   5.565  0.1549 -0.0686  0.2306
 7013SOL    HW132675   2.336   3.240   5.510  0.6886  1.5009  0.7186
 7013SOL    HW232676   2.190   3.277   5.503 -1.9406 -2.6825  1.3562
 7014SOL     OW32677   0.709   3.115   4.408 -0.1106  0.4215  0.5319
 7014SOL    HW132678   0.628   3.145   4.366 -1.2282 -2.1893  0.8541
 7014SOL    HW232679   0.695   3.021   4.405  1.0268  0.2752 -0.0729
 7015SOL     OW32680   3.973   2.018  13.063 -0.3927 -0.3232 -0.1667
 7015SOL    HW132681   3.920   1.947  13.101  0.8669 -0.2590  1.7268
 7015SOL    HW232682   4.024   1.962  13.005 -1.1357 -0.6248 -0.5358
 7016SOL     OW32683   0.128   3.637   2.133  0.4520  0.4318  0.0550
 7016SOL    HW132684   0.049   3.687   2.114  0.0546 -0.2590 -0.0809
 7016SOL    HW232685   0.102   3.545   2.135  0.0336  0.5871  1.6146
 7017SOL     OW32686   3.211   3.971   4.653  0.6060  0.2557  0.2120
 7017SOL    HW132687   3.170   3.886   4.668 -0.2586  0.8062  1.0019
 7017SOL    HW232688   3.164   4.007   4.578  2.2364  1.5323 -0.2088
 7018SOL     OW32689   1.918   1.453  13.576  0.1775  0.0895  0.7995
 7018SOL    HW132690   1.895   1.476  13.486 -1.4306 -1.7709  0.7464
 7018SOL    HW232691   1.908   1.537  13.620  1.9881  0.0533  1.2895
 7019SOL     OW32692   3.206   2.601  13.580  0.0900  0.0205 -0.6128
 7019SOL    HW132693   3.252   2.663  13.524  2.0451 -0.6446  0.2421
 7019SOL    HW232694   3.201   2.527  13.519  2.0290 -0.3879 -0.2755
 7020SOL     OW32695   2.485   3.408  12.979 -0.2111  0.0914 -0.1427
 7020SOL    HW132696   2.558   3.347  12.974  1.1661  1.5181  2.6518
 7020SOL    HW232697   2.423   3.337  12.997 -1.8116  1.7269  0.8833
 7021SOL     OW32698   3.679   4.711   6.294  1.5302 -0.2500  0.6669
 7021SOL    HW132699   3.614   4.642   6.280 -0.2076  1.3225  0.9852
 7021SOL    HW232700   3.630   0.010   6.364  1.4762  0.0500  0.4450
 7022SOL     OW32701   4.129   0.707  16.630  0.4305  0.4480  0.0151
 7022SOL    HW132702   4.179   0.673  16.704 -2.6804  0.0752  1.9287
 7022SOL    HW232703   4.165   0.652  16.560 -0.3163  0.2944 -0.2517
 7023SOL     OW32704   3.804   0.955   9.222  0.5995  0.2824  0.1884
 7023SOL    HW132705   3.715   0.921   9.227  0.9246 -0.6851 -0.6016
 7023SOL    HW232706   3.861   0.886   9.256 -1.1243 -0.7494  1.0078
 7024SOL     OW32707   0.267   0.045   4.380 -0.2159 -0.1726  0.0065
 7024SOL    HW132708   0.231   0.046   4.469  2.3596  2.1456  0.9931
 7024SOL    HW232709   0.290   4.696   4.380 -1.0002 -0.3801 -2.0202
 7025SOL     OW32710   4.023   2.754   3.521  0.4171  0.8352  0.3100
 7025SOL    HW132711   4.074   2.832   3.543 -1.0306  1.5576  1.1164
 7025SOL    HW232712   3.946   2.809   3.501  0.6467  1.6087  1.5453
 7026SOL     OW32713   3.647   2.989   9.909 -0.1149  0.1278  0.0049
 7026SOL    HW132714   3.724   2.961   9.958 -0.3031  0.1732  0.3267
 7026SOL    HW232715   3.586   2.956   9.974 -0.2576  1.4758  0.5573
 7027SOL     OW32716   0.913   2.013  11.729 -0.0704 -0.4064  0.1005
 7027SOL    HW132717   0.993   2.007  11.780 -1.6486 -2.0527  2.4302
 7027SOL    HW232718   0.859   1.950  11.777 -0.5205  0.7835  1.1326
 7028SOL     OW32719   2.142   1.537   8.970 -0.1945  0.2898  0.6049
 7028SOL    HW132720   2.147   1.459   9.025 -0.0620  0.4942  0.8859
 7028SOL    HW232721   2.207   1.518   8.902 -0.7316 -1.1264  0.5038
 7029SOL     OW32722   3.212   3.934   1.737 -0.1285 -0.4038  0.1893
 7029SOL    HW132723   3.294   3.896   1.705 -0.0886 -1.2421  1.2853
 7029SOL    HW232724   3.189   3.980   1.656 -0.5280  1.0615  1.1459
 7030SOL     OW32725   0.320   0.597   3.900  0.6500 -0.3092  0.4296
 7030SOL    HW132726   0.329   0.537   3.974  2.0813 -1.0546 -0.3298
 7030SOL    HW232727   0.269   0.529   3.857 -1.5524  1.5433  0.0797
 7031SOL     OW32728   4.361   2.624  11.179  0.2910 -0.1076 -0.9895
 7031SOL    HW132729   4.376   2.696  11.117  0.2299 -0.4554 -1.4040
 7031SOL    HW232730   4.430   2.632  11.246  0.2663 -0.2244 -0.9511
 7032SOL     OW32731   3.439   0.675  14.242 -0.2110 -0.0061 -0.2944
 7032SOL    HW132732   3.513   0.616  14.230 -0.5561 -0.2920 -1.0531
 7032SOL    HW232733   3.478   0.728  14.312  0.2771 -1.1512  0.2955
 7033SOL     OW32734   2.904   1.118   0.375 -0.6489  0.3106  0.3974
 7033SOL    HW132735   2.838   1.165   0.325  0.0257  2.6804  1.7127
 7033SOL    HW232736   2.877   1.125   0.466  1.0203 -0.9101  0.9821
 7034SOL     OW32737   2.822   0.958   5.332  0.3543  0.7196 -0.0753
 7034SOL    HW132738   2.757   1.025   5.354 -2.2281 -0.8217 -3.0715
 7034SOL    HW232739   2.769   0.878   5.331  1.9410 -0.3467  0.9814
 7035SOL     OW32740   4.713   1.032  14.760  0.1679 -0.8226  0.0121
 7035SOL    HW132741   4.643   0.996  14.814 -0.7536  0.6973 -0.1610
 7035SOL    HW232742   4.671   1.007  14.677  0.1450 -0.7216 -0.0064
 7036SOL     OW32743   3.748   1.921   2.653 -0.8108 -0.2613 -0.0221
 7036SOL    HW132744   3.703   1.958   2.729 -0.6995  1.1127 -0.6212
 7036SOL    HW232745   3.680   1.867   2.612 -1.8274 -1.0519  2.7143
 7037SOL     OW32746   3.138   3.492   5.287 -0.1319  0.2152  0.6709
 7037SOL    HW132747   3.196   3.506   5.362 -0.2582 -0.3469  0.8733
 7037SOL    HW232748   3.129   3.397   5.281 -1.6176  0.3591  0.8125
 7038SOL     OW32749   3.321   1.086   9.704  0.2638 -0.2114  0.6285
 7038SOL    HW132750   3.351   0.998   9.730  1.2635  0.4256  1.6311
 7038SOL    HW232751   3.332   1.081   9.609  2.1833  0.7235  0.8099
 7039SOL     OW32752   0.921   0.337   6.353 -0.1280 -0.1023  0.7012
 7039SOL    HW132753   0.991   0.273   6.340 -0.4452 -0.2369 -0.2910
 7039SOL    HW232754   0.969   0.419   6.363  0.9676 -0.6141 -0.2995
 7040SOL     OW32755   1.874   3.935  10.039  0.2191  0.5946  0.6863
 7040SOL    HW132756   1.839   4.023  10.051 -0.8716  0.3501 -0.6880
 7040SOL    HW232757   1.876   3.894  10.125  1.5423 -0.0816  0.3475
 7041SOL     OW32758   1.872   0.890   8.022  0.0601 -0.2127  0.1328
 7041SOL    HW132759   1.803   0.843   8.069  0.2347  0.5314  1.1370
 7041SOL    HW232760   1.948   0.839   8.050 -0.0351 -1.5460 -2.0311
 7042SOL     OW32761   1.847   2.111   8.244  0.7066 -0.3347 -0.1918
 7042SOL    HW132762   1.780   2.074   8.302  0.7422  0.8047  0.5912
 7042SOL    HW232763   1.909   2.147   8.307  0.4204  1.2902 -0.8322
 7043SOL     OW32764   4.332   2.527   2.319 -0.0711  0.3623  0.0103
 7043SOL    HW132765   4.280   2.599   2.283  0.2251  0.7974  0.4593
 7043SOL    HW232766   4.421   2.552   2.293 -0.1549 -0.8784 -1.4948
 7044SOL     OW32767   0.745   2.207   7.795 -0.0806  0.4625 -0.3078
 7044SOL    HW132768   0.671   2.175   7.847 -0.5193  2.5936  0.3924
 7044SOL    HW232769   0.822   2.194   7.851 -0.6801  0.6824  0.5752
 7045SOL     OW32770   4.739   2.299   8.586  0.3616 -0.3185 -0.5622
 7045SOL    HW132771   0.013   2.392   8.591  0.2927 -0.3841  0.9253
 7045SOL    HW232772   4.644   2.312   8.576  0.7182 -0.1075 -3.7186
 7046SOL     OW32773   4.151   3.827   8.423 -0.4647  0.1108 -0.1267
 7046SOL    HW132774   4.071   3.852   8.468  0.0090  0.4185  0.5332
 7046SOL    HW232775   4.185   3.913   8.396  0.2506 -0.8799 -2.4310
 7047SOL     OW32776   0.930   2.916   4.648  1.2339  0.2923  0.4083
 7047SOL    HW132777   0.872   2.849   4.685  1.4697  0.2601  0.7195
 7047SOL    HW232778   0.928   2.877   4.561  0.9762 -2.3438  1.5937
 7048SOL     OW32779   0.094   3.723   3.832 -0.4121  0.0467  0.2299
 7048SOL    HW132780   0.139   3.639   3.821 -1.6362 -0.6788  0.6870
 7048SOL    HW232781   0.010   3.705   3.788 -0.5285  2.0338 -0.3649
 7049SOL     OW32782   1.804   4.090   5.471  0.2580 -0.2450  0.1519
 7049SOL    HW132783   1.722   4.123   5.508 -0.8815 -1.3734 -1.3717
 7049SOL    HW232784   1.845   4.081   5.557 -0.9526  2.4948  1.0429
 7050SOL     OW32785   2.542   3.003   9.470  0.4455 -0.2081  0.4352
 7050SOL    HW132786   2.597   2.926   9.456  0.1187 -0.4137  0.2855
 7050SOL    HW232787   2.482   2.971   9.537  0.4663 -0.1273  0.4930
 7051SOL     OW32788   1.640   3.587   5.202 -0.0129  0.2437 -0.2355
 7051SOL    HW132789   1.637   3.682   5.206 -0.6682  0.2334 -0.4841
 7051SOL    HW232790   1.550   3.558   5.220  0.4401 -0.9153  0.1839
 7052SOL     OW32791   3.854   3.758  12.012  0.7357 -0.0588 -0.1886
 7052SOL    HW132792   3.873   3.695  12.081  0.0306 -0.8631 -0.7321
 7052SOL    HW232793   3.787   3.724  11.953  1.8687  0.8090 -2.0001
 7053SOL     OW32794   0.946   3.361   5.413  0.0745 -0.3871  0.0695
 7053SOL    HW132795   0.992   3.413   5.479 -0.6538 -0.0069  0.2714
 7053SOL    HW232796   1.020   3.312   5.377 -1.1889 -2.6631  0.5538
 7054SOL     OW32797   1.813   3.766   6.290 -0.3364  0.0873 -0.4486
 7054SOL    HW132798   1.722   3.794   6.287 -0.2452  0.1711 -2.2164
 7054SOL    HW232799   1.821   3.690   6.233 -2.0086 -1.2317  1.0974
 7055SOL     OW32800   2.265   4.512   7.176 -0.3334  0.0097 -0.0340
 7055SOL    HW132801   2.360   4.523   7.173 -0.4590  2.1341  3.9424
 7055SOL    HW232802   2.263   4.505   7.272  0.3831 -0.2226 -0.0325
 7056SOL     OW32803   2.826   2.581   3.297  0.5855  0.4192  0.5533
 7056SOL    HW132804   2.869   2.642   3.358  0.4033  0.3204  0.7817
 7056SOL    HW232805   2.813   2.632   3.217  1.7834  0.9837  0.7154
 7057SOL     OW32806   2.364   3.000   6.431  0.0713 -0.3759  0.1731
 7057SOL    HW132807   2.333   3.041   6.350 -1.9166 -1.9102  0.1525
 7057SOL    HW232808   2.446   2.966   6.396  0.2692 -0.6647  0.9214
 7058SOL     OW32809   4.211   1.949   2.228 -0.1776 -0.1176  0.4243
 7058SOL    HW132810   4.174   1.862   2.211  0.0234 -0.6694  2.7271
 7058SOL    HW232811   4.132   2.001   2.213  0.6407  1.3716  1.2548
 7059SOL     OW32812   1.593   2.116   5.341  0.2234  0.1475 -0.1403
 7059SOL    HW132813   1.609   2.191   5.283  3.5371 -0.8255 -0.4406
 7059SOL    HW232814   1.624   2.153   5.423 -1.9765  1.0703  0.2916
 7060SOL     OW32815   3.655   1.702   7.143  0.7312  0.6022  0.0461
 7060SOL    HW132816   3.690   1.752   7.217  0.3714 -1.6566  1.7442
 7060SOL    HW232817   3.681   1.612   7.164 -2.5076 -0.6951 -1.4191
 7061SOL     OW32818   0.636   1.116  13.936 -0.6298  0.1772 -0.5608
 7061SOL    HW132819   0.667   1.179  14.002 -2.7049  0.9758 -0.3548
 7061SOL    HW232820   0.663   1.172  13.864  0.0319  0.0196 -0.4318
 7062SOL     OW32821   1.184   1.870   1.867 -0.0200  0.1819 -0.5278
 7062SOL    HW132822   1.255   1.917   1.911  0.9934  0.1755 -2.1456
 7062SOL    HW232823   1.234   1.812   1.810 -0.0111  1.0877 -1.4517
 7063SOL     OW32824   4.536   2.250   5.398  0.2456 -0.4458 -0.1319
 7063SOL    HW132825   4.491   2.176   5.358  0.6831 -1.2009  0.7849
 7063SOL    HW232826   4.516   2.237   5.490 -0.8797  0.8214 -0.2007
 7064SOL     OW32827   1.745   3.767   4.281  0.4890 -0.4766  0.5187
 7064SOL    HW132828   1.817   3.730   4.230 -1.4396 -2.8304 -0.5032
 7064SOL    HW232829   1.803   3.811   4.343  1.9351 -0.4567 -0.8503
 7065SOL     OW32830   1.086   3.047  17.577  0.2667  0.1812 -0.2215
 7065SOL    HW132831   1.100   3.034  17.484 -1.9712  1.5356 -0.7350
 7065SOL    HW232832   1.127   2.967  17.608 -1.2612 -0.7374 -0.5827
 7066SOL     OW32833   3.433   2.672   6.878  0.4223  0.4279  0.2190
 7066SOL    HW132834   3.366   2.716   6.825  0.4945 -1.2992 -1.2854
 7066SOL    HW232835   3.400   2.583   6.864 -0.4425  0.8003 -0.1513
 7067SOL     OW32836   1.866   2.696   2.564  0.3408  0.3009  0.0533
 7067SOL    HW132837   1.936   2.760   2.569  2.1424 -1.7378  1.0819
 7067SOL    HW232838   1.871   2.662   2.474  0.0796 -0.5237  0.3460
 7068SOL     OW32839   4.117   1.984   3.811 -0.2049 -0.7787  0.2963
 7068SOL    HW132840   4.060   2.042   3.862  0.0942 -1.3214  1.2412
 7068SOL    HW232841   4.067   1.903   3.818  1.2101 -1.7678 -1.0015
 7069SOL     OW32842   3.521   0.928  17.391 -0.2437 -0.1593  0.2290
 7069SOL    HW132843   3.550   0.972  17.311  0.0423 -0.8588 -0.0486
 7069SOL    HW232844   3.599   0.942  17.446  1.0899 -1.2258 -1.3760
 7070SOL     OW32845   3.747   0.326   2.515  0.1891 -0.1626 -0.2747
 7070SOL    HW132846   3.670   0.382   2.517 -0.5600 -1.1345 -2.2508
 7070SOL    HW232847   3.811   0.365   2.576 -1.1313  2.5973 -0.6397
 7071SOL     OW32848   3.192   0.098  12.915  0.1554  0.0942  0.4594
 7071SOL    HW132849   3.137   0.151  12.856  1.1363 -0.1259 -0.6544
 7071SOL    HW232850   3.270   0.153  12.912 -0.0849  0.2710 -2.3835
 7072SOL     OW32851   2.754   1.069   9.782  0.1694  0.0131  0.1565
 7072SOL    HW132852   2.833   1.022   9.754  0.1822  0.1606 -0.0563
 7072SOL    HW232853   2.690   0.997   9.782 -0.5253  0.6146 -3.4709
 7073SOL     OW32854   3.105   0.339   4.146 -0.3202  0.0522 -0.5955
 7073SOL    HW132855   3.074   0.276   4.081  1.4884 -0.2927 -1.1319
 7073SOL    HW232856   3.027   0.343   4.200 -0.1878  2.3550 -0.5686
 7074SOL     OW32857   2.361   1.271   0.002 -0.5472  0.3940 -0.2096
 7074SOL    HW132858   2.375   1.181   0.033  1.7120  0.8412  0.1079
 7074SOL    HW232859   2.401   1.262  17.688 -1.4798 -0.4924 -0.5415
 7075SOL     OW32860   4.488   1.776   3.304 -0.1419  0.0971  0.1202
 7075SOL    HW132861   4.549   1.764   3.231  2.2016  2.2691  1.7257
 7075SOL    HW232862   4.525   1.708   3.362 -0.3208  0.5277  0.7361
 7076SOL     OW32863   1.021   2.248   4.428 -0.5099 -0.0843 -0.0433
 7076SOL    HW132864   0.939   2.273   4.471 -0.2154  2.6328 -0.9976
 7076SOL    HW232865   1.007   2.264   4.335  0.5844  0.0892 -0.1847
 7077SOL     OW32866   1.976   4.034   2.300 -0.4286 -0.2338 -0.3789
 7077SOL    HW132867   1.930   4.105   2.254 -0.8476 -0.4309 -0.2650
 7077SOL    HW232868   2.062   4.067   2.324 -0.5634 -1.9438  2.4602
 7078SOL     OW32869   2.941   1.837  10.915  0.1543 -0.0209 -0.3795
 7078SOL    HW132870   2.967   1.920  10.956  2.5615 -2.4305  2.9009
 7078SOL    HW232871   3.019   1.816  10.862  0.5069 -1.2240  0.6161
 7079SOL     OW32872   1.691   3.500   8.289 -0.2596  0.0982 -0.6810
 7079SOL    HW132873   1.703   3.526   8.198 -0.2445 -0.7301 -0.9186
 7079SOL    HW232874   1.664   3.409   8.277 -2.0761  0.8591 -2.2817
 7080SOL     OW32875   4.632   1.078   8.996 -0.3548 -0.0414  0.3227
 7080SOL    HW132876   4.552   1.123   9.022 -0.9488 -0.0071 -1.5398
 7080SOL    HW232877   4.611   0.986   8.986 -1.8572  0.0178  3.0894
 7081SOL     OW32878   4.723   4.458   7.485  0.0690  0.1996 -0.1514
 7081SOL    HW132879   0.003   4.458   7.393 -0.2117  0.5160 -0.2270
 7081SOL    HW232880   0.051   4.406   7.520  0.8592  0.8915 -0.7604
 7082SOL     OW32881   4.580   1.326   2.316  0.1158  0.1792  0.1058
 7082SOL    HW132882   4.659   1.351   2.364  1.3498  0.1877 -1.9830
 7082SOL    HW232883   4.533   1.273   2.381 -0.9086  0.0386 -0.7571
 7083SOL     OW32884   1.068   3.262   6.991  0.1948  0.0026  0.0498
 7083SOL    HW132885   1.074   3.355   6.972  0.8599  0.0064  0.2910
 7083SOL    HW232886   1.001   3.229   6.930 -0.5642  0.0439  0.8637
 7084SOL     OW32887   1.499   3.563  12.286 -0.3708 -0.8280  0.6876
 7084SOL    HW132888   1.425   3.504  12.296 -1.1186  0.5934  3.7662
 7084SOL    HW232889   1.572   3.508  12.258 -1.6712 -3.3378  2.2465
 7085SOL     OW32890   3.107   3.009  16.381  0.0769  0.4621  0.0951
 7085SOL    HW132891   3.189   3.054  16.366 -0.6203  2.1815  1.4720
 7085SOL    HW232892   3.082   2.981  16.293  1.3749  2.0879 -0.7638
 7086SOL     OW32893   2.709   1.951  12.596 -0.3587  0.0641  0.3711
 7086SOL    HW132894   2.615   1.961  12.607 -0.5630 -1.5627  0.0778
 7086SOL    HW232895   2.734   1.898  12.671  0.2432  0.7623  0.6584
 7087SOL     OW32896   2.433   4.635   1.116  0.7044 -0.0475 -0.1537
 7087SOL    HW132897   2.404   4.720   1.149 -1.2996 -0.3361 -1.1823
 7087SOL    HW232898   2.355   4.579   1.123 -0.4675  1.5624 -0.1917
 7088SOL     OW32899   2.078   0.995   2.299 -0.1851 -0.5748 -0.3868
 7088SOL    HW132900   2.030   0.940   2.361 -0.5532  0.2156  0.0289
 7088SOL    HW232901   2.168   0.983   2.327 -0.5558 -0.6047  0.8150
 7089SOL     OW32902   1.604   3.438   4.621  0.2062  0.1387  0.0525
 7089SOL    HW132903   1.604   3.521   4.669 -4.1813 -0.6796  1.4365
 7089SOL    HW232904   1.523   3.439   4.570 -0.9366  0.2616  1.8820
 7090SOL     OW32905   0.078   2.819   3.134 -0.2391 -0.0438 -0.4337
 7090SOL    HW132906   0.084   2.908   3.099  1.5649  0.4905  1.1883
 7090SOL    HW232907   0.169   2.806   3.162 -0.0247  0.7220 -0.7588
 7091SOL     OW32908   3.139   4.375   2.569 -0.1387 -0.0493  0.1730
 7091SOL    HW132909   3.123   4.371   2.663  1.2286 -0.7572  0.3720
 7091SOL    HW232910   3.082   4.302   2.545 -1.3845  0.9165  0.1735
 7092SOL     OW32911   0.713   4.003  17.715 -0.5601  0.0635 -0.1315
 7092SOL    HW132912   0.670   3.955  17.644  0.0251  1.3907 -1.3891
 7092SOL    HW232913   0.674   3.957   0.017  0.7135 -1.4158 -0.3684
 7093SOL     OW32914   3.474   0.908   4.150  0.0539  0.3621 -0.7419
 7093SOL    HW132915   3.422   0.965   4.093  1.0486  0.4117 -1.5933
 7093SOL    HW232916   3.552   0.922   4.097  0.3787 -1.7105 -0.8055
 7094SOL     OW32917   3.085   0.563   9.935  0.3651  0.2550  0.3330
 7094SOL    HW132918   3.004   0.608   9.960  0.7052 -0.1714  2.2013
 7094SOL    HW232919   3.150   0.580  10.003 -0.6468 -1.0260  1.6298
 7095SOL     OW32920   1.735   3.780   4.656 -0.1978  0.1499  0.8078
 7095SOL    HW132921   1.683   3.754   4.580  0.6752  2.5147 -0.6322
 7095SOL    HW232922   1.739   3.876   4.648  0.2784  0.0395 -0.2436
 7096SOL     OW32923   3.193   1.170   3.688  0.7869 -0.7200  0.4557
 7096SOL    HW132924   3.122   1.107   3.702  0.5426 -0.5307  0.0456
 7096SOL    HW232925   3.151   1.253   3.705  0.1985 -0.6543 -1.3370
 7097SOL     OW32926   1.481   1.527   9.522 -0.2648 -0.1123 -0.2114
 7097SOL    HW132927   1.395   1.531   9.564  0.3986 -0.6216  1.1922
 7097SOL    HW232928   1.474   1.442   9.479 -0.9873 -0.3575  0.3859
 7098SOL     OW32929   1.410   0.854   6.123  0.0857 -0.1732 -0.3307
 7098SOL    HW132930   1.403   0.845   6.218 -2.4161  0.4839 -0.4381
 7098SOL    HW232931   1.504   0.874   6.120 -0.0825  0.4823 -1.0723
 7099SOL     OW32932   2.404   4.686  17.023 -0.4102  0.5670 -0.0587
 7099SOL    HW132933   2.373   4.612  17.075  1.1978  0.5845  0.9061
 7099SOL    HW232934   2.475   4.705  17.084 -0.7960 -1.8352  1.1350
 7100SOL     OW32935   4.153   3.261   6.158  0.2589  0.0491  0.3041
 7100SOL    HW132936   4.180   3.207   6.232  1.1941  1.8603  1.2505
 7100SOL    HW232937   4.219   3.245   6.091 -0.9445 -0.2372 -0.8306
 7101SOL     OW32938   1.667   1.609   1.163 -0.0946 -0.6736  0.6144
 7101SOL    HW132939   1.691   1.692   1.205 -2.1230 -0.3371  1.0987
 7101SOL    HW232940   1.671   1.619   1.067 -0.7767  0.5550  0.7056
 7102SOL     OW32941   3.850   1.234   1.672  0.4377  0.7250 -0.4616
 7102SOL    HW132942   3.908   1.305   1.701 -0.6654  1.3428  0.2482
 7102SOL    HW232943   3.781   1.248   1.738  1.5853  2.3822  0.3917
 7103SOL     OW32944   0.911   3.472   4.313  0.1269 -0.5742 -0.2967
 7103SOL    HW132945   0.939   3.381   4.312  0.5686 -0.4435  0.0682
 7103SOL    HW232946   0.913   3.471   4.408 -0.6219 -1.4022 -0.2931
 7104SOL     OW32947   4.361   0.740   3.900  0.4777  0.4589  0.3370
 7104SOL    HW132948   4.337   0.781   3.817 -0.5661  0.4508  0.6269
 7104SOL    HW232949   4.356   0.815   3.960 -1.8470  1.2900 -0.8966
 7105SOL     OW32950   1.532   2.906  17.099  0.7226 -0.4289 -0.2987
 7105SOL    HW132951   1.453   2.852  17.099  0.7899 -0.5314 -0.4740
 7105SOL    HW232952   1.599   2.837  17.100 -0.1206 -1.1972  2.7350
 7106SOL     OW32953   0.437   1.343   0.729  0.1134 -0.1112 -0.4831
 7106SOL    HW132954   0.506   1.408   0.744  0.4026 -0.2869 -1.0692
 7106SOL    HW232955   0.401   1.346   0.818 -1.2911 -0.4710 -1.0524
 7107SOL     OW32956   3.280   3.594  15.544 -0.0197 -0.0611  0.1593
 7107SOL    HW132957   3.254   3.545  15.621 -0.5521 -2.1098 -1.3321
 7107SOL    HW232958   3.245   3.683  15.553 -0.9958 -0.5593  1.1054
 7108SOL     OW32959   3.739   0.025  10.011  0.7027 -0.3726 -0.1001
 7108SOL    HW132960   3.739   0.031   9.915  0.9763  0.4485 -0.0495
 7108SOL    HW232961   3.759   4.678  10.035  2.0319 -0.7245 -2.5415
 7109SOL     OW32962   2.478   4.010   3.427 -0.1792 -0.2125  0.3032
 7109SOL    HW132963   2.426   4.055   3.360 -0.6537 -0.7451  0.3069
 7109SOL    HW232964   2.447   3.921   3.407  4.9023 -1.9794  0.4229
 7110SOL     OW32965   0.227   0.222  15.579 -0.0284  0.0402 -0.8367
 7110SOL    HW132966   0.147   0.233  15.528 -0.4046  1.7798  0.1011
 7110SOL    HW232967   0.305   0.213  15.523 -0.0355  0.1447 -0.8632
 7111SOL     OW32968   0.609   0.239  12.668 -0.0743 -0.3605  0.4466
 7111SOL    HW132969   0.539   0.217  12.730  1.2707 -1.1632  1.6716
 7111SOL    HW232970   0.571   0.213  12.584 -4.3330  0.6898  2.0137
 7112SOL     OW32971   1.919   0.426   7.094 -0.3773  0.2488  0.0724
 7112SOL    HW132972   2.014   0.418   7.107 -0.7090 -0.7986  1.8765
 7112SOL    HW232973   1.900   0.360   7.027 -0.1019 -0.9662  1.2006
 7113SOL     OW32974   1.117   3.776   2.774 -0.1740  0.3104 -0.3754
 7113SOL    HW132975   1.047   3.730   2.821 -0.4924  2.7283  1.5152
 7113SOL    HW232976   1.118   3.867   2.804  0.6183  0.1169  0.1799
 7114SOL     OW32977   1.020   0.629   7.741 -0.2187 -0.0661  0.1871
 7114SOL    HW132978   1.087   0.685   7.780 -0.2987 -0.1512  0.4428
 7114SOL    HW232979   1.022   0.550   7.795 -0.6586 -0.3508 -0.2105
 7115SOL     OW32980   0.800   1.219   5.174  0.2519 -0.1398 -0.0015
 7115SOL    HW132981   0.775   1.130   5.197  0.9961 -0.0565  1.1685
 7115SOL    HW232982   0.890   1.208   5.141 -0.4809  2.6722 -2.9116
 7116SOL     OW32983   0.451   1.142   4.463  0.3994 -0.7296  0.0533
 7116SOL    HW132984   0.390   1.205   4.502 -1.4081 -2.8720  0.6980
 7116SOL    HW232985   0.391   1.107   4.397 -0.1923  1.1273 -0.3812
 7117SOL     OW32986   0.672   1.250   8.823 -0.0194 -0.4049 -0.1356
 7117SOL    HW132987   0.671   1.207   8.908 -1.7480  0.6693  0.3951
 7117SOL    HW232988   0.706   1.192   8.755  1.1106 -1.2087  1.1153
 7118SOL     OW32989   2.184   0.611   0.336  0.7013 -0.0772  0.2372
 7118SOL    HW132990   2.110   0.575   0.385  0.1925 -0.0124 -0.4703
 7118SOL    HW232991   2.243   0.537   0.324  3.4847  2.2957 -0.6043
 7119SOL     OW32992   0.654   1.170   6.002 -0.6790 -0.2239 -0.5229
 7119SOL    HW132993   0.625   1.091   6.047 -3.4697  0.7599 -0.6453
 7119SOL    HW232994   0.597   1.229   6.050 -0.7950 -0.6237 -0.1712
 7120SOL     OW32995   2.742   4.163  10.125  0.1405 -0.2804 -0.1564
 7120SOL    HW132996   2.723   4.250  10.160  1.2079  0.2770 -0.9716
 7120SOL    HW232997   2.659   4.121  10.105  0.3335 -0.7183 -0.0482
 7121SOL     OW32998   0.416   3.799   4.962 -0.3255  0.0113  0.0294
 7121SOL    HW132999   0.323   3.819   4.962  0.1158  1.9918 -0.3792
 7121SOL    HW233000   0.412   3.709   4.928 -0.9980 -0.1164  0.4484
 7122SOL     OW33001   1.659   3.131   8.847 -0.3804  0.2340  0.6142
 7122SOL    HW133002   1.716   3.204   8.824  0.8020 -2.0181 -3.6897
 7122SOL    HW233003   1.710   3.103   8.923 -2.7420 -1.4235  1.6110
 7123SOL     OW33004   3.501   0.467   2.918  0.6976  0.1649  0.1482
 7123SOL    HW133005   3.492   0.394   2.857  0.1724  0.7279 -0.4520
 7123SOL    HW233006   3.446   0.424   2.984  0.2596  1.0946  0.3916
 7124SOL     OW33007   3.885   0.283   6.104  0.5371 -0.2008 -0.6403
 7124SOL    HW133008   3.803   0.254   6.064  0.6562 -0.0441 -0.9967
 7124SOL    HW233009   3.941   0.206   6.115 -1.6980 -1.8548 -0.8905
 7125SOL     OW33010   3.794   1.811   1.940  0.3747 -0.0741 -0.4568
 7125SOL    HW133011   3.719   1.792   1.998 -1.3516 -0.2413 -2.7641
 7125SOL    HW233012   3.852   1.741   1.971 -0.7645 -0.9805 -0.3582
 7126SOL     OW33013   3.383   3.763   1.589  0.3371  0.3842 -0.1078
 7126SOL    HW133014   3.450   3.724   1.533 -0.3084  2.1872 -2.1609
 7126SOL    HW233015   3.305   3.733   1.541  0.6977 -3.2119  1.5254
 7127SOL     OW33016   1.845   1.099   3.606  0.1415  0.0515  0.1614
 7127SOL    HW133017   1.754   1.071   3.619  0.2566 -0.6067 -0.3973
 7127SOL    HW233018   1.882   1.017   3.638 -0.5161  1.3369  4.1207
 7128SOL     OW33019   3.078   2.952  11.550  0.1038 -0.2329 -0.6600
 7128SOL    HW133020   2.995   2.998  11.556  0.3827  0.2323 -0.3860
 7128SOL    HW233021   3.059   2.880  11.611  2.0271  0.0874  0.3281
 7129SOL     OW33022   0.901   0.091   5.528 -0.4170 -0.3151  0.7455
 7129SOL    HW133023   0.977   0.140   5.559 -0.1655 -1.0135  1.2297
 7129SOL    HW233024   0.863   0.060   5.610 -0.5106  1.1400  1.2568
 7130SOL     OW33025   3.037   2.617   7.196  0.2796 -0.5111 -0.0081
 7130SOL    HW133026   3.092   2.688   7.162  0.1407 -1.4356 -2.1634
 7130SOL    HW233027   3.044   2.645   7.287 -2.9092  2.8122 -0.8188
 7131SOL     OW33028   0.377   1.515  13.318  0.4899  0.1195  0.7094
 7131SOL    HW133029   0.290   1.525  13.357 -0.3853 -1.4480 -0.7990
 7131SOL    HW233030   0.417   1.441  13.363 -2.6264 -1.8068  0.3076
 7132SOL     OW33031   0.854   4.419   8.829 -0.5799  0.9030  0.4175
 7132SOL    HW133032   0.886   4.399   8.741  2.1003  0.6780  1.4398
 7132SOL    HW233033   0.917   4.482   8.865  2.0471 -1.4424 -0.0206
 7133SOL     OW33034   0.532   3.193   7.026  0.1626 -0.1733 -0.2977
 7133SOL    HW133035   0.610   3.157   7.069 -0.5362 -0.1654  0.9431
 7133SOL    HW233036   0.511   3.272   7.075  1.3944  0.3419 -0.5888
 7134SOL     OW33037   3.225   1.881   4.382 -0.5221  0.1027  0.1906
 7134SOL    HW133038   3.295   1.816   4.393 -1.7833 -1.4651 -0.9852
 7134SOL    HW233039   3.154   1.847   4.438  1.8631 -0.6400  2.7713
 7135SOL     OW33040   3.983   2.486   7.533  0.3540 -0.1312  0.4562
 7135SOL    HW133041   3.987   2.412   7.594 -2.0075 -0.8478 -0.2390
 7135SOL    HW233042   4.007   2.560   7.589 -3.5572  1.9395 -0.6038
 7136SOL     OW33043   1.698   4.178   1.664 -0.3203  0.1655  0.1376
 7136SOL    HW133044   1.764   4.134   1.718 -1.8544  0.1902  2.0252
 7136SOL    HW233045   1.722   4.150   1.576  2.6907  1.7482  0.4554
 7137SOL     OW33046   1.674   4.704  14.212 -0.1317  0.5229 -0.6502
 7137SOL    HW133047   1.665   4.609  14.220  0.2756  0.3843 -1.9363
 7137SOL    HW233048   1.690   4.723  14.120  1.9429  0.0887 -0.3861
 7138SOL     OW33049   3.996   0.717   0.834 -0.2182 -0.0720  0.2469
 7138SOL    HW133050   4.040   0.714   0.749  1.3162  1.5365  0.9847
 7138SOL    HW233051   4.070   0.726   0.893 -0.2421  1.9706 -0.0554
 7139SOL     OW33052   2.394   4.190   5.695  0.1287  0.2502  0.7867
 7139SOL    HW133053   2.305   4.186   5.661  0.6771  0.1257 -0.6345
 7139SOL    HW233054   2.444   4.140   5.630 -0.5794  0.8053 -0.1855
 7140SOL     OW33055   0.702   4.191   8.117 -0.1757  0.5982  0.0786
 7140SOL    HW133056   0.734   4.106   8.146  0.9928 -0.0727 -3.1105
 7140SOL    HW233057   0.780   4.232   8.080 -0.5075  0.7646 -0.4376
 7141SOL     OW33058   3.295   3.497   1.346 -0.0941 -0.1101  0.2008
 7141SOL    HW133059   3.381   3.532   1.369 -0.1506 -1.8395  2.8989
 7141SOL    HW233060   3.306   3.409   1.382 -2.9859 -1.7395 -2.8827
 7142SOL     OW33061   4.248   1.053   2.008  0.0018 -0.6660  0.5025
 7142SOL    HW133062   4.285   1.137   2.035  0.9334 -0.7648 -0.4830
 7142SOL    HW233063   4.321   1.024   1.955 -0.1833 -0.0712 -0.0713
 7143SOL     OW33064   4.590   1.600   3.492  0.3553  0.1761 -0.0259
 7143SOL    HW133065   4.538   1.563   3.564  0.8006  1.3660  0.9073
 7143SOL    HW233066   4.659   1.632   3.549 -1.6140  1.2000  1.7864
 7144SOL     OW33067   3.437   2.511   8.663 -0.1269  0.0910  0.1600
 7144SOL    HW133068   3.506   2.544   8.607  0.4154  0.1697  0.8692
 7144SOL    HW233069   3.470   2.513   8.753  3.3778  1.3474 -1.1917
 7145SOL     OW33070   1.016   3.011  12.197 -0.0658  0.0171  0.5338
 7145SOL    HW133071   1.001   3.057  12.114  0.2464  0.1984  0.5764
 7145SOL    HW233072   1.109   2.992  12.182 -0.3442  1.4500 -3.2194
 7146SOL     OW33073   1.133   3.621   6.489  0.1017 -0.2206  0.1597
 7146SOL    HW133074   1.197   3.560   6.526 -1.4970 -1.8912  0.1890
 7146SOL    HW233075   1.149   3.698   6.543  2.5634 -1.7063  1.5505
 7147SOL     OW33076   2.679   3.867   1.650  0.2717  0.8903  0.1459
 7147SOL    HW133077   2.643   3.901   1.732 -0.0180  1.5478 -0.2532
 7147SOL    HW233078   2.682   3.773   1.670  0.2921  0.3698 -2.3240
 7148SOL     OW33079   2.470   0.313   7.166 -0.2984 -0.5930  0.0753
 7148SOL    HW133080   2.469   0.251   7.093  1.5880 -0.1988 -0.2842
 7148SOL    HW233081   2.488   0.398   7.126 -1.8094 -1.3971 -2.3506
 7149SOL     OW33082   0.793   1.495  15.226  0.0269 -1.2597 -0.1816
 7149SOL    HW133083   0.742   1.432  15.176 -0.2329  0.7035 -2.3980
 7149SOL    HW233084   0.840   1.437  15.286  1.3291  1.1850  1.1731
 7150SOL     OW33085   0.211   0.716   8.427  0.0121 -0.6416  0.4321
 7150SOL    HW133086   0.269   0.687   8.498  2.4792  0.4990 -1.1054
 7150SOL    HW233087   0.130   0.729   8.476  0.4235 -0.8982  1.1825
 7151SOL     OW33088   1.121   0.894   3.687 -0.2181 -0.1340 -0.0286
 7151SOL    HW133089   1.116   0.858   3.599 -2.1259  0.9986 -0.3917
 7151SOL    HW233090   1.170   0.821   3.724 -1.2332 -1.0736 -0.5288
 7152SOL     OW33091   0.558   0.832  11.148  0.2664 -0.1454 -0.4600
 7152SOL    HW133092   0.594   0.833  11.059 -1.2312 -4.1610 -1.1265
 7152SOL    HW233093   0.539   0.925  11.155 -0.8153 -0.5627  2.2154
 7153SOL     OW33094   3.770   2.226   5.631 -0.8694  0.1568  0.4691
 7153SOL    HW133095   3.713   2.226   5.707 -1.5244  0.2098 -0.0203
 7153SOL    HW233096   3.783   2.318   5.607 -1.3011 -0.1393 -0.9384
 7154SOL     OW33097   3.146   0.799   9.093  0.3312 -0.2155  0.6859
 7154SOL    HW133098   3.240   0.785   9.098  0.4734  0.2829 -0.5856
 7154SOL    HW233099   3.139   0.892   9.118  2.5415  0.4321 -1.1698
 7155SOL     OW33100   2.766   4.549   0.469 -0.2270 -0.1877  0.2979
 7155SOL    HW133101   2.789   4.456   0.476  1.6040  0.2670  0.3465
 7155SOL    HW233102   2.727   4.550   0.382 -1.6753 -1.0558  0.9403
 7156SOL     OW33103   2.834   1.339   2.761 -0.3384 -0.2264 -0.2625
 7156SOL    HW133104   2.891   1.267   2.789 -1.5525 -0.2503  2.0756
 7156SOL    HW233105   2.837   1.310   2.669  2.3878 -0.1719 -0.1952
 7157SOL     OW33106   0.024   3.930  14.263  0.1072 -0.0900  0.3346
 7157SOL    HW133107   4.742   3.840  14.282  2.0442 -0.7783 -0.2898
 7157SOL    HW233108   4.723   3.951  14.181  1.4207 -1.0230 -0.6241
 7158SOL     OW33109   1.908   4.014  13.909 -0.2506 -0.4934  0.4611
 7158SOL    HW133110   1.901   4.031  13.815  0.3601  0.0417  0.5165
 7158SOL    HW233111   1.997   4.044  13.922  1.1852 -4.0427 -1.2049
 7159SOL     OW33112   3.649   0.394   5.461 -0.0469 -0.0536  0.3506
 7159SOL    HW133113   3.662   0.301   5.444  2.4559  0.3263  0.2578
 7159SOL    HW233114   3.553   0.388   5.460 -0.0127 -0.6408  0.2848
 7160SOL     OW33115   3.451   3.684   2.432 -0.4067 -0.0340 -0.0713
 7160SOL    HW133116   3.542   3.671   2.458  0.0467  3.0072 -0.0735
 7160SOL    HW233117   3.452   3.771   2.472  1.3763 -0.9596  1.9039
 7161SOL     OW33118   4.176   3.652   6.487 -0.0213  0.0290  0.0605
 7161SOL    HW133119   4.199   3.745   6.486 -1.7250  0.4811  1.3179
 7161SOL    HW233120   4.240   3.625   6.422 -0.8394 -0.6095 -0.4781
 7162SOL     OW33121   1.209   2.712   2.762  0.2100  0.2933  0.1103
 7162SOL    HW133122   1.263   2.748   2.692  0.3777 -0.7837 -0.3119
 7162SOL    HW233123   1.194   2.621   2.735 -0.6505  1.7068 -4.1252
 7163SOL     OW33124   3.242   4.312   1.908 -0.4600  1.3231 -0.6976
 7163SOL    HW133125   3.305   4.262   1.959  0.4233 -0.5630 -3.5900
 7163SOL    HW233126   3.167   4.253   1.904  0.4401 -0.0475  2.8637
 7164SOL     OW33127   1.342   4.649   6.617 -0.4953  0.2498  0.5329
 7164SOL    HW133128   1.298   4.574   6.659  0.6610 -0.3303  0.7022
 7164SOL    HW233129   1.280   4.663   6.546  1.5116 -3.4741 -1.9379
 7165SOL     OW33130   3.761   0.996   4.393  0.0169 -0.6580  0.6191
 7165SOL    HW133131   3.709   0.917   4.384  1.2128 -1.4790  0.8821
 7165SOL    HW233132   3.778   1.022   4.303 -0.9874  0.2390  0.6889
 7166SOL     OW33133   0.225   3.195   8.898  0.0075  0.5062  0.2610
 7166SOL    HW133134   0.131   3.212   8.898 -0.5441 -2.4180  1.2722
 7166SOL    HW233135   0.223   3.113   8.949 -0.1646  0.9832  1.0225
 7167SOL     OW33136   2.738   2.507   3.710  0.1461  0.1638 -0.4046
 7167SOL    HW133137   2.795   2.488   3.636  0.1879 -0.2833 -0.2610
 7167SOL    HW233138   2.725   2.414   3.733  0.9544 -0.2300 -1.5903
 7168SOL     OW33139   4.483   0.358   0.998  0.8826  0.3507  0.1683
 7168SOL    HW133140   4.524   0.372   0.912 -1.4821 -1.5886 -1.2733
 7168SOL    HW233141   4.412   0.422   0.999  0.1986 -0.3677 -1.9997
 7169SOL     OW33142   2.713   1.985   3.770 -0.4891 -0.5389 -0.2627
 7169SOL    HW133143   2.643   1.925   3.796 -1.6502  1.0781  0.3421
 7169SOL    HW233144   2.708   1.971   3.675 -0.3364 -1.1151 -0.1893
 7170SOL     OW33145   4.249   2.676   7.406 -0.1315  0.3645  0.4118
 7170SOL    HW133146   4.291   2.760   7.422  1.2376 -0.7644  2.7517
 7170SOL    HW233147   4.276   2.624   7.481  1.2067 -0.9013 -0.9375
 7171SOL     OW33148   0.595   3.677   3.078  0.0201 -0.4055 -0.0560
 7171SOL    HW133149   0.567   3.595   3.037 -0.0448  0.1529 -1.1325
 7171SOL    HW233150   0.658   3.638   3.139  0.7638  1.3327  0.2905
 7172SOL     OW33151   0.444   2.215   6.640 -0.2547 -0.7229 -0.4231
 7172SOL    HW133152   0.437   2.163   6.560  1.7341 -1.3437 -0.2046
 7172SOL    HW233153   0.478   2.146   6.697  1.1706  0.8580  0.6574
 7173SOL     OW33154   3.441   4.379   0.849  0.3890 -0.4943  0.7733
 7173SOL    HW133155   3.392   4.404   0.928  1.6759 -0.1469  1.4669
 7173SOL    HW233156   3.528   4.355   0.880  0.2723 -2.3668 -0.3249
 7174SOL     OW33157   1.582   0.079  16.196 -0.4096  0.8390 -0.3081
 7174SOL    HW133158   1.671   0.049  16.215 -0.3648  1.3578  0.2811
 7174SOL    HW233159   1.601   0.161  16.151 -0.0269  1.3785  0.8432
 7175SOL     OW33160   4.250   1.993   6.267  0.6838 -0.1947  0.5291
 7175SOL    HW133161   4.229   2.081   6.236 -0.0568 -0.8437 -0.7756
 7175SOL    HW233162   4.333   2.008   6.313  1.1074 -0.2580 -0.2141
 7176SOL     OW33163   2.215   3.609   2.239 -0.4460 -0.4983  0.1252
 7176SOL    HW133164   2.204   3.668   2.165  2.0260 -0.2763 -0.0359
 7176SOL    HW233165   2.242   3.678   2.300 -1.9352  1.5210 -1.4997
 7177SOL     OW33166   2.156   4.189   5.590  0.1609  0.0225  0.0930
 7177SOL    HW133167   2.078   4.182   5.644 -0.0094 -0.9098 -0.2748
 7177SOL    HW233168   2.147   4.102   5.551  0.8038 -1.5669  3.4823
 7178SOL     OW33169   3.609   3.665   2.073  0.6081  0.8614  0.2595
 7178SOL    HW133170   3.601   3.706   1.987 -1.5685  0.5438  0.3181
 7178SOL    HW233171   3.649   3.730   2.130 -2.2367 -1.2206  4.6166
 7179SOL     OW33172   4.685   1.491   4.015 -0.0409  0.5179 -0.0118
 7179SOL    HW133173   4.609   1.471   4.068  1.5820 -0.8427  1.8079
 7179SOL    HW233174   4.722   1.551   4.079 -1.2811  1.6151 -0.3169
 7180SOL     OW33175   1.222   1.410   5.013  0.0917 -0.2733  0.0721
 7180SOL    HW133176   1.213   1.453   4.928 -0.0324 -4.2909 -1.9614
 7180SOL    HW233177   1.176   1.481   5.057  0.5201 -1.1007  1.8718
 7181SOL     OW33178   4.436   2.100   2.150 -0.0043  0.2795  0.5437
 7181SOL    HW133179   4.352   2.138   2.178 -0.5877  0.1676 -1.0379
 7181SOL    HW233180   4.414   2.007   2.163 -0.5783  0.3547  0.1354
 7182SOL     OW33181   0.464   1.727   5.532  0.2402 -0.1094 -0.5744
 7182SOL    HW133182   0.407   1.651   5.519 -1.7540  0.9573  1.8531
 7182SOL    HW233183   0.398   1.795   5.515  1.2447  1.6947  2.6064
 7183SOL     OW33184   1.589   3.893   3.696  0.1555  0.1464  0.6987
 7183SOL    HW133185   1.501   3.931   3.691  0.9915  1.9868  0.0282
 7183SOL    HW233186   1.614   3.892   3.604  0.7400 -1.1813  0.8770
 7184SOL     OW33187   4.582   1.226   7.267  0.3057 -0.4115 -0.7866
 7184SOL    HW133188   4.546   1.148   7.310  1.9114 -0.1201  1.0841
 7184SOL    HW233189   4.613   1.267   7.347 -0.5872 -0.0533 -0.6278
 7185SOL     OW33190   0.691   0.652   0.376  0.4404  0.2280 -0.0236
 7185SOL    HW133191   0.596   0.646   0.385  0.6496 -0.1454  2.0167
 7185SOL    HW233192   0.700   0.737   0.334 -1.7938  1.0330  1.1213
 7186SOL     OW33193   4.541   2.207   5.653 -0.1979  0.1488 -0.3784
 7186SOL    HW133194   4.634   2.210   5.675 -0.4128  1.7887  0.2984
 7186SOL    HW233195   4.509   2.245   5.735  2.3450  0.7827  0.3119
 7187SOL     OW33196   1.413   1.416   6.768 -0.0622  0.1023  0.0209
 7187SOL    HW133197   1.365   1.486   6.723 -1.9956 -1.5407 -0.4798
 7187SOL    HW233198   1.336   1.360   6.757 -0.4601  0.5688  0.3710
 7188SOL     OW33199   2.871   3.018   8.438  0.0525 -0.0966 -0.1563
 7188SOL    HW133200   2.869   3.070   8.518 -2.8025 -0.9413  0.3377
 7188SOL    HW233201   2.966   3.005   8.430 -0.3928 -3.5804 -0.0657
 7189SOL     OW33202   2.925   3.142   9.002 -0.7478 -0.5324  0.1125
 7189SOL    HW133203   3.010   3.172   9.034  0.5253 -3.5767 -0.3992
 7189SOL    HW233204   2.874   3.212   8.962 -0.4872 -1.9099 -2.6569
 7190SOL     OW33205   4.022   2.976   1.449 -0.1475  0.0651  0.1545
 7190SOL    HW133206   4.053   2.890   1.418 -0.4710  0.0874 -0.2298
 7190SOL    HW233207   3.946   2.997   1.395  0.9296  0.1717 -1.3396
 7191SOL     OW33208   0.745   0.978  13.010 -0.2613 -0.2073  0.1623
 7191SOL    HW133209   0.692   0.898  13.011  1.3016 -1.2589 -1.3202
 7191SOL    HW233210   0.821   0.939  12.967 -1.3771 -0.6462 -1.3924
 7192SOL     OW33211   1.896   3.457   4.979  0.3011  0.0715  0.6038
 7192SOL    HW133212   1.835   3.525   4.953  0.3627 -0.6771 -1.4946
 7192SOL    HW233213   1.920   3.414   4.897 -1.6275  2.8891 -1.4014
 7193SOL     OW33214   3.327   0.732  17.093  0.1667  0.2559 -0.8095
 7193SOL    HW133215   3.306   0.706  17.004  2.6492 -2.4598 -0.5985
 7193SOL    HW233216   3.355   0.648  17.130 -1.6010 -0.2961 -0.7001
 7194SOL     OW33217   4.355   1.143   4.704  0.1754  0.1785  0.3516
 7194SOL    HW133218   4.430   1.203   4.703  0.4320 -0.1264  0.7776
 7194SOL    HW233219   4.365   1.131   4.799  2.0808 -1.1735 -0.0111
 7195SOL     OW33220   3.956   0.296   6.747  0.1462 -0.5569  0.2819
 7195SOL    HW133221   3.894   0.367   6.730 -0.6067 -1.2268  0.2638
 7195SOL    HW233222   3.978   0.314   6.838  1.4720  0.0799 -0.1627
 7196SOL     OW33223   1.576   4.105   8.829 -0.5035  0.0234 -0.0385
 7196SOL    HW133224   1.481   4.117   8.841 -0.7915 -0.0503 -2.2710
 7196SOL    HW233225   1.600   4.073   8.916  1.0875  3.6124  0.8227
 7197SOL     OW33226   1.080   0.912   2.474  0.1262  0.1478  0.0606
 7197SOL    HW133227   1.130   0.927   2.394 -1.3004 -1.3306 -1.1067
 7197SOL    HW233228   1.108   0.823   2.495  0.6572  0.4283  0.5511
 7198SOL     OW33229   2.273   3.615   7.889 -0.1220  0.2296 -0.6277
 7198SOL    HW133230   2.195   3.665   7.862 -1.3733 -1.2669  0.2274
 7198SOL    HW233231   2.242   3.591   7.976  0.3325 -0.2314 -0.5923
 7199SOL     OW33232   1.358   4.273   7.210 -0.1790  0.0247  0.7846
 7199SOL    HW133233   1.404   4.356   7.203 -1.3161  0.6456  0.6537
 7199SOL    HW233234   1.429   4.208   7.206  0.8578  1.1613  0.7216
 7200SOL     OW33235   2.908   2.239   1.835  0.1030 -0.0752 -0.3226
 7200SOL    HW133236   2.911   2.152   1.876 -0.4311  0.3087  0.5174
 7200SOL    HW233237   2.923   2.297   1.910 -1.2176  1.9474 -1.6601
 7201SOL     OW33238   0.251   0.621   7.882 -0.2698  0.3894 -0.4793
 7201SOL    HW133239   0.271   0.697   7.938 -1.4632  1.2690 -1.2498
 7201SOL    HW233240   0.316   0.634   7.813 -0.3124  0.1045 -0.5704
 7202SOL     OW33241   0.794   3.807   1.516 -0.3290 -0.1502 -0.1108
 7202SOL    HW133242   0.731   3.878   1.503 -1.0878 -1.1853 -2.0743
 7202SOL    HW233243   0.782   3.779   1.607 -1.2239 -0.0191 -0.1887
 7203SOL     OW33244   2.389   2.350   7.418  0.1868 -0.1804 -0.2280
 7203SOL    HW133245   2.367   2.355   7.325 -0.0635 -2.9731 -0.3232
 7203SOL    HW233246   2.415   2.259   7.436  2.0334  0.7418  1.9340
 7204SOL     OW33247   0.077   2.400  15.119  0.1197  0.3170  0.1501
 7204SOL    HW133248   0.158   2.349  15.126 -0.1310 -0.2891 -1.4129
 7204SOL    HW233249   0.108   2.487  15.098  0.1664  0.4886  0.9456
 7205SOL     OW33250   0.487   3.563   5.330  0.5116  0.2252  0.2376
 7205SOL    HW133251   0.458   3.472   5.332 -0.9030  0.6749  0.1229
 7205SOL    HW233252   0.406   3.611   5.312 -1.5171 -2.2694  2.6292
 7206SOL     OW33253   0.075   1.586   4.449 -0.5715  0.0366 -0.5075
 7206SOL    HW133254   0.153   1.595   4.395  0.9322  1.4529  1.8909
 7206SOL    HW233255   0.113   1.585   4.537  3.0140 -0.1359 -2.0651
 7207SOL     OW33256   4.121   2.468   2.742 -0.2103 -0.1825 -0.3497
 7207SOL    HW133257   4.155   2.470   2.832 -2.0135  0.0645  0.3258
 7207SOL    HW233258   4.103   2.374   2.731  0.5050 -0.4981  1.1942
 7208SOL     OW33259   0.000   3.827  12.944  0.3056  0.1085  0.4433
 7208SOL    HW133260   4.666   3.772  12.941 -0.7105  1.8435 -4.2884
 7208SOL    HW233261   4.732   3.894  12.877  0.7553  0.6326  0.8895
 7209SOL     OW33262   1.831   1.965  16.370 -0.0847 -0.2681  0.6382
 7209SOL    HW133263   1.824   2.002  16.458  2.3810  2.3604 -0.2578
 7209SOL    HW233264   1.762   1.900  16.360  0.4565 -0.3061 -2.7524
 7210SOL     OW33265   1.936   1.602   3.049 -0.2761  0.3573  0.4922
 7210SOL    HW133266   2.007   1.542   3.073 -2.0108 -1.7772  0.3449
 7210SOL    HW233267   1.988   1.669   3.006 -0.1176  0.5585  1.0050
 7211SOL     OW33268   1.940   3.243   3.035 -0.1721 -0.1987 -0.4536
 7211SOL    HW133269   1.852   3.206   3.038 -0.7226  1.0974 -0.4917
 7211SOL    HW233270   1.909   3.334   3.037 -2.0432 -0.8250 -0.6223
 7212SOL     OW33271   4.438   1.265   6.764 -0.1960  0.5629  0.3932
 7212SOL    HW133272   4.502   1.245   6.832  1.6965  0.0873 -1.5270
 7212SOL    HW233273   4.360   1.227   6.804  0.0537 -1.1850 -0.7390
 7213SOL     OW33274   2.823   2.118  17.558  0.5148 -0.0292  0.3213
 7213SOL    HW133275   2.764   2.187  17.529  2.7843  1.4622 -0.7623
 7213SOL    HW233276   2.844   2.159  17.642 -1.3398  1.1731  0.2066
 7214SOL     OW33277   4.630   2.101   2.534  0.3246 -0.3053  0.2944
 7214SOL    HW133278   4.590   2.045   2.601 -0.1346  1.1970  1.2873
 7214SOL    HW233279   4.660   2.175   2.587 -0.5403 -0.6140  1.2369
 7215SOL     OW33280   1.203   3.134   3.297 -0.4507  0.3266  0.4724
 7215SOL    HW133281   1.205   3.063   3.361 -0.2831 -0.1060 -0.0136
 7215SOL    HW233282   1.274   3.112   3.238 -2.6814  0.6671 -2.3375
 7216SOL     OW33283   1.572   1.280   4.297  1.1657  0.5932  0.9639
 7216SOL    HW133284   1.518   1.245   4.227  0.2605 -1.6709  2.7932
 7216SOL    HW233285   1.614   1.200   4.328 -0.4701 -0.5534  0.1838
 7217SOL     OW33286   0.763   2.974   5.266  0.0941  0.3046 -0.0469
 7217SOL    HW133287   0.825   2.903   5.283 -0.6351 -0.0268  1.1924
 7217SOL    HW233288   0.827   3.041   5.242 -0.2541  0.3087 -0.9815
 7218SOL     OW33289   3.615   4.469   5.968 -0.4723 -0.6744  0.0914
 7218SOL    HW133290   3.553   4.504   5.904 -1.4684 -1.8740  0.3954
 7218SOL    HW233291   3.699   4.509   5.946 -0.6202 -0.3067  0.1900
 7219SOL     OW33292   0.434   0.130   3.302  0.3862  0.4613 -0.0781
 7219SOL    HW133293   0.443   0.085   3.386 -0.3120 -1.9800 -1.3073
 7219SOL    HW233294   0.459   0.057   3.245  1.7704  0.8145  0.0744
 7220SOL     OW33295   4.655   3.084   9.158  0.1452  0.5953  0.7150
 7220SOL    HW133296   4.715   3.066   9.231  0.4974  2.1227  0.8078
 7220SOL    HW233297   4.635   3.175   9.181  1.8494  1.5696 -1.7688
 7221SOL     OW33298   2.230   4.315   2.782 -0.3845  0.6471  0.5675
 7221SOL    HW133299   2.292   4.243   2.767 -0.1367  1.1975 -1.0772
 7221SOL    HW233300   2.253   4.348   2.868 -1.1618 -0.3577  1.1609
 7222SOL     OW33301   0.644   3.354   8.719  0.7239 -0.5073  0.3779
 7222SOL    HW133302   0.599   3.329   8.799 -2.2077  1.9130 -0.5444
 7222SOL    HW233303   0.631   3.446   8.698 -0.8732 -1.0518 -1.0096
 7223SOL     OW33304   3.693   4.638   2.033 -0.4505  0.1867 -0.5336
 7223SOL    HW133305   3.768   4.640   1.974  0.3496  0.1410  0.4855
 7223SOL    HW233306   3.627   4.644   1.964 -0.9806  0.3570 -0.0091
 7224SOL     OW33307   0.378   3.718   7.715 -0.2148 -0.4914  0.0689
 7224SOL    HW133308   0.346   3.630   7.735  1.2573 -1.1648 -0.5067
 7224SOL    HW233309   0.312   3.773   7.755  1.4121 -0.2765  2.4565
 7225SOL     OW33310   1.517   0.076  14.447  0.2208  0.6806 -0.4982
 7225SOL    HW133311   1.442   0.020  14.428  0.1719 -0.1080  2.0023
 7225SOL    HW233312   1.581   0.053  14.380 -0.9228  0.6278 -1.5725
 7226SOL     OW33313   2.280   1.335   5.272  0.9213  0.3080 -0.2395
 7226SOL    HW133314   2.306   1.377   5.190  3.0503 -0.4138  0.0740
 7226SOL    HW233315   2.252   1.416   5.315 -2.2310 -0.5310 -0.7558
 7227SOL     OW33316   3.981   2.021  11.383  0.3307 -0.0792 -0.3313
 7227SOL    HW133317   3.891   2.051  11.392  1.1325  1.9099  0.9524
 7227SOL    HW233318   3.984   1.999  11.289  1.8879 -0.2604 -0.2535
 7228SOL     OW33319   2.741   3.817   5.073 -0.0392  0.1274  0.1040
 7228SOL    HW133320   2.744   3.860   5.159 -0.8967 -0.7067  0.5550
 7228SOL    HW233321   2.659   3.843   5.030 -0.4510  0.3691  1.0349
 7229SOL     OW33322   4.002   1.795   1.434  0.6428 -0.0428 -0.5348
 7229SOL    HW133323   4.003   1.795   1.530  1.8030 -1.6097 -0.5474
 7229SOL    HW233324   4.090   1.830   1.421  0.3067  1.0279 -0.0005
 7230SOL     OW33325   0.915   0.688  10.921 -0.7077  0.2252  0.5385
 7230SOL    HW133326   0.869   0.607  10.945 -0.1663  0.0592  1.0039
 7230SOL    HW233327   0.851   0.732  10.865  0.5009 -0.5718 -1.4469
 7231SOL     OW33328   1.454   0.613   8.215  0.3672 -0.0095 -0.6603
 7231SOL    HW133329   1.414   0.546   8.160  1.9879 -0.0958 -1.7561
 7231SOL    HW233330   1.401   0.609   8.295  0.2190  0.2478 -0.7493
 7232SOL     OW33331   2.692   3.067   1.515  0.3639 -0.1169 -0.0355
 7232SOL    HW133332   2.780   3.053   1.478 -0.2054 -0.3104 -1.3391
 7232SOL    HW233333   2.680   2.993   1.574 -0.6873 -1.0578 -1.4119
 7233SOL     OW33334   2.907   4.023   0.834 -0.2269  0.9419 -0.0702
 7233SOL    HW133335   2.831   4.075   0.859 -0.1168  0.4470  1.2950
 7233SOL    HW233336   2.977   4.081   0.803  0.0376 -0.3974 -1.9746
 7234SOL     OW33337   1.843   0.555   9.723 -0.5661 -0.1249  0.6005
 7234SOL    HW133338   1.777   0.501   9.681 -0.1856  0.8989 -1.3312
 7234SOL    HW233339   1.922   0.519   9.682 -0.2545  1.9845 -0.6321
 7235SOL     OW33340   4.593   0.741   4.894  0.2829 -0.3480 -0.6172
 7235SOL    HW133341   4.517   0.693   4.926  0.8345 -1.6416 -1.2654
 7235SOL    HW233342   4.660   0.672   4.896 -0.0232 -0.6056  1.1126
 7236SOL     OW33343   1.655   3.178   7.850  0.1826  0.4154 -0.3610
 7236SOL    HW133344   1.576   3.128   7.867  0.6042 -0.1564 -0.0735
 7236SOL    HW233345   1.697   3.153   7.932 -1.0833  0.0414  0.1688
 7237SOL     OW33346   3.676   3.342   3.599  0.4825 -0.5325  0.6169
 7237SOL    HW133347   3.709   3.342   3.690 -0.8714 -1.5976  1.1009
 7237SOL    HW233348   3.671   3.436   3.579  0.4764 -0.7761 -0.5116
 7238SOL     OW33349   1.359   4.032   4.670  0.1048  0.0162  0.3491
 7238SOL    HW133350   1.355   4.093   4.744  2.7978 -0.6388  1.0392
 7238SOL    HW233351   1.450   4.011   4.688 -0.0655 -1.2904 -0.3177
 7239SOL     OW33352   3.005   4.395  16.736 -0.5099  0.4861 -0.3457
 7239SOL    HW133353   3.034   4.470  16.686 -0.7117  0.2519 -0.8156
 7239SOL    HW233354   2.943   4.354  16.675 -1.3534 -1.2440  1.6691
 7240SOL     OW33355   3.168   3.241   9.145 -0.0096 -0.1686 -0.4277
 7240SOL    HW133356   3.136   3.330   9.126  0.1930 -0.0125 -0.0391
 7240SOL    HW233357   3.174   3.252   9.240 -1.5783 -0.7343 -0.2561
 7241SOL     OW33358   2.300   0.507   2.802  0.2571  0.0475  0.1068
 7241SOL    HW133359   2.314   0.601   2.813  0.5079  0.0160  0.0696
 7241SOL    HW233360   2.219   0.496   2.753  1.2013 -1.8268 -1.0337
 7242SOL     OW33361   2.948   2.498   1.528 -0.0375 -0.1929  0.3098
 7242SOL    HW133362   2.919   2.571   1.473  0.2474  0.3070  0.8134
 7242SOL    HW233363   2.905   2.521   1.610 -0.3382  0.0705  0.0768
 7243SOL     OW33364   3.301   1.549   7.717 -0.7262 -0.3121  0.0573
 7243SOL    HW133365   3.359   1.614   7.755 -2.9412  1.5788  0.1908
 7243SOL    HW233366   3.363   1.518   7.651 -0.8711  0.7589 -0.5955
 7244SOL     OW33367   1.907   4.079   2.899 -0.5699  0.2667 -0.4112
 7244SOL    HW133368   1.924   4.132   2.821  2.5398  1.1112  0.8305
 7244SOL    HW233369   1.851   4.015   2.855 -2.5209  2.1573 -0.6834
 7245SOL     OW33370   2.801   3.561   2.655  0.1270  0.0831 -0.3033
 7245SOL    HW133371   2.896   3.568   2.653 -0.1127  2.8939 -1.9821
 7245SOL    HW233372   2.802   3.535   2.747 -1.7830  1.4652  0.1209
 7246SOL     OW33373   0.912   1.558   0.719 -0.1914 -0.6067  0.5044
 7246SOL    HW133374   0.901   1.650   0.743  0.3273 -0.2171 -0.7230
 7246SOL    HW233375   0.830   1.536   0.674 -1.5097  0.6044  2.3429
 7247SOL     OW33376   3.088   3.963  10.085  0.0846 -0.6025  0.3328
 7247SOL    HW133377   3.129   4.029  10.142  1.6155  0.0730 -1.5460
 7247SOL    HW233378   3.141   3.992  10.011  1.0473  0.4240  1.4240
 7248SOL     OW33379   3.832   4.224   2.300 -0.0977  0.0630  0.4829
 7248SOL    HW133380   3.821   4.200   2.208  1.8537  1.4605 -0.1048
 7248SOL    HW233381   3.791   4.310   2.293  0.3277  0.2952  0.8315
 7249SOL     OW33382   0.033   3.078   5.132  0.2459  0.3753  0.2417
 7249SOL    HW133383   4.730   2.995   5.119  1.0721  0.1808 -1.5134
 7249SOL    HW233384   0.114   3.048   5.091 -0.2642 -1.4977  0.6094
 7250SOL     OW33385   3.412   1.280  10.700 -0.2708 -0.7287  0.4320
 7250SOL    HW133386   3.466   1.344  10.745  0.1659  0.2166 -1.4274
 7250SOL    HW233387   3.466   1.224  10.644 -0.2836 -1.0872  0.7769
 7251SOL     OW33388   1.340   2.013   2.051  0.0667 -0.2801 -0.0275
 7251SOL    HW133389   1.430   1.998   2.022 -0.5552 -2.4985 -0.8018
 7251SOL    HW233390   1.356   2.045   2.140  0.4679  3.0228 -1.2975
 7252SOL     OW33391   0.946   1.927   8.410 -0.7306 -0.5707  0.2427
 7252SOL    HW133392   1.025   1.875   8.426  0.0810  0.6377  0.1905
 7252SOL    HW233393   0.947   1.978   8.491  0.3012  0.6114 -0.5178
 7253SOL     OW33394   3.074   4.181   7.808 -0.2982 -0.0445  0.4959
 7253SOL    HW133395   3.080   4.136   7.723  0.7162 -0.1905  0.6382
 7253SOL    HW233396   2.994   4.142   7.842 -0.2623 -0.3384  0.2484
 7254SOL     OW33397   2.475   0.945   0.308 -0.0495  0.2092  0.0881
 7254SOL    HW133398   2.489   1.013   0.373 -0.1582  0.0601  0.2663
 7254SOL    HW233399   2.566   0.929   0.284 -0.4905 -1.2147 -0.6547
 7255SOL     OW33400   0.356   1.475   3.825 -0.0608  0.4031  0.3002
 7255SOL    HW133401   0.321   1.479   3.913  0.5199 -0.4074  0.5675
 7255SOL    HW233402   0.286   1.515   3.773  0.2716  0.9425  0.2670
 7256SOL     OW33403   1.822   3.760  14.392  0.5797 -0.4720  0.2155
 7256SOL    HW133404   1.883   3.689  14.413  2.0181  0.6519 -0.1302
 7256SOL    HW233405   1.853   3.787  14.305  0.2256  0.8837  0.5112
 7257SOL     OW33406   2.817   1.858   7.302  0.2789 -0.4947  0.2848
 7257SOL    HW133407   2.791   1.904   7.382  0.6599  3.1111 -1.6402
 7257SOL    HW233408   2.772   1.777   7.325 -0.3663 -0.4339 -0.7589
 7258SOL     OW33409   3.956   3.087  13.059  0.6786  0.1420  0.5152
 7258SOL    HW133410   3.959   3.176  13.025 -1.6668 -0.0644 -0.2088
 7258SOL    HW233411   3.894   3.046  12.999  0.6194  1.0642 -0.0487
 7259SOL     OW33412   1.504   1.091   8.225 -0.0021  0.8754  0.9676
 7259SOL    HW133413   1.555   1.169   8.247 -1.1190  1.7075  0.6080
 7259SOL    HW233414   1.448   1.088   8.302  1.2132  0.0026  1.8105
 7260SOL     OW33415   4.148   2.979   3.549 -0.6116  0.1767  0.6742
 7260SOL    HW133416   4.097   3.051   3.512 -1.1089 -0.6384 -0.2366
 7260SOL    HW233417   4.233   2.982   3.506 -0.2365  0.5046  1.4513
 7261SOL     OW33418   1.899   2.605   9.372 -0.1811  0.1595 -0.1585
 7261SOL    HW133419   1.950   2.525   9.383 -0.2870 -0.1448 -2.0185
 7261SOL    HW233420   1.932   2.647   9.293  0.2554  2.3140  1.1737
 7262SOL     OW33421   4.279   2.224   7.153  0.5222 -0.4868  0.2209
 7262SOL    HW133422   4.240   2.297   7.202 -0.8681 -0.0689 -1.5036
 7262SOL    HW233423   4.253   2.256   7.067 -0.0427 -0.0505  0.5476
 7263SOL     OW33424   2.771   0.584   8.613  0.1940  0.4198  0.4849
 7263SOL    HW133425   2.689   0.633   8.613 -0.1006 -0.0690  1.0848
 7263SOL    HW233426   2.786   0.568   8.520 -2.1981 -1.2263  0.4065
 7264SOL     OW33427   1.730   0.799   2.959 -0.2347  0.0784 -0.2451
 7264SOL    HW133428   1.671   0.871   2.979  1.8273  1.5081  0.7464
 7264SOL    HW233429   1.816   0.839   2.970 -1.1068  2.1194 -0.8046
 7265SOL     OW33430   2.990   4.201   6.274  0.4566  0.5469  0.1681
 7265SOL    HW133431   2.941   4.129   6.313 -0.2244  0.8318 -0.1436
 7265SOL    HW233432   2.944   4.277   6.310  0.5053  0.6253  0.0637
 7266SOL     OW33433   2.126   0.240   8.272 -0.1881 -0.8193  0.0339
 7266SOL    HW133434   2.209   0.219   8.313 -0.0210  0.6003  0.3976
 7266SOL    HW233435   2.076   0.159   8.282  1.1086 -1.3668  1.9994
 7267SOL     OW33436   3.623   0.385   5.750  0.5201 -0.6292  0.3864
 7267SOL    HW133437   3.578   0.465   5.779 -0.3118 -0.6328 -0.8927
 7267SOL    HW233438   3.670   0.411   5.670  1.5592 -0.0401  1.1850
 7268SOL     OW33439   1.492   0.613   7.899  0.1354  0.1900 -0.5619
 7268SOL    HW133440   1.432   0.655   7.837  0.0286  0.5112 -0.2430
 7268SOL    HW233441   1.492   0.670   7.976 -1.1917 -0.0226 -0.4041
 7269SOL     OW33442   4.611   3.051   7.431  0.5647 -0.1132  0.3819
 7269SOL    HW133443   4.676   3.107   7.388  1.4514 -0.8354  0.7624
 7269SOL    HW233444   4.630   3.057   7.525  1.7160  1.3850  0.0610
 7270SOL     OW33445   4.142   3.767   6.070 -0.2933 -0.0873  0.2210
 7270SOL    HW133446   4.200   3.693   6.090  1.6763  0.9324 -1.5919
 7270SOL    HW233447   4.086   3.733   6.001 -1.3771  0.1043  1.0195
 7271SOL     OW33448   2.175   0.095   7.402 -0.3614  0.3691  0.4337
 7271SOL    HW133449   2.267   0.080   7.422 -0.3785 -0.4867 -0.1283
 7271SOL    HW233450   2.133   0.117   7.484 -1.2455 -0.9839  0.3420
 7272SOL     OW33451   1.987   2.357   3.947  0.5708  0.2178 -0.4542
 7272SOL    HW133452   1.958   2.415   4.018  1.6743 -0.3121  0.4281
 7272SOL    HW233453   2.075   2.338   3.979 -0.2980 -0.4130  1.6157
 7273SOL     OW33454   0.005   2.021   6.400 -0.4065 -0.3533 -0.2029
 7273SOL    HW133455   4.672   1.966   6.413 -0.0313 -1.0174 -0.8008
 7273SOL    HW233456   0.065   1.965   6.350  1.6376  1.6882 -0.0404
 7274SOL     OW33457   2.972   2.113   5.560  0.3954  0.1262 -0.1045
 7274SOL    HW133458   2.956   2.170   5.485 -1.7117 -1.5266 -0.9148
 7274SOL    HW233459   3.016   2.050   5.503  0.6872 -0.4916  0.7882
 7275SOL     OW33460   0.353   2.800   3.188  0.7479 -0.2207  0.5369
 7275SOL    HW133461   0.419   2.731   3.186  1.2504  0.2751 -0.3633
 7275SOL    HW233462   0.388   2.849   3.263  0.7458  1.4412 -0.5564
 7276SOL     OW33463   3.938   0.939   9.540 -0.0859  0.3038 -0.3715
 7276SOL    HW133464   3.989   1.019   9.532 -0.0827  0.0047 -3.3419
 7276SOL    HW233465   3.993   0.870   9.503  2.3706  1.8230  0.4752
 7277SOL     OW33466   1.113   3.551  16.178 -0.0959 -0.6355 -0.9001
 7277SOL    HW133467   1.119   3.604  16.258  2.7579 -1.1150 -0.7835
 7277SOL    HW233468   1.199   3.565  16.139  0.1568  0.8859  0.1764
 7278SOL     OW33469   0.723   2.090   4.421 -0.2816 -0.2948  0.0947
 7278SOL    HW133470   0.707   2.076   4.328  0.3856 -0.9872  0.0862
 7278SOL    HW233471   0.734   2.184   4.437 -1.7639 -0.0797 -0.1391
 7279SOL     OW33472   4.104   3.395  16.298 -0.2049  0.5523  0.2135
 7279SOL    HW133473   4.180   3.416  16.244 -1.4363 -2.4239 -2.7125
 7279SOL    HW233474   4.146   3.357  16.375 -2.2565 -3.1097 -0.4642
 7280SOL     OW33475   1.205   2.427   4.545  0.1856 -0.2069  0.2462
 7280SOL    HW133476   1.216   2.359   4.611  1.7456  1.0672  1.2837
 7280SOL    HW233477   1.145   2.384   4.482 -0.9276  0.1083  1.0946
 7281SOL     OW33478   1.992   1.389   5.046 -0.6603  0.5249 -0.1590
 7281SOL    HW133479   1.935   1.361   5.117 -0.6771 -0.8457 -0.7091
 7281SOL    HW233480   1.975   1.482   5.034  1.5982  0.7320 -1.8194
 7282SOL     OW33481   3.535   3.466   9.709 -0.4495 -0.6694  0.6598
 7282SOL    HW133482   3.542   3.380   9.748 -0.7306 -1.1848 -0.4236
 7282SOL    HW233483   3.612   3.461   9.652  0.0714  1.0820  1.1794
 7283SOL     OW33484   2.794   3.224   3.329  0.1107  0.0601  1.1698
 7283SOL    HW133485   2.819   3.220   3.422  1.7733 -0.9636  0.6726
 7283SOL    HW233486   2.783   3.130   3.320 -0.2886  0.1419  0.8444
 7284SOL     OW33487   1.193   1.603   7.375  0.1062 -0.0470 -0.2190
 7284SOL    HW133488   1.133   1.565   7.310 -0.3136  0.3777 -0.0800
 7284SOL    HW233489   1.242   1.524   7.399  0.4282 -0.2257 -1.4653
 7285SOL     OW33490   4.304   3.729   4.502 -0.4586  0.0304  0.0922
 7285SOL    HW133491   4.389   3.695   4.530  0.0796 -0.0858 -1.6784
 7285SOL    HW233492   4.272   3.759   4.587 -2.0117  1.2803 -0.9196
 7286SOL     OW33493   1.821   4.246   8.074 -0.1187  0.1558  0.1931
 7286SOL    HW133494   1.787   4.308   8.010  0.9282 -0.3757 -0.8867
 7286SOL    HW233495   1.880   4.191   8.022 -1.0774 -2.2500  1.6042
 7287SOL     OW33496   3.601   0.942   7.598 -0.0318 -0.0712 -0.4194
 7287SOL    HW133497   3.635   0.896   7.521 -0.1340 -1.4781  0.3778
 7287SOL    HW233498   3.517   0.973   7.564 -0.8054 -1.1263  0.5078
 7288SOL     OW33499   2.718   0.885   0.212  0.2886  0.3655  0.2858
 7288SOL    HW133500   2.752   0.973   0.197  1.8985 -0.3369 -0.2038
 7288SOL    HW233501   2.785   0.834   0.166  0.5842 -0.0967  1.2300
 7289SOL     OW33502   2.880   3.757   7.809 -0.3851  0.1211  0.4486
 7289SOL    HW133503   2.956   3.813   7.826  0.0492 -0.8711  1.7437
 7289SOL    HW233504   2.916   3.699   7.742 -2.3736  2.0505 -2.3302
 7290SOL     OW33505   3.127   1.438   2.962 -0.1873  0.4516 -0.3318
 7290SOL    HW133506   3.070   1.388   3.021  0.2052 -1.8382 -1.9144
 7290SOL    HW233507   3.159   1.374   2.898  0.3429  0.7285 -0.3401
 7291SOL     OW33508   2.995   1.198   7.727  0.1524  0.2232 -0.2773
 7291SOL    HW133509   3.038   1.138   7.666 -0.2416  1.7375 -2.0603
 7291SOL    HW233510   2.965   1.269   7.671 -0.3938  1.8886  2.1267
 7292SOL     OW33511   1.465   0.903   3.446 -0.6510  0.2387  0.1013
 7292SOL    HW133512   1.420   0.824   3.478 -0.8337  0.4779  0.4411
 7292SOL    HW233513   1.470   0.954   3.527  1.5840  0.7790 -0.3929
 7293SOL     OW33514   3.557   0.163  16.738 -0.2992 -0.5737 -0.2972
 7293SOL    HW133515   3.558   0.126  16.827  0.9558 -0.3189 -0.2099
 7293SOL    HW233516   3.464   0.173  16.718 -0.1018 -1.5626 -1.6750
 7294SOL     OW33517   2.701   2.329   4.774  0.4334  0.1687 -0.2569
 7294SOL    HW133518   2.753   2.353   4.697 -0.2572  0.8908 -0.5043
 7294SOL    HW233519   2.733   2.397   4.834 -1.1596 -0.5785  1.4268
 7295SOL     OW33520   1.001   2.824   5.271 -0.4516 -0.1260 -0.1157
 7295SOL    HW133521   1.005   2.755   5.205 -0.2945 -1.0206  0.8287
 7295SOL    HW233522   1.090   2.858   5.263 -0.6568  0.7568  1.3120
 7296SOL     OW33523   0.173   3.642   6.405  0.1754  0.0527 -0.0152
 7296SOL    HW133524   0.202   3.559   6.365 -1.4471 -1.3943  1.8443
 7296SOL    HW233525   0.228   3.704   6.356  0.8961  1.7403  2.9665
 7297SOL     OW33526   3.351   0.085   8.467 -0.0702  0.1411  0.4987
 7297SOL    HW133527   3.351   0.008   8.525  1.1130 -1.6617 -1.8770
 7297SOL    HW233528   3.408   0.135   8.524 -0.3869  1.0526  0.0208
 7298SOL     OW33529   0.599   1.114   2.644 -0.4332  0.3315  0.1342
 7298SOL    HW133530   0.561   1.100   2.557 -1.4712  1.5707  0.3839
 7298SOL    HW233531   0.581   1.026   2.678 -0.1131  0.8648  1.7091
 7299SOL     OW33532   4.410   1.961   3.853  0.7434 -0.1916  0.3507
 7299SOL    HW133533   4.406   1.892   3.787  1.2700  1.6351 -1.5926
 7299SOL    HW233534   4.316   1.976   3.867  0.8970 -1.2937  2.5832
 7300SOL     OW33535   3.502   2.148   1.973 -0.4522 -0.4372 -0.3427
 7300SOL    HW133536   3.523   2.159   2.066 -0.6534  0.1745 -0.3646
 7300SOL    HW233537   3.417   2.193   1.976  0.0452  0.5509 -0.9574
 7301SOL     OW33538   1.900   4.004   3.314 -0.1175 -0.6946 -0.5171
 7301SOL    HW133539   1.806   3.994   3.300 -0.0858 -0.7432 -0.6978
 7301SOL    HW233540   1.929   3.921   3.276  1.1427 -0.7568  0.6022
 7302SOL     OW33541   1.146   0.354   3.363  0.4471  0.1475 -0.4177
 7302SOL    HW133542   1.181   0.265   3.368 -0.4674 -0.1713  0.5919
 7302SOL    HW233543   1.073   0.337   3.423 -1.0234  0.7875 -2.0137
 7303SOL     OW33544   3.848   4.226  10.040 -0.3558 -0.1190 -0.3180
 7303SOL    HW133545   3.909   4.199   9.973 -2.6372  0.7702 -2.7601
 7303SOL    HW233546   3.767   4.176  10.026 -0.3093 -0.2805 -0.0166
 7304SOL     OW33547   2.713   4.026   7.459  0.3065  0.8398  0.3664
 7304SOL    HW133548   2.709   4.010   7.554  2.6153  2.2173  0.7057
 7304SOL    HW233549   2.671   3.947   7.426 -1.8552  1.2226  2.2012
 7305SOL     OW33550   2.910   1.685   6.647  0.0141  0.4793 -0.4936
 7305SOL    HW133551   2.880   1.715   6.733 -0.9232 -0.5892 -0.4445
 7305SOL    HW233552   2.936   1.764   6.600 -0.3519  1.4856  0.9832
 7306SOL     OW33553   1.597   3.545  13.609  0.5683  0.1422 -0.1506
 7306SOL    HW133554   1.565   3.561  13.698  0.4620  2.6509 -0.6504
 7306SOL    HW233555   1.544   3.608  13.560 -0.8511 -0.1541  0.9830
 7307SOL     OW33556   3.190   3.286   6.525 -0.0075 -0.1230 -0.1448
 7307SOL    HW133557   3.125   3.249   6.465 -1.6837  1.3937  0.7343
 7307SOL    HW233558   3.272   3.290   6.477 -0.2212 -0.2785 -0.5256
 7308SOL     OW33559   0.231   3.835   5.917  0.2429 -0.2140 -0.2865
 7308SOL    HW133560   0.191   3.906   5.968  1.9025 -0.5055  1.4481
 7308SOL    HW233561   0.274   3.903   5.865  1.1471  1.4833  2.6505
 7309SOL     OW33562   0.997   3.001   0.232  0.4436 -0.5757 -0.4428
 7309SOL    HW133563   0.982   2.974   0.323 -0.1335 -1.3365 -0.7598
 7309SOL    HW233564   1.011   2.917   0.187  0.2658  0.7136 -2.8790
 7310SOL     OW33565   4.392   3.712   0.658  0.1320 -0.3598 -0.1690
 7310SOL    HW133566   4.430   3.667   0.582  0.2588 -1.1870  0.3850
 7310SOL    HW233567   4.305   3.675   0.670  0.0268  0.4792  1.5555
 7311SOL     OW33568   2.441   3.324   7.520 -0.5475 -0.1428 -0.0770
 7311SOL    HW133569   2.390   3.332   7.601 -0.1408  1.4849  0.0261
 7311SOL    HW233570   2.376   3.300   7.454 -1.7804 -0.1058  1.1213
 7312SOL     OW33571   2.879   2.525  16.555 -0.0413  0.3439 -0.4231
 7312SOL    HW133572   2.918   2.593  16.610  0.9861 -1.7342  1.4262
 7312SOL    HW233573   2.883   2.451  16.616 -0.4194  1.7746  1.3494
 7313SOL     OW33574   2.272   3.898   5.719 -0.2000 -0.4302  0.3495
 7313SOL    HW133575   2.222   3.891   5.638  1.4846 -3.1986 -0.4582
 7313SOL    HW233576   2.359   3.920   5.685  1.5294 -3.4588  2.8241
 7314SOL     OW33577   1.223   0.460   9.246  0.5936 -0.0013 -0.3127
 7314SOL    HW133578   1.170   0.537   9.267  2.1614  0.4928  1.7894
 7314SOL    HW233579   1.155   0.410   9.201  0.6075 -2.6802  2.6425
 7315SOL     OW33580   3.534   0.226   2.779 -0.6125  0.1875 -0.1733
 7315SOL    HW133581   3.479   0.154   2.752 -1.4745  0.9733 -0.5034
 7315SOL    HW233582   3.625   0.206   2.754 -1.6598 -4.0548 -0.5349
 7316SOL     OW33583   2.632   0.541  10.271 -0.1556  0.4587  0.1512
 7316SOL    HW133584   2.707   0.600  10.280  1.7844 -1.9960  0.1001
 7316SOL    HW233585   2.562   0.593  10.231  0.7708 -0.0242 -2.0950
 7317SOL     OW33586   0.362   2.824   2.904  0.3034  0.0972 -0.1112
 7317SOL    HW133587   0.425   2.894   2.885  1.0614 -0.2036  1.2838
 7317SOL    HW233588   0.358   2.823   3.000 -1.5873 -0.7591 -0.2103
 7318SOL     OW33589   3.796   4.167  12.001 -0.5423 -0.3254  0.0115
 7318SOL    HW133590   3.782   4.206  11.915 -1.6182 -0.8143 -0.0274
 7318SOL    HW233591   3.883   4.127  11.989  1.0153  3.1388 -0.3319
 7319SOL     OW33592   3.664   3.109   9.245  0.5491 -0.0653  0.0001
 7319SOL    HW133593   3.675   3.077   9.334 -0.5817  1.2975  0.6207
 7319SOL    HW233594   3.575   3.087   9.219  0.4771  0.6317 -0.3307
 7320SOL     OW33595   4.492   3.762   9.068  0.3008  0.2324  0.2992
 7320SOL    HW133596   4.570   3.710   9.086 -0.3106 -0.5106  0.8083
 7320SOL    HW233597   4.502   3.838   9.124 -2.3073  2.4920 -2.3159
 7321SOL     OW33598   2.191   2.321   2.674  0.4533 -0.3305 -0.3827
 7321SOL    HW133599   2.186   2.227   2.656  2.3886 -0.4568 -0.2803
 7321SOL    HW233600   2.179   2.318   2.769  1.4887  1.7138 -0.1851
 7322SOL     OW33601   1.093   4.102   5.915  0.2595  0.4843  0.3676
 7322SOL    HW133602   1.058   4.052   5.841 -0.6362  0.4701  0.8074
 7322SOL    HW233603   1.153   4.036   5.951  1.5279  1.5545  0.2350
 7323SOL     OW33604   0.836   0.759   3.774  0.3352 -0.3365  1.2328
 7323SOL    HW133605   0.753   0.742   3.818  0.3940 -1.5743  0.8673
 7323SOL    HW233606   0.810   0.787   3.686 -0.5922  1.6872  2.1479
 7324SOL     OW33607   4.172   0.437   4.761  0.6510  0.1131  0.2459
 7324SOL    HW133608   4.259   0.475   4.777  0.8062 -0.1002 -0.0897
 7324SOL    HW233609   4.192   0.352   4.723 -4.2286 -0.8111 -0.2654
 7325SOL     OW33610   2.373   1.389  13.360  0.1852 -0.9096 -0.1963
 7325SOL    HW133611   2.362   1.361  13.451 -0.5214 -0.6534 -0.2070
 7325SOL    HW233612   2.398   1.307  13.318 -2.0846 -0.2460 -2.8270
 7326SOL     OW33613   1.646   3.669  16.436 -0.6173 -0.4902 -0.1146
 7326SOL    HW133614   1.606   3.583  16.421 -0.2006 -0.1986 -2.9886
 7326SOL    HW233615   1.709   3.669  16.364  0.4239  0.6242  0.8001
 7327SOL     OW33616   3.978   0.906  17.134  0.3323  0.3704  0.6561
 7327SOL    HW133617   3.933   0.988  17.156  1.9249  1.4936 -0.2872
 7327SOL    HW233618   3.925   0.878  17.060 -0.4394  0.4584  1.1793
 7328SOL     OW33619   1.094   0.690   4.339 -0.1768 -0.4249 -0.1882
 7328SOL    HW133620   1.167   0.719   4.393 -0.0664 -1.3568  0.1607
 7328SOL    HW233621   1.086   0.753   4.267 -2.0556 -2.7662 -2.0514
 7329SOL     OW33622   3.713   2.557   4.715 -0.0043 -0.4123 -0.1796
 7329SOL    HW133623   3.808   2.565   4.703  0.2425 -1.2661  1.2396
 7329SOL    HW233624   3.702   2.462   4.706 -1.5621 -0.4605  2.2823
 7330SOL     OW33625   1.943   2.651   8.091 -0.1282 -0.1387 -0.2663
 7330SOL    HW133626   1.965   2.593   8.163 -0.9091 -1.3742 -1.0371
 7330SOL    HW233627   1.972   2.592   8.022 -1.5096 -3.6763  2.1887
 7331SOL     OW33628   3.162   0.835   0.683  0.1526 -0.1305 -0.4171
 7331SOL    HW133629   3.194   0.809   0.769  1.4324 -0.0831 -0.8674
 7331SOL    HW233630   3.106   0.908   0.707 -0.1453 -0.6945  0.6099
 7332SOL     OW33631   2.323   0.401   7.545 -0.1306 -0.0953 -0.5436
 7332SOL    HW133632   2.374   0.393   7.625 -0.7514  0.7260 -0.0705
 7332SOL    HW233633   2.312   0.495   7.531 -0.8672 -0.1019 -0.0299
 7333SOL     OW33634   2.037   1.552  13.847  0.5620  0.4681 -0.6721
 7333SOL    HW133635   1.971   1.483  13.853 -0.2614  1.2512 -0.6816
 7333SOL    HW233636   1.991   1.622  13.800  1.3218  1.1180 -0.4555
 7334SOL     OW33637   1.712   0.432   2.615 -0.4832  0.0403 -0.5419
 7334SOL    HW133638   1.718   0.483   2.696 -2.0262  0.8455 -0.9397
 7334SOL    HW233639   1.617   0.435   2.604 -0.4572  1.2504 -0.5176
 7335SOL     OW33640   3.621   1.321   5.453  0.1876 -0.2533  0.3414
 7335SOL    HW133641   3.610   1.226   5.445  1.1013 -0.4940  1.9869
 7335SOL    HW233642   3.644   1.346   5.364 -1.7727 -1.3091 -0.4789
 7336SOL     OW33643   2.061   1.281   0.749 -0.5948  0.2137 -0.5342
 7336SOL    HW133644   1.990   1.319   0.800  1.3258  1.2813  1.3432
 7336SOL    HW233645   2.022   1.226   0.681  0.6309 -1.4872  0.1079
 7337SOL     OW33646   0.475   2.718   6.634  0.3627  0.0233  1.3099
 7337SOL    HW133647   0.380   2.715   6.625  0.4731  1.1656 -0.1642
 7337SOL    HW233648   0.487   2.809   6.662  1.7649  0.2324 -0.0042
 7338SOL     OW33649   2.216   1.363  16.020 -0.0227 -0.3714  0.1474
 7338SOL    HW133650   2.282   1.393  16.083 -1.2840  0.6234  0.9853
 7338SOL    HW233651   2.136   1.374  16.071  0.7217 -1.3678  1.5236
 7339SOL     OW33652   1.430   2.139   7.827 -0.1778 -0.2707  0.4974
 7339SOL    HW133653   1.454   2.205   7.892 -0.4604  0.3669 -0.0439
 7339SOL    HW233654   1.393   2.191   7.755  0.3011 -0.4360  0.1362
 7340SOL     OW33655   3.478   2.893  10.089 -0.4497 -0.1564 -0.3299
 7340SOL    HW133656   3.399   2.838  10.091  1.5493 -3.0341 -1.1015
 7340SOL    HW233657   3.481   2.934  10.176 -0.7099 -0.7290 -0.0455
 7341SOL     OW33658   0.021   2.774   2.167 -0.4470  0.0094 -0.5024
 7341SOL    HW133659   4.688   2.726   2.195 -0.7575  1.1185  0.5447
 7341SOL    HW233660   0.097   2.715   2.166 -1.3021 -1.0824 -0.2290
 7342SOL     OW33661   4.175   1.367   0.244 -0.5049  0.4201  0.4738
 7342SOL    HW133662   4.112   1.419   0.194 -0.9929 -0.4548  0.1707
 7342SOL    HW233663   4.245   1.347   0.183  0.7451  2.0350  1.3637
 7343SOL     OW33664   2.084   2.281  12.930 -0.4725  0.1771  0.2225
 7343SOL    HW133665   2.074   2.194  12.970 -0.8476 -0.0351 -0.3278
 7343SOL    HW233666   2.172   2.273  12.893 -0.0106  3.1587  0.6801
 7344SOL     OW33667   3.139   2.503  12.825  0.3718  0.2179 -0.2510
 7344SOL    HW133668   3.074   2.464  12.765  0.3782 -0.0525 -0.0851
 7344SOL    HW233669   3.183   2.420  12.843  0.1977  0.0531 -0.5789
 7345SOL     OW33670   1.214   3.978   4.437 -0.2237  0.4494 -0.0740
 7345SOL    HW133671   1.241   4.058   4.392 -2.7956  0.3300 -1.8418
 7345SOL    HW233672   1.245   3.985   4.527  0.7512 -1.3023 -0.2691
 7346SOL     OW33673   2.534   0.322   8.203 -0.3399 -0.1926 -0.0656
 7346SOL    HW133674   2.605   0.284   8.255 -0.9458 -0.9596  0.2009
 7346SOL    HW233675   2.488   0.371   8.271 -2.1191 -0.1338 -1.3214
 7347SOL     OW33676   2.241   1.694   3.963 -0.0549 -0.7140  0.2631
 7347SOL    HW133677   2.162   1.714   4.014 -0.0685 -0.8994  0.3128
 7347SOL    HW233678   2.208   1.707   3.874  1.9227  0.6981 -0.2699
 7348SOL     OW33679   0.360   0.797   4.803 -0.2700  0.2439  0.3219
 7348SOL    HW133680   0.388   0.836   4.721  1.8075  0.3710  1.0934
 7348SOL    HW233681   0.432   0.738   4.827 -0.1472  0.3603  0.2390
 7349SOL     OW33682   1.754   4.199   6.439 -0.1510 -0.1466  0.7083
 7349SOL    HW133683   1.762   4.290   6.471 -0.9403  0.6832 -1.5008
 7349SOL    HW233684   1.680   4.209   6.380 -0.3108 -0.3686  0.8728
 7350SOL     OW33685   3.576   4.362  11.869 -0.1294  0.1309  0.4981
 7350SOL    HW133686   3.551   4.296  11.934 -0.1054  0.9877  1.3691
 7350SOL    HW233687   3.618   4.311  11.800  2.0633 -1.1915  2.7778
 7351SOL     OW33688   0.947   1.451   4.340  0.1425  0.1304 -0.1108
 7351SOL    HW133689   0.872   1.395   4.360  0.9967 -0.9539  0.0494
 7351SOL    HW233690   0.991   1.444   4.424  2.0388  0.5788 -1.0583
 7352SOL     OW33691   1.211   0.595   3.284 -0.0969  0.0399  0.0687
 7352SOL    HW133692   1.198   0.508   3.321  0.4721  0.1704  0.5668
 7352SOL    HW233693   1.135   0.635   3.326  0.4350 -0.0726  1.1400
 7353SOL     OW33694   2.619   4.580   4.816  0.1093  0.2122  0.0476
 7353SOL    HW133695   2.602   4.522   4.742  0.2047 -0.8606  0.8665
 7353SOL    HW233696   2.580   4.664   4.793 -0.4281 -0.1660 -0.4149
 7354SOL     OW33697   1.167   2.013  17.489 -0.8327 -0.3006  0.1267
 7354SOL    HW133698   1.178   2.098  17.446  0.4449 -0.4686  0.1173
 7354SOL    HW233699   1.101   2.047  17.549 -0.0359  0.0760  0.7935
 7355SOL     OW33700   1.748   1.332   9.297  0.2985  0.1816 -0.6200
 7355SOL    HW133701   1.693   1.284   9.359 -0.2570  1.2531 -0.2762
 7355SOL    HW233702   1.829   1.282   9.308  0.7885  1.0841 -0.1263
 7356SOL     OW33703   3.365   2.468  13.807  0.2970 -0.4740  0.2143
 7356SOL    HW133704   3.413   2.392  13.840 -0.4815 -0.2651  1.8347
 7356SOL    HW233705   3.330   2.422  13.730 -0.7813 -2.1761  1.7345
 7357SOL     OW33706   4.384   1.415   4.005 -0.4229 -0.2508  0.1659
 7357SOL    HW133707   4.325   1.341   3.992  0.6713 -1.1347  0.2245
 7357SOL    HW233708   4.382   1.431   4.100 -0.0775 -1.6241  0.4060
 7358SOL     OW33709   1.074   1.773   5.333  0.0840  0.5019 -0.4196
 7358SOL    HW133710   0.993   1.821   5.349 -1.1556 -0.9000 -2.4150
 7358SOL    HW233711   1.056   1.714   5.406 -0.1518 -1.7941 -2.3198
 7359SOL     OW33712   1.154   0.031   1.001  0.5776 -0.2040  0.0432
 7359SOL    HW133713   1.175   4.684   0.983 -0.8672 -0.6145  0.4436
 7359SOL    HW233714   1.059   0.029   1.002  0.5790  0.2152  1.3966
 7360SOL     OW33715   2.070   4.662   4.756  0.6215  0.0206 -0.4142
 7360SOL    HW133716   2.105   4.632   4.672  0.8618 -1.3297  0.1619
 7360SOL    HW233717   2.153   4.691   4.794  2.0561 -2.2929 -1.7612
 7361SOL     OW33718   3.284   2.116   4.629 -0.2969 -0.2860  0.2439
 7361SOL    HW133719   3.257   2.204   4.654  0.4453 -0.0860  0.3289
 7361SOL    HW233720   3.221   2.091   4.561 -1.2182  0.7084  0.7357
 7362SOL     OW33721   1.141   2.039  10.814 -0.0088  0.2484  0.1877
 7362SOL    HW133722   1.055   2.009  10.843  0.3962 -1.4919 -0.3703
 7362SOL    HW233723   1.116   2.091  10.738  1.2587  0.7546  0.1169
 7363SOL     OW33724   4.496   0.838  17.006 -0.0256  0.4748  0.0935
 7363SOL    HW133725   4.524   0.801  17.090  1.0088  1.6226  0.2664
 7363SOL    HW233726   4.579   0.880  16.983  0.3895  0.5344  1.6733
 7364SOL     OW33727   4.174   2.176   4.080  0.0862  0.4361 -0.1609
 7364SOL    HW133728   4.184   2.239   4.008  0.4397 -1.8476 -2.0952
 7364SOL    HW233729   4.127   2.100   4.048  1.0183 -0.5280  0.7347
 7365SOL     OW33730   1.581   1.960   1.910 -0.4378  0.1596  0.0818
 7365SOL    HW133731   1.586   2.010   1.829  0.4813  0.4737  0.3405
 7365SOL    HW233732   1.630   2.010   1.975 -0.3138  0.2380 -0.0720
 7366SOL     OW33733   3.987   4.572   3.078  0.0375  0.1048  0.0201
 7366SOL    HW133734   3.970   4.658   3.041 -0.8748 -0.3368 -0.6031
 7366SOL    HW233735   3.990   4.521   2.997 -1.4209  1.4042 -0.8500
 7367SOL     OW33736   4.329   2.492   5.707 -0.2065  0.0260 -0.2933
 7367SOL    HW133737   4.291   2.490   5.619  1.6209  0.8579 -1.0999
 7367SOL    HW233738   4.265   2.442   5.758 -0.1378 -0.5273 -0.7404
 7368SOL     OW33739   4.639   3.732   2.685 -0.0294  0.1204  0.0927
 7368SOL    HW133740   4.662   3.726   2.592  0.8977  1.5702  0.2256
 7368SOL    HW233741   4.673   3.820   2.700  0.6579 -0.2648  0.8273
 7369SOL     OW33742   1.995   3.469   8.470  0.3051 -0.5057 -0.3072
 7369SOL    HW133743   1.919   3.449   8.525  0.5001 -0.1351  0.0931
 7369SOL    HW233744   2.018   3.557   8.500 -1.2764 -0.3164  0.3390
 7370SOL     OW33745   3.372   3.099  16.373 -0.1016 -0.0586  0.2836
 7370SOL    HW133746   3.410   3.035  16.433 -0.6935 -0.2330  0.4671
 7370SOL    HW233747   3.442   3.125  16.313 -0.4663  2.9881  1.2231
 7371SOL     OW33748   3.333   0.451   8.306 -0.0494 -0.2463  0.0040
 7371SOL    HW133749   3.401   0.448   8.238 -0.6016  1.4819 -0.6330
 7371SOL    HW233750   3.381   0.490   8.379 -1.8041  1.1637  0.4077
 7372SOL     OW33751   4.107   1.074   8.198  0.3195  0.4241 -0.1464
 7372SOL    HW133752   4.109   0.980   8.181  0.7988  0.4461 -0.2135
 7372SOL    HW233753   4.032   1.076   8.257  0.5042 -2.4760  0.1714
 7373SOL     OW33754   1.701   2.235   5.086  0.2542 -0.4692  0.5687
 7373SOL    HW133755   1.771   2.173   5.066  0.1311 -0.6640  0.7472
 7373SOL    HW233756   1.618   2.193   5.062 -0.1744  1.1426 -0.8065
 7374SOL     OW33757   0.130   1.082   9.175  0.0588  0.2619  0.0135
 7374SOL    HW133758   0.122   1.125   9.260 -2.2743 -2.0471  0.9525
 7374SOL    HW233759   0.044   1.086   9.134  0.3806  1.0815 -0.5803
 7375SOL     OW33760   0.411   1.625  12.482  0.1516 -0.4328  0.3839
 7375SOL    HW133761   0.507   1.629  12.473 -0.2091  0.4359 -3.4405
 7375SOL    HW233762   0.378   1.676  12.408  1.5369 -1.2196 -0.7766
 7376SOL     OW33763   2.873   1.627   5.641 -0.3272 -0.2695 -1.0879
 7376SOL    HW133764   2.861   1.718   5.613  2.9097  0.6190  0.5048
 7376SOL    HW233765   2.813   1.625   5.715  1.1388  0.8082  0.1092
 7377SOL     OW33766   1.049   0.478   5.713  0.3292 -0.2081 -0.3236
 7377SOL    HW133767   1.079   0.516   5.796 -2.1619  1.0114  0.0116
 7377SOL    HW233768   1.039   0.383   5.727 -1.2301 -0.2059 -1.5061
 7378SOL     OW33769   3.160   0.555   5.170  0.2574  0.5344  0.3144
 7378SOL    HW133770   3.067   0.537   5.181  0.4016  0.7673  1.9259
 7378SOL    HW233771   3.171   0.568   5.076 -1.0540 -2.2987 -0.2405
 7379SOL     OW33772   4.096   1.224   6.055 -0.1150  0.6331 -0.2570
 7379SOL    HW133773   4.038   1.255   6.124 -1.0422  1.2749 -1.3280
 7379SOL    HW233774   4.138   1.149   6.097 -1.5127 -0.5683 -0.9892
 7380SOL     OW33775   1.410   2.779   5.238 -0.0087 -0.3578 -0.2223
 7380SOL    HW133776   1.408   2.763   5.332 -0.9436  0.6697 -0.0598
 7380SOL    HW233777   1.489   2.731   5.213  0.4792  0.6229 -0.6031
 7381SOL     OW33778   2.925   2.867   2.206 -0.2210  1.0854 -0.4635
 7381SOL    HW133779   2.836   2.881   2.171 -0.5530 -1.7452 -0.7433
 7381SOL    HW233780   2.898   2.852   2.296  0.8598 -0.1670 -0.3633
 7382SOL     OW33781   2.691   3.999   1.110  0.8951 -0.2418  0.1702
 7382SOL    HW133782   2.703   3.987   1.205  0.7697  1.0279  0.3401
 7382SOL    HW233783   2.725   4.087   1.095 -1.2436  0.7596  1.2556
 7383SOL     OW33784   2.581   1.003  11.767 -0.7024 -0.2651  0.4790
 7383SOL    HW133785   2.582   0.911  11.741  0.2767  0.2018 -1.1597
 7383SOL    HW233786   2.498   1.030  11.728  0.4113  1.4771 -0.6526
 7384SOL     OW33787   2.294   4.482   7.496  0.2131 -0.2666 -0.3398
 7384SOL    HW133788   2.205   4.465   7.528  0.0298 -0.7613 -1.1175
 7384SOL    HW233789   2.335   4.432   7.567  0.0923 -0.2847 -0.2827
 7385SOL     OW33790   0.561   4.453   5.616 -0.3644  0.2570  0.3930
 7385SOL    HW133791   0.614   4.400   5.675  1.9810  2.0178 -0.0867
 7385SOL    HW233792   0.477   4.434   5.656 -1.9274  3.4044 -1.3794
 7386SOL     OW33793   3.275   3.489   4.914 -0.4599  0.3979  0.1505
 7386SOL    HW133794   3.267   3.394   4.917 -1.8899  0.4929 -0.8404
 7386SOL    HW233795   3.215   3.507   4.842 -0.8944  0.8504  0.6288
 7387SOL     OW33796   1.955   1.124   2.607  0.2301 -0.1593 -0.7639
 7387SOL    HW133797   1.920   1.036   2.625  0.8397  0.2352  2.3445
 7387SOL    HW233798   1.944   1.127   2.512  0.8236  0.9295 -0.7941
 7388SOL     OW33799   0.336   1.766  15.110  0.0360  0.1368 -0.4971
 7388SOL    HW133800   0.256   1.747  15.159  0.2779 -2.4067 -1.1231
 7388SOL    HW233801   0.351   1.691  15.053 -0.4213  0.3949 -0.9582
 7389SOL     OW33802   2.699   4.054   2.069 -0.3300 -0.0629  0.5208
 7389SOL    HW133803   2.671   4.041   2.160  0.3467  0.5415  0.8122
 7389SOL    HW233804   2.782   4.101   2.076 -0.3414  0.0496 -0.0936
 7390SOL     OW33805   3.408   0.047   2.643  0.8148 -0.4011  0.1472
 7390SOL    HW133806   3.345   0.050   2.571 -0.9150 -1.1166  1.6347
 7390SOL    HW233807   3.467   4.721   2.613  0.6647 -0.1976 -0.6130
 7391SOL     OW33808   3.569   1.719   7.763  0.0162 -0.1792  0.3649
 7391SOL    HW133809   3.602   1.728   7.853  0.5152  1.1769  0.0461
 7391SOL    HW233810   3.583   1.809   7.732  2.5789 -1.5957 -2.5549
 7392SOL     OW33811   0.619   1.617   2.245  0.3040 -0.9621  0.1848
 7392SOL    HW133812   0.656   1.605   2.158  1.8826 -0.2870  0.7596
 7392SOL    HW233813   0.635   1.710   2.261 -1.3910 -0.8694  1.4345
 7393SOL     OW33814   4.697   3.300   1.787 -0.1374 -0.0425  0.0234
 7393SOL    HW133815   4.677   3.335   1.700 -1.2197 -0.5191  0.0853
 7393SOL    HW233816   4.638   3.349   1.844 -1.0431 -0.9735 -0.0941
 7394SOL     OW33817   1.105   3.045   9.465  0.9660  0.2451  0.2433
 7394SOL    HW133818   1.126   3.127   9.509  1.9054 -0.2983  0.7968
 7394SOL    HW233819   1.072   3.077   9.380  0.9518  1.5459  0.7353
 7395SOL     OW33820   0.177   1.952   4.566 -0.4142 -0.3888  0.4920
 7395SOL    HW133821   0.177   2.029   4.623 -0.2812  0.2405 -0.3649
 7395SOL    HW233822   0.204   1.877   4.618  1.7556  0.2637  0.2960
 7396SOL     OW33823   1.150   3.901   6.592  0.6234  0.2324 -0.7058
 7396SOL    HW133824   1.095   3.978   6.606  0.0869 -0.3480  0.3405
 7396SOL    HW233825   1.125   3.852   6.671 -2.4809  1.5342 -0.8884
 7397SOL     OW33826   0.115   1.934   3.880 -0.5429 -0.4488 -0.1019
 7397SOL    HW133827   0.127   2.018   3.837 -1.1271  0.8362  2.2307
 7397SOL    HW233828   0.204   1.911   3.910  0.2034 -1.5094 -3.1439
 7398SOL     OW33829   4.193   3.402  14.306 -0.5901  0.3419  0.2308
 7398SOL    HW133830   4.196   3.495  14.329  1.5876  0.2381  0.3244
 7398SOL    HW233831   4.137   3.402  14.229 -0.5589  2.2179  0.2057
 7399SOL     OW33832   0.445   4.244   9.265  0.3204 -0.3085 -0.5332
 7399SOL    HW133833   0.510   4.264   9.332  1.8632  0.5541 -2.2813
 7399SOL    HW233834   0.373   4.293   9.305  0.8299  1.7376 -2.1152
 7400SOL     OW33835   1.302   1.465   0.092 -0.0075  0.4115  0.1425
 7400SOL    HW133836   1.327   1.548   0.133 -1.8737  0.6459  0.7996
 7400SOL    HW233837   1.250   1.428   0.162 -2.0300 -0.7416 -1.9624
 7401SOL     OW33838   4.302   3.063   5.736  0.6271 -0.2364 -0.1231
 7401SOL    HW133839   4.282   3.140   5.789  3.6756 -1.0245  2.1656
 7401SOL    HW233840   4.392   3.062   5.769  0.5321  0.7697  0.1799
 7402SOL     OW33841   1.859   4.299  12.411 -0.3158  0.0473  0.2364
 7402SOL    HW133842   1.813   4.319  12.329 -1.4134  1.4236  1.1819
 7402SOL    HW233843   1.859   4.203  12.418  0.9615  0.1201  1.2621
 7403SOL     OW33844   4.006   2.671   5.629 -0.2454  0.2751  0.1159
 7403SOL    HW133845   3.969   2.741   5.576 -1.6117  1.1062  2.1393
 7403SOL    HW233846   4.071   2.714   5.684  1.3581 -1.1730 -0.6538
 7404SOL     OW33847   1.815   1.161  12.527  0.4063  1.0423 -0.3720
 7404SOL    HW133848   1.773   1.087  12.483  1.1606 -1.2658  2.7905
 7404SOL    HW233849   1.741   1.217  12.552 -2.5674 -2.8913 -0.3182
 7405SOL     OW33850   3.424   2.955  13.299  0.2139  1.2583 -0.4325
 7405SOL    HW133851   3.430   2.897  13.375  0.1773 -0.3408 -1.6507
 7405SOL    HW233852   3.451   2.893  13.230 -1.4701  0.7971 -0.6950
 7406SOL     OW33853   2.601   0.137   5.744 -0.3594  0.3991 -0.4032
 7406SOL    HW133854   2.637   0.220   5.775 -0.1734  0.0237  0.3668
 7406SOL    HW233855   2.633   0.070   5.803  1.9275  2.1056  0.2948
 7407SOL     OW33856   2.675   0.929  15.481 -0.0262  0.0746  0.2948
 7407SOL    HW133857   2.591   0.952  15.440  0.9049  0.8663 -1.1885
 7407SOL    HW233858   2.740   0.964  15.420 -0.2793  2.8292  1.5962
 7408SOL     OW33859   3.868   3.267  15.806 -0.6282  0.6257  0.6198
 7408SOL    HW133860   3.803   3.272  15.736  0.8720 -0.8762 -0.8803
 7408SOL    HW233861   3.946   3.318  15.783 -1.8083  2.9119  1.6618
 7409SOL     OW33862   1.954   1.450  16.675 -0.2097 -0.5846  0.3470
 7409SOL    HW133863   1.867   1.481  16.651  0.1454 -0.7187 -1.1279
 7409SOL    HW233864   1.935   1.410  16.759  0.1389 -1.8808 -0.1836
 7410SOL     OW33865   3.410   0.547   3.643 -0.0964  0.2761 -0.4660
 7410SOL    HW133866   3.456   0.621   3.683  0.0807 -0.0364 -0.0854
 7410SOL    HW233867   3.357   0.513   3.716  0.5086  0.4883  0.0682
 7411SOL     OW33868   1.494   4.173   7.772 -0.1677 -0.9417 -0.0481
 7411SOL    HW133869   1.518   4.250   7.720 -0.5525  0.3001  1.6320
 7411SOL    HW233870   1.583   4.141   7.784  0.9898  2.6010  0.5966
 7412SOL     OW33871   2.306   3.375   8.567 -0.1398  0.0445 -0.0718
 7412SOL    HW133872   2.215   3.372   8.538  0.1989 -0.3944 -1.1056
 7412SOL    HW233873   2.301   3.336   8.654  2.5157  2.0189  0.9686
 7413SOL     OW33874   4.573   0.191  15.207 -0.3522  0.0835 -0.0048
 7413SOL    HW133875   4.586   0.114  15.153  0.3420 -1.0951  1.8511
 7413SOL    HW233876   4.538   0.258  15.147 -1.5348 -0.2773  0.2736
 7414SOL     OW33877   4.130   3.969   7.910  0.8555 -0.0039 -0.4464
 7414SOL    HW133878   4.158   3.936   7.824  2.1496 -1.8870  0.7128
 7414SOL    HW233879   4.072   3.900   7.943 -0.1550  1.1635  0.2378
 7415SOL     OW33880   3.071   2.909   3.739  0.3093  0.2411  0.7959
 7415SOL    HW133881   3.143   2.904   3.676  0.7424  0.6829  1.2434
 7415SOL    HW233882   3.032   2.995   3.721 -0.6747 -0.7810 -1.7600
 7416SOL     OW33883   3.450   4.475  16.501  0.3780 -0.0344  0.7380
 7416SOL    HW133884   3.369   4.492  16.453  0.5908 -1.0167  0.0295
 7416SOL    HW233885   3.410   4.478  16.588 -1.6042 -1.6316 -0.1227
 7417SOL     OW33886   0.884   2.391   6.573 -0.4662 -0.0220  0.5025
 7417SOL    HW133887   0.939   2.469   6.571  0.9728 -1.0772 -1.4472
 7417SOL    HW233888   0.804   2.424   6.614 -1.1363  0.4275 -1.1581
 7418SOL     OW33889   1.202   2.746   4.618 -0.0828  0.4311  0.2631
 7418SOL    HW133890   1.162   2.693   4.688 -0.0715  0.2636  0.1424
 7418SOL    HW233891   1.135   2.731   4.551  0.5449  2.1890 -0.7360
 7419SOL     OW33892   3.710   0.239   7.370 -0.2584 -0.2826  0.3730
 7419SOL    HW133893   3.721   0.151   7.333  0.0501  0.1195 -0.5009
 7419SOL    HW233894   3.802   0.266   7.373 -0.4735  0.7473 -2.1786
 7420SOL     OW33895   0.453   4.294  10.169  0.0966  0.1776  0.1896
 7420SOL    HW133896   0.436   4.387  10.153  1.6540 -0.1179 -3.1660
 7420SOL    HW233897   0.544   4.281  10.140  0.3265  0.2489  0.8686
 7421SOL     OW33898   0.389   2.830  17.439 -0.2993  0.0085  0.2533
 7421SOL    HW133899   0.481   2.855  17.449 -0.2986  0.7962 -1.7375
 7421SOL    HW233900   0.393   2.740  17.407  0.8437 -0.1941  0.9632
 7422SOL     OW33901   1.600   2.133   7.080  0.0024  0.0749 -0.2180
 7422SOL    HW133902   1.653   2.081   7.021 -0.9060  0.2675 -1.1906
 7422SOL    HW233903   1.515   2.114   7.040  0.2163  1.0831 -1.1410
 7423SOL     OW33904   2.616   4.236   2.847 -0.6175  0.9758 -0.6636
 7423SOL    HW133905   2.610   4.314   2.902 -0.3916  0.1393  0.5334
 7423SOL    HW233906   2.685   4.187   2.892 -1.0848 -0.0762 -1.0846
 7424SOL     OW33907   4.358   3.435   0.299  0.0548 -0.1951 -0.2387
 7424SOL    HW133908   4.418   3.496   0.342 -0.1575 -0.8592  1.0120
 7424SOL    HW233909   4.313   3.405   0.378 -2.4376  2.1901 -0.7705
 7425SOL     OW33910   3.066   0.488   2.400  0.7054  0.1747 -0.3471
 7425SOL    HW133911   2.976   0.493   2.432  0.5194  1.1675 -1.0255
 7425SOL    HW233912   3.097   0.408   2.442 -0.3239  0.5070  1.0458
 7426SOL     OW33913   3.699   2.166   9.693 -0.3981 -0.0077  0.4606
 7426SOL    HW133914   3.612   2.150   9.654  1.7904 -2.7912 -3.3369
 7426SOL    HW233915   3.733   2.077   9.691  0.0792  0.1892 -0.5230
 7427SOL     OW33916   3.307   4.451   7.419 -0.0397 -0.9157  0.7508
 7427SOL    HW133917   3.320   4.545   7.437  0.8388 -0.6833 -1.0587
 7427SOL    HW233918   3.216   4.429   7.437 -1.3806  2.7917 -1.5217
 7428SOL     OW33919   1.236   2.957   7.135  0.7994  0.9593 -0.4515
 7428SOL    HW133920   1.172   2.948   7.065  0.3403 -1.8328  0.3170
 7428SOL    HW233921   1.321   2.968   7.093  1.1225 -2.6367 -0.7620
 7429SOL     OW33922   3.935   2.045   7.155  0.1540  0.4561 -0.2585
 7429SOL    HW133923   3.929   2.007   7.067  0.0514 -5.2066  2.2076
 7429SOL    HW233924   4.018   2.004   7.178  0.7578  1.5543 -0.4536
 7430SOL     OW33925   2.809   4.044  11.588 -0.4174 -0.6916  0.0257
 7430SOL    HW133926   2.786   4.136  11.598  2.0276 -0.2842  2.1264
 7430SOL    HW233927   2.900   4.038  11.557 -0.2350 -1.7222  0.7593
 7431SOL     OW33928   2.888   0.349   3.206  0.1973  0.1011 -0.3815
 7431SOL    HW133929   2.911   0.440   3.223  0.2728  0.4133 -2.1098
 7431SOL    HW233930   2.814   0.335   3.265 -0.2263  0.6140 -0.7866
 7432SOL     OW33931   1.048   3.939  16.510  0.8095  0.6032  0.1126
 7432SOL    HW133932   1.070   4.025  16.476  2.0543 -0.0119 -0.6330
 7432SOL    HW233933   0.953   3.952  16.509  1.0238  2.0651 -0.5829
 7433SOL     OW33934   1.255   0.366   4.458  0.2663  0.0394 -0.2226
 7433SOL    HW133935   1.167   0.369   4.421  1.4857  0.0421 -3.1345
 7433SOL    HW233936   1.292   0.286   4.420 -0.8128 -0.1059 -0.9535
 7434SOL     OW33937   3.013   3.566   3.336  0.0766 -0.2474  0.0865
 7434SOL    HW133938   2.964   3.486   3.318 -0.3959  0.7402 -2.9162
 7434SOL    HW233939   2.996   3.577   3.430 -1.8220 -0.4590 -0.2240
 7435SOL     OW33940   0.410   1.238  12.829  0.0631  0.0845  0.0915
 7435SOL    HW133941   0.369   1.287  12.758 -0.0648  0.3300  0.3345
 7435SOL    HW233942   0.396   1.302  12.898 -3.0314 -1.4865  0.9434
 7436SOL     OW33943   1.727   1.803   0.405 -0.1043 -0.0317  0.2180
 7436SOL    HW133944   1.769   1.781   0.322  1.2802 -0.3581  1.0050
 7436SOL    HW233945   1.646   1.753   0.413  1.3286 -1.8644  3.5100
 7437SOL     OW33946   4.375   1.438  12.117  0.0955 -0.1821 -0.7620
 7437SOL    HW133947   4.310   1.378  12.154  0.7673 -1.9648 -2.4924
 7437SOL    HW233948   4.340   1.459  12.030  0.5249  0.3923 -0.8002
 7438SOL     OW33949   2.267   0.609  11.973 -0.4774 -0.0340  0.5941
 7438SOL    HW133950   2.205   0.682  11.967  0.5823  0.8498  0.3505
 7438SOL    HW233951   2.319   0.630  11.896  1.3246 -1.0000  1.5484
 7439SOL     OW33952   0.134   1.108   6.623  0.3485 -0.3046 -0.1471
 7439SOL    HW133953   0.182   1.098   6.541  0.3876  1.7084 -0.3737
 7439SOL    HW233954   0.075   1.179   6.597 -2.7202 -2.1947  1.6322
 7440SOL     OW33955   1.434   1.769   7.871  0.5641 -0.5553 -0.2782
 7440SOL    HW133956   1.355   1.715   7.872  1.5786 -2.0189  1.4378
 7440SOL    HW233957   1.454   1.754   7.779 -1.8263  3.1753 -1.3952
 7441SOL     OW33958   3.550   2.936   2.518 -0.1415  0.6567  0.0002
 7441SOL    HW133959   3.620   2.994   2.487  1.1448  0.8736  3.2143
 7441SOL    HW233960   3.573   2.863   2.461 -0.9946 -1.0823  1.8919
 7442SOL     OW33961   1.350   2.709   2.342  0.0131  0.2734 -0.0674
 7442SOL    HW133962   1.254   2.713   2.352  0.0835  1.4281  0.1179
 7442SOL    HW233963   1.378   2.732   2.431  1.7372  1.3385 -0.8949
 7443SOL     OW33964   3.374   3.589   6.315  0.0349  0.0122 -0.2828
 7443SOL    HW133965   3.403   3.680   6.303 -0.1896  0.3283  1.5709
 7443SOL    HW233966   3.439   3.551   6.374  1.3681 -1.2639 -2.5738
 7444SOL     OW33967   2.228   0.007  11.005  0.4227 -0.0864 -0.1707
 7444SOL    HW133968   2.250   4.679  11.065 -2.0472  1.2478  2.3422
 7444SOL    HW233969   2.147   4.717  10.969  1.0715 -1.7182 -0.0958
 7445SOL     OW33970   3.689   1.458  14.039  0.0214  0.3857 -0.2933
 7445SOL    HW133971   3.715   1.426  13.952 -0.0358 -0.1134 -0.1272
 7445SOL    HW233972   3.720   1.548  14.038  2.6232 -0.5274 -0.8387
 7446SOL     OW33973   4.609   2.186   7.406 -0.1328 -0.2628  0.1942
 7446SOL    HW133974   4.703   2.172   7.415  0.3568  2.4905 -0.4580
 7446SOL    HW233975   4.598   2.175   7.312  1.9287  0.0709 -0.0890
 7447SOL     OW33976   3.696   2.745  10.311 -0.1860 -0.6423 -0.2535
 7447SOL    HW133977   3.606   2.731  10.283 -0.3975 -1.7637  0.9928
 7447SOL    HW233978   3.715   2.660  10.352  1.9510 -0.7864 -1.5338
 7448SOL     OW33979   2.012   4.459   7.543  0.1784 -0.3136  0.6230
 7448SOL    HW133980   1.972   4.537   7.505  1.4942 -0.0552 -0.2311
 7448SOL    HW233981   2.005   4.404   7.465  0.6311  0.5185  0.0072
 7449SOL     OW33982   3.657   4.047   4.537 -0.3551  0.3120  0.5005
 7449SOL    HW133983   3.706   4.047   4.455 -2.6227 -1.1357 -0.8777
 7449SOL    HW233984   3.641   4.141   4.546  0.6924  0.6624 -1.3350
 7450SOL     OW33985   2.361   2.655   4.449  0.1712 -0.1491  0.9899
 7450SOL    HW133986   2.377   2.680   4.539  1.9466 -0.1985  0.7041
 7450SOL    HW233987   2.443   2.608   4.434  1.6256  1.8544  2.7326
 7451SOL     OW33988   0.843   4.547   6.468 -0.5788  0.7422  0.8632
 7451SOL    HW133989   0.855   4.585   6.555  0.5649  1.7558  0.2662
 7451SOL    HW233990   0.771   4.489   6.491 -1.1017  1.6423  1.4480
 7452SOL     OW33991   4.297   3.860   4.249  0.1419  0.2385  0.4340
 7452SOL    HW133992   4.303   3.844   4.343 -0.3981 -0.5628  0.3319
 7452SOL    HW233993   4.353   3.938   4.248  0.7043 -0.1639  0.4647
 7453SOL     OW33994   3.495   4.220   1.685  0.6045  0.3337  0.6079
 7453SOL    HW133995   3.422   4.257   1.636  1.8045 -0.1564 -1.5493
 7453SOL    HW233996   3.447   4.158   1.739 -2.6481  0.3014 -2.3672
 7454SOL     OW33997   1.320   4.174   4.268 -0.4827 -0.5204  0.1599
 7454SOL    HW133998   1.295   4.207   4.182  0.9961  3.9927  1.4923
 7454SOL    HW233999   1.396   4.122   4.242  0.0257  1.2686 -1.8523
 7455SOL     OW34000   4.544   0.765   8.909  0.7214  0.4002 -0.0798
 7455SOL    HW134001   4.533   0.762   9.004 -1.0214 -0.1595 -0.2980
 7455SOL    HW234002   4.584   0.678   8.903 -2.0582 -0.6652 -3.1189
 7456SOL     OW34003   1.289   0.753  10.596  0.2836  0.1995  0.0051
 7456SOL    HW134004   1.308   0.737  10.689 -0.4222  1.4546  0.3585
 7456SOL    HW234005   1.291   0.661  10.568 -0.0454  0.5815 -1.2335
 7457SOL     OW34006   4.080   3.409  15.811  0.2454  0.2908  0.4289
 7457SOL    HW134007   4.163   3.449  15.787 -0.2461  1.6331  0.9748
 7457SOL    HW234008   4.094   3.401  15.906 -0.8012  0.8774  0.6282
 7458SOL     OW34009   3.178   0.839   9.864  0.2049  0.0389 -0.5925
 7458SOL    HW134010   3.177   0.765   9.804  1.4234  0.0722 -0.6370
 7458SOL    HW234011   3.271   0.861   9.869  0.1649  0.0831  0.0300
 7459SOL     OW34012   1.494   1.564   4.895  0.0044 -0.0458  0.1568
 7459SOL    HW134013   1.429   1.499   4.869  0.2667 -0.9252  1.6580
 7459SOL    HW234014   1.518   1.532   4.982 -0.0651  1.3366  0.6919
 7460SOL     OW34015   1.243   1.613   2.877  0.3765  0.4064 -0.5714
 7460SOL    HW134016   1.219   1.521   2.868 -0.3307  0.5168  0.1162
 7460SOL    HW234017   1.223   1.629   2.970  0.2066 -1.1818 -0.3315
 7461SOL     OW34018   0.570   3.350  13.359  0.1610  0.8179  0.1066
 7461SOL    HW134019   0.536   3.293  13.290  0.4392 -1.2591  1.6709
 7461SOL    HW234020   0.547   3.296  13.435  1.0053  1.2916  0.6949
 7462SOL     OW34021   3.359   0.330   4.165  0.3667  0.3009 -0.1950
 7462SOL    HW134022   3.365   0.383   4.245 -1.8460  1.4637 -0.7849
 7462SOL    HW234023   3.264   0.313   4.163  0.7520 -1.5975 -1.8054
 7463SOL     OW34024   0.331   1.616   0.381 -0.7292  0.5043  0.6167
 7463SOL    HW134025   0.267   1.669   0.334 -1.4348  0.1410  1.1782
 7463SOL    HW234026   0.302   1.633   0.471  1.4464 -4.2131  2.1979
 7464SOL     OW34027   1.362   0.638   4.915  0.2997 -0.2313 -0.4362
 7464SOL    HW134028   1.429   0.610   4.977  0.2506  1.2141  0.2805
 7464SOL    HW234029   1.326   0.552   4.894 -1.2796  0.3957 -0.2718
 7465SOL     OW34030   3.202   0.626   9.684  0.2250  0.3030 -0.4446
 7465SOL    HW134031   3.191   0.556   9.619  2.9074 -0.5772  0.0415
 7465SOL    HW234032   3.175   0.582   9.765 -1.2867  0.6521 -0.7669
 7466SOL     OW34033   1.489   2.946   1.986  0.0175 -0.1166 -0.2274
 7466SOL    HW134034   1.413   3.001   2.000 -0.1589 -0.4460  0.1047
 7466SOL    HW234035   1.470   2.938   1.893  1.1908  0.0439 -0.4783
 7467SOL     OW34036   4.144   0.710   4.338  0.0694  0.1654 -0.1638
 7467SOL    HW134037   4.113   0.643   4.399 -1.6232  1.2028  0.0973
 7467SOL    HW234038   4.102   0.787   4.375 -0.5157 -0.7472  1.0733
 7468SOL     OW34039   2.029   0.474   1.685 -0.1772  0.6265 -0.1535
 7468SOL    HW134040   1.937   0.456   1.667 -0.0835  0.0036 -0.0263
 7468SOL    HW234041   2.066   0.459   1.598  1.2066 -1.4376  0.7803
 7469SOL     OW34042   1.311   1.277   0.678  0.5551  0.3373 -0.5256
 7469SOL    HW134043   1.236   1.286   0.738  0.5162 -0.5953 -0.4316
 7469SOL    HW234044   1.275   1.212   0.618  2.5578  0.9597 -2.4045
 7470SOL     OW34045   4.030   0.242   8.254  0.0536  0.7487  0.8832
 7470SOL    HW134046   4.075   0.231   8.337 -1.0762 -0.8352  1.3014
 7470SOL    HW234047   3.941   0.273   8.271  0.1382  0.1851  2.2813
 7471SOL     OW34048   3.825   0.227   2.262 -0.1529  0.0811  0.6120
 7471SOL    HW134049   3.778   0.148   2.288 -0.4044 -0.0730 -0.3376
 7471SOL    HW234050   3.810   0.275   2.344  1.8697  0.9177  0.4958
 7472SOL     OW34051   2.375   2.758   9.001 -0.4046  0.7147  0.3054
 7472SOL    HW134052   2.465   2.760   8.968 -0.6514 -0.0349 -0.4274
 7472SOL    HW234053   2.338   2.736   8.915 -1.5124 -0.2333  1.0111
 7473SOL     OW34054   4.552   1.057   8.170 -0.0878 -0.1929  0.3226
 7473SOL    HW134055   4.530   0.991   8.105 -2.0807  3.2251 -2.4919
 7473SOL    HW234056   4.565   1.132   8.112  0.1209 -0.6885 -0.2724
 7474SOL     OW34057   3.093   3.678   6.303  0.3064 -0.1216  0.3504
 7474SOL    HW134058   3.173   3.628   6.286 -0.0890  0.2753 -2.7009
 7474SOL    HW234059   3.077   3.709   6.214  0.6190  2.6561  1.2856
 7475SOL     OW34060   3.364   2.132   8.162  0.6156 -0.2304  0.2531
 7475SOL    HW134061   3.318   2.213   8.185  1.3617  0.8473 -2.0909
 7475SOL    HW234062   3.414   2.128   8.244  1.4704  0.6026 -0.2118
 7476SOL     OW34063   3.829   4.057  13.491 -0.6963  0.1356 -0.4427
 7476SOL    HW134064   3.883   3.998  13.439 -0.7222  0.1261 -0.4586
 7476SOL    HW234065   3.753   4.065  13.433 -1.1656  1.5982  0.3536
 7477SOL     OW34066   1.704   0.888  11.892 -0.3175 -0.0762  0.1675
 7477SOL    HW134067   1.722   0.794  11.883 -1.1780 -0.3453  1.3492
 7477SOL    HW234068   1.767   0.909  11.961  1.6851 -0.5568 -1.5093
 7478SOL     OW34069   0.926   3.575  10.496 -0.5007  0.2067 -0.2848
 7478SOL    HW134070   0.838   3.611  10.501  0.3069  2.4202 -2.0880
 7478SOL    HW234071   0.904   3.499  10.442 -3.3753  0.7793  0.0943
 7479SOL     OW34072   0.962   1.327   4.722  0.3135  0.6332 -0.0321
 7479SOL    HW134073   1.053   1.347   4.746  0.8924 -1.3298 -0.6136
 7479SOL    HW234074   0.914   1.397   4.766 -0.0561 -0.2334  0.9341
 7480SOL     OW34075   4.343   0.797   7.175 -0.2146 -0.4618 -0.1581
 7480SOL    HW134076   4.325   0.737   7.103  1.4534 -1.9308  0.6628
 7480SOL    HW234077   4.253   0.818   7.198 -0.9477 -2.9620 -0.7948
 7481SOL     OW34078   0.767   0.767   6.780 -0.9123  0.8757  0.2451
 7481SOL    HW134079   0.739   0.792   6.692 -0.8715  2.0254  0.5555
 7481SOL    HW234080   0.839   0.829   6.792  1.5700 -1.7507 -1.0780
 7482SOL     OW34081   0.592   2.110   1.224 -0.0160  0.4304  0.4929
 7482SOL    HW134082   0.625   2.101   1.313 -0.2034  0.5905  0.5746
 7482SOL    HW234083   0.620   2.200   1.209 -1.4872  0.9840  1.1899
 7483SOL     OW34084   4.534   1.923   6.730  0.2749 -0.0907  0.2270
 7483SOL    HW134085   4.609   1.867   6.710  1.5300  1.2139  1.2505
 7483SOL    HW234086   4.554   1.927   6.823 -2.9248  0.1025  0.9057
 7484SOL     OW34087   2.719   2.321   4.459 -0.0552  0.3423  0.5276
 7484SOL    HW134088   2.690   2.408   4.430 -1.2626 -0.7657 -1.5960
 7484SOL    HW234089   2.646   2.271   4.423  0.4165  1.4872 -2.0436
 7485SOL     OW34090   1.344   0.110   3.612 -0.0254 -0.0259  0.1258
 7485SOL    HW134091   1.325   0.073   3.699  0.5076 -2.6365 -0.8594
 7485SOL    HW234092   1.430   0.069   3.602 -0.5521 -1.3613  1.0249
 7486SOL     OW34093   2.709   1.711  11.062 -0.1031 -0.1560  0.2540
 7486SOL    HW134094   2.754   1.777  11.008 -0.4385  0.6988  1.0277
 7486SOL    HW234095   2.734   1.634  11.011  1.0091  1.2569 -1.3389
 7487SOL     OW34096   1.453   4.301   8.485  0.1491  0.6779 -0.0032
 7487SOL    HW134097   1.500   4.272   8.407 -0.9985 -0.9670 -0.0857
 7487SOL    HW234098   1.363   4.300   8.452  0.7338 -0.8491 -1.5536
 7488SOL     OW34099   4.237   1.694   9.429 -0.3969 -0.2098 -0.1581
 7488SOL    HW134100   4.147   1.693   9.397 -0.6039 -1.5567  0.4703
 7488SOL    HW234101   4.226   1.741   9.512 -1.1173  2.3802 -1.7226
 7489SOL     OW34102   4.119   3.807   8.877  0.2816  0.4803 -0.3870
 7489SOL    HW134103   4.047   3.756   8.840  0.9343  0.8234 -2.1244
 7489SOL    HW234104   4.137   3.772   8.964 -3.6640  1.6003  0.8807
 7490SOL     OW34105   2.550   2.047   8.546 -0.6463  0.2551 -0.4686
 7490SOL    HW134106   2.588   1.960   8.533 -0.6823  0.2340 -0.4323
 7490SOL    HW234107   2.525   2.071   8.457  0.9745 -2.7642 -1.7316
 7491SOL     OW34108   1.083   0.404  13.411 -0.5945 -0.4591  0.3774
 7491SOL    HW134109   1.147   0.335  13.429  0.5596  0.0443 -1.8475
 7491SOL    HW234110   1.018   0.391  13.480  0.6773 -0.0510  1.6682
 7492SOL     OW34111   1.646   2.562   6.453  0.9018  0.2856  0.4117
 7492SOL    HW134112   1.664   2.600   6.539  1.8979 -3.2970  1.7875
 7492SOL    HW234113   1.642   2.640   6.398 -3.6040 -0.5478 -0.4280
 7493SOL     OW34114   4.211   0.022   3.665 -0.3385 -0.1205 -0.1970
 7493SOL    HW134115   4.192   0.079   3.739 -2.0665 -0.5142 -0.3557
 7493SOL    HW234116   4.127   4.722   3.654 -0.0344 -0.0434 -2.8923
 7494SOL     OW34117   1.368   1.686  13.071  0.9250  0.1051  0.0482
 7494SOL    HW134118   1.314   1.635  13.010  0.6085  1.4569 -0.7884
 7494SOL    HW234119   1.307   1.753  13.101  0.3125 -0.4917  0.1239
 7495SOL     OW34120   3.508   0.882  14.438 -0.4064  0.5233  0.1330
 7495SOL    HW134121   3.549   0.910  14.520 -0.2841 -1.4365  0.7308
 7495SOL    HW234122   3.416   0.881  14.463 -0.7069 -1.9894 -1.1273
 7496SOL     OW34123   1.537   1.510  13.844 -0.8011 -0.1334 -0.0527
 7496SOL    HW134124   1.448   1.512  13.880 -0.1552  1.1651  1.4728
 7496SOL    HW234125   1.528   1.551  13.757  1.7608 -1.6035 -1.0048
 7497SOL     OW34126   2.213   0.209   1.798 -0.1184 -0.1551  0.5270
 7497SOL    HW134127   2.306   0.228   1.794 -0.1087  0.0403  1.9121
 7497SOL    HW234128   2.192   0.210   1.891 -4.1210 -1.6481 -0.3321
 7498SOL     OW34129   2.347   0.951   6.245 -0.7920  0.2766  0.3878
 7498SOL    HW134130   2.436   0.964   6.213 -0.2607 -1.2421  1.2722
 7498SOL    HW234131   2.353   0.940   6.340  0.1604 -0.0592  0.2878
 7499SOL     OW34132   1.049   3.345   0.367 -0.0896 -1.2238  0.3544
 7499SOL    HW134133   0.967   3.295   0.373  0.9247 -2.8133  1.0920
 7499SOL    HW234134   1.094   3.298   0.436 -0.6897 -1.2649  0.7231
 7500SOL     OW34135   0.801   2.255  11.620 -0.1453 -0.2874 -0.5106
 7500SOL    HW134136   0.878   2.220  11.663 -1.1446  0.0655  1.5565
 7500SOL    HW234137   0.734   2.237  11.686  0.0183  2.7665  0.4989
 7501SOL     OW34138   2.203   4.481   3.695  0.0041 -0.0456 -0.3862
 7501SOL    HW134139   2.221   4.538   3.769 -1.0282  1.3296 -1.2051
 7501SOL    HW234140   2.293   4.459   3.671  0.4195  1.0812  0.1261
 7502SOL     OW34141   2.339   3.948   5.167 -0.7139  0.4943 -0.0761
 7502SOL    HW134142   2.247   3.959   5.190 -0.9588  0.6051 -1.1001
 7502SOL    HW234143   2.324   3.886   5.095  2.0050 -0.5200  0.2364
 7503SOL     OW34144   4.368   4.077  10.183 -0.1539 -0.6855  0.2025
 7503SOL    HW134145   4.451   4.091  10.138 -0.2446  0.4103  0.3836
 7503SOL    HW234146   4.392   4.010  10.248  2.8293 -1.1623 -1.4179
 7504SOL     OW34147   4.649   0.661   4.465  0.3505 -0.5546  0.0518
 7504SOL    HW134148   4.559   0.635   4.486  0.5872 -1.0668  0.4374
 7504SOL    HW234149   4.634   0.660   4.370 -1.3437 -0.2767  0.3122
 7505SOL     OW34150   2.035   3.745   7.813  0.6198 -0.4969 -0.0040
 7505SOL    HW134151   2.041   3.825   7.761 -2.6515  1.6132  2.8343
 7505SOL    HW234152   1.947   3.740   7.850  0.1830  0.6389 -0.9150
 7506SOL     OW34153   1.382   0.199  17.688  0.6967 -0.1232 -0.2873
 7506SOL    HW134154   1.416   0.283  17.719  1.2307 -0.2230 -0.6156
 7506SOL    HW234155   1.423   0.196  17.602 -0.3624 -2.4332 -0.6959
 7507SOL     OW34156   3.104   4.238  16.135  0.2625 -0.3390  0.1304
 7507SOL    HW134157   3.052   4.177  16.082  0.7587  0.4715 -1.2905
 7507SOL    HW234158   3.175   4.186  16.173 -0.6881 -1.4505  0.4056
 7508SOL     OW34159   3.333   2.251   3.375  0.3336  0.2772  0.3455
 7508SOL    HW134160   3.239   2.242   3.391 -0.2582  1.7753 -2.2789
 7508SOL    HW234161   3.371   2.227   3.459  0.8202  0.5587  0.2083
 7509SOL     OW34162   2.528   1.077   7.514 -0.0167 -0.1047 -0.4089
 7509SOL    HW134163   2.447   1.090   7.563 -0.3037  0.7186 -1.1000
 7509SOL    HW234164   2.506   1.066   7.422 -1.1460  2.1114 -0.4220
 7510SOL     OW34165   2.848   3.274   7.952 -0.2416 -0.5149 -0.1346
 7510SOL    HW134166   2.855   3.217   8.028 -1.9745  1.0671  1.2123
 7510SOL    HW234167   2.873   3.220   7.877  0.4904 -1.0263  0.4766
 7511SOL     OW34168   0.188   2.332   7.855 -0.3898 -0.1942  0.4196
 7511SOL    HW134169   0.271   2.356   7.897 -0.9259  0.0583  1.3270
 7511SOL    HW234170   0.193   2.237   7.847  0.8742 -0.0170 -0.9054
 7512SOL     OW34171   1.522   4.032   7.097 -0.1887 -0.6878 -0.3552
 7512SOL    HW134172   1.518   4.014   7.003  1.5195 -0.7805 -0.4121
 7512SOL    HW234173   1.428   4.050   7.103  0.5001  2.5908  0.4324
 7513SOL     OW34174   2.189   1.908   8.297  0.2246  0.0946 -0.3183
 7513SOL    HW134175   2.248   1.835   8.318  0.0966 -0.5898 -2.3609
 7513SOL    HW234176   2.241   1.978   8.257  1.0724 -0.1502  0.3567
 7514SOL     OW34177   0.504   0.105  13.396  0.6356  0.7220 -0.4263
 7514SOL    HW134178   0.451   0.122  13.474  3.0190 -3.3750  2.0818
 7514SOL    HW234179   0.427   0.062  13.357  2.3355 -1.5487 -1.2693
 7515SOL     OW34180   1.968   2.319   0.688 -0.2524 -0.4173  0.3281
 7515SOL    HW134181   1.983   2.350   0.599 -0.2241 -1.1537  0.0746
 7515SOL    HW234182   2.013   2.235   0.681 -0.9580 -0.8527  1.0304
 7516SOL     OW34183   2.159   2.226   6.228 -0.2335  0.7697 -0.0984
 7516SOL    HW134184   2.185   2.176   6.150 -0.3511  0.1373  0.2724
 7516SOL    HW234185   2.066   2.221   6.206  0.2645 -0.8719 -1.8524
 7517SOL     OW34186   0.118   2.084   1.102  0.1246 -0.2276  0.4751
 7517SOL    HW134187   0.083   2.059   1.187  2.7557 -0.6261  1.4231
 7517SOL    HW234188   0.068   2.165   1.088  0.0624 -0.2898  0.3329
 7518SOL     OW34189   0.440   1.290   9.221 -0.0136  0.4035 -0.1855
 7518SOL    HW134190   0.413   1.234   9.294 -1.7059 -1.8386 -2.5494
 7518SOL    HW234191   0.510   1.230   9.197  1.1115  1.5937  0.1451
 7519SOL     OW34192   2.454   3.365   4.139  0.8586 -0.1055  0.4825
 7519SOL    HW134193   2.389   3.324   4.196  0.8017 -0.2438  0.3187
 7519SOL    HW234194   2.524   3.379   4.203  0.9230  0.9252  0.1919
 7520SOL     OW34195   3.895   1.223   7.611 -0.5441  0.2787  0.9201
 7520SOL    HW134196   3.869   1.257   7.697 -1.2484  1.1397  0.3707
 7520SOL    HW234197   3.956   1.291   7.580 -0.6416 -0.4154 -0.7904
 7521SOL     OW34198   2.500   2.167   6.026 -0.0344 -0.6024  0.2112
 7521SOL    HW134199   2.409   2.160   5.997  0.6035  1.5442 -2.3531
 7521SOL    HW234200   2.542   2.172   5.940 -0.0760 -0.5797  0.1919
 7522SOL     OW34201   2.376   1.422   9.497  0.5765  0.5002  0.1269
 7522SOL    HW134202   2.344   1.334   9.517 -0.5907  1.2328  1.4736
 7522SOL    HW234203   2.424   1.439   9.577  1.3809  0.2523 -0.3061
 7523SOL     OW34204   1.789   0.474   8.929  0.3208  0.3064  0.9431
 7523SOL    HW134205   1.704   0.436   8.951  1.2676 -1.5313  1.4273
 7523SOL    HW234206   1.785   0.559   8.973 -2.8618  0.7416 -0.1793
 7524SOL     OW34207   1.210   3.730  16.938 -0.4830  0.2155  0.5371
 7524SOL    HW134208   1.169   3.787  16.874 -0.3620  0.0875  0.3454
 7524SOL    HW234209   1.297   3.767  16.953 -1.1025  1.6363  0.6129
 7525SOL     OW34210   2.567   4.051   9.926  0.4624 -0.2253 -0.0664
 7525SOL    HW134211   2.497   4.106   9.892 -1.3284 -1.5235  1.4493
 7525SOL    HW234212   2.524   4.007  10.000 -0.6638  0.7043 -0.1640
 7526SOL     OW34213   2.279   2.952  10.224  0.2207 -0.0429 -0.7924
 7526SOL    HW134214   2.200   2.997  10.195  1.6518  0.7655 -3.3679
 7526SOL    HW234215   2.286   2.885  10.156 -0.6365 -0.4130 -0.5266
 7527SOL     OW34216   0.434   3.394   9.540  0.1970  0.0394  0.5036
 7527SOL    HW134217   0.529   3.388   9.545  0.1249 -0.9071  0.6589
 7527SOL    HW234218   0.418   3.466   9.601 -1.8015 -1.4189  1.6983
 7528SOL     OW34219   0.213   0.592   5.904  0.3283  0.2046 -0.0127
 7528SOL    HW134220   0.124   0.629   5.903  0.4706  0.6016  2.4491
 7528SOL    HW234221   0.196   0.499   5.893 -3.0976  0.7107  0.9030
 7529SOL     OW34222   4.554   1.366   2.943  0.2893 -0.7407  0.5548
 7529SOL    HW134223   4.621   1.299   2.954  0.4900 -0.6925 -0.3778
 7529SOL    HW234224   4.544   1.369   2.847  3.2449 -1.2720  0.2261
 7530SOL     OW34225   2.000   0.308  12.618  0.4019  0.2980  0.0429
 7530SOL    HW134226   1.913   0.311  12.659  2.0704  0.8849  3.4960
 7530SOL    HW234227   2.023   0.399  12.602 -0.3853  0.5404  0.2672
 7531SOL     OW34228   4.113   4.064   7.416  0.0049 -0.3933  0.0498
 7531SOL    HW134229   4.057   3.994   7.381 -1.0963  0.8341 -0.6319
 7531SOL    HW234230   4.190   4.056   7.359  1.0513 -1.3064  1.6005
 7532SOL     OW34231   3.084   0.638   3.771 -0.4106 -0.7053  0.0348
 7532SOL    HW134232   3.071   0.627   3.865 -1.1455  1.5059  0.1934
 7532SOL    HW234233   3.106   0.551   3.738  0.7621 -0.4210  0.0607
 7533SOL     OW34234   1.535   2.706   9.210  0.1739  0.2923  0.3762
 7533SOL    HW134235   1.470   2.769   9.240  0.3029  0.3219  0.5987
 7533SOL    HW234236   1.490   2.622   9.218  1.1463 -0.2165  0.5187
 7534SOL     OW34237   2.325   2.842   2.785 -0.2397 -0.0809 -0.2916
 7534SOL    HW134238   2.242   2.799   2.806 -0.1499 -0.5624 -0.9192
 7534SOL    HW234239   2.341   2.803   2.699 -0.4546  1.0391 -0.8294
 7535SOL     OW34240   3.093   4.305  12.469  0.5405 -0.4293  0.0050
 7535SOL    HW134241   3.167   4.341  12.518  0.1666  0.5867 -0.1765
 7535SOL    HW234242   3.037   4.383  12.471  0.9871 -0.0952 -0.4163
 7536SOL     OW34243   2.640   4.485   8.712  0.4521  0.4025  1.1113
 7536SOL    HW134244   2.704   4.421   8.680 -1.2192 -0.8031  0.1485
 7536SOL    HW234245   2.687   4.536   8.777 -0.8941  2.4380  0.4707
 7537SOL     OW34246   2.498   1.054   6.837 -0.2449  0.0287  0.1279
 7537SOL    HW134247   2.590   1.046   6.860 -0.1623  0.8747  0.0669
 7537SOL    HW234248   2.500   1.054   6.742 -0.2519 -0.9389  0.1248
 7538SOL     OW34249   1.807   3.605   6.601 -0.0839 -0.1910  0.6357
 7538SOL    HW134250   1.858   3.679   6.567 -0.6039 -0.9211 -1.7188
 7538SOL    HW234251   1.736   3.586   6.540  0.6426  2.1258 -0.9242
 7539SOL     OW34252   2.525   2.506   9.163  0.0913  0.6422  0.4524
 7539SOL    HW134253   2.568   2.589   9.142 -3.2677  2.1208 -0.6018
 7539SOL    HW234254   2.574   2.474   9.238  0.8195 -0.6754 -0.5887
 7540SOL     OW34255   3.019   3.227   0.966  0.2988 -0.2504 -0.0256
 7540SOL    HW134256   3.058   3.314   0.965 -1.2470  0.4660  2.1281
 7540SOL    HW234257   3.079   3.172   0.916  0.9988  0.7932 -0.3199
 7541SOL     OW34258   4.158   1.074   0.075 -1.1603  0.0808  0.1382
 7541SOL    HW134259   4.114   1.090  17.764  0.9074 -0.3241 -1.0339
 7541SOL    HW234260   4.124   0.995   0.118  0.1161 -0.9174 -0.6680
 7542SOL     OW34261   3.395   1.536   5.526 -0.9772  0.4289  0.3047
 7542SOL    HW134262   3.386   1.561   5.434  2.1942 -0.6559 -0.2975
 7542SOL    HW234263   3.441   1.612   5.560 -0.6239  0.8093 -1.0637
 7543SOL     OW34264   2.384   3.987   0.013 -0.3966  0.3024  0.2380
 7543SOL    HW134265   2.454   4.042   0.048  0.3988  0.1799 -1.1830
 7543SOL    HW234266   2.375   4.029  17.700  0.6571  1.6674  0.7965
 7544SOL     OW34267   3.002   1.840   7.770 -0.6019 -0.0135  0.1441
 7544SOL    HW134268   3.067   1.909   7.786  0.1014 -0.4852 -0.7195
 7544SOL    HW234269   2.934   1.887   7.721  0.7044 -0.6667 -2.2994
 7545SOL     OW34270   1.047   0.225  15.673 -0.2902  0.1415 -0.6411
 7545SOL    HW134271   0.954   0.231  15.692 -0.1688  0.1217 -0.0319
 7545SOL    HW234272   1.050   0.135  15.640 -2.1193 -0.6156  1.2886
 7546SOL     OW34273   3.644   2.728  12.904 -0.2094 -0.3717  0.9678
 7546SOL    HW134274   3.605   2.670  12.839 -1.1016  3.3957 -1.7923
 7546SOL    HW234275   3.716   2.666  12.921  1.0302  0.5521 -0.9305
 7547SOL     OW34276   4.373   3.378  12.563 -0.2889  0.5071 -0.4284
 7547SOL    HW134277   4.430   3.401  12.489  1.3071  1.4609  1.0885
 7547SOL    HW234278   4.289   3.360  12.521 -0.5599 -1.1466  0.8385
 7548SOL     OW34279   0.358   3.899  12.565 -0.1029  0.0941 -0.3262
 7548SOL    HW134280   0.446   3.873  12.537  0.3661  2.0283 -0.6380
 7548SOL    HW234281   0.307   3.850  12.500  1.8431 -2.9587  0.4587
 7549SOL     OW34282   4.487   1.514  11.476 -0.2711 -0.1958 -0.8012
 7549SOL    HW134283   4.425   1.547  11.542 -0.3353 -1.9683  0.0548
 7549SOL    HW234284   4.565   1.569  11.479 -0.5673  0.1894 -0.0987
 7550SOL     OW34285   3.287   0.823  17.417 -0.7574  0.0599  0.6068
 7550SOL    HW134286   3.377   0.848  17.396 -0.6646 -1.0452 -0.2786
 7550SOL    HW234287   3.255   0.828  17.327 -0.7932  1.9109  0.7225
 7551SOL     OW34288   0.016   1.793   8.160 -0.1332  0.1154  0.2851
 7551SOL    HW134289   0.012   1.715   8.215  0.3489 -0.0536  0.0790
 7551SOL    HW234290   0.100   1.834   8.182 -0.0499  1.2056 -2.0580
 7552SOL     OW34291   1.553   0.975   7.356  0.0823  0.6546 -0.3405
 7552SOL    HW134292   1.625   0.911   7.349 -0.9220 -0.7282  1.8972
 7552SOL    HW234293   1.520   0.955   7.444  2.5249  0.3986  0.5178
 7553SOL     OW34294   3.279   3.662   0.497 -0.0047  0.5286  0.2246
 7553SOL    HW134295   3.362   3.657   0.544 -1.9717  0.7340  3.7179
 7553SOL    HW234296   3.213   3.620   0.552 -1.0013  2.0684  0.1974
 7554SOL     OW34297   3.032   2.552   8.341 -0.0663 -0.1448  0.3439
 7554SOL    HW134298   3.089   2.629   8.336  1.2670 -1.1283  0.7009
 7554SOL    HW234299   3.031   2.522   8.432  2.3836 -0.9833  0.1018
 7555SOL     OW34300   0.147   0.943  15.678  0.6457 -0.4335  0.4201
 7555SOL    HW134301   0.101   1.015  15.635  2.2123  0.5653  0.4189
 7555SOL    HW234302   0.219   0.932  15.616  1.1657  2.6534  0.4956
 7556SOL     OW34303   4.084   0.921   2.623  0.1473  0.4196  0.4361
 7556SOL    HW134304   4.075   0.995   2.563  1.3566 -0.0840 -0.3725
 7556SOL    HW234305   4.033   0.854   2.579 -2.2307  1.7533  1.1548
 7557SOL     OW34306   1.559   4.212   5.583 -0.4523  0.4421  0.1555
 7557SOL    HW134307   1.492   4.276   5.605 -2.1119 -0.6451 -1.6910
 7557SOL    HW234308   1.516   4.139   5.627  1.5443 -1.1855 -0.5884
 7558SOL     OW34309   1.782   1.444   2.568 -0.3095  0.2591 -0.1652
 7558SOL    HW134310   1.688   1.462   2.569 -0.5274 -0.8066 -1.7419
 7558SOL    HW234311   1.805   1.459   2.659  2.0619 -3.1480 -0.1947
 7559SOL     OW34312   3.917   0.021  10.546  0.4780  0.4031  0.2772
 7559SOL    HW134313   3.973   0.022  10.469  1.4138  2.0361  0.9732
 7559SOL    HW234314   3.898   0.114  10.556  3.2497  0.8451  1.5425
 7560SOL     OW34315   4.035   2.520   3.382  0.4032 -0.4097  0.1929
 7560SOL    HW134316   3.944   2.508   3.353  0.2465  0.4367  0.3324
 7560SOL    HW234317   4.030   2.592   3.446  1.6975  0.5910 -0.8251
 7561SOL     OW34318   0.709   2.315  10.757 -0.3051  0.1254  0.0408
 7561SOL    HW134319   0.757   2.348  10.681  1.3771  1.5497  1.7102
 7561SOL    HW234320   0.720   2.391  10.814 -1.0343  0.1528  0.1454
 7562SOL     OW34321   4.504   1.123  15.245 -0.0473 -0.5773  0.5558
 7562SOL    HW134322   4.489   1.059  15.314  3.0799 -0.7257  1.1280
 7562SOL    HW234323   4.425   1.176  15.248 -0.7999 -1.5744 -1.4007
 7563SOL     OW34324   1.989   1.617   5.387 -0.1641  0.3176  0.2727
 7563SOL    HW134325   2.073   1.576   5.409 -0.0679 -1.5572 -3.6058
 7563SOL    HW234326   1.967   1.637   5.478  0.5168  0.0199  0.5100
 7564SOL     OW34327   2.146   3.731  15.746  0.4307  0.0642  0.6886
 7564SOL    HW134328   2.105   3.691  15.822 -0.6659  2.3769  1.3212
 7564SOL    HW234329   2.225   3.755  15.794  1.9125 -2.0160 -0.7146
 7565SOL     OW34330   4.521   0.843   5.638  0.6286  0.2425  0.8965
 7565SOL    HW134331   4.600   0.791   5.624  1.3390  1.3973  0.7056
 7565SOL    HW234332   4.555   0.917   5.688 -0.2360  2.4399 -1.8232
 7566SOL     OW34333   0.974   1.527  13.526 -0.3352  0.3497 -0.0748
 7566SOL    HW134334   0.941   1.602  13.475 -0.3474 -0.4368 -1.2285
 7566SOL    HW234335   0.890   1.496  13.559 -0.6848 -0.1435 -1.4293
 7567SOL     OW34336   2.365   0.273   2.305  0.1957 -0.3665  0.3388
 7567SOL    HW134337   2.288   0.239   2.351 -0.3382  1.2717  0.6572
 7567SOL    HW234338   2.374   0.200   2.244  0.7852 -0.0975  0.1100
 7568SOL     OW34339   0.785   0.444   7.276  0.0332 -0.0912  0.6793
 7568SOL    HW134340   0.720   0.494   7.226  0.3733 -0.6003 -0.2720
 7568SOL    HW234341   0.866   0.458   7.228 -0.8894  0.7430 -0.6205
 7569SOL     OW34342   1.537   1.841  12.913 -0.3748 -0.7620 -0.6910
 7569SOL    HW134343   1.466   1.804  12.964 -0.1524 -1.0041 -0.5543
 7569SOL    HW234344   1.606   1.781  12.940 -1.1622 -1.1415  0.4572
 7570SOL     OW34345   3.265   3.058  13.080 -0.3584  0.1920 -0.2671
 7570SOL    HW134346   3.302   3.033  13.164 -1.8027  2.4976  1.0694
 7570SOL    HW234347   3.333   3.117  13.048 -1.1070  0.9634 -0.4237
 7571SOL     OW34348   4.199   1.823   5.396 -0.0330 -0.0999 -0.0961
 7571SOL    HW134349   4.266   1.882   5.362  0.5138  0.8080  2.6473
 7571SOL    HW234350   4.255   1.767   5.449  1.6844  0.9350 -0.8240
 7572SOL     OW34351   2.665   4.252  11.683  0.3551 -0.3702  0.0865
 7572SOL    HW134352   2.679   4.335  11.730  0.6684 -0.7074  0.5814
 7572SOL    HW234353   2.671   4.182  11.748  2.1621 -0.0462  0.2800
 7573SOL     OW34354   1.553   3.086  13.579  0.5854  0.6895 -0.2443
 7573SOL    HW134355   1.547   3.079  13.675 -1.2331 -2.4918 -0.5794
 7573SOL    HW234356   1.488   3.156  13.578 -0.1317  0.0257 -0.2905
 7574SOL     OW34357   4.007   1.403  10.974  0.3454 -0.1499 -0.2458
 7574SOL    HW134358   4.088   1.452  10.984 -0.3805  0.8262  0.7916
 7574SOL    HW234359   3.955   1.461  10.918 -1.3255  1.3717  2.8982
 7575SOL     OW34360   3.785   0.254   3.487  0.1206 -0.1942  0.1886
 7575SOL    HW134361   3.690   0.261   3.501  0.3616  2.2629  0.4776
 7575SOL    HW234362   3.811   0.248   3.579  1.6572 -1.4304 -0.3173
 7576SOL     OW34363   1.549   2.437   6.807 -0.5798  0.7199 -0.6196
 7576SOL    HW134364   1.621   2.424   6.867 -2.8325  1.7897  2.3263
 7576SOL    HW234365   1.504   2.353   6.814 -0.0459  0.1417 -3.8473
 7577SOL     OW34366   1.745   0.980   6.098 -0.2875  0.4978  0.2359
 7577SOL    HW134367   1.715   1.013   6.182 -0.5096  0.2588  0.2537
 7577SOL    HW234368   1.824   0.937   6.130 -0.9366 -1.2853 -0.5003
 7578SOL     OW34369   0.622   1.335   2.093  0.1038 -0.1113  0.7314
 7578SOL    HW134370   0.682   1.350   2.020 -0.4025 -2.7138 -0.2329
 7578SOL    HW234371   0.554   1.399   2.075  0.4589  0.0359 -0.0628
 7579SOL     OW34372   1.102   2.576   4.828 -0.3908 -0.5258  0.1151
 7579SOL    HW134373   1.175   2.519   4.852 -0.8340 -1.8133 -1.6314
 7579SOL    HW234374   1.084   2.629   4.906  2.4277  1.2438 -0.4271
 7580SOL     OW34375   2.484   3.427   6.150 -1.1921 -0.5299  0.2754
 7580SOL    HW134376   2.420   3.496   6.167 -1.8248 -1.0992  0.2040
 7580SOL    HW234377   2.444   3.351   6.192 -1.5734 -0.1040  0.6897
 7581SOL     OW34378   0.490   2.180   2.841  0.5159  0.1178  0.1181
 7581SOL    HW134379   0.472   2.137   2.924  1.1423  1.1645  0.7906
 7581SOL    HW234380   0.513   2.269   2.869 -2.7649  0.2582  2.3124
 7582SOL     OW34381   0.229   0.831   4.071 -0.0197 -0.0922  0.5517
 7582SOL    HW134382   0.138   0.822   4.041  0.6244  0.7177 -1.6594
 7582SOL    HW234383   0.266   0.758   4.021 -3.0888  0.0565 -1.9908
 7583SOL     OW34384   1.676   0.645   7.197 -0.0726 -0.1888 -0.6660
 7583SOL    HW134385   1.721   0.566   7.227  2.4432  0.7227 -1.9684
 7583SOL    HW234386   1.691   0.691   7.280 -2.0421 -0.6763 -0.0432
 7584SOL     OW34387   0.259   0.870   2.168  0.5062 -0.0575 -0.0325
 7584SOL    HW134388   0.229   0.819   2.243  1.4686  1.3935  1.3401
 7584SOL    HW234389   0.241   0.959   2.198  2.6135 -0.4378  2.3765
 7585SOL     OW34390   0.940   4.602  16.115  0.5874  0.3954 -0.0108
 7585SOL    HW134391   1.022   4.560  16.086 -0.1283  0.4269 -2.0741
 7585SOL    HW234392   0.902   4.654  16.044 -0.2582 -3.0058 -2.0861
 7586SOL     OW34393   4.250   4.264  14.859 -0.0193  0.4793 -0.5296
 7586SOL    HW134394   4.166   4.248  14.902  0.0923 -3.6905 -1.9362
 7586SOL    HW234395   4.265   4.358  14.875  2.4470  0.1058 -0.6925
 7587SOL     OW34396   2.231   4.399   2.284  0.0679  0.8973  0.4844
 7587SOL    HW134397   2.173   4.467   2.250 -1.6628 -1.9681 -2.2440
 7587SOL    HW234398   2.246   4.438   2.370 -0.6702  0.3160  0.8786
 7588SOL     OW34399   2.151   3.551  11.048  0.5016 -0.0545 -0.1646
 7588SOL    HW134400   2.099   3.483  11.091 -2.0634  1.5078 -0.8184
 7588SOL    HW234401   2.087   3.575  10.981  1.6150  0.3990 -1.0659
 7589SOL     OW34402   2.114   3.023   3.048  0.0019 -0.1549  0.0372
 7589SOL    HW134403   2.077   2.966   3.115  0.6407  0.4745  0.9092
 7589SOL    HW234404   2.049   3.094   3.046  1.6122  1.2992 -0.4649
 7590SOL     OW34405   2.235   4.335   5.182 -0.4024 -0.0454 -0.1484
 7590SOL    HW134406   2.148   4.326   5.222 -0.5520 -2.2068 -0.9661
 7590SOL    HW234407   2.224   4.306   5.091  1.2578 -0.6907 -0.1317
 7591SOL     OW34408   3.955   1.039  13.357  0.1972 -0.3758 -0.5128
 7591SOL    HW134409   3.960   1.078  13.445  0.1436 -2.1867  0.3081
 7591SOL    HW234410   3.959   0.948  13.386 -1.9539  0.1081  1.3650
 7592SOL     OW34411   1.676   4.706   3.173 -0.0980  0.2397  0.1503
 7592SOL    HW134412   1.685   0.053   3.143  4.1371 -0.9214 -2.1456
 7592SOL    HW234413   1.581   4.700   3.171 -0.0633 -0.1964 -0.0977
 7593SOL     OW34414   3.481   2.132   8.416  0.1896  0.4672  0.3040
 7593SOL    HW134415   3.560   2.160   8.461 -0.1301  0.0270  1.1225
 7593SOL    HW234416   3.419   2.091   8.476 -0.2100  2.2109  1.0882
 7594SOL     OW34417   3.307   3.847  13.421  0.9507  0.3303  0.0627
 7594SOL    HW134418   3.332   3.867  13.331 -0.8263 -0.1152 -0.5384
 7594SOL    HW234419   3.278   3.757  13.407 -1.2514  1.2033 -1.0624
 7595SOL     OW34420   4.578   4.595   4.196 -0.2656  0.0182  0.0508
 7595SOL    HW134421   4.567   4.580   4.289  1.1973  1.7554  0.4974
 7595SOL    HW234422   4.592   4.510   4.155 -0.8920 -0.2252  0.3569
 7596SOL     OW34423   4.444   0.405   6.952 -0.1805 -0.1044  0.1685
 7596SOL    HW134424   4.526   0.454   6.963  0.7241 -1.2764 -1.3448
 7596SOL    HW234425   4.473   0.321   6.986  1.3806 -0.3357 -1.7354
 7597SOL     OW34426   1.220   3.985  10.144 -0.1322  0.1898 -0.0621
 7597SOL    HW134427   1.207   4.028  10.228 -3.6545  1.1155 -1.1335
 7597SOL    HW234428   1.316   3.983  10.154 -0.3115 -1.2370  1.4548
 7598SOL     OW34429   0.906   4.281   8.556 -0.3538  0.2027  0.1366
 7598SOL    HW134430   0.811   4.287   8.560 -0.4186 -0.8918  0.1265
 7598SOL    HW234431   0.928   4.308   8.467  0.7408 -0.8136  0.1018
 7599SOL     OW34432   2.582   1.335   5.568  0.1606 -0.1277  0.2328
 7599SOL    HW134433   2.653   1.291   5.614 -0.7107  0.7949  2.5094
 7599SOL    HW234434   2.546   1.393   5.636  1.3354  1.2933 -0.3600
 7600SOL     OW34435   3.922   0.868   2.048  0.0827  0.2600  0.0933
 7600SOL    HW134436   3.865   0.798   2.014  0.5430 -1.0703  2.1217
 7600SOL    HW234437   3.940   0.912   1.965 -1.0594 -1.4771 -1.0844
 7601SOL     OW34438   3.343   1.574   2.392  0.0395 -0.3295 -0.5233
 7601SOL    HW134439   3.267   1.584   2.334 -0.3019  0.0529 -0.0142
 7601SOL    HW234440   3.296   1.558   2.474  1.8366 -1.2535  0.3152
 7602SOL     OW34441   4.676   0.667  17.530 -0.2219  0.0236 -0.2391
 7602SOL    HW134442   0.004   0.604  17.521 -1.1289 -1.0136 -0.2033
 7602SOL    HW234443   4.715   0.739  17.579 -0.4983  1.4237 -2.0721
 7603SOL     OW34444   3.292   3.548   6.050 -1.1295 -0.5398  0.1575
 7603SOL    HW134445   3.344   3.532   6.129 -0.7484 -0.5951 -0.1034
 7603SOL    HW234446   3.301   3.643   6.056 -0.5384 -0.5500 -0.5927
 7604SOL     OW34447   0.743   4.678  12.637  0.1111  0.1761 -0.0520
 7604SOL    HW134448   0.680   4.675  12.565  0.7997 -1.3088 -0.6016
 7604SOL    HW234449   0.751   4.585  12.659 -0.2490  0.4525  1.2427
 7605SOL     OW34450   3.492   1.307   2.260  0.0220 -0.3377  0.6059
 7605SOL    HW134451   3.498   1.398   2.231 -2.1935 -0.6093 -0.7207
 7605SOL    HW234452   3.399   1.287   2.247  0.0828  0.7710 -1.5043
 7606SOL     OW34453   3.761   3.061   2.368  0.6357  0.0761  0.1739
 7606SOL    HW134454   3.849   3.067   2.406  0.1530  0.6748  1.1986
 7606SOL    HW234455   3.778   3.033   2.278 -2.7422 -1.1303 -0.0688
 7607SOL     OW34456   3.408   3.709   3.610 -0.0716  0.0998  0.5654
 7607SOL    HW134457   3.356   3.649   3.664 -0.3515 -1.9246 -1.9402
 7607SOL    HW234458   3.352   3.729   3.535 -0.4859 -0.8925  0.6117
 7608SOL     OW34459   0.670   3.431  17.519  0.6235 -0.6206 -0.6747
 7608SOL    HW134460   0.671   3.526  17.527 -0.8112 -0.8753  2.5369
 7608SOL    HW234461   0.745   3.403  17.572 -0.9057 -0.8416  1.3811
 7609SOL     OW34462   3.259   3.871  15.236  0.6559  0.0564  0.7684
 7609SOL    HW134463   3.176   3.834  15.264  0.4523  0.8069  1.1674
 7609SOL    HW234464   3.225   3.907  15.154 -3.3990 -1.5320  1.7488
 7610SOL     OW34465   2.910   1.309   5.973 -0.2134 -0.1652 -0.7046
 7610SOL    HW134466   2.858   1.378   6.014 -0.6980 -1.2653  0.5385
 7610SOL    HW234467   2.870   1.307   5.887 -0.4939  1.0660 -0.5964
 7611SOL     OW34468   3.286   1.854  10.558  0.3387  0.4505  0.4412
 7611SOL    HW134469   3.208   1.894  10.599 -0.2049  1.2186 -1.3510
 7611SOL    HW234470   3.260   1.813  10.476  4.4851 -1.4948  0.1344
 7612SOL     OW34471   2.045   3.467  10.321 -0.0740 -0.7078  0.4552
 7612SOL    HW134472   2.101   3.411  10.267 -0.1802 -1.4792  1.1499
 7612SOL    HW234473   1.972   3.470  10.259 -0.0689  1.4037  0.5684
 7613SOL     OW34474   0.844   0.076  15.910  0.1746 -0.1793  0.3652
 7613SOL    HW134475   0.826   4.737  15.867  2.3716 -0.6332  0.3162
 7613SOL    HW234476   0.878   0.122  15.834  1.8575 -0.9011  0.6786
 7614SOL     OW34477   4.114   0.194   3.851 -0.1304  0.4201  0.2842
 7614SOL    HW134478   4.079   0.157   3.932 -1.1522 -1.7431 -1.1361
 7614SOL    HW234479   4.036   0.247   3.832 -0.8821 -0.4788  0.8505
 7615SOL     OW34480   0.354   0.252  14.952  0.1676  0.0875 -0.0031
 7615SOL    HW134481   0.306   0.276  15.031  2.3417  1.9133  0.7620
 7615SOL    HW234482   0.341   0.157  14.949  0.4684  0.0241  0.6991
 7616SOL     OW34483   3.696   0.198   1.928  0.4069 -0.0537 -0.0306
 7616SOL    HW134484   3.718   0.274   1.981  0.8936 -0.7796  0.7948
 7616SOL    HW234485   3.759   0.131   1.953  2.5501  1.7292 -0.5684
 7617SOL     OW34486   1.015   3.986   4.919  0.3482 -0.0806  0.5966
 7617SOL    HW134487   1.050   3.897   4.930 -1.3267 -1.0170 -1.5267
 7617SOL    HW234488   0.980   3.979   4.830 -1.9112  0.9120  1.4250
 7618SOL     OW34489   1.591   1.559   8.829  0.2650  0.5292 -0.1374
 7618SOL    HW134490   1.542   1.588   8.752 -2.1494  0.3879  1.3332
 7618SOL    HW234491   1.685   1.569   8.820  0.5231 -2.2135 -0.4624
 7619SOL     OW34492   3.641   4.743   4.466  0.1428  0.1769  0.4257
 7619SOL    HW134493   3.595   0.056   4.403 -1.0043  0.0408  1.1395
 7619SOL    HW234494   3.625   0.057   4.541  0.3890 -2.1404  2.2353
 7620SOL     OW34495   4.378   0.954   9.358  0.0983  0.6087  0.1279
 7620SOL    HW134496   4.438   0.907   9.299 -0.3647  0.7936 -0.4856
 7620SOL    HW234497   4.332   1.018   9.305 -0.0942  0.4133  0.0594
 7621SOL     OW34498   1.838   3.166   5.816  0.0281  0.1482 -0.6015
 7621SOL    HW134499   1.752   3.153   5.856 -0.9560  1.1278 -2.4167
 7621SOL    HW234500   1.882   3.086   5.843  1.1012  0.0974 -2.4705
 7622SOL     OW34501   3.523   4.200   3.671  0.1612  0.1494  0.2163
 7622SOL    HW134502   3.617   4.199   3.692 -0.1038  0.4154  1.4122
 7622SOL    HW234503   3.494   4.114   3.701  0.5529 -0.1674 -0.3304
 7623SOL     OW34504   3.960   2.034   0.056  0.2303  0.1532  0.5293
 7623SOL    HW134505   3.941   2.087  17.751 -0.4956 -1.5299 -0.4490
 7623SOL    HW234506   3.922   1.949   0.033  2.4284 -0.3761 -1.1788
 7624SOL     OW34507   4.683   2.022  10.152 -0.3567 -0.0924  0.0270
 7624SOL    HW134508   4.619   1.951  10.142 -0.2482 -0.2752  0.6372
 7624SOL    HW234509   4.710   2.003  10.242 -0.1813 -2.2940 -0.4747
 7625SOL     OW34510   4.153   0.098  11.289  0.2610 -0.1599  0.0506
 7625SOL    HW134511   4.076   0.139  11.248 -0.0063  0.4824  1.2050
 7625SOL    HW234512   4.234   0.137  11.255  0.5269 -0.6175  0.1630
 7626SOL     OW34513   4.684   1.203  16.136 -0.1917  0.4992  0.1202
 7626SOL    HW134514   0.035   1.208  16.134 -0.0045 -3.1301  0.3929
 7626SOL    HW234515   4.670   1.108  16.134 -1.1410  0.6092  1.3526
 7627SOL     OW34516   2.675   4.466   0.822 -0.2196 -0.3637 -0.2168
 7627SOL    HW134517   2.697   4.432   0.908  1.3825 -0.4523 -0.6550
 7627SOL    HW234518   2.763   4.487   0.789  0.0399  0.2394  0.8640
 7628SOL     OW34519   3.059   3.778   5.156 -0.1495 -0.4866 -0.3519
 7628SOL    HW134520   2.971   3.741   5.165  0.0445 -0.3453  2.0240
 7628SOL    HW234521   3.105   3.696   5.141 -0.7197 -0.6244 -1.3482
 7629SOL     OW34522   0.736   3.404   6.669  0.2283 -0.0705  0.4060
 7629SOL    HW134523   0.807   3.447   6.716  0.9059 -1.0053  0.2419
 7629SOL    HW234524   0.764   3.314   6.689 -1.4182 -0.5725  0.4539
 7630SOL     OW34525   4.106   4.416   6.717 -0.0837  0.2302  0.4334
 7630SOL    HW134526   4.095   4.477   6.790 -0.1932  0.1947  0.4473
 7630SOL    HW234527   4.033   4.355   6.728  0.1606  0.2879  2.3412
 7631SOL     OW34528   3.406   0.732   0.607  0.8445  0.2702  0.4528
 7631SOL    HW134529   3.451   0.812   0.580  1.5052 -0.6047 -1.0164
 7631SOL    HW234530   3.325   0.780   0.623  0.8662 -0.5894  3.1178
 7632SOL     OW34531   0.269   3.694  12.995 -0.1568 -0.4989 -0.0210
 7632SOL    HW134532   0.190   3.724  12.949  0.0214 -0.2957 -0.1902
 7632SOL    HW234533   0.222   3.679  13.078  0.5440 -0.1751  0.4391
 7633SOL     OW34534   2.361   0.417   5.307  0.4052  0.0399 -0.1379
 7633SOL    HW134535   2.341   0.329   5.340  1.9979 -0.2212  0.1548
 7633SOL    HW234536   2.295   0.431   5.239  1.0565 -1.3079 -1.0466
 7634SOL     OW34537   2.633   0.441   6.722 -0.1137  0.3959  0.5682
 7634SOL    HW134538   2.590   0.485   6.796 -1.4676 -0.0435  0.0461
 7634SOL    HW234539   2.682   0.371   6.766  0.0456  1.0365  1.3973
 7635SOL     OW34540   2.489   1.159   3.701  0.5456 -0.5304  0.3669
 7635SOL    HW134541   2.542   1.101   3.647  1.0451  0.5710 -0.3259
 7635SOL    HW234542   2.435   1.106   3.760 -0.1734 -0.1979  0.0146
 7636SOL     OW34543   1.145   1.039   7.524  0.0301  0.1352 -0.0011
 7636SOL    HW134544   1.198   1.001   7.454  1.0777  0.9719  0.3453
 7636SOL    HW234545   1.111   1.120   7.487 -1.7249 -0.6559 -0.1113
 7637SOL     OW34546   3.356   4.345   4.891 -0.2493  0.0964 -0.0952
 7637SOL    HW134547   3.324   4.349   4.981 -2.3785 -1.7976 -0.7854
 7637SOL    HW234548   3.301   4.283   4.844 -0.8348  0.5249  0.0259
 7638SOL     OW34549   2.370   3.851   2.236  0.5671 -0.2736 -0.2039
 7638SOL    HW134550   2.289   3.893   2.264  0.5434 -0.2286 -0.3383
 7638SOL    HW234551   2.427   3.928   2.230 -0.9014  0.7967 -0.5217
 7639SOL     OW34552   3.263   4.480   1.712 -0.0386 -0.3848 -0.0998
 7639SOL    HW134553   3.179   4.460   1.670  0.0723  2.3243 -1.5894
 7639SOL    HW234554   3.257   4.405   1.772 -0.5397 -1.2269 -1.1953
 7640SOL     OW34555   1.134   2.081  14.532 -0.0048  0.0633  0.3441
 7640SOL    HW134556   1.067   2.022  14.565  0.6075 -1.9531 -2.0063
 7640SOL    HW234557   1.073   2.153  14.518  0.8783  1.1284  1.9651
 7641SOL     OW34558   3.908   1.247   2.883 -0.1324  0.0999 -0.3161
 7641SOL    HW134559   3.963   1.325   2.883  0.6487 -0.4545 -1.5808
 7641SOL    HW234560   3.896   1.228   2.790  1.5999 -1.4274 -0.2121
 7642SOL     OW34561   0.778   0.916   8.378  0.1014 -0.3726 -0.5410
 7642SOL    HW134562   0.684   0.936   8.379  0.8904  3.4416 -1.3881
 7642SOL    HW234563   0.787   0.851   8.448  0.9632 -0.1731 -0.4676
 7643SOL     OW34564   4.689   2.689  11.159  0.1761  0.1471 -0.1826
 7643SOL    HW134565   4.615   2.744  11.134 -0.9582 -0.8700  0.8862
 7643SOL    HW234566   0.009   2.758  11.177  0.0017 -0.1035  1.3851
 7644SOL     OW34567   1.346   1.382   6.380 -0.2591 -0.2347 -0.0383
 7644SOL    HW134568   1.382   1.461   6.339 -1.4323  0.8429  0.9914
 7644SOL    HW234569   1.373   1.411   6.467  1.8880  1.3634 -1.2195
 7645SOL     OW34570   4.033   1.922   0.730 -0.5971 -0.1008  0.6011
 7645SOL    HW134571   4.049   1.843   0.781 -3.2191 -0.8777  0.2697
 7645SOL    HW234572   4.115   1.934   0.682  0.3437 -1.0667  1.9945
 7646SOL     OW34573   4.000   3.978  11.936 -0.6135  0.8111  0.4531
 7646SOL    HW134574   4.083   3.931  11.943 -1.3892 -0.4990  0.8498
 7646SOL    HW234575   3.945   3.905  11.966  0.3226 -0.3923 -0.7570
 7647SOL     OW34576   3.630   4.456   4.973 -0.3236 -0.0589 -0.1337
 7647SOL    HW134577   3.616   4.543   5.012  2.2833 -0.0747  0.7971
 7647SOL    HW234578   3.549   4.442   4.923 -0.6244 -0.0485  0.3472
 7648SOL     OW34579   3.807   2.954  11.443 -0.5006  0.3202 -0.0756
 7648SOL    HW134580   3.826   3.020  11.376  0.4910  0.3562  0.2413
 7648SOL    HW234581   3.891   2.958  11.489  0.0153 -1.9889 -0.7990
 7649SOL     OW34582   2.442   1.562  10.496  0.0912 -0.4688 -0.0374
 7649SOL    HW134583   2.377   1.631  10.481 -0.8693 -0.3736  4.5330
 7649SOL    HW234584   2.379   1.491  10.488 -2.0565  1.5604 -1.0772
 7650SOL     OW34585   2.731   1.529   0.739 -0.3974 -0.5114 -0.3194
 7650SOL    HW134586   2.815   1.562   0.770 -1.1222 -0.8306  2.0028
 7650SOL    HW234587   2.699   1.611   0.702 -0.0297 -0.0477  0.3821
 7651SOL     OW34588   3.579   0.584   8.750  0.9105 -0.1121  0.3242
 7651SOL    HW134589   3.603   0.537   8.670 -1.8605  1.8310 -1.6360
 7651SOL    HW234590   3.601   0.668   8.712  2.2526 -0.9261 -0.6823
 7652SOL     OW34591   4.233   1.618   6.466  0.0642  0.2147 -0.2388
 7652SOL    HW134592   4.226   1.711   6.442 -1.5773  0.3155  0.6497
 7652SOL    HW234593   4.222   1.623   6.561  0.4298  0.4813 -0.2082
 7653SOL     OW34594   2.303   0.639   6.438 -0.4774  0.0220 -0.3336
 7653SOL    HW134595   2.395   0.643   6.463 -0.3756 -1.5746 -0.4555
 7653SOL    HW234596   2.280   0.546   6.442  0.0729 -0.0523  1.0520
 7654SOL     OW34597   0.371   4.342   0.496  0.2699  0.1168 -0.4081
 7654SOL    HW134598   0.442   4.327   0.435  1.1693 -1.1988  0.9790
 7654SOL    HW234599   0.339   4.252   0.498 -2.1537  1.0187  1.2989
 7655SOL     OW34600   0.011   4.643   2.767 -0.1178 -0.0476  0.5676
 7655SOL    HW134601   4.729   4.636   2.675  0.0172 -2.5790  0.7338
 7655SOL    HW234602   4.683   4.688   2.812  0.9383  2.8503 -0.6014
 7656SOL     OW34603   1.489   3.482  16.774 -0.0786  0.5132 -0.1562
 7656SOL    HW134604   1.561   3.444  16.723  1.4490  1.3297  1.3899
 7656SOL    HW234605   1.534   3.540  16.836  0.6859 -1.5074  1.1550
 7657SOL     OW34606   3.001   0.117   6.259  0.5370 -0.2642  0.3054
 7657SOL    HW134607   2.976   0.183   6.193  1.7496  0.2888  0.3936
 7657SOL    HW234608   3.069   0.071   6.210  1.1011  2.5166 -1.5843
 7658SOL     OW34609   3.753   0.596   7.356 -0.5289  0.5219  0.1960
 7658SOL    HW134610   3.682   0.572   7.416 -0.5692 -0.6403 -0.3120
 7658SOL    HW234611   3.825   0.562   7.408 -1.2461  0.2892  1.0444
 7659SOL     OW34612   3.344   0.671  10.559 -0.6424 -0.0740 -0.4784
 7659SOL    HW134613   3.434   0.703  10.567 -1.3679  1.6553  0.7789
 7659SOL    HW234614   3.300   0.728  10.622  1.4693  0.5041  0.4859
 7660SOL     OW34615   1.763   2.413   0.965 -0.0870  0.4523 -0.2072
 7660SOL    HW134616   1.680   2.429   0.921 -0.5282 -2.4146 -0.3843
 7660SOL    HW234617   1.738   2.349   1.031  0.7744  1.2509  0.9136
 7661SOL     OW34618   1.704   4.039  10.287  0.1734  0.3380 -0.2446
 7661SOL    HW134619   1.773   4.097  10.253 -1.2950  1.7134 -0.8776
 7661SOL    HW234620   1.746   3.997  10.362  0.4500 -1.4493 -1.3910
 7662SOL     OW34621   3.721   0.673  15.380 -0.4240  0.1370  0.6698
 7662SOL    HW134622   3.752   0.739  15.442  1.5778  1.8455 -2.1347
 7662SOL    HW234623   3.653   0.645  15.441  0.0556  0.1232  1.2013
 7663SOL     OW34624   0.926   0.985  14.437  0.0639 -0.4490 -0.4318
 7663SOL    HW134625   0.847   0.972  14.384 -0.0637  1.6204 -0.7576
 7663SOL    HW234626   0.887   1.015  14.519 -0.7465  0.0122 -0.9843
 7664SOL     OW34627   2.092   0.671   5.365 -0.3639  0.7289 -0.5234
 7664SOL    HW134628   2.085   0.611   5.439  1.2547  1.4508  0.2095
 7664SOL    HW234629   2.110   0.753   5.410 -0.3038  0.2812  0.2800
 7665SOL     OW34630   2.890   0.934   1.576  0.0798 -0.2910 -0.0267
 7665SOL    HW134631   2.895   0.960   1.484 -1.9929  0.5986  0.1160
 7665SOL    HW234632   2.910   0.841   1.569  1.4665  0.1412 -1.6224
 7666SOL     OW34633   1.454   3.721   4.997  0.2240 -0.3350 -0.0380
 7666SOL    HW134634   1.402   3.659   5.048  0.8191 -2.1258 -1.5932
 7666SOL    HW234635   1.434   3.687   4.910  1.1855 -0.3100 -0.2673
 7667SOL     OW34636   4.526   3.336   3.817 -0.0477 -0.6137 -0.6675
 7667SOL    HW134637   4.434   3.361   3.825 -0.5411 -2.2065 -1.2490
 7667SOL    HW234638   4.573   3.401   3.869 -1.5201 -0.0050 -0.1107
 7668SOL     OW34639   1.341   2.669   6.324  0.2544 -0.1580 -0.3190
 7668SOL    HW134640   1.309   2.728   6.393  0.6262  0.7444 -0.9208
 7668SOL    HW234641   1.369   2.728   6.254  0.9743  0.5969  0.6084
 7669SOL     OW34642   1.240   1.130   6.437  0.0967  0.1548 -0.0627
 7669SOL    HW134643   1.325   1.098   6.468 -0.8112 -0.8036  1.4622
 7669SOL    HW234644   1.267   1.218   6.412  1.5541 -0.0198  0.8660
 7670SOL     OW34645   2.731   2.842  15.141  0.0083 -0.4769 -0.6361
 7670SOL    HW134646   2.736   2.811  15.051  0.4432  2.1715 -1.5162
 7670SOL    HW234647   2.824   2.863  15.143  0.0764 -0.7337 -1.2019
 7671SOL     OW34648   3.919   3.892   6.724 -0.2226  0.2315 -0.3577
 7671SOL    HW134649   3.850   3.905   6.789 -0.4358  1.6970 -0.8816
 7671SOL    HW234650   3.886   3.815   6.678  0.8478 -0.3836 -0.1034
 7672SOL     OW34651   2.447   3.928   8.550  0.2066  0.0936  0.4781
 7672SOL    HW134652   2.433   3.849   8.497 -1.4974 -0.6101  1.9699
 7672SOL    HW234653   2.491   3.897   8.629  1.4523 -2.1872 -1.1152
 7673SOL     OW34654   2.503   2.868   8.070  0.0817 -0.8261 -0.1441
 7673SOL    HW134655   2.428   2.928   8.069  0.0810 -0.8447 -0.8536
 7673SOL    HW234656   2.461   2.785   8.093 -2.1966  0.8677  1.8042
 7674SOL     OW34657   2.077   4.350  10.662  0.3610 -0.3044  0.0406
 7674SOL    HW134658   2.015   4.328  10.732 -0.1899  2.0483  0.2772
 7674SOL    HW234659   2.155   4.302  10.691 -1.0575 -0.6051  3.3645
 7675SOL     OW34660   3.680   2.701   2.411  0.1856  0.3644 -0.0361
 7675SOL    HW134661   3.753   2.681   2.468  1.0832  2.1736 -0.5399
 7675SOL    HW234662   3.702   2.648   2.334 -0.6532  0.5901 -0.4391
 7676SOL     OW34663   2.683   3.146  15.682 -0.6178  0.9792 -0.2440
 7676SOL    HW134664   2.713   3.089  15.611 -1.0341  0.1766  0.2184
 7676SOL    HW234665   2.649   3.086  15.748  1.0363  1.4480  1.0183
 7677SOL     OW34666   4.550   2.036  14.583 -0.0843  0.3235  0.1971
 7677SOL    HW134667   4.566   2.007  14.673  0.2100  0.2976  0.1358
 7677SOL    HW234668   4.613   1.977  14.541 -0.3825  1.3841 -1.7385
 7678SOL     OW34669   4.617   4.674  12.205 -0.5601 -0.5364  0.0879
 7678SOL    HW134670   4.656   4.740  12.262  0.1468 -0.6537 -0.2580
 7678SOL    HW234671   4.666   4.696  12.126  0.2770  1.2966  1.1234
 7679SOL     OW34672   2.006   4.305   0.529  0.4745 -0.6404 -0.2790
 7679SOL    HW134673   1.997   4.226   0.583 -1.6055 -0.4498 -0.3601
 7679SOL    HW234674   1.937   4.363   0.559  0.6463 -0.3905 -0.3672
 7680SOL     OW34675   4.731   3.679  13.566 -0.4964 -0.0288 -0.0976
 7680SOL    HW134676   4.684   3.607  13.524 -0.8711 -0.5047  1.1235
 7680SOL    HW234677   0.080   3.677  13.541 -0.3941  1.2299  0.1855
 7681SOL     OW34678   2.816   0.181   2.325 -0.0237 -0.4248 -0.0714
 7681SOL    HW134679   2.786   0.228   2.247  1.6097  0.4417 -0.1780
 7681SOL    HW234680   2.774   0.096   2.312 -1.5152  0.3920 -0.5815
 7682SOL     OW34681   2.767   0.485   6.320  0.0026 -0.4545  0.8681
 7682SOL    HW134682   2.796   0.569   6.353 -0.9941 -0.1635  0.9888
 7682SOL    HW234683   2.717   0.440   6.388  1.3516 -1.8186  0.9586
 7683SOL     OW34684   2.741   3.842   7.226 -0.3096  0.1182  0.7695
 7683SOL    HW134685   2.785   3.909   7.278 -1.0840  1.5376 -0.4139
 7683SOL    HW234686   2.814   3.820   7.168 -0.8545 -1.3226  0.6248
 7684SOL     OW34687   2.599   0.121   4.449  0.7001  0.2698  0.0202
 7684SOL    HW134688   2.521   0.071   4.427 -0.5328  1.7619  1.0031
 7684SOL    HW234689   2.577   0.211   4.424 -0.2873 -0.3217 -1.1896
 7685SOL     OW34690   0.062   1.912   5.889 -0.5696  0.3818 -0.2322
 7685SOL    HW134691   0.022   1.985   5.937 -1.1493 -0.5661  0.7062
 7685SOL    HW234692   0.148   1.916   5.931  0.1598  1.8787 -1.8536
 7686SOL     OW34693   2.048   0.705   8.643  0.3564 -0.0535 -0.0455
 7686SOL    HW134694   2.062   0.664   8.558  2.2240  0.5704 -0.0612
 7686SOL    HW234695   2.081   0.645   8.710  1.1945  0.5885  0.1251
 7687SOL     OW34696   0.145   2.138   4.111  0.4186  0.2955 -0.0976
 7687SOL    HW134697   0.088   2.176   4.043  1.0492  0.6488 -0.4260
 7687SOL    HW234698   0.173   2.058   4.067 -0.5146 -0.3713  0.5354
 7688SOL     OW34699   1.111   4.371   2.592 -0.0545 -0.3847 -0.1949
 7688SOL    HW134700   1.129   4.322   2.511  1.6676 -1.3143  0.7464
 7688SOL    HW234701   1.023   4.336   2.605 -0.4520  0.7288  0.1607
 7689SOL     OW34702   3.498   2.157  12.167 -0.1345  0.0699  0.4098
 7689SOL    HW134703   3.474   2.243  12.202 -0.7240 -0.1863  0.6448
 7689SOL    HW234704   3.447   2.160  12.085 -0.0321 -2.4817  0.2696
 7690SOL     OW34705   3.075   0.303   9.832  0.6706  0.2369 -0.0725
 7690SOL    HW134706   3.067   0.394   9.861 -0.0779 -0.5022  2.0453
 7690SOL    HW234707   2.983   0.277   9.838  1.1198 -1.1120  1.0758
 7691SOL     OW34708   2.593   3.331   6.814  0.0565 -0.1639 -0.0907
 7691SOL    HW134709   2.569   3.266   6.879 -0.9657  1.7598  1.4383
 7691SOL    HW234710   2.676   3.369   6.844  0.7206 -1.9219  0.2647
 7692SOL     OW34711   3.896   0.021   6.728  0.6201 -0.7343  0.2907
 7692SOL    HW134712   3.900   0.109   6.692 -1.3635 -0.1869  1.4331
 7692SOL    HW234713   3.827   0.032   6.793  0.2933  0.9240 -0.3335
 7693SOL     OW34714   4.393   1.850   4.604 -0.0555 -0.7646  0.6122
 7693SOL    HW134715   4.460   1.803   4.554 -1.8984 -0.2489 -2.3830
 7693SOL    HW234716   4.351   1.902   4.535  1.2890 -0.1694  0.2533
 7694SOL     OW34717   1.551   0.348   1.156  0.0620 -0.0760  0.0836
 7694SOL    HW134718   1.470   0.305   1.184  0.5028  0.1653  1.7367
 7694SOL    HW234719   1.519   0.416   1.096  0.3606 -1.6734 -1.8477
 7695SOL     OW34720   2.196   1.774  11.170  0.3592  0.0529 -0.1629
 7695SOL    HW134721   2.259   1.780  11.098  1.1561 -0.5972  0.4844
 7695SOL    HW234722   2.119   1.726  11.140  1.6319 -0.3013 -2.8718
 7696SOL     OW34723   2.202   2.336  16.100 -0.5775 -0.6879  0.4191
 7696SOL    HW134724   2.139   2.344  16.171 -1.1202  2.9772 -0.4803
 7696SOL    HW234725   2.246   2.415  16.133  0.2120 -1.4433  1.1688
 7697SOL     OW34726   0.939   2.924   4.976 -0.0295  0.0421 -0.5154
 7697SOL    HW134727   0.952   3.000   5.033  0.4571 -2.0746  2.2060
 7697SOL    HW234728   0.856   2.888   5.007  0.0828 -0.5835 -0.9448
 7698SOL     OW34729   3.553   4.249   2.922  0.2954  0.2161  0.1988
 7698SOL    HW134730   3.585   4.235   3.011 -0.4239 -0.5082  0.3498
 7698SOL    HW234731   3.460   4.250   2.944  0.6352  3.2587  1.5162
 7699SOL     OW34732   3.477   3.493   7.408 -0.4589  0.0087 -0.3519
 7699SOL    HW134733   3.497   3.586   7.395 -1.0477  0.1868  0.0239
 7699SOL    HW234734   3.550   3.470   7.465  0.0800 -1.1630 -1.5301
 7700SOL     OW34735   4.539   3.938   6.558  0.2921 -0.5871 -0.3669
 7700SOL    HW134736   4.570   3.851   6.532  0.4142 -1.0293  1.2540
 7700SOL    HW234737   4.601   3.965   6.627 -0.9917  0.5608  0.3340
 7701SOL     OW34738   1.450   0.460   3.940  0.1222 -0.3013 -0.2547
 7701SOL    HW134739   1.379   0.420   3.891 -0.3224  0.9888 -0.6549
 7701SOL    HW234740   1.518   0.393   3.951 -1.4119 -2.2295 -2.6509
 7702SOL     OW34741   3.836   1.571   7.469  0.1002 -0.0963 -0.0266
 7702SOL    HW134742   3.841   1.526   7.384 -0.6193  0.6462 -0.4598
 7702SOL    HW234743   3.916   1.624   7.466 -0.2383  0.4234  0.1456
 7703SOL     OW34744   4.067   0.206  10.042 -0.1763  0.4172  0.3961
 7703SOL    HW134745   4.121   0.165  10.109 -0.4309 -0.3198  0.1572
 7703SOL    HW234746   4.052   0.123   9.996 -0.2296  0.8172 -0.3107
 7704SOL     OW34747   2.366   0.191  12.975 -0.5365 -0.2927 -0.1235
 7704SOL    HW134748   2.330   0.250  13.041 -1.5275 -0.7031 -0.2881
 7704SOL    HW234749   2.447   0.238  12.955 -0.4254 -1.5861 -2.8380
 7705SOL     OW34750   2.908   3.135  12.122 -0.1867  0.3038  0.2975
 7705SOL    HW134751   2.909   3.039  12.125  0.1078  0.3644  2.1322
 7705SOL    HW234752   2.920   3.165  12.212  1.0564  0.2437  0.1562
 7706SOL     OW34753   3.632   0.101   5.467  0.1441  0.6416 -0.1513
 7706SOL    HW134754   3.711   0.053   5.491 -1.7735 -0.7820  3.2862
 7706SOL    HW234755   3.583   0.038   5.413  2.5025 -0.5983 -0.8373
 7707SOL     OW34756   3.544   2.086   6.920 -0.4726  0.3326  0.2324
 7707SOL    HW134757   3.561   2.097   7.013  0.1281  0.1815  0.1429
 7707SOL    HW234758   3.585   2.000   6.907 -3.0605 -1.1427  1.9859
 7708SOL     OW34759   0.772   0.941   5.183 -0.2392 -0.3199 -0.5556
 7708SOL    HW134760   0.827   0.916   5.258  1.5768  2.9482 -0.8373
 7708SOL    HW234761   0.796   0.861   5.137 -0.9157 -1.9844  1.9421
 7709SOL     OW34762   1.470   0.498   3.306  0.5445 -0.1269  0.3513
 7709SOL    HW134763   1.391   0.544   3.336  1.1084  0.6879  0.5798
 7709SOL    HW234764   1.446   0.471   3.217 -0.6121 -0.3840  0.7339
 7710SOL     OW34765   4.223   0.740  10.975 -0.0330  0.1879  0.4040
 7710SOL    HW134766   4.243   0.813  11.034  1.4241  1.0414 -1.1269
 7710SOL    HW234767   4.137   0.775  10.951 -1.3621 -3.4000  0.0092
 7711SOL     OW34768   0.331   2.707   7.400  0.4895 -0.2096  0.6355
 7711SOL    HW134769   0.268   2.756   7.347  0.5293 -0.2819  0.5205
 7711SOL    HW234770   0.289   2.621   7.407  1.3569 -0.7592 -0.7311
 7712SOL     OW34771   3.783   0.214   4.022  0.3461  0.4784 -0.1484
 7712SOL    HW134772   3.788   0.265   4.103  0.3727  0.8471 -0.3861
 7712SOL    HW234773   3.751   0.127   4.046  1.2862  0.4641  1.0730
 7713SOL     OW34774   4.606   3.106  10.710  0.7357  0.4532 -0.2932
 7713SOL    HW134775   4.533   3.080  10.766  1.0027  3.0344  1.2292
 7713SOL    HW234776   4.608   3.201  10.720 -1.5278  0.3326  1.3304
 7714SOL     OW34777   2.020   3.625   4.234 -0.0645 -0.1286 -0.3168
 7714SOL    HW134778   2.092   3.671   4.275 -1.2498 -1.3587  3.1241
 7714SOL    HW234779   2.052   3.611   4.145 -0.1102  0.9006 -0.4957
 7715SOL     OW34780   2.798   0.641   3.728  0.3863 -0.1219  0.1952
 7715SOL    HW134781   2.819   0.594   3.647  1.0542  1.6911 -0.6728
 7715SOL    HW234782   2.889   0.664   3.746 -0.4301  0.1416  3.9825
 7716SOL     OW34783   1.422   1.587   7.149 -0.3222 -0.2214 -0.6028
 7716SOL    HW134784   1.373   1.668   7.167  2.9748  1.7631 -0.4109
 7716SOL    HW234785   1.374   1.534   7.212  1.3219  0.7734  1.5003
 7717SOL     OW34786   3.343   1.626   4.022  0.4363 -0.0720  0.7733
 7717SOL    HW134787   3.397   1.703   4.044 -0.0499  0.7541 -0.9505
 7717SOL    HW234788   3.285   1.670   3.960  0.5927 -0.8327  0.0911
 7718SOL     OW34789   3.733   4.046   9.385 -0.0776  0.2076  0.1366
 7718SOL    HW134790   3.781   4.010   9.459  0.7587 -0.1996 -0.5938
 7718SOL    HW234791   3.665   3.985   9.358  1.1975 -1.3355  0.3698
 7719SOL     OW34792   0.277   3.126  16.758  0.3308 -1.4336  0.3327
 7719SOL    HW134793   0.350   3.073  16.725  2.0391  2.2441 -1.8446
 7719SOL    HW234794   0.230   3.045  16.778 -0.7426 -1.1871 -1.1810
 7720SOL     OW34795   2.870   1.440  15.694  0.3551  0.3497  0.6312
 7720SOL    HW134796   2.868   1.513  15.632  0.2960 -0.0984  0.1032
 7720SOL    HW234797   2.783   1.404  15.672  1.3889 -0.3745 -2.3204
 7721SOL     OW34798   0.192   2.477   7.377  0.0313 -0.2210 -0.3741
 7721SOL    HW134799   0.142   2.465   7.457 -0.8528 -0.2158 -0.9349
 7721SOL    HW234800   0.172   2.393   7.336  2.0324 -1.2882  0.8338
 7722SOL     OW34801   1.025   2.267   3.697 -0.2630  0.3002  0.1698
 7722SOL    HW134802   1.038   2.234   3.786 -0.9511 -1.3516 -0.3309
 7722SOL    HW234803   1.103   2.227   3.658 -0.4480  1.0171 -0.9260
 7723SOL     OW34804   1.600   0.613  13.799 -0.2995  0.2933  0.1819
 7723SOL    HW134805   1.623   0.553  13.728 -2.0157 -2.2812  1.7735
 7723SOL    HW234806   1.532   0.552  13.828 -0.5999  1.2950  1.5740
 7724SOL     OW34807   3.303   2.013   8.605 -0.1086  0.1648 -0.3935
 7724SOL    HW134808   3.341   1.982   8.687 -1.5581  1.4314  0.7486
 7724SOL    HW234809   3.209   2.002   8.618 -0.2582  1.6408 -0.2119
 7725SOL     OW34810   2.361   1.870   2.939  0.1755  0.4236  0.0355
 7725SOL    HW134811   2.423   1.815   2.890  0.3125 -0.0253  0.7162
 7725SOL    HW234812   2.397   1.863   3.027  0.1166 -2.3649 -0.1638
 7726SOL     OW34813   2.462   4.288   7.648 -0.2734  0.3435  0.3289
 7726SOL    HW134814   2.497   4.290   7.737  0.5876 -0.3918  0.0017
 7726SOL    HW234815   2.452   4.194   7.637 -0.9788  0.5989 -1.2429
 7727SOL     OW34816   4.199   4.638   7.253  0.1751  0.1047  0.1509
 7727SOL    HW134817   4.107   4.618   7.267  0.0004  1.3782  0.8073
 7727SOL    HW234818   4.205   4.732   7.238 -2.4420  0.2280 -0.0830
 7728SOL     OW34819   2.825   3.431   7.124 -0.1224 -0.6248 -0.6310
 7728SOL    HW134820   2.732   3.430   7.145 -0.0044  0.3136 -0.0525
 7728SOL    HW234821   2.858   3.349   7.162  1.8264  0.2181 -0.4951
 7729SOL     OW34822   4.185   0.884   3.470  0.3077 -0.0763 -0.0904
 7729SOL    HW134823   4.170   0.965   3.422 -0.5883 -1.7177 -2.5758
 7729SOL    HW234824   4.186   0.820   3.399  0.9972  1.1095 -1.1474
 7730SOL     OW34825   4.693   0.454   9.216 -0.1074  0.1305  0.1140
 7730SOL    HW134826   0.013   0.481   9.150 -1.1684  2.8567  0.1962
 7730SOL    HW234827   0.005   0.381   9.245 -0.3572  0.3301  1.1020
 7731SOL     OW34828   3.836   1.165  17.197  1.2837 -0.2676  0.3273
 7731SOL    HW134829   3.767   1.210  17.148  5.0476  3.5201 -1.4310
 7731SOL    HW234830   3.792   1.179  17.280  2.3959 -2.5835  1.3066
 7732SOL     OW34831   1.912   3.189   5.337 -0.3511  0.2664  0.0831
 7732SOL    HW134832   1.987   3.249   5.331  0.9487 -1.2855  0.6670
 7732SOL    HW234833   1.840   3.234   5.293 -1.2928 -0.5550  0.7790
 7733SOL     OW34834   3.903   0.483  15.265 -0.4450  0.3906  0.3051
 7733SOL    HW134835   3.928   0.550  15.201 -0.2996  1.4910  1.5102
 7733SOL    HW234836   3.838   0.525  15.321  0.5190  2.8065 -0.3868
 7734SOL     OW34837   1.457   1.003   7.598  0.0125 -0.0831 -0.4359
 7734SOL    HW134838   1.520   1.064   7.635  1.2294 -1.0063 -0.9743
 7734SOL    HW234839   1.393   1.069   7.572 -0.4829 -0.4090 -0.0486
 7735SOL     OW34840   4.184   3.783   7.655 -0.2213  1.0311  0.4381
 7735SOL    HW134841   4.271   3.744   7.645 -1.9016 -2.3061 -1.2948
 7735SOL    HW234842   4.129   3.721   7.608 -0.1021  1.7856 -0.6894
 7736SOL     OW34843   0.301   0.857   7.393 -0.1302 -0.1859  0.7448
 7736SOL    HW134844   0.276   0.895   7.477 -1.4957 -1.4339  0.8896
 7736SOL    HW234845   0.237   0.902   7.339  1.7758  2.1797  0.4447
 7737SOL     OW34846   1.352   0.097   0.451 -0.4277 -0.0842  0.5219
 7737SOL    HW134847   1.315   0.009   0.446  1.6542 -0.8039 -2.1580
 7737SOL    HW234848   1.319   0.127   0.366 -0.7507 -1.0271  0.3093
 7738SOL     OW34849   4.206   3.921   3.993 -0.6656  0.2517 -0.5901
 7738SOL    HW134850   4.261   3.994   3.965 -1.8607  1.5335  0.4068
 7738SOL    HW234851   4.234   3.899   4.082  0.4510 -2.5427 -1.6460
 7739SOL     OW34852   4.046   2.824   6.990  0.1107 -0.4037 -0.2206
 7739SOL    HW134853   4.116   2.839   7.054 -0.2777 -1.3406  0.4151
 7739SOL    HW234854   3.989   2.894   7.023  2.5863  1.8698 -0.6799
 7740SOL     OW34855   3.041   1.031   7.925 -0.7450  0.2103  0.2784
 7740SOL    HW134856   3.015   0.955   7.873  0.3511 -0.9082  1.3368
 7740SOL    HW234857   3.008   1.105   7.875  0.9216 -0.2639 -1.4968
 7741SOL     OW34858   2.248   1.344  17.085  0.5639  0.1869  0.4399
 7741SOL    HW134859   2.167   1.393  17.101  1.6331  1.3416  2.1876
 7741SOL    HW234860   2.316   1.407  17.109  0.0459 -0.1277  2.6902
 7742SOL     OW34861   0.344   0.396   5.254  0.0785 -0.1128 -0.0684
 7742SOL    HW134862   0.383   0.441   5.179 -2.3045  0.5449 -0.9244
 7742SOL    HW234863   0.393   0.431   5.328 -1.4016 -0.5492  1.1193
 7743SOL     OW34864   0.774   2.553  14.184 -0.0279  0.2805  0.3135
 7743SOL    HW134865   0.686   2.540  14.147 -0.5124  1.8159  0.9312
 7743SOL    HW234866   0.832   2.493  14.138  0.2342 -0.0535  1.0856
 7744SOL     OW34867   1.864   0.126   5.875  0.5568 -0.5625 -0.1288
 7744SOL    HW134868   1.842   0.154   5.963  2.4787 -0.1637  0.2123
 7744SOL    HW234869   1.810   0.189   5.828 -2.1962 -1.2215  2.1642
 7745SOL     OW34870   4.180   3.470   0.551  0.3501  0.3010  0.0090
 7745SOL    HW134871   4.184   3.495   0.644  1.2027  0.6840 -0.1288
 7745SOL    HW234872   4.158   3.558   0.520 -0.8990 -0.1403 -0.3508
 7746SOL     OW34873   2.305   1.497   4.290  0.2990  0.0096 -0.0501
 7746SOL    HW134874   2.229   1.553   4.275 -0.1311 -0.4814  0.2983
 7746SOL    HW234875   2.269   1.417   4.251  3.1659 -2.0572  1.5490
 7747SOL     OW34876   3.618   4.333   8.933  0.1254 -0.3292 -0.8556
 7747SOL    HW134877   3.708   4.315   8.905  0.5442 -0.5546  0.6724
 7747SOL    HW234878   3.602   4.259   8.992 -1.1113  1.0402  0.5135
 7748SOL     OW34879   3.657   2.722  14.687  0.1305 -0.0014 -0.3818
 7748SOL    HW134880   3.625   2.723  14.597  0.3082  1.1170 -0.4403
 7748SOL    HW234881   3.684   2.814  14.691  2.3919 -0.7527  1.6220
 7749SOL     OW34882   0.282   1.233   0.542 -0.4080 -0.5490  0.0333
 7749SOL    HW134883   0.341   1.261   0.612 -2.2172  1.6218  0.6847
 7749SOL    HW234884   0.210   1.247   0.603 -0.1820 -2.3063  0.6938
 7750SOL     OW34885   0.698   1.736   1.936  0.2897 -0.0679 -0.0624
 7750SOL    HW134886   0.792   1.751   1.944  0.2694  0.0568 -0.0569
 7750SOL    HW234887   0.704   1.648   1.900 -3.0544 -0.1491 -0.4216
 7751SOL     OW34888   3.950   4.054   9.135 -0.3023 -0.0835 -0.0545
 7751SOL    HW134889   3.907   4.053   9.221 -0.5597  0.6810 -0.1809
 7751SOL    HW234890   4.042   4.042   9.157  0.0408  1.7023 -0.5380
 7752SOL     OW34891   3.845   1.482   5.394  0.0624  0.0658  0.3891
 7752SOL    HW134892   3.852   1.393   5.359  0.9339  0.1892  0.2629
 7752SOL    HW234893   3.847   1.474   5.490 -1.5964  0.1735  0.4271
 7753SOL     OW34894   3.994   2.183  14.618  0.3723  0.3757  0.2498
 7753SOL    HW134895   4.011   2.258  14.675  1.2459 -0.3069  0.8943
 7753SOL    HW234896   3.926   2.229  14.569 -2.3412 -0.9679  2.7282
 7754SOL     OW34897   3.427   2.786   3.725 -0.0797  0.0406  0.2753
 7754SOL    HW134898   3.403   2.778   3.818  2.0110 -1.7022  0.6646
 7754SOL    HW234899   3.354   2.839   3.691 -0.0335 -0.4149 -0.5261
 7755SOL     OW34900   2.946   4.516   8.583  0.5167 -0.2817 -0.3307
 7755SOL    HW134901   3.033   4.529   8.544  1.8901 -1.0808  2.4384
 7755SOL    HW234902   2.912   4.605   8.589  1.9965  0.1966  1.0997
 7756SOL     OW34903   0.194   0.318  15.212  0.8070 -0.4872 -0.2179
 7756SOL    HW134904   0.112   0.356  15.242  2.0490  1.6358  0.4730
 7756SOL    HW234905   0.239   0.296  15.293  0.1126 -0.4675  0.1677
 7757SOL     OW34906   4.126   3.325   8.981  0.0146  0.2195 -0.3304
 7757SOL    HW134907   4.161   3.369   8.903 -0.1013 -2.7401 -2.0613
 7757SOL    HW234908   4.079   3.258   8.930 -0.6173 -0.1545  0.7608
 7758SOL     OW34909   2.607   2.503   7.401 -0.1981  0.2834  0.3402
 7758SOL    HW134910   2.529   2.447   7.404  1.2678 -1.8241 -1.2667
 7758SOL    HW234911   2.675   2.456   7.449  0.6254 -0.1911 -1.3230
 7759SOL     OW34912   1.027   2.755  12.297 -0.1493 -0.0056 -0.2152
 7759SOL    HW134913   0.984   2.689  12.243 -3.9256  1.0752  1.4730
 7759SOL    HW234914   1.008   2.842  12.260  1.3216  1.1142  1.6469
 7760SOL     OW34915   3.697   0.890  15.547 -0.5269  0.2279  0.0530
 7760SOL    HW134916   3.726   0.877  15.637 -1.2252 -0.7315  0.1400
 7760SOL    HW234917   3.673   0.982  15.551  0.5921  0.4133  2.1585
 7761SOL     OW34918   1.113   1.503  12.189 -0.0623 -0.4889  0.2040
 7761SOL    HW134919   1.041   1.485  12.250 -1.3039  0.4195 -0.9878
 7761SOL    HW234920   1.059   1.535  12.117 -2.0816 -0.9997  1.4781
 7762SOL     OW34921   1.351   1.565   5.387  0.1836  0.2901  0.2994
 7762SOL    HW134922   1.327   1.605   5.470 -1.2418 -0.2100  0.1349
 7762SOL    HW234923   1.273   1.560   5.332 -0.4978 -0.6979  1.3506
 7763SOL     OW34924   4.382   0.524   3.431  0.9508  0.2153 -0.1945
 7763SOL    HW134925   4.381   0.499   3.339  0.3431  1.3689 -0.5013
 7763SOL    HW234926   4.304   0.489   3.474 -0.2174  2.2347 -0.6647
 7764SOL     OW34927   2.126   1.136   6.874 -0.1091 -0.2857 -0.0836
 7764SOL    HW134928   2.032   1.149   6.864 -0.0191  1.2316  0.9333
 7764SOL    HW234929   2.118   1.045   6.904 -0.4518 -0.0344  0.5951
 7765SOL     OW34930   2.890   4.127   8.816 -0.0422  0.5256  0.2801
 7765SOL    HW134931   2.844   4.135   8.900 -2.0382 -2.3016 -0.5563
 7765SOL    HW234932   2.983   4.137   8.835  0.4741 -1.4901 -1.1851
 7766SOL     OW34933   1.009   4.305   1.796  0.0430 -0.1354  0.5818
 7766SOL    HW134934   1.046   4.326   1.710 -2.0520 -0.9028 -0.5055
 7766SOL    HW234935   1.033   4.384   1.844  1.6410 -0.4386  0.2861
 7767SOL     OW34936   1.744   2.782   7.992 -0.1579  0.7476 -0.9936
 7767SOL    HW134937   1.740   2.739   7.907  0.1918 -2.3062  0.5050
 7767SOL    HW234938   1.823   2.742   8.030 -0.7715  0.0536 -0.4427
 7768SOL     OW34939   2.850   0.622   2.712 -0.1336  0.3275  0.1972
 7768SOL    HW134940   2.881   0.537   2.742 -1.2580 -0.0803  0.1852
 7768SOL    HW234941   2.770   0.589   2.672 -0.3128  3.0322 -1.6869
 7769SOL     OW34942   0.912   3.946  13.052 -0.4681 -0.1494 -0.2390
 7769SOL    HW134943   0.911   3.955  13.147 -3.0864 -0.8224 -0.2185
 7769SOL    HW234944   1.005   3.967  13.037  0.0290 -0.8952  1.7707
 7770SOL     OW34945   3.092   0.957  10.143  0.3121  0.4031  0.5628
 7770SOL    HW134946   3.054   1.035  10.185 -0.7751 -0.0289  0.3934
 7770SOL    HW234947   3.185   0.973  10.154  0.3775  2.0088 -2.3264
 7771SOL     OW34948   3.519   2.975   0.453 -0.6684 -0.2582 -0.6759
 7771SOL    HW134949   3.573   2.937   0.384 -0.1435 -0.9130  0.0965
 7771SOL    HW234950   3.586   2.977   0.522 -1.7106 -0.4167  0.3531
 7772SOL     OW34951   1.139   1.295   6.749  0.7486  0.5659  0.1729
 7772SOL    HW134952   1.138   1.205   6.718 -0.4465  0.5926  0.1499
 7772SOL    HW234953   1.099   1.339   6.674 -1.1888 -2.2683 -0.4196
 7773SOL     OW34954   1.619   4.353  12.524  0.0393  0.1109 -0.1124
 7773SOL    HW134955   1.584   4.365  12.436 -0.9657 -3.1214 -0.1413
 7773SOL    HW234956   1.705   4.317  12.501 -0.7659 -2.4643  1.0495
 7774SOL     OW34957   2.064   2.207   7.673 -0.0158  0.7127  0.1186
 7774SOL    HW134958   2.145   2.258   7.675 -1.8014  3.5328 -0.2243
 7774SOL    HW234959   2.087   2.131   7.727 -2.1120 -0.8193 -1.1560
 7775SOL     OW34960   4.242   1.276   5.200 -0.2097 -0.5787 -0.9494
 7775SOL    HW134961   4.228   1.216   5.127 -1.7754 -1.0617 -0.2425
 7775SOL    HW234962   4.184   1.241   5.268 -0.0423  0.9925  0.0074
 7776SOL     OW34963   4.194   2.825  12.341  0.2757 -0.4733  0.1577
 7776SOL    HW134964   4.232   2.806  12.426  0.5954 -0.1652  0.0865
 7776SOL    HW234965   4.175   2.736  12.312 -2.5039  0.6625 -1.6183
 7777SOL     OW34966   2.317   4.436   3.022 -0.1118  0.0554 -0.0838
 7777SOL    HW134967   2.335   4.522   3.059  1.4121 -1.3997  2.5644
 7777SOL    HW234968   2.383   4.371   3.045  0.6056  1.0280  0.5653
 7778SOL     OW34969   0.819   0.091   2.061  0.1337  0.0490  0.6083
 7778SOL    HW134970   0.837   4.742   2.080  0.8053 -0.3584 -1.9377
 7778SOL    HW234971   0.812   0.091   1.965 -1.1821 -0.4032  0.7063
 7779SOL     OW34972   2.368   3.741   1.840  0.1215  0.3386 -0.3067
 7779SOL    HW134973   2.433   3.802   1.876  2.0134 -1.6761 -0.2986
 7779SOL    HW234974   2.416   3.658   1.845 -0.0809  0.2481  0.1537
 7780SOL     OW34975   4.331   0.333   4.993  0.2116  0.4181 -0.3481
 7780SOL    HW134976   4.390   0.320   5.068 -1.5693  0.3089  1.0363
 7780SOL    HW234977   4.380   0.393   4.937  0.7181 -2.4926 -2.9839
 7781SOL     OW34978   1.100   3.987   2.431  0.8559  0.0545 -0.2428
 7781SOL    HW134979   1.038   4.002   2.502  1.3246  1.1517 -0.0479
 7781SOL    HW234980   1.039   3.982   2.358 -2.6947 -1.4255  2.8208
 7782SOL     OW34981   4.382   3.266   4.512  0.0178 -0.1189  0.4353
 7782SOL    HW134982   4.432   3.347   4.502  2.6631 -1.6312  1.2972
 7782SOL    HW234983   4.457   3.207   4.500 -0.8424 -1.0035 -0.5804
 7783SOL     OW34984   0.881   0.416   8.837  0.1048 -0.5748 -0.1244
 7783SOL    HW134985   0.924   0.493   8.875  0.3665  0.2374 -2.0257
 7783SOL    HW234986   0.944   0.363   8.788 -0.4787 -0.0129 -1.4846
 7784SOL     OW34987   4.211   3.706  10.605 -0.2465 -0.3306  0.1264
 7784SOL    HW134988   4.127   3.661  10.596  0.1394 -1.0929  0.3674
 7784SOL    HW234989   4.279   3.639  10.600 -0.7591 -0.6484 -2.6626
 7785SOL     OW34990   4.255   0.778   7.966  0.0747  0.1932  0.2193
 7785SOL    HW134991   4.233   0.688   7.992 -0.0631 -0.5206 -2.3127
 7785SOL    HW234992   4.173   0.825   7.976 -0.5159 -0.3338 -2.1706
 7786SOL     OW34993   2.785   3.566  11.721  0.2648  0.3752 -0.3427
 7786SOL    HW134994   2.816   3.655  11.730  0.5600  0.2674 -0.3079
 7786SOL    HW234995   2.864   3.526  11.684  0.9121 -0.0774  1.5007
 7787SOL     OW34996   0.899   1.649   8.703  0.3007 -0.0729  0.1707
 7787SOL    HW134997   0.925   1.585   8.637  0.6842  0.5574 -0.2973
 7787SOL    HW234998   0.961   1.625   8.771 -2.5556 -2.0662  2.0547
 7788SOL     OW34999   3.999   4.570   3.435 -0.2378 -0.8439  0.3983
 7788SOL    HW135000   3.980   4.650   3.386  0.6164 -0.0120  1.4074
 7788SOL    HW235001   3.967   4.588   3.523 -2.8552  1.6243 -1.0597
 7789SOL     OW35002   0.707   0.516   0.641  0.6704 -0.1961 -0.4220
 7789SOL    HW135003   0.698   0.569   0.563  0.8531  0.9524  0.3404
 7789SOL    HW235004   0.760   0.440   0.617 -1.0596 -0.7790 -2.4349
 7790SOL     OW35005   1.625   3.463  12.661 -0.0586 -0.2596 -0.0118
 7790SOL    HW135006   1.620   3.550  12.622 -0.6752 -0.0645  0.5101
 7790SOL    HW235007   1.702   3.434  12.611 -0.6378 -2.1210  0.1699
 7791SOL     OW35008   2.951   1.338   9.327  0.4395  0.5108 -0.1790
 7791SOL    HW135009   2.903   1.258   9.306  0.0611  0.1183  2.2050
 7791SOL    HW235010   2.905   1.404   9.275  2.1431  0.9709 -1.1209
 7792SOL     OW35011   3.084   1.197  15.872 -0.2851  0.1720  0.0536
 7792SOL    HW135012   3.031   1.211  15.951  1.3290  2.9589  0.6198
 7792SOL    HW235013   3.124   1.117  15.907  0.9708 -0.1332 -2.1329
 7793SOL     OW35014   0.094   2.035   1.382  0.7776 -0.4418  0.0608
 7793SOL    HW135015   0.024   2.094   1.411 -0.4129 -0.8089 -2.0889
 7793SOL    HW235016   0.165   2.081   1.426 -0.1150 -0.9540  2.0291
 7794SOL     OW35017   4.105   1.026   5.810 -0.4798  0.4958  0.0514
 7794SOL    HW135018   4.154   0.950   5.777 -0.4687 -0.1526  1.5586
 7794SOL    HW235019   4.079   0.981   5.890 -0.7329 -0.5643 -0.6313
 7795SOL     OW35020   3.717   0.961   6.561 -0.3061 -0.2252  0.6718
 7795SOL    HW135021   3.761   1.045   6.570 -0.4890 -0.1022  0.3970
 7795SOL    HW235022   3.705   0.943   6.655  0.1058  0.4541  0.8511
 7796SOL     OW35023   4.569   0.366  15.969 -0.1444  0.2318 -0.4773
 7796SOL    HW135024   4.493   0.407  15.929 -1.3701 -2.4672 -0.9169
 7796SOL    HW235025   4.616   0.328  15.895  2.8095 -1.3119  2.1901
 7797SOL     OW35026   0.631   0.812  10.880  0.1912 -0.3343 -0.4451
 7797SOL    HW135027   0.656   0.847  10.794 -0.7196 -2.4985 -1.6027
 7797SOL    HW235028   0.540   0.793  10.861 -0.0977  0.3080  0.2986
 7798SOL     OW35029   0.106   4.122   8.854  0.0734 -0.5537 -1.1319
 7798SOL    HW135030   0.027   4.115   8.907 -1.3868  3.5246 -2.6991
 7798SOL    HW235031   0.129   4.211   8.881  1.8502 -0.7819 -1.9161
 7799SOL     OW35032   2.855   4.582  14.800  0.1012 -0.4283 -0.3981
 7799SOL    HW135033   2.765   4.614  14.804  0.5210  0.9968 -2.2736
 7799SOL    HW235034   2.910   4.659  14.786 -0.5590  0.0552 -0.3135
 7800SOL     OW35035   3.747   3.077   8.186  0.7484  0.6305 -0.1278
 7800SOL    HW135036   3.716   3.122   8.107  2.0821 -0.5603 -1.3411
 7800SOL    HW235037   3.801   3.147   8.222  0.9319 -0.7975  2.3775
 7801SOL     OW35038   0.544   2.883   7.990  0.2623 -1.1369 -0.2284
 7801SOL    HW135039   0.463   2.853   7.948 -0.7917  1.1553  0.1617
 7801SOL    HW235040   0.559   2.811   8.051 -1.2436  0.7916  2.4156
 7802SOL     OW35041   4.007   2.481   4.732  0.3187 -0.8228 -0.4521
 7802SOL    HW135042   4.072   2.469   4.662 -0.8846 -2.0679 -1.3793
 7802SOL    HW235043   3.964   2.395   4.729 -0.7204 -0.3281  0.4644
 7803SOL     OW35044   0.084   1.841   5.633 -0.4739  0.2602  0.4727
 7803SOL    HW135045   0.075   1.884   5.718  3.1623  2.9023 -0.4682
 7803SOL    HW235046   0.059   1.752   5.658  0.9938 -0.1304  0.5676
 7804SOL     OW35047   1.218   0.673  10.873 -0.1908  0.3147 -0.0451
 7804SOL    HW135048   1.123   0.664  10.877  0.0323 -1.8317  0.1679
 7804SOL    HW235049   1.239   0.586  10.905 -0.9055 -0.4328 -1.6288
 7805SOL     OW35050   2.343   3.548  11.922  0.1876 -1.0377 -0.3126
 7805SOL    HW135051   2.277   3.535  11.853 -0.2506 -1.2333  0.1447
 7805SOL    HW235052   2.420   3.501  11.891  0.6386 -0.7677  0.4138
 7806SOL     OW35053   0.597   1.569   4.276  0.1197  0.2458 -0.0754
 7806SOL    HW135054   0.615   1.506   4.346 -1.6313  0.5538  0.6450
 7806SOL    HW235055   0.587   1.509   4.202 -0.7186 -1.3771  1.3502
 7807SOL     OW35056   4.462   3.287   8.985 -0.3338  0.3989  0.1967
 7807SOL    HW135057   4.479   3.239   8.904  0.7553  0.6506  0.2747
 7807SOL    HW235058   4.400   3.347   8.943  0.1556  1.5629  1.1379
 7808SOL     OW35059   3.012   3.813   8.782 -0.7623 -0.5953 -0.0568
 7808SOL    HW135060   2.948   3.879   8.755 -2.4921 -1.6040  1.6235
 7808SOL    HW235061   2.958   3.776   8.852 -1.3762 -1.1951 -0.8518
 7809SOL     OW35062   4.569   3.528   6.947 -0.5951  0.1094  0.2093
 7809SOL    HW135063   4.555   3.440   6.913 -1.5749  1.5728 -3.2504
 7809SOL    HW235064   4.484   3.570   6.933 -1.3591 -1.5722 -0.1280
 7810SOL     OW35065   2.373   0.722  11.744 -0.3260  0.2747  0.3036
 7810SOL    HW135066   2.464   0.693  11.736 -0.1657  1.4995 -2.1414
 7810SOL    HW235067   2.356   0.787  11.676 -0.1866  1.0048  0.9534
 7811SOL     OW35068   2.681   4.265   3.702  0.0956 -0.1299 -0.2664
 7811SOL    HW135069   2.776   4.274   3.709  0.3714 -1.3142 -2.4534
 7811SOL    HW235070   2.674   4.177   3.665  0.5157  0.6726 -2.2067
 7812SOL     OW35071   3.724   3.362   8.312 -0.4194  0.2278  0.0156
 7812SOL    HW135072   3.796   3.327   8.364 -0.2080 -0.6331 -0.8634
 7812SOL    HW235073   3.667   3.396   8.382  1.3515 -2.3743  2.6986
 7813SOL     OW35074   3.053   4.151   3.025  0.4715 -0.3251 -0.4885
 7813SOL    HW135075   3.131   4.095   3.021  0.6132 -0.2294  0.8604
 7813SOL    HW235076   3.099   4.222   3.072  1.2875 -1.1106 -0.1011
 7814SOL     OW35077   2.926   3.431   4.418 -0.1710 -0.4952 -0.7229
 7814SOL    HW135078   2.950   3.357   4.475 -1.7108 -0.0961  0.4575
 7814SOL    HW235079   2.893   3.394   4.336 -0.6754 -0.2997 -0.6109
 7815SOL     OW35080   3.847   1.165   3.378  0.2371  0.1930  0.0815
 7815SOL    HW135081   3.897   1.131   3.452 -0.6240 -0.1441  0.5014
 7815SOL    HW235082   3.920   1.183   3.319  0.8781  2.3416  1.5426
 7816SOL     OW35083   3.178   4.716  13.687  0.3421 -0.3720 -0.0886
 7816SOL    HW135084   3.109   0.027  13.649 -0.6834 -1.3559  0.3506
 7816SOL    HW235085   3.128   4.635  13.690  2.7309 -1.7731  2.0655
 7817SOL     OW35086   0.080   2.311   5.655 -0.2070  0.0293  0.2350
 7817SOL    HW135087   0.145   2.363   5.702 -3.0167  4.1029 -0.4122
 7817SOL    HW235088   0.081   2.346   5.566  2.0880 -0.8090 -0.0631
 7818SOL     OW35089   0.221   2.521   4.141 -0.0740  0.1399 -0.0323
 7818SOL    HW135090   0.191   2.518   4.232  1.0062 -0.3247  0.3015
 7818SOL    HW235091   0.285   2.450   4.141  0.1232  0.3165 -1.1163
 7819SOL     OW35092   1.984   1.061   5.161  0.0208 -0.4799  0.3119
 7819SOL    HW135093   1.906   1.061   5.106  0.1947 -1.1553  0.0581
 7819SOL    HW235094   1.980   1.144   5.207  2.0438 -0.3635  0.3113
 7820SOL     OW35095   1.880   2.480   1.879 -0.2671  0.4010 -0.9524
 7820SOL    HW135096   1.875   2.528   1.797 -0.7656  1.5697 -0.2238
 7820SOL    HW235097   1.942   2.527   1.934  0.3367  1.0427 -2.1966
 7821SOL     OW35098   2.589   1.600  15.464 -0.3568  0.0879  0.2603
 7821SOL    HW135099   2.590   1.568  15.554 -0.6531 -1.3647 -0.2531
 7821SOL    HW235100   2.635   1.533  15.414  0.7625 -0.9169  2.6018
 7822SOL     OW35101   3.792   3.333   3.276 -0.0556  0.0787 -0.3084
 7822SOL    HW135102   3.772   3.425   3.293  1.0819  0.6836 -2.2113
 7822SOL    HW235103   3.867   3.341   3.217  1.5126 -2.3728  1.3918
 7823SOL     OW35104   3.496   1.553   2.157  0.1862 -0.0565  0.0534
 7823SOL    HW135105   3.427   1.598   2.206  0.3662 -0.0623  0.3127
 7823SOL    HW235106   3.451   1.536   2.075 -0.0239 -2.3151  0.6163
 7824SOL     OW35107   4.576   2.532   9.776  0.5774  0.1696 -0.0408
 7824SOL    HW135108   4.565   2.502   9.866  1.0132 -0.6098 -0.2430
 7824SOL    HW235109   4.526   2.468   9.725  1.6350 -1.6003  1.1375
 7825SOL     OW35110   1.854   2.031   8.700 -0.5815  0.2466 -0.1979
 7825SOL    HW135111   1.899   2.065   8.623 -0.1416  2.0850  0.8535
 7825SOL    HW235112   1.931   1.988   8.734 -0.6981  0.1674 -0.0354
 7826SOL     OW35113   1.919   1.162   7.346 -0.0012  1.0750 -0.2835
 7826SOL    HW135114   1.877   1.226   7.289  0.7218  1.3159 -0.5476
 7826SOL    HW235115   1.925   1.199   7.434  0.7697 -0.5013  0.3359
 7827SOL     OW35116   0.782   2.686  15.722 -0.5821  0.0609  0.5675
 7827SOL    HW135117   0.828   2.666  15.640 -1.9657 -1.0311  0.0457
 7827SOL    HW235118   0.723   2.755  15.692 -1.5087 -0.6989  0.6606
 7828SOL     OW35119   2.330   1.465  15.809 -0.8845  0.6323  0.2228
 7828SOL    HW135120   2.281   1.426  15.881 -1.6577  1.2556  0.0400
 7828SOL    HW235121   2.264   1.502  15.749 -1.2523  1.6725  1.2794
 7829SOL     OW35122   4.403   1.917  17.389 -0.0078 -0.4401 -0.2263
 7829SOL    HW135123   4.477   1.866  17.357  0.4092  0.2575 -0.3774
 7829SOL    HW235124   4.348   1.910  17.310 -0.0471  0.2851 -0.2618
 7830SOL     OW35125   4.424   3.884   5.983 -0.3508 -0.2736 -0.2535
 7830SOL    HW135126   4.333   3.861   5.962 -0.5201  0.5768 -0.4549
 7830SOL    HW235127   4.434   3.971   5.944  1.5908  0.0379  0.9616
 7831SOL     OW35128   1.369   1.527  17.013 -0.0914 -0.2256 -0.0559
 7831SOL    HW135129   1.353   1.599  17.074  0.5464 -0.0307 -0.1252
 7831SOL    HW235130   1.291   1.525  16.957 -0.4044  1.8106  0.3043
 7832SOL     OW35131   3.107   1.472   6.453 -0.3456 -0.4051  0.2723
 7832SOL    HW135132   3.200   1.468   6.477 -0.6589  2.0660  1.8782
 7832SOL    HW235133   3.102   1.561   6.420  1.3839 -0.2793  0.3613
 7833SOL     OW35134   4.232   1.535   3.097  0.2148  0.1712  0.0196
 7833SOL    HW135135   4.211   1.612   3.150 -0.6197 -0.0560  0.0222
 7833SOL    HW235136   4.278   1.583   3.029  0.3436 -0.9224 -0.6640
 7834SOL     OW35137   3.275   2.582  16.580  0.3059  0.0481 -0.0036
 7834SOL    HW135138   3.284   2.488  16.562 -2.5290 -0.4665  1.2398
 7834SOL    HW235139   3.364   2.593  16.614 -0.4161 -0.1550  2.0021
 7835SOL     OW35140   2.871   1.944   3.383  0.0791  0.1017 -0.7857
 7835SOL    HW135141   2.924   1.966   3.307  0.3197  1.6915 -0.1643
 7835SOL    HW235142   2.936   1.949   3.453  1.4009  0.1054 -2.0024
 7836SOL     OW35143   1.100   2.108   6.261 -0.1762  0.0141 -0.5979
 7836SOL    HW135144   1.109   2.194   6.220 -2.8538 -0.0823 -1.4399
 7836SOL    HW235145   1.020   2.134   6.307  1.2733  2.3125  0.6234
 7837SOL     OW35146   1.465   2.711   4.514 -0.3706  0.3366  0.5724
 7837SOL    HW135147   1.483   2.781   4.451 -0.3197  0.1405  0.3670
 7837SOL    HW235148   1.371   2.716   4.530 -0.4598  1.8734 -0.4952
 7838SOL     OW35149   4.600   3.777  16.334 -0.2244 -0.2838  0.5567
 7838SOL    HW135150   4.623   3.847  16.395  1.1495 -1.1404  1.0465
 7838SOL    HW235151   4.667   3.710  16.347  1.7559  1.9398  1.8995
 7839SOL     OW35152   0.831   2.989   3.964 -0.1956 -0.5149  0.0954
 7839SOL    HW135153   0.875   3.048   3.903  0.2081  0.0168  0.9121
 7839SOL    HW235154   0.746   3.031   3.977  0.3293  0.4832  0.2322
 7840SOL     OW35155   4.232   0.752   0.268 -0.4103 -0.5854  0.4992
 7840SOL    HW135156   4.197   0.668   0.298 -0.1916 -0.4677  1.0821
 7840SOL    HW235157   4.148   0.792   0.244  0.3370  1.1239  0.8022
 7841SOL     OW35158   2.547   2.990  15.301  0.0200  0.2586 -0.1873
 7841SOL    HW135159   2.597   2.941  15.236  0.3818  1.3300 -0.7277
 7841SOL    HW235160   2.615   2.987  15.368  0.8997 -0.2735 -1.1058
 7842SOL     OW35161   4.281   3.777   2.581  0.2564  0.2239  0.0813
 7842SOL    HW135162   4.194   3.815   2.591 -0.1526 -1.1038  1.5991
 7842SOL    HW235163   4.330   3.848   2.539  0.9478 -0.6634 -0.6284
 7843SOL     OW35164   0.491   3.585  10.272 -0.1303  0.7807  0.3909
 7843SOL    HW135165   0.410   3.534  10.280  0.0842  0.5341  1.0590
 7843SOL    HW235166   0.459   3.674  10.278 -3.5627 -0.3690 -1.2511
 7844SOL     OW35167   2.831   0.679  13.298  0.1111 -0.4314 -0.3364
 7844SOL    HW135168   2.864   0.757  13.252 -1.0129 -0.8554 -1.8411
 7844SOL    HW235169   2.769   0.725  13.355 -0.3322  0.6315 -1.6711
 7845SOL     OW35170   0.127   1.774  15.263 -0.0545  0.1457 -0.1871
 7845SOL    HW135171   0.100   1.864  15.283  0.9776  0.3031  0.5199
 7845SOL    HW235172   0.107   1.725  15.343  1.1072  2.4559  1.5206
 7846SOL     OW35173   4.326   0.431   3.177  0.3267 -0.3392  0.6326
 7846SOL    HW135174   4.290   0.438   3.088 -0.0091 -1.9308  0.6466
 7846SOL    HW235175   4.284   0.346   3.192  0.5844 -0.4968  0.4649
 7847SOL     OW35176   1.002   1.988   1.695 -0.3011  0.5619 -0.3943
 7847SOL    HW135177   0.971   2.072   1.730 -1.6562 -0.2779  0.4409
 7847SOL    HW235178   1.068   1.966   1.760  0.4332  1.0066 -0.9967
 7848SOL     OW35179   0.431   3.666  15.596  0.1449  0.0232  0.0300
 7848SOL    HW135180   0.387   3.748  15.574  1.8955  0.9066 -0.1833
 7848SOL    HW235181   0.488   3.666  15.520 -0.3311  1.2588 -0.3324
 7849SOL     OW35182   0.088   1.995  12.084  0.3443 -0.4600 -0.0259
 7849SOL    HW135183   0.109   1.902  12.077 -3.0276 -1.0034 -2.9871
 7849SOL    HW235184   0.073   1.996  12.179  1.8957 -0.2586  0.2224
 7850SOL     OW35185   2.368   0.012   5.352 -0.2551  0.2023  0.1912
 7850SOL    HW135186   2.464   0.016   5.352 -0.1724 -1.2819  2.3936
 7850SOL    HW235187   2.337   0.020   5.442  1.0490 -0.7195  0.7359
 7851SOL     OW35188   2.007   1.200   9.372 -0.1768 -0.3820 -0.8372
 7851SOL    HW135189   2.007   1.108   9.344  0.2612 -0.0315 -1.9772
 7851SOL    HW235190   2.077   1.193   9.436 -2.5653  2.3252  2.1106
 7852SOL     OW35191   1.231   1.443   8.608 -0.2117  0.6306 -0.5311
 7852SOL    HW135192   1.146   1.401   8.613 -0.3116  0.4548 -3.8052
 7852SOL    HW235193   1.244   1.462   8.701  1.9755 -0.8639 -0.5182
 7853SOL     OW35194   0.555   2.771   7.137  0.2916  0.6661 -0.7502
 7853SOL    HW135195   0.550   2.830   7.212  1.2321  0.7725 -0.7762
 7853SOL    HW235196   0.473   2.724   7.154  2.1879 -2.7609 -1.0816
 7854SOL     OW35197   2.507   3.335   3.862  0.4677 -0.5220 -0.4401
 7854SOL    HW135198   2.505   3.343   3.958  0.9662 -0.7195 -0.4136
 7854SOL    HW235199   2.452   3.258   3.851 -0.2209 -0.3990  2.0750
 7855SOL     OW35200   0.462   0.394   7.207 -0.2057  0.0761 -0.0059
 7855SOL    HW135201   0.491   0.343   7.131 -1.7754 -0.9679  0.1062
 7855SOL    HW235202   0.470   0.484   7.175  0.1019  0.2769  0.6160
 7856SOL     OW35203   1.907   1.457   3.594 -0.1292 -0.5345 -1.0989
 7856SOL    HW135204   1.882   1.407   3.516  2.4793  0.1545 -2.4037
 7856SOL    HW235205   1.999   1.484   3.592 -0.5970  1.1559 -0.4537
 7857SOL     OW35206   2.392   4.607  15.689  0.5376  1.1081 -0.4611
 7857SOL    HW135207   2.484   4.632  15.692  0.9762 -0.4431 -0.9756
 7857SOL    HW235208   2.387   4.529  15.635  4.6105  0.6113 -0.1061
 7858SOL     OW35209   1.375   4.067   1.851 -0.2137 -0.0356  0.5514
 7858SOL    HW135210   1.461   4.071   1.807 -1.9061  1.5889 -2.6183
 7858SOL    HW235211   1.394   4.108   1.935 -0.0662 -1.6519  1.3150
 7859SOL     OW35212   4.064   3.243  14.640 -0.7258 -0.2450 -0.5044
 7859SOL    HW135213   4.027   3.202  14.562  2.1503  2.3717 -3.2222
 7859SOL    HW235214   4.015   3.324  14.629 -0.6018 -0.4047 -2.2421
 7860SOL     OW35215   3.036   1.606   7.644 -0.3145  0.1940 -0.2042
 7860SOL    HW135216   3.129   1.592   7.663 -0.2541 -0.1545 -0.7585
 7860SOL    HW235217   3.021   1.686   7.695 -0.7691 -0.0672  0.0762
 7861SOL     OW35218   2.427   3.341   4.855  0.0689 -0.7197  0.8566
 7861SOL    HW135219   2.521   3.327   4.842 -0.3150 -3.4155  0.9103
 7861SOL    HW235220   2.419   3.423   4.807  0.8005 -0.3938  1.2936
 7862SOL     OW35221   1.491   2.683   7.141  0.2702 -0.8307 -0.6232
 7862SOL    HW135222   1.550   2.747   7.180  0.5058 -1.1895 -0.3860
 7862SOL    HW235223   1.536   2.601   7.165 -0.0706 -0.7343  0.3321
 7863SOL     OW35224   2.524   4.672   0.852 -1.0300  0.1707 -0.6558
 7863SOL    HW135225   2.581   4.606   0.813 -2.0920 -1.3893  0.4625
 7863SOL    HW235226   2.484   4.627   0.926 -2.0121 -0.6362 -1.6820
 7864SOL     OW35227   4.210   1.945   2.781  0.4331 -0.1848  0.4803
 7864SOL    HW135228   4.135   1.892   2.754 -0.4971  0.7379  1.2172
 7864SOL    HW235229   4.174   1.985   2.860  0.1522 -0.1759  0.3466
 7865SOL     OW35230   4.341   0.103   6.654 -0.1005 -0.5175 -0.3024
 7865SOL    HW135231   4.331   0.196   6.675 -0.8851 -0.5228 -0.6729
 7865SOL    HW235232   4.289   0.054   6.718 -0.1094 -2.6537 -1.9610
 7866SOL     OW35233   1.437   0.353   7.880  0.2833 -0.0177 -0.6942
 7866SOL    HW135234   1.472   0.440   7.899  0.2077 -0.2284  0.4229
 7866SOL    HW235235   1.437   0.345   7.785  2.2748 -1.0601 -0.6235
 7867SOL     OW35236   1.662   3.098   4.145 -0.2131 -0.2497 -0.6581
 7867SOL    HW135237   1.702   3.179   4.113  1.1592 -1.2674 -1.5308
 7867SOL    HW235238   1.601   3.075   4.075 -2.0488 -4.3920  2.2935
 7868SOL     OW35239   1.190   3.558  10.526  0.0468  0.3008  0.0633
 7868SOL    HW135240   1.190   3.650  10.550  1.0279  0.6071 -1.0739
 7868SOL    HW235241   1.095   3.556  10.516  0.2335  0.3647 -1.8357
 7869SOL     OW35242   2.443   3.398   2.409  0.1639 -0.3651  0.1560
 7869SOL    HW135243   2.422   3.435   2.323 -0.1881 -1.1759 -0.1110
 7869SOL    HW235244   2.534   3.425   2.413  0.4542 -1.6991  2.9853
 7870SOL     OW35245   4.327   0.114   1.787  0.0108  0.0700  0.1998
 7870SOL    HW135246   4.277   0.063   1.724 -0.4630  1.9177 -0.9142
 7870SOL    HW235247   4.331   0.200   1.745  0.5948 -0.3436 -0.6046
 7871SOL     OW35248   0.603   1.205   6.582 -0.3919 -0.3228 -0.6289
 7871SOL    HW135249   0.631   1.256   6.658 -1.4650  0.8625 -1.0293
 7871SOL    HW235250   0.652   1.245   6.509 -0.1810  0.9597  0.2163
 7872SOL     OW35251   1.722   2.476  13.170  0.4205  0.4492 -0.0838
 7872SOL    HW135252   1.701   2.432  13.087  2.3514 -1.7482  0.5860
 7872SOL    HW235253   1.652   2.541  13.168 -0.7265 -0.8288 -2.2015
 7873SOL     OW35254   2.562   1.552   5.414 -0.2265 -0.0778 -0.3347
 7873SOL    HW135255   2.537   1.605   5.489  1.4340  1.3734 -0.8070
 7873SOL    HW235256   2.570   1.462   5.445  1.9574  0.2898  0.1624
 7874SOL     OW35257   1.563   2.811   0.609 -0.0122  0.3609  0.8103
 7874SOL    HW135258   1.650   2.781   0.584 -0.2390  0.5132 -0.1758
 7874SOL    HW235259   1.540   2.766   0.690 -0.7556  0.4178  0.6334
 7875SOL     OW35260   1.460   1.043   5.775 -0.9093 -0.1174 -0.7833
 7875SOL    HW135261   1.452   1.101   5.851 -0.5342 -0.3047 -0.6002
 7875SOL    HW235262   1.415   1.088   5.703  2.1350 -0.4637 -2.8864
 7876SOL     OW35263   0.434   1.338  10.155  0.0515 -0.0498  0.1231
 7876SOL    HW135264   0.516   1.290  10.145 -0.5594 -1.1088  0.0946
 7876SOL    HW235265   0.448   1.400  10.084  0.8849 -0.1380  0.2152
 7877SOL     OW35266   1.683   3.762   8.855 -0.4143 -0.4025 -0.1629
 7877SOL    HW135267   1.751   3.784   8.919 -0.1289  1.9233 -1.2801
 7877SOL    HW235268   1.653   3.851   8.840 -1.8945 -0.7952  0.5027
 7878SOL     OW35269   0.027   4.384   4.506 -0.2595  0.4940  0.0008
 7878SOL    HW135270   0.116   4.348   4.508 -0.8459 -0.9919 -0.0679
 7878SOL    HW235271   0.011   4.395   4.599 -0.7214 -0.8474  0.0883
 7879SOL     OW35272   4.482   2.078   8.483 -0.4441  0.1294 -0.0059
 7879SOL    HW135273   4.511   1.989   8.505  1.9336  0.0281 -3.4635
 7879SOL    HW235274   4.567   2.122   8.479 -0.8644  0.9541  0.2687
 7880SOL     OW35275   2.516   1.032  11.440  0.2105 -0.2361  0.2058
 7880SOL    HW135276   2.515   1.114  11.390 -1.7190 -1.9071 -2.4569
 7880SOL    HW235277   2.601   0.999  11.410  0.2708  2.9793 -3.0610
 7881SOL     OW35278   0.546   2.632   8.425 -0.3912  0.9478  0.0928
 7881SOL    HW135279   0.593   2.598   8.348 -1.4191  0.0978 -0.1578
 7881SOL    HW235280   0.523   2.718   8.390  0.7272  1.1380 -0.1971
 7882SOL     OW35281   1.455   1.447   1.773  0.6573  0.3878  0.5076
 7882SOL    HW135282   1.502   1.366   1.751 -1.4509 -0.9870  1.0312
 7882SOL    HW235283   1.492   1.465   1.859  0.1590 -0.7691  0.9649
 7883SOL     OW35284   4.090   3.564  16.604  0.8487 -0.1216 -0.2206
 7883SOL    HW135285   4.074   3.533  16.693  0.0907 -0.4627 -0.4778
 7883SOL    HW235286   4.180   3.544  16.578  0.7467 -1.9035  0.8191
 7884SOL     OW35287   0.853   4.484   5.951  0.4218 -0.0086 -0.3017
 7884SOL    HW135288   0.792   4.505   6.021  1.5026  0.0872  0.6149
 7884SOL    HW235289   0.936   4.461   5.993  0.3382  3.1183  1.6119
 7885SOL     OW35290   0.602   4.630   7.324  0.2070 -0.0771  0.1536
 7885SOL    HW135291   0.516   4.671   7.319  0.9161  1.4760  0.6991
 7885SOL    HW235292   0.585   4.557   7.383 -2.1816 -1.6019 -2.4428
 7886SOL     OW35293   1.090   1.431   7.169 -0.7889  0.2111  0.8392
 7886SOL    HW135294   1.153   1.360   7.156 -1.0807  0.4024 -1.5391
 7886SOL    HW235295   1.096   1.479   7.087 -1.4775  0.8725  1.1829
 7887SOL     OW35296   2.888   0.644  10.844  0.2356 -0.2909 -0.0415
 7887SOL    HW135297   2.953   0.685  10.903 -0.7174  1.9108 -0.5137
 7887SOL    HW235298   2.831   0.721  10.839  1.7710  1.0463  2.7538
 7888SOL     OW35299   0.673   1.842   1.659  0.2955 -0.1023  0.1491
 7888SOL    HW135300   0.743   1.805   1.713 -0.9764 -0.7902  1.2980
 7888SOL    HW235301   0.702   1.930   1.633  2.1874 -0.7323  0.0818
 7889SOL     OW35302   3.829   1.289   7.872 -0.2018 -0.0795  0.3383
 7889SOL    HW135303   3.836   1.379   7.840 -0.9068  0.4062  1.5506
 7889SOL    HW235304   3.831   1.303   7.966 -0.5685  0.6746  0.2386
 7890SOL     OW35305   2.971   0.967   9.661 -0.3392 -0.2289  0.1912
 7890SOL    HW135306   3.051   0.931   9.700 -0.5452 -1.8233 -0.8362
 7890SOL    HW235307   3.003   1.039   9.606  0.4087 -1.7121 -1.3408
 7891SOL     OW35308   3.826   2.937   7.141  0.3606 -0.1764 -0.3046
 7891SOL    HW135309   3.760   2.928   7.072 -0.7367 -2.2392  1.0115
 7891SOL    HW235310   3.773   2.920   7.218  0.6335 -1.1870 -0.3369
 7892SOL     OW35311   4.291   3.352   9.192  0.0338 -0.2204 -0.1948
 7892SOL    HW135312   4.383   3.352   9.165  0.4043 -1.6802  1.0106
 7892SOL    HW235313   4.243   3.319   9.116  1.5749 -1.8970 -0.4481
 7893SOL     OW35314   3.376   2.005   3.993  0.0364 -0.3746  0.8940
 7893SOL    HW135315   3.419   1.946   4.056  2.1675 -1.5694 -1.6890
 7893SOL    HW235316   3.450   2.022   3.935 -0.0269  1.6585  1.3863
 7894SOL     OW35317   3.581   4.707   7.202 -0.1065 -0.0842 -0.0934
 7894SOL    HW135318   3.550   4.643   7.266 -0.2234  1.4616  1.4022
 7894SOL    HW235319   3.610   4.651   7.131  1.3620  0.2223  0.2739
 7895SOL     OW35320   1.443   3.162  13.318  0.4824  0.0783  0.0123
 7895SOL    HW135321   1.486   3.115  13.390 -1.4016 -1.4710  0.1259
 7895SOL    HW235322   1.484   3.246  13.336 -2.9717  1.8214 -0.3613
 7896SOL     OW35323   0.640   0.001   4.748  0.2723  0.7621  0.0032
 7896SOL    HW135324   0.715   4.725   4.803  0.2522  1.8118  0.4178
 7896SOL    HW235325   0.616   0.092   4.769  5.4017  1.7758  1.5717
 7897SOL     OW35326   0.630   1.499   2.553  0.5208  0.0331  0.4635
 7897SOL    HW135327   0.603   1.590   2.542 -0.2405  0.1113  2.9469
 7897SOL    HW235328   0.724   1.501   2.539  0.4914 -1.3146  0.0425
 7898SOL     OW35329   1.183   2.872   4.895  0.0921 -0.2289  0.4144
 7898SOL    HW135330   1.109   2.868   4.955 -1.8178  1.2407 -1.8408
 7898SOL    HW235331   1.133   2.878   4.813  0.4149 -0.8572  0.1740
 7899SOL     OW35332   1.965   3.508   1.759  0.3411 -0.1879  0.1012
 7899SOL    HW135333   1.980   3.525   1.852  1.0287 -1.7683  0.2796
 7899SOL    HW235334   2.041   3.552   1.720  0.1241 -0.7822 -0.9662
 7900SOL     OW35335   3.774   2.995   5.747  0.0950 -0.1310  0.1556
 7900SOL    HW135336   3.811   2.988   5.834  1.1908 -1.1931 -0.3940
 7900SOL    HW235337   3.845   3.039   5.701 -0.4688 -1.4922 -2.0150
 7901SOL     OW35338   3.444   1.311   0.424  0.3077 -0.4050  0.4754
 7901SOL    HW135339   3.365   1.265   0.397  1.0416 -2.0182  1.0492
 7901SOL    HW235340   3.499   1.236   0.446 -1.0425 -1.3176  0.6571
 7902SOL     OW35341   3.506   2.947   1.555  0.3308 -0.0389 -0.0066
 7902SOL    HW135342   3.495   3.041   1.543  0.0975 -0.0602  0.0412
 7902SOL    HW235343   3.454   2.897   1.492 -0.2656 -0.7443  1.0482
 7903SOL     OW35344   3.839   1.342   3.779 -0.1115 -0.7029  0.1535
 7903SOL    HW135345   3.910   1.375   3.834  2.4819  0.2505 -3.7336
 7903SOL    HW235346   3.821   1.418   3.724 -1.9860 -0.6248  0.8859
 7904SOL     OW35347   2.875   2.303   6.901 -0.0344 -0.0693  0.5365
 7904SOL    HW135348   2.796   2.347   6.931 -1.7393 -2.8323  0.1290
 7904SOL    HW235349   2.913   2.264   6.980  3.3137 -2.5539 -2.3147
 7905SOL     OW35350   3.699   2.099   3.204 -0.3014  0.4042  0.0073
 7905SOL    HW135351   3.677   2.020   3.154  0.9152  0.4746 -0.6315
 7905SOL    HW235352   3.792   2.093   3.226 -0.5006  2.6492  1.4429
 7906SOL     OW35353   3.510   4.488   7.902  0.1386 -0.0208 -0.1338
 7906SOL    HW135354   3.509   4.393   7.890 -0.4124  0.0374 -0.5397
 7906SOL    HW235355   3.600   4.493   7.932  0.3043 -1.7231 -0.3439
 7907SOL     OW35356   1.553   0.674   8.699 -0.2673 -0.5966 -0.1668
 7907SOL    HW135357   1.575   0.682   8.792 -1.6215  0.8940  0.0399
 7907SOL    HW235358   1.601   0.747   8.660  0.2111 -0.9818 -0.2895
 7908SOL     OW35359   4.211   2.037   4.810 -0.0428  0.2100 -0.1005
 7908SOL    HW135360   4.220   2.053   4.904 -0.8305  1.9864 -0.3229
 7908SOL    HW235361   4.258   1.954   4.800 -0.6726 -0.5877  3.4200
 7909SOL     OW35362   2.376   0.271   4.049 -0.4140  0.5040  0.2791
 7909SOL    HW135363   2.401   0.354   4.091  0.5311  0.4586 -0.2014
 7909SOL    HW235364   2.367   0.291   3.956  0.9341  0.4193  0.1346
 7910SOL     OW35365   3.754   3.359   6.625  0.5477 -0.1783  0.1220
 7910SOL    HW135366   3.843   3.323   6.615  0.4881 -0.0565 -0.8602
 7910SOL    HW235367   3.713   3.309   6.695 -1.5110 -0.4165 -1.2423
 7911SOL     OW35368   0.996   1.014   2.750 -0.1747 -0.1209 -0.0276
 7911SOL    HW135369   0.943   0.943   2.786 -1.4477 -0.5384 -2.7638
 7911SOL    HW235370   1.048   0.980   2.678 -0.1636 -2.0374  0.8906
 7912SOL     OW35371   0.229   3.458  15.678  0.2177 -0.3382  0.0481
 7912SOL    HW135372   0.295   3.526  15.662 -0.8284  0.6393 -0.1161
 7912SOL    HW235373   0.242   3.411  15.596  1.2779 -0.3101  0.2005
 7913SOL     OW35374   4.563   4.626  13.446  0.1715  0.0480 -0.0251
 7913SOL    HW135375   4.602   4.538  13.438  1.0966  0.4973 -0.4847
 7913SOL    HW235376   4.530   4.623  13.536  0.5825 -0.3093  0.1178
 7914SOL     OW35377   2.011   1.420   2.422 -0.0123 -0.2109 -0.2482
 7914SOL    HW135378   1.924   1.444   2.455 -0.2768  1.7508 -2.3512
 7914SOL    HW235379   2.062   1.397   2.500 -0.0636  0.1924 -0.0984
 7915SOL     OW35380   4.415   1.930  16.960 -0.5057 -0.4053  0.5686
 7915SOL    HW135381   4.381   2.018  16.979 -0.4541 -0.5927  1.5108
 7915SOL    HW235382   4.374   1.911  16.875  1.3254  1.8486 -0.8229
 7916SOL     OW35383   3.028   3.481   1.495 -0.2379 -0.0885 -0.3745
 7916SOL    HW135384   3.108   3.453   1.450  1.5160  0.0071  2.6298
 7916SOL    HW235385   3.020   3.412   1.561  0.8860 -0.8070 -0.9753
 7917SOL     OW35386   4.073   4.260   0.469 -0.1960 -0.1408  0.2121
 7917SOL    HW135387   4.136   4.332   0.464 -0.4598  0.0572 -0.3563
 7917SOL    HW235388   3.992   4.309   0.452  0.2634  1.0642  1.5047
 7918SOL     OW35389   3.166   3.218   3.059  0.1023  0.1253 -0.1052
 7918SOL    HW135390   3.168   3.179   2.971 -0.0655 -2.7233  1.1494
 7918SOL    HW235391   3.242   3.276   3.059  0.4375 -0.3123 -0.0550
 7919SOL     OW35392   2.115   0.244   7.915  0.1981 -0.8282  0.0281
 7919SOL    HW135393   2.168   0.166   7.900  1.0354 -0.0405 -1.0771
 7919SOL    HW235394   2.145   0.273   8.001 -1.4657  0.0326  0.3287
 7920SOL     OW35395   0.008   3.570  11.651 -0.0458 -0.0202  0.1682
 7920SOL    HW135396   4.738   3.664  11.640 -2.9707 -0.1182  2.8509
 7920SOL    HW235397   0.019   3.547  11.559 -1.6467  0.5220 -0.1568
 7921SOL     OW35398   4.009   4.451   4.315  0.3363  0.1085  0.0300
 7921SOL    HW135399   4.089   4.495   4.288 -0.7857  1.5807 -0.9000
 7921SOL    HW235400   4.035   4.434   4.406 -2.8114 -1.8565  0.5661
 7922SOL     OW35401   3.312   1.534   6.670 -0.2904  0.6860 -0.1846
 7922SOL    HW135402   3.368   1.579   6.733  1.7730 -2.2133  0.0723
 7922SOL    HW235403   3.290   1.607   6.613 -0.7538 -0.7089 -1.7906
 7923SOL     OW35404   0.481   2.565   0.979 -0.1041 -0.1148  0.0129
 7923SOL    HW135405   0.412   2.626   0.952 -0.4475 -0.2633  0.5651
 7923SOL    HW235406   0.481   2.507   0.903 -0.4445  2.6134 -2.0688
 7924SOL     OW35407   3.697   2.292   4.739 -0.2778 -0.0708 -0.4342
 7924SOL    HW135408   3.747   2.254   4.811 -1.6568  1.1194  1.1636
 7924SOL    HW235409   3.685   2.217   4.681 -0.2450 -0.0240 -0.5014
 7925SOL     OW35410   2.705   0.969   5.727 -0.1247  0.6719  0.2272
 7925SOL    HW135411   2.661   0.897   5.680  1.2260  0.8571 -1.3327
 7925SOL    HW235412   2.790   0.927   5.742  0.9896  3.2339  0.9690
 7926SOL     OW35413   3.570   2.262   1.156 -0.2768 -0.1537 -0.0409
 7926SOL    HW135414   3.532   2.175   1.166  1.7336 -1.0103  0.2303
 7926SOL    HW235415   3.599   2.284   1.245  1.2300 -1.0612 -0.3054
 7927SOL     OW35416   4.433   0.492   3.803 -0.5179 -0.1158 -0.1180
 7927SOL    HW135417   4.418   0.579   3.839  0.2527 -1.3351  3.1201
 7927SOL    HW235418   4.447   0.502   3.708 -0.8653 -0.4171 -0.2005
 7928SOL     OW35419   2.293   4.367   3.348 -0.2530  0.3292 -0.9093
 7928SOL    HW135420   2.361   4.435   3.351  0.6476 -0.5318 -1.7619
 7928SOL    HW235421   2.331   4.301   3.290  0.5272  0.8811 -1.0376
 7929SOL     OW35422   3.836   2.630  12.567 -0.0948 -0.5957 -0.6730
 7929SOL    HW135423   3.917   2.650  12.614 -0.1734 -2.8707  0.4331
 7929SOL    HW235424   3.835   2.540  12.599  1.4773 -0.8670 -1.3835
 7930SOL     OW35425   1.168   0.188   6.605  0.1783  0.4362  0.0694
 7930SOL    HW135426   1.087   0.176   6.555 -0.0100 -0.9446  0.7164
 7930SOL    HW235427   1.130   0.200   6.692  1.0551 -0.7654  0.6255
 7931SOL     OW35428   0.513   2.239   2.581  0.1683  0.0881  0.4253
 7931SOL    HW135429   0.561   2.321   2.571 -1.5412  0.8854 -1.2769
 7931SOL    HW235430   0.523   2.223   2.675 -4.6431 -1.2711  0.7413
 7932SOL     OW35431   1.187   1.977  11.838 -0.2833  0.6968 -0.6369
 7932SOL    HW135432   1.258   1.967  11.775 -0.0892  1.3142 -0.5199
 7932SOL    HW235433   1.233   1.959  11.920 -1.4553 -0.7738 -0.2976
 7933SOL     OW35434   1.471   4.028  10.171 -0.9682 -0.3948 -0.4075
 7933SOL    HW135435   1.486   4.112  10.128 -0.5585  0.4325  1.3587
 7933SOL    HW235436   1.549   4.029  10.226 -0.6650 -0.4405 -0.8371
 7934SOL     OW35437   1.858   3.296   2.730  0.2238  0.4214  0.2118
 7934SOL    HW135438   1.948   3.322   2.713 -0.7274  1.8143 -2.6633
 7934SOL    HW235439   1.865   3.221   2.789 -1.5478  1.6509  1.9927
 7935SOL     OW35440   2.670   0.611   9.879  0.5562 -0.1818 -0.9718
 7935SOL    HW135441   2.758   0.631   9.911  0.3575 -0.0803 -0.4928
 7935SOL    HW235442   2.677   0.516   9.873  0.6665 -0.2218 -0.2465
 7936SOL     OW35443   2.929   4.454   8.902  0.4972 -0.0702  0.2138
 7936SOL    HW135444   2.907   4.519   8.836  0.5938  0.7631  0.9928
 7936SOL    HW235445   3.013   4.427   8.866  1.1188  1.8441  0.2425
 7937SOL     OW35446   3.428   0.547   6.366  0.0807  0.2556 -0.0302
 7937SOL    HW135447   3.397   0.545   6.275  1.0197 -0.9225 -0.3145
 7937SOL    HW235448   3.518   0.517   6.360 -0.2678 -0.6138 -0.8641
 7938SOL     OW35449   2.259   1.384  12.639 -0.5718 -0.1527 -0.0765
 7938SOL    HW135450   2.266   1.441  12.563 -1.3700 -0.2658 -0.2325
 7938SOL    HW235451   2.256   1.302  12.590 -0.9205 -1.5600  2.2729
 7939SOL     OW35452   4.382   0.239   3.924  0.2358  0.2690 -0.2656
 7939SOL    HW135453   4.297   0.210   3.891  0.7452 -0.8598 -0.5790
 7939SOL    HW235454   4.401   0.315   3.868 -0.7329  1.0419  0.4533
 7940SOL     OW35455   2.326   0.398   1.281  0.1258  0.3099 -0.3352
 7940SOL    HW135456   2.389   0.470   1.286  2.2869 -1.5537 -0.7600
 7940SOL    HW235457   2.246   0.439   1.249 -1.2307 -0.7194  1.7359
 7941SOL     OW35458   4.283   2.200   8.630  0.2659  0.7549 -0.3902
 7941SOL    HW135459   4.350   2.138   8.601  1.0234  0.6782  1.5666
 7941SOL    HW235460   4.315   2.284   8.597 -2.8253  2.0899  0.0457
 7942SOL     OW35461   4.203   2.502  16.251  0.1949  0.2637 -0.1021
 7942SOL    HW135462   4.116   2.529  16.280  0.8137 -0.5817  2.5673
 7942SOL    HW235463   4.221   2.449  16.328  1.4275  0.7700 -0.0340
 7943SOL     OW35464   3.878   1.867   7.711 -0.0290  0.3493  0.3795
 7943SOL    HW135465   3.855   1.921   7.636 -0.3744 -0.4861 -0.1189
 7943SOL    HW235466   3.823   1.900   7.782  1.1625 -1.6435  2.2304
 7944SOL     OW35467   3.536   0.338   9.065 -0.2041  0.0396 -1.1986
 7944SOL    HW135468   3.618   0.345   9.114 -0.7250 -0.8882 -0.1964
 7944SOL    HW235469   3.558   0.394   8.991 -0.8359  0.6419 -0.9284
 7945SOL     OW35470   3.622   0.488  17.082 -0.1690  0.3887  0.2754
 7945SOL    HW135471   3.535   0.460  17.110 -0.0843 -1.0898 -0.9399
 7945SOL    HW235472   3.651   0.528  17.164  0.0786 -1.0464  0.8803
 7946SOL     OW35473   3.263   1.444   2.626 -0.2210 -0.3078  0.0200
 7946SOL    HW135474   3.220   1.382   2.684 -1.9413  0.6607 -0.2213
 7946SOL    HW235475   3.356   1.431   2.646 -0.4202 -0.7457  0.6706
 7947SOL     OW35476   4.621   2.890   3.696 -0.6801  0.5493 -0.2869
 7947SOL    HW135477   4.612   2.978   3.658 -2.0443  1.1896  1.4978
 7947SOL    HW235478   4.713   2.871   3.676 -1.1994 -1.6981 -0.4848
 7948SOL     OW35479   4.575   2.439   6.970 -0.5407  0.6507  0.7558
 7948SOL    HW135480   4.504   2.501   6.959  0.6209  2.0507  1.1768
 7948SOL    HW235481   4.646   2.485   6.925 -0.3447 -1.5362 -1.2162
 7949SOL     OW35482   4.328   2.781  10.694  0.0057  0.2543  0.2786
 7949SOL    HW135483   4.411   2.738  10.675 -0.4314 -0.8818  0.9542
 7949SOL    HW235484   4.268   2.713  10.663  2.1389 -1.3226 -0.4249
 7950SOL     OW35485   1.268   1.753   3.751 -0.0610 -0.2363  0.0716
 7950SOL    HW135486   1.198   1.816   3.765 -1.1225 -1.1033 -1.3312
 7950SOL    HW235487   1.306   1.739   3.838  0.3424 -3.1456 -0.5413
 7951SOL     OW35488   2.834   4.733   4.503 -0.3831 -0.0629 -0.0587
 7951SOL    HW135489   2.756   0.041   4.482 -2.0745 -3.0875 -1.4111
 7951SOL    HW235490   2.886   0.056   4.545 -0.6648  0.5938 -0.7491
 7952SOL     OW35491   3.161   2.138   4.368 -0.2120  0.1973  0.9771
 7952SOL    HW135492   3.189   2.047   4.365 -2.0607 -0.3082 -1.1990
 7952SOL    HW235493   3.176   2.171   4.280  3.0967 -0.5109  1.2848
 7953SOL     OW35494   4.626   3.141   4.416 -0.0573 -0.3175 -0.5322
 7953SOL    HW135495   4.684   3.216   4.414  0.4008 -0.6465  0.2260
 7953SOL    HW235496   4.647   3.095   4.335  0.0875 -0.6132 -0.3274
 7954SOL     OW35497   3.908   0.570   5.073  0.2340 -0.0010 -0.3745
 7954SOL    HW135498   3.923   0.504   5.141  1.9310  0.6055 -0.1662
 7954SOL    HW235499   3.995   0.606   5.057  1.4484 -0.9100  4.1668
 7955SOL     OW35500   0.633   2.829  13.849  0.6174 -0.0792 -0.1861
 7955SOL    HW135501   0.614   2.786  13.765 -1.2321 -0.4581  0.4351
 7955SOL    HW235502   0.728   2.822  13.838  0.6307  0.5497 -0.4549
 7956SOL     OW35503   0.390   4.396   7.093  0.1843 -0.2961 -0.1133
 7956SOL    HW135504   0.339   4.332   7.143  2.4897 -1.2328  1.0855
 7956SOL    HW235505   0.476   4.378   7.131  0.8808 -0.4262 -1.7243
 7957SOL     OW35506   2.763   2.921   3.682  0.0293 -0.0715  0.1782
 7957SOL    HW135507   2.804   3.002   3.652  1.7501 -0.9165  0.2380
 7957SOL    HW235508   2.822   2.897   3.753 -0.2922 -1.5667 -0.0704
 7958SOL     OW35509   4.593   4.095   8.956  0.2116  0.3402  0.3011
 7958SOL    HW135510   4.519   4.069   9.011 -0.1801  0.6318 -0.0841
 7958SOL    HW235511   4.609   4.012   8.909 -0.8101  0.9534 -1.1377
 7959SOL     OW35512   1.684   3.012   6.537 -0.2464 -0.2967 -0.0564
 7959SOL    HW135513   1.632   3.002   6.617 -0.6001  1.5480 -0.0604
 7959SOL    HW235514   1.644   2.945   6.480 -1.8781  0.1022  0.6193
 7960SOL     OW35515   1.922   2.912   5.920 -0.3016 -0.1860 -0.5402
 7960SOL    HW135516   1.909   2.820   5.943 -0.8193  0.3747  1.4025
 7960SOL    HW235517   2.000   2.909   5.863  1.5843 -0.8293  2.0745
 7961SOL     OW35518   1.326   0.161   5.430  0.4285 -0.1819  0.5186
 7961SOL    HW135519   1.338   0.174   5.524  2.6981 -0.0986  0.2141
 7961SOL    HW235520   1.413   0.126   5.410  0.6454  1.4181 -1.3821
 7962SOL     OW35521   1.146   3.471   5.577 -0.6205 -0.0527  0.4794
 7962SOL    HW135522   1.175   3.389   5.617  1.1795 -0.8151 -2.4236
 7962SOL    HW235523   1.223   3.520   5.607 -1.6270  1.6157  0.3147
 7963SOL     OW35524   2.268   4.621   0.560 -0.1615  0.1125 -0.1878
 7963SOL    HW135525   2.355   4.592   0.586  0.1790  1.0588 -0.2704
 7963SOL    HW235526   2.230   4.542   0.522 -1.4684  1.6793 -2.1527
 7964SOL     OW35527   0.013   2.636  17.374  0.1798 -1.0445 -0.4772
 7964SOL    HW135528   4.680   2.648  17.319 -0.7801  0.8325  1.2790
 7964SOL    HW235529   4.709   2.643  17.457  0.1776 -2.0650 -0.3935
 7965SOL     OW35530   3.792   0.772  11.391  0.5887  0.2782 -0.1666
 7965SOL    HW135531   3.820   0.839  11.328  1.3927 -0.8434 -0.9960
 7965SOL    HW235532   3.796   0.813  11.477  0.2582  0.4792 -0.2428
 7966SOL     OW35533   1.306   0.911  14.384  0.5784 -0.3135 -0.3312
 7966SOL    HW135534   1.352   0.936  14.304  0.1055  4.2675  0.8086
 7966SOL    HW235535   1.358   0.948  14.455 -0.8179 -0.6539  0.8780
 7967SOL     OW35536   2.739   2.701  16.826 -0.6653  0.7289  0.4947
 7967SOL    HW135537   2.781   2.784  16.850 -0.6324  0.8194  0.1176
 7967SOL    HW235538   2.678   2.736  16.762 -0.7649 -2.6966 -1.2994
 7968SOL     OW35539   1.754   3.603  11.082 -0.1420 -0.3806  0.0912
 7968SOL    HW135540   1.687   3.575  11.019 -0.5738 -1.2385  0.9198
 7968SOL    HW235541   1.829   3.639  11.034 -1.4227  0.3591 -1.3686
 7969SOL     OW35542   2.291   1.677  15.161 -0.0466  0.3103 -0.0464
 7969SOL    HW135543   2.364   1.648  15.106 -0.0851 -2.3011  1.2935
 7969SOL    HW235544   2.317   1.645  15.247  1.8925 -0.7814 -1.0378
 7970SOL     OW35545   0.584   3.007   6.605 -0.0576 -0.1654  0.5688
 7970SOL    HW135546   0.647   3.061   6.653  1.7017 -1.0083 -0.8018
 7970SOL    HW235547   0.509   3.067   6.604  0.2148  0.1549 -1.5689
 7971SOL     OW35548   0.268   2.539  17.471  0.1469 -0.6181 -0.1717
 7971SOL    HW135549   0.187   2.566  17.427  0.5987  0.3681 -0.4017
 7971SOL    HW235550   0.254   2.596  17.547 -1.5288 -0.3790 -0.6567
 7972SOL     OW35551   1.467   1.883   6.590 -0.0700  0.1888  0.0221
 7972SOL    HW135552   1.460   1.788   6.590 -0.4902  0.2260 -0.5137
 7972SOL    HW235553   1.378   1.910   6.611 -0.4233 -2.8320  2.3488
 7973SOL     OW35554   0.786   3.671  17.639  0.0999 -0.6309  0.0078
 7973SOL    HW135555   0.807   3.669  17.733 -1.1222 -0.1000  0.2933
 7973SOL    HW235556   0.690   3.665  17.639 -0.1516  3.9722 -1.7783
 7974SOL     OW35557   3.723   1.869   9.413 -0.0225 -0.5871  0.0560
 7974SOL    HW135558   3.766   1.882   9.497 -0.4954 -1.5089  0.4385
 7974SOL    HW235559   3.641   1.909   9.442 -0.8210 -0.0499 -2.9250
 7975SOL     OW35560   0.036   0.973   5.621  0.5637  0.2148  0.0353
 7975SOL    HW135561   0.044   1.041   5.688 -0.2369 -0.4347  0.8111
 7975SOL    HW235562   0.117   0.922   5.629 -0.1038 -0.8120  0.3323
 7976SOL     OW35563   0.494   3.953   2.764  0.0251 -0.2286  0.4531
 7976SOL    HW135564   0.446   3.873   2.786 -2.5479  0.5495 -2.2391
 7976SOL    HW235565   0.502   3.990   2.852  0.3547 -3.1829  1.6653
 7977SOL     OW35566   4.541   2.481   4.049  0.1201 -0.0428  0.5669
 7977SOL    HW135567   4.491   2.515   4.124  0.9473  0.0776  1.0570
 7977SOL    HW235568   4.561   2.564   4.006  1.1061  0.3052  1.7149
 7978SOL     OW35569   2.755   0.393   4.614  0.7082  0.5052 -0.2421
 7978SOL    HW135570   2.694   0.417   4.544 -1.0669 -0.3586  1.0021
 7978SOL    HW235571   2.728   0.442   4.692 -2.8557 -1.2197 -0.3961
 7979SOL     OW35572   2.861   1.025   2.346  0.5522 -0.5898 -0.1277
 7979SOL    HW135573   2.919   0.952   2.324 -1.0285 -1.8925 -0.0620
 7979SOL    HW235574   2.781   0.995   2.301  0.2321 -2.7101  1.8063
 7980SOL     OW35575   0.744   0.934   6.515  0.2306 -0.3194 -0.1530
 7980SOL    HW135576   0.786   0.993   6.452 -0.6152  1.0039  0.5204
 7980SOL    HW235577   0.666   0.983   6.539  0.2206 -0.4702  0.1316
 7981SOL     OW35578   2.880   1.445   2.402 -0.6020 -0.4361  0.1661
 7981SOL    HW135579   2.825   1.419   2.328  1.1442 -2.6987 -0.3107
 7981SOL    HW235580   2.925   1.364   2.426  0.3188  0.0728  0.1431
 7982SOL     OW35581   3.907   0.730   2.557 -0.3931  0.3063  0.6907
 7982SOL    HW135582   3.888   0.765   2.644  3.3548 -0.6150  1.8808
 7982SOL    HW235583   3.819   0.717   2.521 -0.6965 -0.2461  1.6369
 7983SOL     OW35584   4.233   0.571   7.013  0.3381 -0.6347  0.0370
 7983SOL    HW135585   4.176   0.589   6.938  0.7858  0.8533  0.0459
 7983SOL    HW235586   4.313   0.528   6.984  1.6321  1.9064 -0.2354
 7984SOL     OW35587   3.573   0.540  12.368 -0.5544 -0.1514 -0.5327
 7984SOL    HW135588   3.492   0.501  12.401  1.5308 -2.8046  1.3882
 7984SOL    HW235589   3.556   0.542  12.274 -0.3498  0.0751 -0.5642
 7985SOL     OW35590   1.567   3.029   3.481  0.8461  0.1024  0.3886
 7985SOL    HW135591   1.493   2.998   3.533  0.5867 -0.2787 -0.2234
 7985SOL    HW235592   1.627   3.071   3.543  4.0274 -1.3655 -1.7094
 7986SOL     OW35593   3.323   1.782   3.566 -0.2932  0.3311  0.0459
 7986SOL    HW135594   3.386   1.772   3.637 -0.5305  2.3033  0.5302
 7986SOL    HW235595   3.323   1.694   3.528  1.6486 -0.4395  1.8070
 7987SOL     OW35596   1.343   1.714   9.312  0.2201 -0.9170 -0.3547
 7987SOL    HW135597   1.374   1.661   9.385 -1.5534 -0.7982  0.4654
 7987SOL    HW235598   1.413   1.704   9.247 -0.2499 -0.4452 -0.9402
 7988SOL     OW35599   0.872   0.608   5.191 -0.2363 -0.1012 -0.1695
 7988SOL    HW135600   0.853   0.514   5.195 -2.3638  0.2720 -1.2654
 7988SOL    HW235601   0.958   0.614   5.232 -0.5449 -2.3735  0.8007
 7989SOL     OW35602   1.333   4.341   9.037  0.2702 -0.0588  0.0895
 7989SOL    HW135603   1.307   4.250   9.020 -0.6176  0.0942  0.6052
 7989SOL    HW235604   1.424   4.353   9.062 -0.0743  1.1251  0.8150
 7990SOL     OW35605   4.132   1.483   3.809  0.2479 -0.4896  0.0192
 7990SOL    HW135606   4.205   1.484   3.870 -2.4226  0.0686  3.1851
 7990SOL    HW235607   4.077   1.557   3.835  2.4777  0.8258  0.9737
 7991SOL     OW35608   4.443   1.439  14.250 -0.0486  0.1752 -0.2111
 7991SOL    HW135609   4.490   1.409  14.172  0.3261 -1.9366  0.8266
 7991SOL    HW235610   4.355   1.417  14.218  0.3336 -2.3134  0.4209
 7992SOL     OW35611   0.864   3.051  16.962 -0.3117  0.1400 -0.1460
 7992SOL    HW135612   0.830   3.140  16.958 -0.5076  0.0747  0.0568
 7992SOL    HW235613   0.942   3.072  17.012 -0.6695 -0.4431  0.6592
 7993SOL     OW35614   4.294   0.637  17.334 -0.6059 -0.5629  0.2740
 7993SOL    HW135615   4.318   0.547  17.357 -0.6878 -0.8466 -0.7656
 7993SOL    HW235616   4.241   0.624  17.255 -0.8567  1.0953  0.1725
 7994SOL     OW35617   3.702   3.164   6.825 -0.1107 -0.5117 -0.0306
 7994SOL    HW135618   3.788   3.132   6.852 -1.1548 -3.1038  0.1915
 7994SOL    HW235619   3.683   3.116   6.745 -0.9665 -2.0409  1.0934
 7995SOL     OW35620   1.512   0.215   8.886 -0.5592 -0.6955  0.7628
 7995SOL    HW135621   1.500   0.143   8.948 -2.0862  2.7213  4.4084
 7995SOL    HW235622   1.440   0.271   8.914  0.9005  0.3859  2.4147
 7996SOL     OW35623   3.673   3.879   3.451  0.1388 -0.3280 -0.7540
 7996SOL    HW135624   3.678   3.932   3.530  0.0394 -1.9281  0.3342
 7996SOL    HW235625   3.682   3.788   3.479  0.2919 -0.3595 -0.9047
 7997SOL     OW35626   2.278   1.163   2.863 -0.5281 -0.0790 -0.5694
 7997SOL    HW135627   2.210   1.168   2.929 -1.8413 -1.0375 -1.8423
 7997SOL    HW235628   2.241   1.200   2.783  1.2905  3.9653  0.5030
 7998SOL     OW35629   0.435   3.636   5.639 -0.0217  0.5499  0.6278
 7998SOL    HW135630   0.400   3.548   5.625  1.8481 -0.0810 -0.1070
 7998SOL    HW235631   0.389   3.656   5.720 -0.0510 -0.4088  0.8514
 7999SOL     OW35632   3.990   3.915   1.866 -0.0190 -0.0472  0.0425
 7999SOL    HW135633   3.948   3.831   1.885 -2.9021  1.0676 -1.4088
 7999SOL    HW235634   4.009   3.906   1.773 -2.0804  0.8455 -0.4494
 8000SOL     OW35635   0.958   1.753  16.925 -0.1899 -0.1270 -0.4845
 8000SOL    HW135636   0.929   1.828  16.977  1.3438 -0.0142  0.2138
 8000SOL    HW235637   0.924   1.769  16.837 -1.2409 -0.2911 -0.1041
 8001SOL     OW35638   1.000   1.363   8.756 -0.0400 -0.4530 -0.1680
 8001SOL    HW135639   0.959   1.350   8.842  0.7303 -1.1773  0.0914
 8001SOL    HW235640   0.946   1.304   8.704 -0.8660 -0.6827  0.9573
 8002SOL     OW35641   2.457   4.332   0.281  0.1888  0.2040  0.6272
 8002SOL    HW135642   2.412   4.305   0.361 -0.2337 -0.0685  0.2990
 8002SOL    HW235643   2.387   4.385   0.243  0.1691  1.3460  2.2821
 8003SOL     OW35644   1.496   1.498   8.196 -0.1020  0.3651  0.0604
 8003SOL    HW135645   1.564   1.434   8.216  0.3042  0.4222 -1.1155
 8003SOL    HW235646   1.430   1.437   8.162 -0.3530  0.7945 -0.2165
 8004SOL     OW35647   1.946   1.950   6.383  0.1219  0.3297 -0.2336
 8004SOL    HW135648   2.003   1.922   6.455 -3.5640  0.7608  2.8767
 8004SOL    HW235649   1.862   1.949   6.429  0.3608  0.1975  0.2007
 8005SOL     OW35650   0.905   2.593   5.535 -0.0260 -0.0439  0.2561
 8005SOL    HW135651   0.972   2.535   5.499  0.5218  0.3813  0.6059
 8005SOL    HW235652   0.927   2.605   5.627  1.1279  0.4422 -0.0815
 8006SOL     OW35653   0.322   0.596  16.282  0.2315  0.4944  0.3495
 8006SOL    HW135654   0.401   0.547  16.259  0.0494  1.4068 -2.2837
 8006SOL    HW235655   0.263   0.592  16.206  0.0326  3.1823  0.3525
 8007SOL     OW35656   3.482   2.105   2.469 -0.2033 -0.2559 -0.3732
 8007SOL    HW135657   3.470   2.164   2.544  1.5375 -1.3896  0.7971
 8007SOL    HW235658   3.401   2.056   2.466 -0.7756  0.5365  2.6425
 8008SOL     OW35659   4.528   1.391   4.278  0.3489 -0.2841 -0.2434
 8008SOL    HW135660   4.557   1.454   4.344  0.6392 -1.2293  0.5289
 8008SOL    HW235661   4.469   1.340   4.332  1.9137 -1.0611  0.7439
 8009SOL     OW35662   3.038   3.522   9.394  0.5466 -0.2310 -0.3404
 8009SOL    HW135663   3.055   3.499   9.302  0.5069 -0.0927 -0.3836
 8009SOL    HW235664   3.123   3.506   9.435  1.0110  1.7686 -0.5323
 8010SOL     OW35665   2.085   3.081   7.345 -0.0232  0.2192 -0.9775
 8010SOL    HW135666   1.993   3.067   7.368 -0.3836 -0.4653 -2.8958
 8010SOL    HW235667   2.105   3.153   7.405  1.1087 -0.6889 -0.2661
 8011SOL     OW35668   4.011   3.123   2.455 -0.0667 -0.4850 -0.6059
 8011SOL    HW135669   4.029   3.178   2.379  1.3838  0.6999  0.6107
 8011SOL    HW235670   3.997   3.183   2.528  1.0641  0.1660 -0.9234
 8012SOL     OW35671   0.097   0.979   0.946  0.2952  0.6500 -0.0463
 8012SOL    HW135672   0.010   0.942   0.963  1.1962 -1.4316 -0.0337
 8012SOL    HW235673   0.122   0.937   0.864  0.3408 -2.5993  1.6324
 8013SOL     OW35674   4.698   1.317   8.513  0.0689  0.3824 -0.1795
 8013SOL    HW135675   4.692   1.281   8.601 -1.9483 -1.3032 -1.0140
 8013SOL    HW235676   4.606   1.315   8.485 -0.5220 -1.5321  1.9183
 8014SOL     OW35677   1.335   0.348   5.929 -0.2539 -0.5176  1.1233
 8014SOL    HW135678   1.265   0.301   5.973 -2.7699  1.6030 -0.6176
 8014SOL    HW235679   1.349   0.435   5.967 -0.1868  0.8154 -1.9291
 8015SOL     OW35680   1.691   1.285  13.593  0.2321 -0.1746  0.1113
 8015SOL    HW135681   1.748   1.357  13.623  1.1729 -0.5154 -0.8791
 8015SOL    HW235682   1.610   1.317  13.553  0.7074  2.7581  1.4625
 8016SOL     OW35683   3.094   2.487   2.857  0.0954  0.6631 -0.3360
 8016SOL    HW135684   3.157   2.430   2.901  0.6296  0.3964 -1.4595
 8016SOL    HW235685   3.113   2.573   2.895 -0.3565  0.6406 -0.0634
 8017SOL     OW35686   2.385   1.174   9.115  0.1310  0.0505  0.2299
 8017SOL    HW135687   2.434   1.221   9.183 -0.4470  0.3872  0.4201
 8017SOL    HW235688   2.406   1.082   9.129  2.4851  0.4884 -0.4750
 8018SOL     OW35689   0.011   1.056  11.024 -0.2496 -0.2143 -0.2909
 8018SOL    HW135690   4.724   1.088  11.109 -1.3737  1.2283 -1.2544
 8018SOL    HW235691   4.687   1.094  10.968  0.7848  0.8203 -0.8627
 8019SOL     OW35692   2.965   3.634   0.194  0.0479  0.0694  0.3238
 8019SOL    HW135693   2.903   3.643   0.121  0.0034 -0.0300  0.3485
 8019SOL    HW235694   2.918   3.577   0.255  0.7809  0.8759  1.6514
 8020SOL     OW35695   1.479   1.725   1.493 -0.5727 -0.2945 -0.4079
 8020SOL    HW135696   1.442   1.713   1.406 -0.3225 -0.1769 -0.5281
 8020SOL    HW235697   1.572   1.703   1.490 -0.2813  0.4168  2.6745
 8021SOL     OW35698   0.130   2.805   3.636  0.5805  0.1948 -0.6860
 8021SOL    HW135699   0.123   2.770   3.547  2.6351 -0.9678 -0.3937
 8021SOL    HW235700   0.191   2.877   3.625 -0.2158  1.2306  1.8234
 8022SOL     OW35701   0.376   4.049   8.127 -0.9799  0.6276  0.0273
 8022SOL    HW135702   0.467   4.027   8.111 -1.0846  0.7259 -0.7068
 8022SOL    HW235703   0.382   4.127   8.183 -1.8769  1.1432 -0.5882
 8023SOL     OW35704   0.201   4.437   6.582 -0.3221 -0.7499 -0.0795
 8023SOL    HW135705   0.109   4.465   6.590  0.2550  0.6948  1.5242
 8023SOL    HW235706   0.190   4.348   6.616  0.4577 -0.7629  0.1269
 8024SOL     OW35707   2.306   4.184   4.893  0.0795 -0.6304 -0.5688
 8024SOL    HW135708   2.244   4.112   4.899  0.5432 -1.0936 -1.2652
 8024SOL    HW235709   2.349   4.164   4.809 -2.0097  1.8577 -2.2476
 8025SOL     OW35710   1.094   1.454  12.988  0.1020  0.0296  0.2139
 8025SOL    HW135711   1.101   1.494  13.075 -4.2709 -0.3671  0.7439
 8025SOL    HW235712   1.000   1.438  12.988  0.5464 -2.7583 -0.8732
 8026SOL     OW35713   0.103   2.230   7.011 -0.5081 -0.0069 -0.4831
 8026SOL    HW135714   0.124   2.260   6.923  1.2053  0.9527  0.2527
 8026SOL    HW235715   0.189   2.204   7.045 -0.3092  1.0552 -0.1614
 8027SOL     OW35716   1.291   0.582   7.545  0.2826  0.8340  0.2716
 8027SOL    HW135717   1.224   0.523   7.578  0.9072  0.4114  0.7674
 8027SOL    HW235718   1.356   0.517   7.519  2.3249  3.7033 -1.8828
 8028SOL     OW35719   3.425   2.604   8.006  0.0745 -0.3056 -0.1279
 8028SOL    HW135720   3.411   2.583   8.099  0.6105  1.7793  0.4315
 8028SOL    HW235721   3.387   2.525   7.968 -2.3723 -0.0816  1.8295
 8029SOL     OW35722   3.166   2.763  12.720  0.1615  0.4771  0.4092
 8029SOL    HW135723   3.071   2.760  12.731  0.0527 -0.3184 -0.7352
 8029SOL    HW235724   3.196   2.680  12.757 -1.1239  0.7087  1.9701
 8030SOL     OW35725   4.654   0.465   8.891  0.3362  0.2358  0.1013
 8030SOL    HW135726   4.734   0.473   8.942 -0.3724  1.9070  0.9348
 8030SOL    HW235727   4.682   0.512   8.812  1.0913 -1.1617 -0.4779
 8031SOL     OW35728   0.202   0.321   6.247  0.0317 -0.2971 -0.4745
 8031SOL    HW135729   0.228   0.251   6.308 -2.5861  1.1260  2.3126
 8031SOL    HW235730   0.213   0.272   6.166 -1.1030 -0.9836 -0.2171
 8032SOL     OW35731   2.751   1.315   3.290 -0.8605  0.4054 -0.0148
 8032SOL    HW135732   2.818   1.372   3.252 -0.6233  0.0989 -0.0565
 8032SOL    HW235733   2.694   1.288   3.218 -1.2414 -1.9908  1.1757
 8033SOL     OW35734   2.876   3.432  16.961  0.2970 -0.1977 -0.2871
 8033SOL    HW135735   2.897   3.500  16.896 -0.6008 -0.6296 -1.0357
 8033SOL    HW235736   2.881   3.479  17.044 -1.4195 -0.1510 -0.2124
 8034SOL     OW35737   2.160   4.110   8.356  0.5131  0.5453  0.3233
 8034SOL    HW135738   2.156   4.181   8.420  0.5088  2.6687 -2.0052
 8034SOL    HW235739   2.066   4.094   8.345  0.5919 -1.1211  2.0444
 8035SOL     OW35740   0.522   1.270   3.767  0.2383  0.0552  0.2484
 8035SOL    HW135741   0.472   1.351   3.754  1.9032  1.1485  0.5499
 8035SOL    HW235742   0.459   1.221   3.819 -1.4636  2.2385  0.2309
 8036SOL     OW35743   4.552   3.959   3.383  0.4863  0.0965 -0.2785
 8036SOL    HW135744   4.644   3.985   3.388  1.2208 -2.1631 -2.1337
 8036SOL    HW235745   4.550   3.925   3.294 -1.3967  0.4701 -0.3776
 8037SOL     OW35746   2.020   1.098   1.430  0.1852 -0.7197 -0.6788
 8037SOL    HW135747   2.009   1.130   1.341 -0.4794 -0.0575 -0.3658
 8037SOL    HW235748   1.932   1.081   1.464  0.9443 -0.2965  1.5205
 8038SOL     OW35749   2.145   3.820  14.466  0.0036  0.0515  0.5659
 8038SOL    HW135750   2.151   3.734  14.509 -1.5849 -0.8147 -0.9745
 8038SOL    HW235751   2.190   3.877  14.528  0.1721 -0.2915  0.7648
 8039SOL     OW35752   3.638   1.335   5.727  0.4669  0.7804  0.6362
 8039SOL    HW135753   3.628   1.343   5.632 -1.0262  1.3053  0.8431
 8039SOL    HW235754   3.725   1.295   5.738  1.8304  3.5630  0.1369
 8040SOL     OW35755   0.857   1.641   2.873  0.1314  0.2084 -0.0311
 8040SOL    HW135756   0.901   1.611   2.793  1.7322 -0.3107  1.0659
 8040SOL    HW235757   0.852   1.735   2.856 -0.1388  0.4459  1.3880
 8041SOL     OW35758   0.353   4.242  16.173  1.0163  0.0111  0.2734
 8041SOL    HW135759   0.360   4.282  16.086  2.2916 -1.9718 -0.5464
 8041SOL    HW235760   0.369   4.321  16.224  0.0904  0.9060 -0.8265
 8042SOL     OW35761   3.698   3.895   2.188  0.1714 -0.0769  0.0506
 8042SOL    HW135762   3.733   3.960   2.126  0.4742  0.6309  0.9660
 8042SOL    HW235763   3.745   3.917   2.268 -1.0815  0.2666  0.6943
 8043SOL     OW35764   3.746   0.520   6.677  0.1512 -0.1338 -0.2129
 8043SOL    HW135765   3.721   0.569   6.598  0.6628  2.9751  1.5709
 8043SOL    HW235766   3.800   0.586   6.721  0.4128 -0.6515  0.2370
 8044SOL     OW35767   2.830   3.324  13.711  0.3031 -0.2551 -0.4389
 8044SOL    HW135768   2.859   3.329  13.802  0.7223  1.1850 -0.6448
 8044SOL    HW235769   2.735   3.332  13.725  0.1344 -0.0158 -1.7339
 8045SOL     OW35770   2.155   2.190   7.186 -1.1274  0.0992 -0.1614
 8045SOL    HW135771   2.229   2.130   7.191 -1.3956 -0.2882 -0.7705
 8045SOL    HW235772   2.087   2.149   7.239 -1.8078  1.7628  0.2600
 8046SOL     OW35773   0.373   4.060   4.052  0.5521  0.9266 -0.0630
 8046SOL    HW135774   0.468   4.061   4.040  0.5446  1.9707 -0.0633
 8046SOL    HW235775   0.342   4.097   3.970 -0.7675  0.2662  0.1388
 8047SOL     OW35776   2.811   0.201  10.794  0.9124 -0.0021 -0.4590
 8047SOL    HW135777   2.737   0.257  10.770  1.5815  1.2762  0.4802
 8047SOL    HW235778   2.873   0.212  10.722 -0.0473 -1.3324 -1.4710
 8048SOL     OW35779   4.218   4.616   4.283 -0.4821  0.2118 -0.5151
 8048SOL    HW135780   4.217   4.650   4.194 -2.1201  1.6304  0.0482
 8048SOL    HW235781   4.208   4.694   4.336  2.2398 -0.2905  0.7536
 8049SOL     OW35782   0.843   1.597   6.221 -0.1508  0.3944 -0.1780
 8049SOL    HW135783   0.886   1.655   6.158 -0.0479  1.2334  0.6742
 8049SOL    HW235784   0.919   1.540   6.229 -1.3007 -0.9180  1.5332
 8050SOL     OW35785   4.381   0.464  15.791  0.3671  0.4045 -0.8975
 8050SOL    HW135786   4.416   0.525  15.726 -1.9821  0.9625 -1.6712
 8050SOL    HW235787   4.298   0.511  15.805 -0.3383 -1.1875  0.2730
 8051SOL     OW35788   4.122   0.628   7.486 -0.0350 -0.0617  0.4214
 8051SOL    HW135789   4.050   0.586   7.533  0.8376 -2.4107 -0.3387
 8051SOL    HW235790   4.109   0.582   7.403  1.8561  2.6018 -1.3268
 8052SOL     OW35791   3.939   2.615   0.042 -0.2515  0.8157 -0.7323
 8052SOL    HW135792   3.895   2.550  17.759  1.7574 -0.9073 -0.2964
 8052SOL    HW235793   3.972   2.677  17.749  1.6578 -0.9650 -1.4651
 8053SOL     OW35794   0.528   1.036   6.881  0.4848 -0.1890 -0.3169
 8053SOL    HW135795   0.611   1.074   6.853 -0.6481  2.1603 -0.5279
 8053SOL    HW235796   0.556   1.005   6.967  0.9363 -0.0765 -0.4241
 8054SOL     OW35797   4.313   2.216   5.858  0.2608  0.1308  0.7241
 8054SOL    HW135798   4.281   2.138   5.904  0.5780 -0.5143 -0.1492
 8054SOL    HW235799   4.258   2.225   5.780  1.7729 -0.5973 -0.4302
 8055SOL     OW35800   3.192   0.180  10.842 -0.0627  0.0177 -0.0095
 8055SOL    HW135801   3.231   0.265  10.821 -0.0534  0.1746  0.6389
 8055SOL    HW235802   3.164   0.150  10.756  2.2625 -3.6246  0.4950
 8056SOL     OW35803   0.293   1.419  12.641  0.4048  0.1562 -0.2191
 8056SOL    HW135804   0.247   1.361  12.580  1.7708  0.9312 -2.0093
 8056SOL    HW235805   0.342   1.483  12.589  0.4098  0.1313 -0.2451
 8057SOL     OW35806   2.712   3.928   8.754  0.3909 -0.2571 -0.0031
 8057SOL    HW135807   2.769   3.996   8.790  0.6818 -0.5880  0.1690
 8057SOL    HW235808   2.677   3.883   8.831  1.8322 -0.2205  0.6747
 8058SOL     OW35809   1.546   3.295   6.532  0.9195  0.3006  0.8472
 8058SOL    HW135810   1.605   3.256   6.596  3.0756  0.1407 -1.2287
 8058SOL    HW235811   1.501   3.218   6.497  2.0807 -0.3227  0.7219
 8059SOL     OW35812   4.692   0.204   1.720 -0.2859  0.1929  0.0894
 8059SOL    HW135813   0.029   0.254   1.729 -1.7989  2.6377  0.1109
 8059SOL    HW235814   4.709   0.162   1.635 -0.4248 -1.2690  0.7866
 8060SOL     OW35815   3.600   3.655   8.983  0.2621 -0.4817 -0.2513
 8060SOL    HW135816   3.546   3.586   9.021 -1.1569 -0.0405 -1.4802
 8060SOL    HW235817   3.554   3.662   8.900 -0.2705  1.1182  0.1711
 8061SOL     OW35818   0.795   3.599   8.926 -0.4567  0.4982  0.2698
 8061SOL    HW135819   0.785   3.669   8.990 -1.0784  1.0489 -0.4360
 8061SOL    HW235820   0.734   3.532   8.956  1.6268 -1.1882  0.7793
 8062SOL     OW35821   0.590   4.388   4.100  0.1028 -0.3792  0.7211
 8062SOL    HW135822   0.500   4.370   4.129  0.0241 -0.6992  0.2895
 8062SOL    HW235823   0.589   4.482   4.117  2.2808 -0.1709 -0.3517
 8063SOL     OW35824   1.207   2.354   5.174  0.4487 -0.6390  0.0862
 8063SOL    HW135825   1.302   2.353   5.162  0.4584 -2.1136  0.3072
 8063SOL    HW235826   1.189   2.288   5.107  1.8940 -0.9450  0.0092
 8064SOL     OW35827   2.139   0.015  17.572 -1.2117 -0.0007  0.3947
 8064SOL    HW135828   2.116   4.738  17.481  1.7688  0.3251 -0.4387
 8064SOL    HW235829   2.234   0.016  17.557 -1.6405  0.5192 -2.4614
 8065SOL     OW35830   4.250   0.880  12.017 -0.6838 -0.2122 -0.2723
 8065SOL    HW135831   4.267   0.972  11.995  0.9255  0.5124  3.9553
 8065SOL    HW235832   4.178   0.893  12.079 -0.1031  2.0648 -0.0713
 8066SOL     OW35833   1.826   4.074   0.868 -0.4329 -0.6291 -0.1217
 8066SOL    HW135834   1.822   4.159   0.913 -3.9306 -0.9164  0.0911
 8066SOL    HW235835   1.759   4.029   0.919 -1.2671 -1.5059 -2.0102
 8067SOL     OW35836   3.130   2.046   1.640 -0.3387  0.1261 -0.7410
 8067SOL    HW135837   3.141   1.988   1.565 -0.7580 -0.4210 -0.3771
 8067SOL    HW235838   3.072   2.114   1.607 -0.5563  0.7980  1.0189
 8068SOL     OW35839   0.762   2.640   9.459  0.2271 -0.3016  0.2859
 8068SOL    HW135840   0.809   2.611   9.380  0.6495  2.5780 -0.5146
 8068SOL    HW235841   0.833   2.690   9.499  0.2404  0.7426 -1.0209
 8069SOL     OW35842   2.180   1.892   4.940  0.1046  0.0171 -0.2361
 8069SOL    HW135843   2.099   1.943   4.941  0.0483 -0.1153  1.4599
 8069SOL    HW235844   2.150   1.809   4.903 -3.4108  0.6114  1.3038
 8070SOL     OW35845   2.565   0.808   2.458  0.2166 -0.0061 -0.2005
 8070SOL    HW135846   2.587   0.720   2.428 -0.3367 -0.2371  0.0742
 8070SOL    HW235847   2.649   0.820   2.501 -0.4173 -0.7872  1.2409
 8071SOL     OW35848   3.607   4.591  12.402 -0.1468  1.0161 -0.1591
 8071SOL    HW135849   3.685   4.538  12.419  0.1694  0.9656 -1.8068
 8071SOL    HW235850   3.589   4.638  12.483 -2.2964 -1.3929  0.7694
 8072SOL     OW35851   3.226   4.210  13.344 -0.2792  0.6443 -0.5146
 8072SOL    HW135852   3.156   4.173  13.288  0.6343  0.6705 -1.6794
 8072SOL    HW235853   3.212   4.304  13.336  0.5219  0.8083  0.1387
 8073SOL     OW35854   1.153   3.413  12.818  0.0498 -0.2091 -0.0540
 8073SOL    HW135855   1.220   3.353  12.852  0.3372 -0.5159 -1.1483
 8073SOL    HW235856   1.103   3.352  12.763  1.9408 -1.7085 -0.1371
 8074SOL     OW35857   1.313   3.805   3.173  0.0062  0.3586 -0.1449
 8074SOL    HW135858   1.219   3.791   3.159 -0.0809  1.8033 -1.0307
 8074SOL    HW235859   1.337   3.859   3.098  1.3563  0.3304  0.2791
 8075SOL     OW35860   2.540   0.381   4.398  0.5088  0.0402  0.4718
 8075SOL    HW135861   2.541   0.444   4.326 -1.6253 -0.4330  0.0334
 8075SOL    HW235862   2.447   0.371   4.418 -0.0129 -0.3939 -2.2928
 8076SOL     OW35863   1.544   3.606   6.416 -0.1853  0.1768  0.3104
 8076SOL    HW135864   1.457   3.577   6.443 -0.3881 -0.3787 -0.9341
 8076SOL    HW235865   1.522   3.699   6.428  2.8179  1.3173 -2.9655
 8077SOL     OW35866   4.413   1.339   8.492  0.1609 -0.1494  0.2477
 8077SOL    HW135867   4.435   1.358   8.584 -1.9068  0.9853  0.4998
 8077SOL    HW235868   4.371   1.419   8.463 -0.7799 -0.4018  0.8728
 8078SOL     OW35869   1.732   1.954   6.573  0.1487  0.3484 -0.6304
 8078SOL    HW135870   1.766   2.038   6.604  0.0586  0.4238 -0.7384
 8078SOL    HW235871   1.643   1.956   6.609  0.4243 -2.2147  0.1997
 8079SOL     OW35872   1.505   3.323  12.862 -0.3501  0.0994  0.1655
 8079SOL    HW135873   1.522   3.372  12.781  0.4064 -0.8380 -0.2422
 8079SOL    HW235874   1.517   3.389  12.930  0.8944  0.4252 -0.3650
 8080SOL     OW35875   0.425   2.686   4.638 -1.3630  0.3549  0.4626
 8080SOL    HW135876   0.395   2.765   4.683 -1.9367  0.5800 -0.3149
 8080SOL    HW235877   0.494   2.723   4.583 -1.2154 -0.5468  0.0497
 8081SOL     OW35878   1.261   3.787   5.323 -0.0481 -0.2050 -0.1672
 8081SOL    HW135879   1.277   3.696   5.295  0.4873  0.1493 -0.9964
 8081SOL    HW235880   1.249   3.821   5.235 -2.2785 -1.1429 -0.2382
 8082SOL     OW35881   0.445   1.781   1.894 -0.1197  0.0018 -0.3357
 8082SOL    HW135882   0.431   1.782   1.988 -2.3562 -3.4133 -0.6492
 8082SOL    HW235883   0.540   1.774   1.897  0.0185  2.0709 -0.0629
 8083SOL     OW35884   0.670   2.013   4.175 -0.3571 -0.1340 -0.4515
 8083SOL    HW135885   0.583   1.975   4.188 -0.3440  0.6882  2.1866
 8083SOL    HW235886   0.706   1.953   4.110 -0.5625 -0.8050  0.0482
 8084SOL     OW35887   1.099   1.671  17.564  0.2581 -0.2216 -0.1497
 8084SOL    HW135888   1.072   1.722  17.487  1.7768  2.0240  0.8093
 8084SOL    HW235889   1.042   1.599  17.536 -0.5736  0.8561 -1.2389
 8085SOL     OW35890   0.723   4.239   2.190  0.3566 -0.7537  0.2671
 8085SOL    HW135891   0.737   4.312   2.130 -1.3048 -0.8909 -0.3085
 8085SOL    HW235892   0.687   4.286   2.265 -0.8784 -0.5975 -0.4185
 8086SOL     OW35893   3.810   3.097   5.272  0.3402 -0.0376  0.2493
 8086SOL    HW135894   3.888   3.046   5.247 -1.0198 -2.2182  0.4731
 8086SOL    HW235895   3.799   3.149   5.192  0.9260 -0.0469  0.1598
 8087SOL     OW35896   1.738   1.697   2.114 -0.3315 -0.1398  0.3237
 8087SOL    HW135897   1.733   1.737   2.028 -2.3944 -2.1635 -0.4882
 8087SOL    HW235898   1.751   1.783   2.156 -2.7960 -0.6841  2.2232
 8088SOL     OW35899   1.428   3.054  12.923  0.3634 -0.0453 -0.4076
 8088SOL    HW135900   1.456   3.139  12.890 -1.7759  0.1537 -1.7247
 8088SOL    HW235901   1.503   2.996  12.909 -0.3949 -0.4636 -2.7865
 8089SOL     OW35902   3.922   0.964   6.210 -0.5168  0.4912  0.7287
 8089SOL    HW135903   3.834   1.001   6.212 -0.5810  0.3907 -0.1659
 8089SOL    HW235904   3.956   1.044   6.251  2.8623 -1.1554  1.1240
 8090SOL     OW35905   2.444   1.504   5.714 -0.0977  0.0830  0.5298
 8090SOL    HW135906   2.431   1.599   5.716 -0.0530  0.0780  0.9430
 8090SOL    HW235907   2.408   1.479   5.799  0.1718 -0.8703  0.3699
 8091SOL     OW35908   1.649   1.604  17.582  0.1686  0.3279  0.0249
 8091SOL    HW135909   1.559   1.635  17.592 -0.6384 -1.5274 -1.4783
 8091SOL    HW235910   1.640   1.511  17.599  0.5104 -0.1182 -2.2541
 8092SOL     OW35911   3.626   2.934   6.142 -0.1783  0.4788  0.1113
 8092SOL    HW135912   3.545   2.936   6.091  0.8616 -0.5266 -1.5404
 8092SOL    HW235913   3.672   2.856   6.111  0.7495  1.3474 -0.6888
 8093SOL     OW35914   3.218   4.484   3.785 -0.2585  0.3459 -0.5514
 8093SOL    HW135915   3.150   4.422   3.810  0.6804 -1.0053 -1.3912
 8093SOL    HW235916   3.189   4.511   3.698 -2.1914 -0.0086 -0.0243
 8094SOL     OW35917   2.079   1.871   7.616  0.3288  0.2466  0.1012
 8094SOL    HW135918   2.124   1.934   7.672  0.0860  0.5775 -0.0736
 8094SOL    HW235919   2.006   1.861   7.678  1.6289 -3.0638  1.0869
 8095SOL     OW35920   1.064   4.236  13.194 -0.0142 -0.8172  0.3140
 8095SOL    HW135921   0.974   4.221  13.165 -0.8256 -0.1643  2.4484
 8095SOL    HW235922   1.112   4.265  13.117 -1.4107 -0.3347 -0.3775
 8096SOL     OW35923   1.106   0.482   3.001 -0.6746 -0.2968  0.0415
 8096SOL    HW135924   1.109   0.577   3.006  4.8262 -0.4702  0.5290
 8096SOL    HW235925   1.106   0.456   3.093 -3.2295  1.2959  0.4788
 8097SOL     OW35926   3.412   2.365   5.858  0.2747  0.0292 -0.2545
 8097SOL    HW135927   3.319   2.345   5.869  0.3364  0.2124  0.5334
 8097SOL    HW235928   3.424   2.434   5.923 -0.8913  0.2479 -0.2688
 8098SOL     OW35929   1.157   3.577   8.110  0.4548 -0.3857  0.4126
 8098SOL    HW135930   1.190   3.666   8.123 -2.6773  0.8860 -0.3678
 8098SOL    HW235931   1.140   3.547   8.199  0.7670 -0.7984  0.3322
 8099SOL     OW35932   3.483   3.689   6.875 -0.1368 -0.1092  0.1082
 8099SOL    HW135933   3.404   3.740   6.892  0.7213  1.3756 -0.3944
 8099SOL    HW235934   3.465   3.630   6.803 -2.4020  1.2045 -0.3859
 8100SOL     OW35935   0.336   3.586   4.059 -0.0143  0.2639  0.5889
 8100SOL    HW135936   0.396   3.515   4.082  1.1517  0.3606 -2.2079
 8100SOL    HW235937   0.381   3.668   4.078  0.4901  0.0370  0.3768
 8101SOL     OW35938   1.390   1.984  16.705 -0.2642  0.0723  0.2486
 8101SOL    HW135939   1.322   2.036  16.748  0.2300  0.8294  0.1264
 8101SOL    HW235940   1.459   1.997  16.771  0.1459  1.0796 -0.3875
 8102SOL     OW35941   3.508   0.314   3.546 -0.2322  0.1654 -0.2758
 8102SOL    HW135942   3.475   0.393   3.588  1.7983 -0.7113  2.9745
 8102SOL    HW235943   3.434   0.255   3.558 -0.1276  0.4145  1.6476
 8103SOL     OW35944   3.692   1.450   5.993  0.5457 -0.7587 -0.0906
 8103SOL    HW135945   3.675   1.411   5.908 -0.4023  1.1920 -0.7762
 8103SOL    HW235946   3.776   1.408   6.012  1.3300  0.0082 -1.8517
 8104SOL     OW35947   2.360   1.488  16.487 -0.4322  0.3112  0.2275
 8104SOL    HW135948   2.432   1.550  16.498  0.3185 -0.9063  2.1568
 8104SOL    HW235949   2.292   1.532  16.538  0.1965 -0.0565  1.3733
 8105SOL     OW35950   0.608   0.561   3.171 -0.5461  0.4442  0.2944
 8105SOL    HW135951   0.592   0.591   3.081 -0.4447  0.3556  0.2484
 8105SOL    HW235952   0.534   0.603   3.216 -1.3091  0.2431 -0.7760
 8106SOL     OW35953   4.510   3.287   8.167 -0.1230 -0.1516 -0.3328
 8106SOL    HW135954   4.452   3.336   8.108  0.4725 -0.0697 -0.8473
 8106SOL    HW235955   4.468   3.201   8.162  0.8973 -0.6027 -0.9646
 8107SOL     OW35956   0.865   1.991  13.296 -0.2787  0.2295 -0.7443
 8107SOL    HW135957   0.775   2.019  13.313  0.7821  1.9556  1.9343
 8107SOL    HW235958   0.919   2.069  13.288  0.2328 -0.2923 -2.3209
 8108SOL     OW35959   4.671   1.680  11.632 -0.2303  0.4445  0.3845
 8108SOL    HW135960   4.631   1.765  11.616  1.4240  1.5628  2.2011
 8108SOL    HW235961   4.671   1.685  11.728  0.2446 -2.5019  0.5421
 8109SOL     OW35962   4.026   2.968   6.212 -0.5470  0.3670 -0.2050
 8109SOL    HW135963   4.108   2.993   6.255 -0.6095  2.2255 -1.2066
 8109SOL    HW235964   3.971   3.046   6.210  0.0467  0.7330 -2.6759
 8110SOL     OW35965   0.743   4.260  13.571  0.7224  0.5837 -0.4863
 8110SOL    HW135966   0.682   4.222  13.634  1.0456  0.3129 -0.3337
 8110SOL    HW235967   0.731   4.355  13.571 -1.0214  0.3666 -1.5506
 8111SOL     OW35968   1.175   2.198   2.316  0.3525  0.2641 -0.1792
 8111SOL    HW135969   1.230   2.156   2.382 -1.9016  1.6017  2.5289
 8111SOL    HW235970   1.238   2.263   2.286  1.0179 -0.2293  0.1425
 8112SOL     OW35971   3.016   2.812   1.629  0.2980 -0.1844  0.1952
 8112SOL    HW135972   2.948   2.745   1.632 -0.4161  0.5346 -0.1289
 8112SOL    HW235973   3.043   2.822   1.720 -3.4072 -0.9525  1.3710
 8113SOL     OW35974   4.290   2.095   0.199  0.1498 -0.0055  0.3697
 8113SOL    HW135975   4.378   2.058   0.191  0.7442  1.1852  1.4150
 8113SOL    HW235976   4.238   2.030   0.246 -0.5377  2.0555  2.4701
 8114SOL     OW35977   1.642   0.918   2.661  0.0780 -0.4080  0.2563
 8114SOL    HW135978   1.600   0.903   2.746 -0.5384  1.1559  0.2122
 8114SOL    HW235979   1.725   0.870   2.665 -0.3716 -1.1014  1.4244
 8115SOL     OW35980   1.419   0.045   2.148 -0.1034  0.5096 -0.1139
 8115SOL    HW135981   1.445   0.026   2.238 -1.3785  3.7396  0.9353
 8115SOL    HW235982   1.419   0.140   2.156  1.8490  0.6053 -1.3006
 8116SOL     OW35983   3.260   2.343   8.289  0.4204  0.0779 -0.3031
 8116SOL    HW135984   3.249   2.304   8.376  2.2059  0.1235 -0.0734
 8116SOL    HW235985   3.317   2.417   8.307  0.8633 -0.3669  0.1249
 8117SOL     OW35986   2.568   1.477   1.501  0.5275 -0.7274 -0.3948
 8117SOL    HW135987   2.619   1.553   1.476 -3.4691  0.8700 -3.7388
 8117SOL    HW235988   2.491   1.516   1.542  0.5993 -1.1858  0.1870
 8118SOL     OW35989   1.416   0.737   7.175  0.4185  0.4527  0.4627
 8118SOL    HW135990   1.444   0.801   7.242  0.8239  1.1713 -0.3958
 8118SOL    HW235991   1.490   0.677   7.168 -0.9566 -1.1597 -0.0981
 8119SOL     OW35992   3.610   1.304   3.416  0.2872  0.8489 -0.1897
 8119SOL    HW135993   3.697   1.265   3.426 -0.8514 -1.3750  1.1512
 8119SOL    HW235994   3.601   1.294   3.321  0.2269 -1.4393  0.0530
 8120SOL     OW35995   2.938   1.310   0.045 -0.0384 -0.1138 -0.7061
 8120SOL    HW135996   3.006   1.343  17.758 -0.9002  2.2038 -0.4299
 8120SOL    HW235997   2.857   1.321  17.766  0.4836 -1.3241 -1.7864
 8121SOL     OW35998   2.341   3.597  13.144  0.3143  0.0994 -0.2711
 8121SOL    HW135999   2.265   3.581  13.087 -2.0140  0.9788  2.5804
 8121SOL    HW236000   2.398   3.542  13.090  0.8548 -0.0655  0.4782
 8122SOL     OW36001   0.544   2.642   8.133  0.0363  0.3842 -1.1495
 8122SOL    HW136002   0.491   2.576   8.089 -0.6996 -1.7736  2.9863
 8122SOL    HW236003   0.621   2.588   8.152  0.1456  0.8811 -0.1790
 8123SOL     OW36004   2.221   4.429  17.072  0.6746  0.2230  0.7046
 8123SOL    HW136005   2.133   4.421  17.110  0.4194 -1.1176 -0.1807
 8123SOL    HW236006   2.250   4.338  17.065 -1.1815 -0.2785 -0.4831
 8124SOL     OW36007   0.705   1.769   0.929 -0.0684 -0.0240  0.2005
 8124SOL    HW136008   0.624   1.819   0.923 -0.2638 -0.6667 -2.3436
 8124SOL    HW236009   0.735   1.790   1.017  0.6604  0.2359 -0.1132
 8125SOL     OW36010   3.034   3.146   1.915 -0.5455 -0.0254 -0.2085
 8125SOL    HW136011   3.054   3.180   2.002 -2.3244 -0.1709  0.2603
 8125SOL    HW236012   2.990   3.062   1.931  0.2831 -0.8138 -2.0789
 8126SOL     OW36013   1.021   0.049  15.452  0.8191 -0.3278  0.1359
 8126SOL    HW136014   1.067   0.050  15.368  1.9103 -0.1367  0.7407
 8126SOL    HW236015   1.086   0.001  15.503  0.1113  1.1068  2.4194
 8127SOL     OW36016   1.469   4.411   5.288 -0.0834  0.2982  0.0131
 8127SOL    HW136017   1.496   4.494   5.250 -0.1956 -0.4215 -1.6074
 8127SOL    HW236018   1.376   4.416   5.266 -0.3096  0.0863  0.8884
 8128SOL     OW36019   1.991   2.577   8.846  0.2828 -0.4260  0.4248
 8128SOL    HW136020   1.938   2.498   8.859 -0.6690  0.2202  0.4906
 8128SOL    HW236021   1.928   2.648   8.834  0.7417 -0.0127  0.5004
 8129SOL     OW36022   3.914   0.629   8.704 -0.4012 -0.2903 -0.5097
 8129SOL    HW136023   3.872   0.641   8.789 -1.1690 -1.4605 -0.7230
 8129SOL    HW236024   3.960   0.546   8.700  3.7067  2.0295 -1.9528
 8130SOL     OW36025   3.699   2.398   6.511 -0.0048  0.3057  0.6976
 8130SOL    HW136026   3.691   2.424   6.603  0.6406 -0.8131  1.0676
 8130SOL    HW236027   3.640   2.324   6.495 -2.4032  2.5517 -0.9016
 8131SOL     OW36028   3.158   4.432   5.161  0.5426 -0.2812 -0.5286
 8131SOL    HW136029   3.125   4.460   5.076 -0.8476 -1.0644 -0.2554
 8131SOL    HW236030   3.074   4.433   5.206  0.2875  1.7827 -1.0716
 8132SOL     OW36031   1.769   2.949  14.280  0.2423 -0.5409  0.1705
 8132SOL    HW136032   1.762   2.954  14.376  0.1017  2.3659  0.0107
 8132SOL    HW236033   1.857   2.914  14.265 -0.3500 -1.3583 -1.3130
 8133SOL     OW36034   0.635   4.442   9.000 -0.5040  0.3549  0.2439
 8133SOL    HW136035   0.719   4.448   8.954 -0.1649  0.4924  0.8848
 8133SOL    HW236036   0.617   4.348   8.996 -0.6860  0.4287 -0.7264
 8134SOL     OW36037   4.529   2.073   6.175  0.3287 -0.0487  0.3464
 8134SOL    HW136038   4.625   2.077   6.174  0.2597  2.2716  2.0880
 8134SOL    HW236039   4.511   2.131   6.102  2.1881 -1.8596 -1.5671
 8135SOL     OW36040   4.103   3.418  11.269  0.1015 -0.2941 -0.4119
 8135SOL    HW136041   4.125   3.354  11.337  0.1135  0.6139  0.4428
 8135SOL    HW236042   4.115   3.369  11.188 -0.9421 -0.6765 -0.3360
 8136SOL     OW36043   0.962   3.335   8.653 -0.0975 -0.4489  0.2557
 8136SOL    HW136044   0.917   3.255   8.678 -0.7861  0.0585  0.6206
 8136SOL    HW236045   1.012   3.315   8.574 -0.3299 -1.1113  0.2786
 8137SOL     OW36046   1.183   1.820  12.819 -0.0609 -0.1847 -0.3207
 8137SOL    HW136047   1.216   1.780  12.738 -1.2835  0.0443 -0.9373
 8137SOL    HW236048   1.214   1.910  12.814 -0.3358  0.0402  2.0972
 8138SOL     OW36049   0.382   1.901   2.375 -0.3705  0.1670  0.4027
 8138SOL    HW136050   0.298   1.945   2.386 -0.6700 -0.3998  0.4161
 8138SOL    HW236051   0.426   1.942   2.301 -1.8152  0.3480 -0.3388
 8139SOL     OW36052   3.298   2.450   7.448  0.1557  0.2624  0.8605
 8139SOL    HW136053   3.313   2.356   7.441 -1.8116  0.1283 -1.4661
 8139SOL    HW236054   3.212   2.463   7.408  1.2380 -1.8309 -2.0825
 8140SOL     OW36055   1.603   4.005   6.777 -0.1521 -0.1562  0.0804
 8140SOL    HW136056   1.641   3.976   6.694  0.6771 -0.5395  0.5938
 8140SOL    HW236057   1.648   4.089   6.792  0.8483 -0.5808 -0.5249
 8141SOL     OW36058   2.810   3.506   0.362  0.6113 -0.4259 -0.1002
 8141SOL    HW136059   2.746   3.446   0.401 -0.6671 -0.4501 -2.2506
 8141SOL    HW236060   2.807   3.565   0.437  0.5719 -0.7237  0.1351
 8142SOL     OW36061   4.328   0.370  17.401 -0.3967  0.2558 -0.0706
 8142SOL    HW136062   4.382   0.413  17.468 -0.4183 -0.5994  0.4923
 8142SOL    HW236063   4.371   0.286  17.384 -2.9525 -1.2037  0.6404
 8143SOL     OW36064   0.669   0.288   2.205 -0.0568  0.1347 -0.5844
 8143SOL    HW136065   0.627   0.300   2.120  0.4227  0.1225 -0.8238
 8143SOL    HW236066   0.736   0.223   2.181 -1.0215  0.6458 -4.7846
 8144SOL     OW36067   4.262   4.618   3.345  0.1788 -0.1296  0.0833
 8144SOL    HW136068   4.170   4.631   3.323  0.3224  3.9063  1.8087
 8144SOL    HW236069   4.245   4.581   3.432  1.2828 -1.2528 -0.1730
 8145SOL     OW36070   1.557   2.641   8.791  0.2299 -0.1407 -0.6762
 8145SOL    HW136071   1.468   2.666   8.817  0.5606  0.1227  0.2092
 8145SOL    HW236072   1.590   2.727   8.765  0.3300 -0.1863 -0.7000
 8146SOL     OW36073   3.814   0.383  16.147 -0.6619  0.4892 -0.3092
 8146SOL    HW136074   3.863   0.355  16.070  1.0622  2.5370  0.0387
 8146SOL    HW236075   3.884   0.424  16.197  0.8412 -0.8584 -1.3163
 8147SOL     OW36076   3.488   1.041   8.470 -0.1703 -0.2595  0.2370
 8147SOL    HW136077   3.536   0.991   8.536  1.1894 -0.1992 -0.7030
 8147SOL    HW236078   3.401   1.035   8.509 -0.1276 -0.0689  0.3607
 8148SOL     OW36079   3.773   0.956   7.819  0.6587  0.1634  0.2858
 8148SOL    HW136080   3.802   1.048   7.824  0.4125  0.2614 -0.1061
 8148SOL    HW236081   3.712   0.952   7.746  0.7105 -0.2210  0.2680
 8149SOL     OW36082   0.780   1.530  10.216 -0.7893 -0.4821 -0.0630
 8149SOL    HW136083   0.875   1.532  10.208 -0.8392 -1.7576 -1.0454
 8149SOL    HW236084   0.761   1.540  10.309 -0.5581 -1.9791  0.1565
 8150SOL     OW36085   4.727   0.051   5.406  0.0347  0.4032 -0.2125
 8150SOL    HW136086   4.725   4.700   5.396 -1.6489  0.3103  1.0307
 8150SOL    HW236087   0.069   0.068   5.368 -0.6554 -1.8880 -2.8123
 8151SOL     OW36088   0.765   3.027   8.442 -0.0101 -0.5375 -0.3257
 8151SOL    HW136089   0.788   2.985   8.525  0.9911  0.3841 -0.1462
 8151SOL    HW236090   0.677   3.062   8.458 -0.9876 -3.3835  0.4220
 8152SOL     OW36091   3.497   1.473  14.254  0.0657  0.2179  0.3231
 8152SOL    HW136092   3.536   1.421  14.185 -0.1436  1.3302 -0.6472
 8152SOL    HW236093   3.484   1.401  14.315 -1.3360  0.4016  0.2541
 8153SOL     OW36094   0.940   2.475   3.548  0.5855 -0.0636  0.2306
 8153SOL    HW136095   0.980   2.404   3.599 -0.1382  0.5656  1.6642
 8153SOL    HW236096   0.847   2.454   3.546  1.3630 -3.4869 -0.8563
 8154SOL     OW36097   0.342   2.932   5.706 -0.7186  0.0181  0.0717
 8154SOL    HW136098   0.352   3.022   5.675 -1.1596 -0.4046 -1.3050
 8154SOL    HW236099   0.262   2.944   5.756  1.1707 -0.2536  3.1222
 8155SOL     OW36100   2.243   2.801   6.574 -0.1194 -0.0175  0.0437
 8155SOL    HW136101   2.286   2.869   6.522  0.1366  0.7604  1.3036
 8155SOL    HW236102   2.164   2.789   6.521 -0.6834  2.1409  0.4081
 8156SOL     OW36103   0.356   0.384   2.182 -0.0452 -0.2928 -0.6884
 8156SOL    HW136104   0.390   0.404   2.095  2.5577 -1.4990  0.0315
 8156SOL    HW236105   0.351   0.288   2.182  0.1178 -0.3165  0.9740
 8157SOL     OW36106   2.177   1.362   1.379  0.6023 -0.4507 -0.3189
 8157SOL    HW136107   2.086   1.373   1.405  1.1546  0.4955  1.1625
 8157SOL    HW236108   2.207   1.448   1.409 -1.1959  0.3068 -0.6405
 8158SOL     OW36109   4.291   3.440  17.285  0.4065  0.4950 -0.3454
 8158SOL    HW136110   4.291   3.364  17.344 -1.1837  1.1202  0.4743
 8158SOL    HW236111   4.274   3.400  17.200  1.0973  0.5992 -0.5271
 8159SOL     OW36112   1.137   0.858   9.362  0.4468 -0.3725  0.2767
 8159SOL    HW136113   1.122   0.882   9.453  0.4347  0.8359 -0.0486
 8159SOL    HW236114   1.109   0.766   9.362 -0.9162  0.0340  1.8833
 8160SOL     OW36115   4.246   3.512   0.049  0.1580 -0.0112  0.0103
 8160SOL    HW136116   4.269   3.489   0.139  2.1905 -2.1028 -1.0462
 8160SOL    HW236117   4.153   3.524   0.069  0.9781  1.2364  2.9611
 8161SOL     OW36118   2.812   2.245   4.212  0.1306  0.6089  0.1352
 8161SOL    HW136119   2.726   2.206   4.204  1.5689 -2.1901 -1.3892
 8161SOL    HW236120   2.805   2.291   4.296  0.6091  0.5237  0.2245
 8162SOL     OW36121   1.509   3.205   9.736 -0.0430 -0.3411  0.2022
 8162SOL    HW136122   1.525   3.111   9.742  2.3576  0.0287 -0.6542
 8162SOL    HW236123   1.505   3.225   9.643 -1.1974  0.1064  0.3468
 8163SOL     OW36124   3.798   4.701   7.692  0.1587  0.6745 -0.4841
 8163SOL    HW136125   3.806   4.612   7.659  0.2813  0.8639 -0.9680
 8163SOL    HW236126   3.866   4.698   7.760 -0.2267 -0.5327 -0.1618
 8164SOL     OW36127   1.172   2.816   6.822 -0.1864  0.1861 -0.5492
 8164SOL    HW136128   1.246   2.755   6.827  0.2868  0.6952 -1.2720
 8164SOL    HW236129   1.131   2.777   6.744 -1.4018 -0.0203  0.1947
 8165SOL     OW36130   4.591   3.177   2.878 -0.5144 -0.3287 -0.4675
 8165SOL    HW136131   4.645   3.104   2.845  2.7725  1.6706  0.4359
 8165SOL    HW236132   4.536   3.199   2.802 -2.6793 -0.4262  1.0917
 8166SOL     OW36133   3.126   3.989   6.563  0.0757 -0.5094  0.0079
 8166SOL    HW136134   3.152   3.897   6.564  2.5641  0.1468 -2.0130
 8166SOL    HW236135   3.043   3.986   6.515  0.7928 -0.0637 -1.2552
 8167SOL     OW36136   2.460   0.513   6.933  0.1074  0.3451 -0.5198
 8167SOL    HW136137   2.396   0.485   6.868  0.2280 -1.1591  0.0041
 8167SOL    HW236138   2.427   0.600   6.954 -0.9700  0.0130 -0.8226
 8168SOL     OW36139   0.761   2.756   3.031 -0.0477 -0.0362 -0.3655
 8168SOL    HW136140   0.817   2.788   2.960  1.2794 -0.4626  0.4908
 8168SOL    HW236141   0.828   2.756   3.100 -1.5263 -0.4173  1.0689
 8169SOL     OW36142   0.757   4.572   3.805  0.0170 -0.8987 -0.2066
 8169SOL    HW136143   0.802   4.600   3.885 -0.7884  0.7504 -0.3440
 8169SOL    HW236144   0.666   4.589   3.828 -0.5393 -0.6187 -2.6595
 8170SOL     OW36145   2.533   4.483   1.507 -0.2247 -0.2559 -0.3900
 8170SOL    HW136146   2.550   4.562   1.559  1.3148  0.1880 -1.5767
 8170SOL    HW236147   2.619   4.444   1.523 -0.2554  0.0080  0.4198
 8171SOL     OW36148   1.352   0.789   3.888 -0.2172 -0.1152  0.0802
 8171SOL    HW136149   1.430   0.739   3.910 -0.0117 -0.2572 -0.9517
 8171SOL    HW236150   1.282   0.724   3.882  0.2273 -0.4811 -1.2986
 8172SOL     OW36151   0.077   0.409   1.302 -0.0650  0.0228  0.0534
 8172SOL    HW136152   0.108   0.321   1.286 -3.5888 -1.2010 -0.0908
 8172SOL    HW236153   0.144   0.460   1.257 -0.6443  0.4796 -0.2940
 8173SOL     OW36154   0.953   3.642   0.094 -0.3691 -0.2179  0.1573
 8173SOL    HW136155   0.943   3.551   0.066  0.8769  0.1998 -1.6291
 8173SOL    HW236156   0.984   3.643   0.185  1.1110  0.7218 -0.3594
 8174SOL     OW36157   1.587   1.115   0.177  0.1289  0.2918 -0.4696
 8174SOL    HW136158   1.579   1.020   0.172 -0.5242  0.3410 -0.4300
 8174SOL    HW236159   1.493   1.131   0.186 -0.0919 -0.6200 -1.2269
 8175SOL     OW36160   3.432   3.871  15.466  0.4942  0.4106  0.0159
 8175SOL    HW136161   3.373   3.910  15.402 -0.0103 -0.5729 -0.1155
 8175SOL    HW236162   3.429   3.778  15.444 -0.7108  0.5238 -0.2979
 8176SOL     OW36163   2.321   2.932   4.232  0.3684 -0.0457  0.1779
 8176SOL    HW136164   2.288   3.017   4.258  0.5069 -0.0307  0.3056
 8176SOL    HW236165   2.251   2.871   4.253 -0.0327  0.8147  1.3115
 8177SOL     OW36166   4.691   0.803   6.336 -0.0966 -0.6750  0.6620
 8177SOL    HW136167   4.618   0.790   6.275  0.0091 -2.3775  0.9035
 8177SOL    HW236168   4.735   0.719   6.352  1.8647  0.4988  1.4570
 8178SOL     OW36169   1.249   1.118   8.775  0.1628  0.1047 -0.0359
 8178SOL    HW136170   1.331   1.161   8.800  1.6957 -1.5205 -2.1959
 8178SOL    HW236171   1.176   1.179   8.778  0.0149 -0.0113 -1.2994
 8179SOL     OW36172   3.402   1.711   2.813 -0.0159  0.2652  0.3203
 8179SOL    HW136173   3.437   1.649   2.878 -1.1180  0.7397  1.3679
 8179SOL    HW236174   3.319   1.729   2.858 -0.6150 -0.2282 -0.5999
 8180SOL     OW36175   3.995   4.733  16.045  0.1102  0.4235 -0.3094
 8180SOL    HW136176   4.052   4.657  16.030 -0.2335  0.1962 -0.4539
 8180SOL    HW236177   4.049   0.067  16.036 -0.7990  1.2295  1.2865
 8181SOL     OW36178   4.607   2.771   5.498 -0.3130 -0.7024 -0.6437
 8181SOL    HW136179   4.562   2.692   5.467  0.1970 -1.1150 -0.3274
 8181SOL    HW236180   4.524   2.811   5.522 -0.0140  0.6715 -1.8914
 8182SOL     OW36181   0.011   2.588   6.841 -0.0589  0.0497  0.2477
 8182SOL    HW136182   4.728   2.665   6.791  1.7198  0.9435  0.6538
 8182SOL    HW236183   0.104   2.607   6.858  0.1340 -0.5558 -0.1309
 8183SOL     OW36184   2.045   1.854   8.760 -0.0438  0.1658 -0.6653
 8183SOL    HW136185   2.137   1.829   8.750 -0.3330 -0.4588 -1.8226
 8183SOL    HW236186   2.030   1.817   8.847  3.1679  1.5064  0.4482
 8184SOL     OW36187   4.197   4.698   5.215  0.2470  0.0918  0.8997
 8184SOL    HW136188   4.237   4.641   5.280 -0.7485 -0.7228  0.7925
 8184SOL    HW236189   4.201   0.045   5.247  0.9408  0.3618  0.0351
 8185SOL     OW36190   0.657   3.123  16.761 -0.7179  0.2980  0.4404
 8185SOL    HW136191   0.590   3.061  16.731  0.7259 -0.5207 -1.1428
 8185SOL    HW236192   0.731   3.068  16.787 -1.7299 -1.6022 -0.6392
 8186SOL     OW36193   2.180   4.113   7.667 -0.1099  0.5575  0.1645
 8186SOL    HW136194   2.267   4.074   7.675 -0.5322 -0.2947  0.6874
 8186SOL    HW236195   2.174   4.112   7.572  0.2975 -1.8523  0.1685
 8187SOL     OW36196   2.641   4.120   6.445  0.2115 -0.3929 -0.5254
 8187SOL    HW136197   2.578   4.076   6.388 -0.1266  2.3791 -2.2372
 8187SOL    HW236198   2.637   4.205   6.401  1.4152  0.5752  1.2227
 8188SOL     OW36199   2.963   2.154  16.508 -0.0620 -0.7908  0.3713
 8188SOL    HW136200   2.912   2.080  16.476 -0.1490 -0.9847  0.9724
 8188SOL    HW236201   2.940   2.154  16.600  0.6413  1.7663  0.5542
 8189SOL     OW36202   4.547   4.130   5.366  0.3562 -0.1471 -0.0456
 8189SOL    HW136203   4.554   4.034   5.364 -0.7603 -0.2226 -0.3065
 8189SOL    HW236204   4.494   4.146   5.444  0.3607  0.8944 -0.2660
 8190SOL     OW36205   4.466   3.515   5.701  0.1526 -0.0105  0.0788
 8190SOL    HW136206   4.538   3.487   5.644  0.8884  2.8974 -0.4166
 8190SOL    HW236207   4.465   3.610   5.688 -2.0223  0.0906  1.0310
 8191SOL     OW36208   0.114   2.063   4.862  0.3048  0.3023 -0.1357
 8191SOL    HW136209   0.027   2.056   4.820  0.6464  1.1421 -0.9718
 8191SOL    HW236210   0.125   1.975   4.899  0.6918  0.0436 -0.8792
 8192SOL     OW36211   3.360   2.849   1.816  0.5815  0.1863  0.2220
 8192SOL    HW136212   3.378   2.836   1.723 -0.6596 -1.4438  0.2024
 8192SOL    HW236213   3.302   2.774   1.831 -0.7322  1.0122 -0.7589
 8193SOL     OW36214   3.335   1.008   6.889 -0.2908 -0.1716  0.2651
 8193SOL    HW136215   3.267   1.074   6.897 -1.7038 -1.9128  2.6292
 8193SOL    HW236216   3.297   0.947   6.826  0.8837 -0.9932  0.3597
 8194SOL     OW36217   2.987   2.418  17.430 -0.0635  0.5197  0.2728
 8194SOL    HW136218   3.025   2.406  17.343  1.3120  0.5195  0.8693
 8194SOL    HW236219   3.069   2.425  17.479 -0.1125 -0.8677  0.5567
 8195SOL     OW36220   2.649   2.864  16.468  0.2591 -0.0691  0.2634
 8195SOL    HW136221   2.741   2.892  16.459 -0.1839  1.4539  0.4091
 8195SOL    HW236222   2.651   2.819  16.552  0.7779 -2.6174 -1.1317
 8196SOL     OW36223   0.162   4.037   3.103 -0.3942 -0.0321  0.4427
 8196SOL    HW136224   0.150   4.023   3.197  0.9064 -1.1588  0.4470
 8196SOL    HW236225   0.089   4.097   3.087  0.9672  1.2215 -1.0860
 8197SOL     OW36226   2.032   4.682   5.864 -0.2339  0.2588 -0.2103
 8197SOL    HW136227   1.974   0.012   5.849 -0.2603  0.2360 -0.2203
 8197SOL    HW236228   2.081   4.731   5.930  1.4337  0.4807 -1.6134
 8198SOL     OW36229   3.892   3.917   7.337  0.2388 -0.0666  0.0492
 8198SOL    HW136230   3.809   3.964   7.344  0.3667  0.1198  0.2923
 8198SOL    HW236231   3.884   3.834   7.384  1.7992 -0.0661  0.3138
 8199SOL     OW36232   0.195   3.717  13.349  0.1826 -0.2540  0.1569
 8199SOL    HW136233   0.283   3.679  13.349  1.1265  1.8831  0.4936
 8199SOL    HW236234   0.218   3.811  13.349  1.4377 -0.5555  0.0250
 8200SOL     OW36235   2.341   0.149   1.159 -0.2298 -0.5949 -0.0000
 8200SOL    HW136236   2.343   0.239   1.191  0.4890 -0.0630 -1.5369
 8200SOL    HW236237   2.252   0.141   1.125 -0.2493  0.6872 -0.2421
 8201SOL     OW36238   4.013   0.265  15.956  0.0244  0.3752  0.1164
 8201SOL    HW136239   4.107   0.246  15.948 -0.0397  0.0522  0.1470
 8201SOL    HW236240   3.981   0.226  15.875 -0.5808 -1.0148  1.0266
 8202SOL     OW36241   3.417   3.042   2.045 -0.5111  0.4363  0.3442
 8202SOL    HW136242   3.373   3.124   2.021 -0.3479 -0.3766 -2.6718
 8202SOL    HW236243   3.378   2.986   1.978  0.0322  0.0671  0.3442
 8203SOL     OW36244   0.104   4.619   9.468 -0.1061 -0.6785  0.2018
 8203SOL    HW136245   0.155   4.657   9.540  2.2802 -2.1046 -0.7266
 8203SOL    HW236246   0.038   4.688   9.463  1.0359  0.5205  1.6423
 8204SOL     OW36247   1.644   3.274   3.256 -0.0456  0.4769 -0.2909
 8204SOL    HW136248   1.664   3.263   3.163 -2.2103  3.5634 -1.0952
 8204SOL    HW236249   1.716   3.323   3.294  1.1323  0.4592 -2.4950
 8205SOL     OW36250   3.962   0.490   3.408 -0.1406  0.0309 -0.7516
 8205SOL    HW136251   3.868   0.507   3.413  0.0823  1.1376 -0.2280
 8205SOL    HW236252   3.981   0.474   3.500 -1.1773 -1.3312 -0.7778
 8206SOL     OW36253   0.068   1.002   7.471 -0.1619 -0.7996 -0.8002
 8206SOL    HW136254   0.077   1.008   7.566 -1.3514 -2.8253 -0.5606
 8206SOL    HW236255   4.731   0.952   7.484 -1.3350  0.7362 -2.0311
 8207SOL     OW36256   0.289   2.585   7.806 -0.0304 -0.2361 -0.2515
 8207SOL    HW136257   0.278   2.516   7.741  0.9495  0.1580 -0.8329
 8207SOL    HW236258   0.256   2.540   7.884 -1.3308 -2.5842 -2.1796
 8208SOL     OW36259   1.202   1.101  17.672 -0.0720  0.4985  0.3178
 8208SOL    HW136260   1.268   1.124  17.606  0.5303 -0.2436  0.6563
 8208SOL    HW236261   1.199   1.185  17.717 -1.8110  1.2228 -1.1630
 8209SOL     OW36262   4.575   3.718   7.455 -0.6141 -0.0449 -0.4867
 8209SOL    HW136263   4.589   3.704   7.361  2.1579 -3.0431  0.3534
 8209SOL    HW236264   4.599   3.810   7.465 -1.3264  0.2697 -1.7322
 8210SOL     OW36265   0.488   0.766   9.217 -0.2291 -0.0859  0.1166
 8210SOL    HW136266   0.533   0.817   9.150 -3.7071  1.5647 -0.9347
 8210SOL    HW236267   0.395   0.777   9.198 -0.4626  0.8696  1.8686
 8211SOL     OW36268   2.065   4.667   9.521 -0.0789 -0.0636  0.4687
 8211SOL    HW136269   1.998   4.648   9.455  1.4336 -3.7639 -0.0009
 8211SOL    HW236270   2.149   4.651   9.477 -0.6713 -1.7874 -0.0277
 8212SOL     OW36271   2.593   4.491   6.992 -0.0238  0.6450 -0.3537
 8212SOL    HW136272   2.596   4.513   7.085  0.4525 -0.7307 -0.0456
 8212SOL    HW236273   2.684   4.471   6.971 -0.3772  0.2523 -1.5571
 8213SOL     OW36274   2.877   3.510  12.820  0.2962 -0.5098  0.0687
 8213SOL    HW136275   2.877   3.566  12.742 -0.2562 -1.4708 -0.6256
 8213SOL    HW236276   2.822   3.568  12.873 -1.4579 -2.8588  0.8541
 8214SOL     OW36277   0.661   2.926  17.493  0.4151  0.0366  0.2296
 8214SOL    HW136278   0.714   2.898  17.419  0.0083  1.0429 -0.4342
 8214SOL    HW236279   0.676   3.019  17.479 -4.6366  0.7511 -0.5414
 8215SOL     OW36280   0.827   3.147   2.284 -0.1041 -0.0085  0.1536
 8215SOL    HW136281   0.777   3.220   2.247  1.4604  0.8767 -0.2044
 8215SOL    HW236282   0.875   3.208   2.340  0.4798  0.3592 -0.7373
 8216SOL     OW36283   1.470   3.883  13.200 -0.3991  0.6451  0.1229
 8216SOL    HW136284   1.500   3.947  13.135 -0.1844 -0.8443 -1.2369
 8216SOL    HW236285   1.495   3.802  13.155  0.4623 -0.0439  1.8294
 8217SOL     OW36286   3.277   3.886   1.072  0.1162  0.6666 -0.4498
 8217SOL    HW136287   3.372   3.887   1.079 -0.0757  2.1802  1.9062
 8217SOL    HW236288   3.263   3.835   0.992  0.7658  2.1303 -1.4888
 8218SOL     OW36289   3.061   2.997   5.459 -0.3558  0.6837 -0.3573
 8218SOL    HW136290   3.155   2.978   5.461 -0.8451 -1.5747  0.5496
 8218SOL    HW236291   3.018   2.915   5.480  0.3697 -0.0096 -1.5652
 8219SOL     OW36292   3.943   1.687   5.183  0.0073 -0.0164  0.6638
 8219SOL    HW136293   3.850   1.701   5.198  0.0091 -0.6622  1.2485
 8219SOL    HW236294   3.970   1.623   5.248 -1.8206  1.1201  2.5437
 8220SOL     OW36295   1.243   3.733   2.496  0.0735 -0.6508 -0.6479
 8220SOL    HW136296   1.247   3.735   2.592 -0.4535  1.4941 -0.6678
 8220SOL    HW236297   1.192   3.812   2.481  0.7871  0.0470  0.5988
 8221SOL     OW36298   0.164   2.033   9.997 -0.4800 -0.3916  0.0048
 8221SOL    HW136299   0.100   2.001  10.061  2.0470 -2.4851  1.5200
 8221SOL    HW236300   0.222   2.074  10.062  1.2747 -0.5759 -1.4573
 8222SOL     OW36301   3.366   1.285   4.211 -0.5708  0.1187 -0.9351
 8222SOL    HW136302   3.306   1.348   4.249 -0.7519 -1.2146  0.9964
 8222SOL    HW236303   3.345   1.285   4.117 -1.8029 -1.0168 -0.6681
 8223SOL     OW36304   4.341   3.437  10.553 -0.6052 -0.0604  0.0145
 8223SOL    HW136305   4.334   3.484  10.470  1.9794 -0.6287 -0.5141
 8223SOL    HW236306   4.418   3.385  10.531 -1.4128 -1.1121 -0.3136
 8224SOL     OW36307   2.875   0.855   9.424 -0.0281  0.2185 -0.2961
 8224SOL    HW136308   2.876   0.887   9.514  2.3132  1.1008 -0.6396
 8224SOL    HW236309   2.782   0.836   9.411  0.4073 -1.2871 -1.2320
 8225SOL     OW36310   2.678   3.402  15.824 -0.2930 -0.4205  0.0290
 8225SOL    HW136311   2.669   3.318  15.779 -1.6010 -0.0871 -0.3250
 8225SOL    HW236312   2.769   3.390  15.852 -1.1481 -1.1523  2.5072
 8226SOL     OW36313   0.164   0.317   8.520 -0.4084  0.3925  0.0174
 8226SOL    HW136314   0.182   0.228   8.489  0.0864  0.5908 -0.2486
 8226SOL    HW236315   0.169   0.356   8.433  0.9545  1.0367  0.3819
 8227SOL     OW36316   2.526   2.351   6.296 -0.5624  0.7339  0.5749
 8227SOL    HW136317   2.568   2.268   6.274  0.6174  1.6137 -0.5120
 8227SOL    HW236318   2.454   2.343   6.233  0.3159 -2.4407 -0.0369
 8228SOL     OW36319   0.759   2.699   4.715  0.0045  0.3278 -0.1711
 8228SOL    HW136320   0.720   2.615   4.738 -0.6762  1.1003  1.4850
 8228SOL    HW236321   0.715   2.727   4.634  2.5777  1.5299 -1.1703
 8229SOL     OW36322   2.034   2.945   0.373  0.0934  0.6552 -0.9578
 8229SOL    HW136323   2.115   2.958   0.324  0.4711  1.1941 -0.1803
 8229SOL    HW236324   2.032   3.009   0.444  0.7887  0.3648 -0.6857
 8230SOL     OW36325   1.223   4.727  17.566 -0.1493 -0.6292  0.4467
 8230SOL    HW136326   1.262   0.064  17.601  1.4981 -2.0847  1.9501
 8230SOL    HW236327   1.196   4.677  17.643 -0.4944  0.8254  1.2936
 8231SOL     OW36328   1.525   4.480   2.456 -0.7206 -0.5551 -0.2358
 8231SOL    HW136329   1.512   4.468   2.550 -2.3647 -1.7435 -0.6008
 8231SOL    HW236330   1.435   4.502   2.434 -0.9585 -0.0977  1.2086
 8232SOL     OW36331   2.516   3.200   5.379  0.6381  0.0033  0.0724
 8232SOL    HW136332   2.520   3.242   5.292  0.4882  0.0650  0.0956
 8232SOL    HW236333   2.528   3.281   5.429 -0.7080 -0.7900  1.6581
 8233SOL     OW36334   2.967   0.967   3.935 -0.0392  0.1713  0.2620
 8233SOL    HW136335   2.972   0.938   3.844 -0.1271  1.2784 -0.0966
 8233SOL    HW236336   2.923   1.052   3.934  1.8144  1.1365  0.1923
 8234SOL     OW36337   0.862   4.547  15.756  0.0864 -0.3772  0.0217
 8234SOL    HW136338   0.915   4.467  15.757 -0.4126 -0.7105 -0.5689
 8234SOL    HW236339   0.875   4.575  15.665  2.0378  1.9931  1.0380
 8235SOL     OW36340   3.502   0.230   8.628  0.1098 -0.3027 -0.0017
 8235SOL    HW136341   3.549   0.212   8.709  0.5180  0.8658  0.0167
 8235SOL    HW236342   3.535   0.315   8.600  1.5392 -0.4581  1.2432
 8236SOL     OW36343   1.597   3.768   2.903  0.3506 -0.0596  0.0706
 8236SOL    HW136344   1.661   3.735   2.840 -0.3342 -2.4216  0.5848
 8236SOL    HW236345   1.559   3.836   2.847 -0.9596 -0.5195  0.3867
 8237SOL     OW36346   4.128   2.146   1.354 -0.0384 -0.0297 -0.0921
 8237SOL    HW136347   4.148   2.053   1.340  1.2873  0.1721  0.4831
 8237SOL    HW236348   4.151   2.182   1.269  0.0536 -0.9838 -0.4717
 8238SOL     OW36349   0.435   4.343  12.359  0.5554  0.0964  0.3283
 8238SOL    HW136350   0.475   4.294  12.288 -1.2734  1.5447 -1.6970
 8238SOL    HW236351   0.367   4.280  12.383  0.0057  0.0172 -1.4090
 8239SOL     OW36352   3.268   1.987   4.878 -0.3224  0.9624  0.0987
 8239SOL    HW136353   3.172   1.986   4.879 -0.3028  0.7569  1.5372
 8239SOL    HW236354   3.293   1.975   4.786  1.2931 -0.7284  0.7793
 8240SOL     OW36355   3.474   2.499   8.300  0.0230 -0.2147 -0.0499
 8240SOL    HW136356   3.546   2.441   8.274  0.7395  0.6312  0.0401
 8240SOL    HW236357   3.527   2.578   8.315  1.9005 -1.5015  0.1380
 8241SOL     OW36358   3.772   0.956   5.615  0.1074 -0.5523 -0.3394
 8241SOL    HW136359   3.789   1.040   5.657  1.4207  0.0069 -1.9877
 8241SOL    HW236360   3.828   0.894   5.662  0.5792 -0.4430 -0.7570
 8242SOL     OW36361   2.370   0.024   5.648  0.0497  0.0918 -0.3665
 8242SOL    HW136362   2.384   4.714   5.726 -2.1375  0.1998  0.0948
 8242SOL    HW236363   2.440   0.088   5.663 -0.2864  0.2719  0.4652
 8243SOL     OW36364   3.601   2.720  12.473 -0.1963 -0.5867  0.1410
 8243SOL    HW136365   3.521   2.679  12.508  1.4011 -1.7799  2.3691
 8243SOL    HW236366   3.669   2.683  12.528 -1.2023  0.5946  2.1974
 8244SOL     OW36367   0.147   0.091   6.932  0.2095  0.0352  0.2343
 8244SOL    HW136368   0.161   0.093   6.837 -0.8558  0.0405  0.0760
 8244SOL    HW236369   0.178   0.001   6.939  1.9046  0.4960 -1.5425
 8245SOL     OW36370   1.825   1.837  15.961  0.0154 -0.5943  0.2517
 8245SOL    HW136371   1.825   1.768  16.028 -0.9575 -1.2451 -0.4109
 8245SOL    HW236372   1.745   1.885  15.982 -0.5491 -0.0384 -3.0644
 8246SOL     OW36373   4.742   3.954   8.179 -0.4816  0.0245 -0.2287
 8246SOL    HW136374   4.675   3.919   8.237  0.3995 -0.3249  0.5774
 8246SOL    HW236375   0.023   4.036   8.222  2.5362 -1.6002  1.1238
 8247SOL     OW36376   4.221   0.154   9.710 -0.1380  0.3963 -0.1521
 8247SOL    HW136377   4.188   0.235   9.750 -0.2284 -0.4282  1.4559
 8247SOL    HW236378   4.190   0.173   9.621 -1.5822  0.3692  0.3424
 8248SOL     OW36379   3.707   2.950   4.250 -0.1992  0.5281 -0.3209
 8248SOL    HW136380   3.654   2.893   4.306  0.1072 -0.9964 -1.6004
 8248SOL    HW236381   3.792   2.906   4.253  0.1733  1.3027  0.7803
 8249SOL     OW36382   3.388   0.979   5.285 -0.0634  0.3488  0.1662
 8249SOL    HW136383   3.366   1.043   5.218 -1.2055  0.4986  0.6697
 8249SOL    HW236384   3.327   0.996   5.357 -1.2516 -0.0873 -0.7323
 8250SOL     OW36385   3.684   2.701   5.738  0.1408 -0.2429 -0.0692
 8250SOL    HW136386   3.739   2.774   5.710  1.0908 -1.6434 -1.8242
 8250SOL    HW236387   3.609   2.713   5.679 -0.6425  0.0207  0.9831
 8251SOL     OW36388   4.598   1.412   0.715 -0.1112  0.6548  0.0656
 8251SOL    HW136389   4.517   1.387   0.671 -0.5030  0.8392  0.6922
 8251SOL    HW236390   4.578   1.465   0.792  1.3712  0.1190  0.8228
 8252SOL     OW36391   4.743   3.772   8.887 -0.0171 -0.3524  0.3492
 8252SOL    HW136392   4.660   3.793   8.844  0.1272 -0.7266 -0.1128
 8252SOL    HW236393   0.059   3.790   8.815 -2.6159 -0.1195 -1.7550
 8253SOL     OW36394   2.489   4.578  10.054 -0.3620 -0.0764 -0.3786
 8253SOL    HW136395   2.445   4.624  10.125 -1.9811  1.7506 -2.5565
 8253SOL    HW236396   2.573   4.553  10.092  0.9099 -0.6645 -3.5250
 8254SOL     OW36397   0.789   0.942   9.341  0.1716  0.4096  0.2584
 8254SOL    HW136398   0.734   0.911   9.413  2.1047 -3.3344  0.1352
 8254SOL    HW236399   0.858   0.876   9.333 -0.2570 -0.0356  0.2772
 8255SOL     OW36400   3.892   4.342   1.848  0.1785 -0.2946 -0.0058
 8255SOL    HW136401   3.896   4.308   1.759  0.3333  1.3814 -0.6362
 8255SOL    HW236402   3.804   4.380   1.840  0.4067 -0.2517 -2.2655
 8256SOL     OW36403   4.567   3.059   3.986  0.0737 -0.2449  0.2123
 8256SOL    HW136404   4.581   3.001   3.911  0.3932  0.4001 -0.2209
 8256SOL    HW236405   4.600   3.143   3.953  1.5753 -0.5024  1.0672
 8257SOL     OW36406   0.250   0.845   8.030  0.4238  0.6039 -0.4889
 8257SOL    HW136407   0.319   0.906   8.054  1.3927 -0.6998  0.0106
 8257SOL    HW236408   0.194   0.850   8.107  1.0917 -1.7328  0.1551
 8258SOL     OW36409   1.331   2.079   7.048  0.1536  0.1108  0.7667
 8258SOL    HW136410   1.328   2.138   6.973  0.8180 -1.7354 -0.7060
 8258SOL    HW236411   1.293   2.005   7.000 -1.5646 -0.3980  2.8681
 8259SOL     OW36412   2.203   4.534   6.930  0.1910 -0.4906 -0.0450
 8259SOL    HW136413   2.210   4.514   7.023  0.0437  0.2196  0.1191
 8259SOL    HW236414   2.285   4.493   6.902  0.0846  0.0147 -1.1240
 8260SOL     OW36415   1.451   0.194   6.137 -0.2149 -0.2633 -0.7447
 8260SOL    HW136416   1.362   0.161   6.151  0.2712 -0.8448  0.9803
 8260SOL    HW236417   1.430   0.251   6.063 -0.6362 -0.4941 -0.8061
 8261SOL     OW36418   2.133   0.419  14.397  0.0634  0.2220 -0.4879
 8261SOL    HW136419   2.043   0.395  14.376  0.7587 -1.0053 -1.9835
 8261SOL    HW236420   2.117   0.506  14.433 -0.5601 -0.1540  0.1304
 8262SOL     OW36421   4.188   3.077  15.241  0.4853 -0.3741  0.2994
 8262SOL    HW136422   4.172   3.129  15.319  3.0496 -0.2852  0.7575
 8262SOL    HW236423   4.169   2.985  15.263 -0.1190 -0.3132  0.0327
 8263SOL     OW36424   1.894   2.948   4.153 -0.3942 -0.1984  0.1409
 8263SOL    HW136425   1.932   2.978   4.236 -1.1471 -0.5948  0.6327
 8263SOL    HW236426   1.804   2.979   4.162 -0.6062 -1.1356  1.3139
 8264SOL     OW36427   3.643   1.676  12.309  0.4270  0.3496 -0.4586
 8264SOL    HW136428   3.626   1.770  12.306  0.4546  0.3611 -0.1826
 8264SOL    HW236429   3.706   1.667  12.380 -0.5982  2.5836  0.7357
 8265SOL     OW36430   3.639   4.206   1.005  1.0010 -0.0954 -0.3776
 8265SOL    HW136431   3.548   4.203   1.031  0.5797  2.0666 -1.5759
 8265SOL    HW236432   3.683   4.265   1.066  0.8622  0.4319 -0.7840
 8266SOL     OW36433   0.583   2.988   2.867 -0.2432 -0.3892 -0.3966
 8266SOL    HW136434   0.671   2.958   2.849  0.4866  0.8603  1.0222
 8266SOL    HW236435   0.596   3.059   2.930  0.5645 -0.6031 -0.3276
 8267SOL     OW36436   3.970   0.844   0.204 -0.0995  0.2250  0.0353
 8267SOL    HW136437   3.913   0.832   0.280 -0.7664  0.4441 -0.4370
 8267SOL    HW236438   3.911   0.811   0.137  1.5920 -2.0720 -0.3470
 8268SOL     OW36439   3.821   3.016   4.651  0.4653  0.0207  0.6090
 8268SOL    HW136440   3.877   2.952   4.607 -1.8387 -0.7459 -1.1968
 8268SOL    HW236441   3.775   3.064   4.583  0.0928 -1.4664 -0.2034
 8269SOL     OW36442   2.527   3.966   6.932  0.0788 -0.3283 -0.2175
 8269SOL    HW136443   2.483   3.901   6.877  0.9190 -1.4343  0.4143
 8269SOL    HW236444   2.477   4.046   6.917 -0.3909 -0.6636 -0.4385
 8270SOL     OW36445   2.148   0.180   2.802 -0.6109 -0.5743  0.5847
 8270SOL    HW136446   2.185   0.237   2.870  0.3449  0.4347 -0.7855
 8270SOL    HW236447   2.097   0.247   2.757  1.3477 -0.4851 -1.4843
 8271SOL     OW36448   3.265   0.118   5.419  0.7005 -0.0355  0.3842
 8271SOL    HW136449   3.297   0.200   5.456 -0.7360  0.7673 -0.1395
 8271SOL    HW236450   3.191   0.110   5.479  1.4974  1.9340  1.6234
 8272SOL     OW36451   1.986   2.800   4.737 -0.1135 -0.1643 -0.2201
 8272SOL    HW136452   1.911   2.793   4.795  1.3526 -1.6105  1.5326
 8272SOL    HW236453   1.986   2.713   4.697 -0.2160  1.0062 -2.7476
 8273SOL     OW36454   0.888   4.281   7.316  0.1916 -0.2403  0.2917
 8273SOL    HW136455   0.971   4.284   7.364  0.1783 -0.5406  0.3284
 8273SOL    HW236456   0.901   4.352   7.252  0.4460 -1.1079 -0.6205
 8274SOL     OW36457   3.334   0.044   6.017 -0.4789  0.5176 -0.5035
 8274SOL    HW136458   3.318   0.133   6.047  0.8317  0.3553  0.6789
 8274SOL    HW236459   3.375   0.054   5.931  0.1459 -1.1786 -0.4064
 8275SOL     OW36460   0.097   1.718  12.800 -0.7030  0.3005 -0.0503
 8275SOL    HW136461   0.167   1.656  12.825 -0.2445  1.2135  0.9108
 8275SOL    HW236462   0.100   1.777  12.875 -0.4267 -2.6874  2.2923
 8276SOL     OW36463   0.873   3.800   6.182  1.0193  0.0821 -0.2417
 8276SOL    HW136464   0.845   3.835   6.097  0.6675 -0.8925 -0.5201
 8276SOL    HW236465   0.918   3.879   6.215  0.1074  0.7032 -0.4771
 8277SOL     OW36466   1.027   3.273   8.342  0.0649 -0.1635 -0.6333
 8277SOL    HW136467   1.044   3.179   8.351 -1.6301 -0.1482  2.8378
 8277SOL    HW236468   1.034   3.275   8.247  2.0537 -1.3988 -0.5106
 8278SOL     OW36469   4.174   0.669   0.633 -0.7437 -0.1581 -0.4643
 8278SOL    HW136470   4.182   0.613   0.556 -1.5924 -0.0968 -0.5993
 8278SOL    HW236471   4.262   0.705   0.640 -1.3080  0.7342  2.0705
 8279SOL     OW36472   2.489   4.639   4.271  0.4082 -0.0943  0.3745
 8279SOL    HW136473   2.424   4.581   4.311 -0.8296  1.4371  0.6272
 8279SOL    HW236474   2.531   4.577   4.212 -0.2138  0.1571 -0.3436
 8280SOL     OW36475   2.936   1.124   4.861  0.3939 -0.0923 -0.2738
 8280SOL    HW136476   2.968   1.182   4.791  0.5274  0.7838  0.5187
 8280SOL    HW236477   2.958   1.180   4.935 -2.5372  1.0974 -0.2836
 8281SOL     OW36478   3.872   1.501  11.862 -0.6260 -0.1520  0.8002
 8281SOL    HW136479   3.815   1.521  11.936  0.2749  0.5184  1.3272
 8281SOL    HW236480   3.810   1.521  11.792  2.3715  1.9108 -1.2728
 8282SOL     OW36481   1.344   2.898   0.148  0.0185  0.6748  0.2880
 8282SOL    HW136482   1.421   2.869   0.197  0.3945 -1.0166 -1.3509
 8282SOL    HW236483   1.368   2.988   0.171  0.7094  0.6179 -0.2209
 8283SOL     OW36484   0.812   3.721   6.445 -0.4102 -0.3980 -0.0370
 8283SOL    HW136485   0.722   3.708   6.414 -0.2477  0.0433 -0.6997
 8283SOL    HW236486   0.854   3.747   6.363 -1.0060 -2.4225 -0.9688
 8284SOL     OW36487   4.000   3.893   1.596  0.5211  0.6565 -0.0397
 8284SOL    HW136488   4.032   3.978   1.566 -0.3165  1.8213  2.3359
 8284SOL    HW236489   3.910   3.906   1.565 -0.4054  0.3603  2.5117
 8285SOL     OW36490   0.137   2.973   5.881  0.7145  0.0899  0.3916
 8285SOL    HW136491   0.112   2.880   5.884  1.4191 -0.1356 -1.1128
 8285SOL    HW236492   0.164   2.977   5.972 -0.0451  2.6791  0.5047
 8286SOL     OW36493   1.012   4.665   6.206  0.0532  0.4591 -0.0785
 8286SOL    HW136494   0.917   4.657   6.198 -0.0296 -0.0762  1.3542
 8286SOL    HW236495   1.033   4.646   6.298 -3.3544  1.8928  0.9946
 8287SOL     OW36496   3.988   1.486   5.654  0.8606 -0.0149 -0.0629
 8287SOL    HW136497   4.046   1.482   5.730  0.8113 -1.4177 -0.1089
 8287SOL    HW236498   4.052   1.505   5.585  0.8817 -3.4413 -1.0001
 8288SOL     OW36499   3.685   1.306  10.512 -0.5466 -0.6857  0.4616
 8288SOL    HW136500   3.724   1.223  10.485 -0.5893 -0.8123  0.7846
 8288SOL    HW236501   3.648   1.319  10.425  1.8410  1.2326 -0.2681
 8289SOL     OW36502   1.259   3.389  13.124  0.2858  0.1380 -0.0131
 8289SOL    HW136503   1.230   3.311  13.077  0.2455 -0.4937  1.0637
 8289SOL    HW236504   1.282   3.339  13.202 -0.3288  1.2734  0.9038
 8290SOL     OW36505   2.132   4.361   6.088 -0.1911  0.0979  0.3198
 8290SOL    HW136506   2.075   4.312   6.147  0.8579  1.1844  2.2297
 8290SOL    HW236507   2.093   4.353   6.001  0.4590  1.4860 -0.1055
 8291SOL     OW36508   0.580   0.360   1.981 -0.6018  0.6787  0.0803
 8291SOL    HW136509   0.627   0.437   1.950  0.6851 -0.1753 -0.0885
 8291SOL    HW236510   0.608   0.296   1.916  1.7208 -0.3952  2.1217
 8292SOL     OW36511   3.453   0.407   3.231 -0.1594 -0.3996  0.0999
 8292SOL    HW136512   3.402   0.330   3.258 -0.6799  0.1676  0.7350
 8292SOL    HW236513   3.499   0.425   3.313 -0.2117 -0.6831  0.1917
 8293SOL     OW36514   0.137   1.189   1.477  0.3723  0.1969  0.1720
 8293SOL    HW136515   0.127   1.103   1.436 -1.0737  0.4847 -0.1060
 8293SOL    HW236516   0.180   1.232   1.404 -0.3476 -0.2080 -0.4959
 8294SOL     OW36517   1.850   3.697  10.223  0.0163  0.7608 -0.2659
 8294SOL    HW136518   1.832   3.634  10.153 -1.8336  0.1620  0.7591
 8294SOL    HW236519   1.805   3.649  10.292  0.7272  1.0447  0.3930
 8295SOL     OW36520   1.121   1.855   4.936  0.8508 -0.1291 -0.4457
 8295SOL    HW136521   1.065   1.781   4.915  1.8655 -1.2625  0.8372
 8295SOL    HW236522   1.163   1.816   5.012  0.2515 -0.4601 -0.2849
 8296SOL     OW36523   4.255   1.240   7.120 -0.3282 -0.3921  0.5701
 8296SOL    HW136524   4.344   1.275   7.126 -0.3122 -0.4177  0.4835
 8296SOL    HW236525   4.198   1.306   7.159  2.1265  0.5816  2.5601
 8297SOL     OW36526   0.736   0.252  12.104 -0.0783  0.2158  0.4342
 8297SOL    HW136527   0.757   0.223  12.016 -2.2924  1.1663 -0.4254
 8297SOL    HW236528   0.649   0.292  12.098  1.4068  3.5290  0.7807
 8298SOL     OW36529   2.309   2.299   4.382 -0.1080 -0.2924  0.0756
 8298SOL    HW136530   2.373   2.352   4.333  0.4844  0.4527  1.6493
 8298SOL    HW236531   2.373   2.236   4.415 -0.6307 -1.8899 -1.9976
 8299SOL     OW36532   2.406   2.794   9.680 -0.6617  0.0874 -0.0348
 8299SOL    HW136533   2.409   2.708   9.722 -0.7129 -0.4373 -1.1089
 8299SOL    HW236534   2.313   2.797   9.660 -0.6890  1.7514  0.3377
 8300SOL     OW36535   2.549   1.436   9.011 -1.0074  0.1731  0.5606
 8300SOL    HW136536   2.605   1.374   8.965 -1.1999  1.6695 -1.6560
 8300SOL    HW236537   2.587   1.433   9.099 -0.9914 -0.8437  0.5233
 8301SOL     OW36538   2.117   3.832  10.262 -0.0482  0.2586 -0.1831
 8301SOL    HW136539   2.031   3.792  10.248  1.4382 -2.6937 -0.9530
 8301SOL    HW236540   2.126   3.885  10.184  2.4868  1.6354  1.0440
 8302SOL     OW36541   2.418   3.979   7.684  0.5158 -0.1898 -0.1816
 8302SOL    HW136542   2.413   3.895   7.638 -0.7753 -0.1793 -0.0809
 8302SOL    HW236543   2.481   3.969   7.756  0.8754 -1.7061 -0.7135
 8303SOL     OW36544   4.311   3.937   4.938 -0.5780  0.5797 -0.0109
 8303SOL    HW136545   4.248   3.963   5.005 -0.6405  1.1717 -0.2935
 8303SOL    HW236546   4.376   3.899   4.996 -1.5083 -0.7737  0.1426
 8304SOL     OW36547   2.617   4.673   3.821 -0.0320 -0.0608  0.9006
 8304SOL    HW136548   2.573   4.736   3.764 -0.3050 -2.3130 -1.4060
 8304SOL    HW236549   2.623   4.718   3.905 -1.6240  0.8084  0.5611
 8305SOL     OW36550   2.352   1.052   4.357 -0.6618 -0.2818  0.2864
 8305SOL    HW136551   2.381   1.142   4.373 -0.0570 -0.2482 -1.0278
 8305SOL    HW236552   2.313   1.053   4.269  0.6746 -2.0228 -0.3371
 8306SOL     OW36553   2.179   2.010   7.814  0.5309  0.1963  0.2507
 8306SOL    HW136554   2.143   1.997   7.902 -1.3999 -0.2471 -0.6008
 8306SOL    HW236555   2.272   2.020   7.832  0.1954  2.2453  0.8658
 8307SOL     OW36556   1.750   0.772   7.408 -0.0766  0.0524 -0.1775
 8307SOL    HW136557   1.835   0.814   7.399 -0.4359  0.6443 -0.8197
 8307SOL    HW236558   1.732   0.767   7.502  1.8738  0.3049  0.2189
 8308SOL     OW36559   2.440   4.353  12.749 -0.1800  0.4956  0.0895
 8308SOL    HW136560   2.361   4.302  12.732  1.0809 -0.9428 -1.4531
 8308SOL    HW236561   2.405   4.428  12.797  0.0266  0.1961  0.7111
 8309SOL     OW36562   4.594   3.916   8.684 -0.2634 -0.3826 -0.1735
 8309SOL    HW136563   4.584   3.968   8.604 -0.7893 -0.7344 -0.3359
 8309SOL    HW236564   4.500   3.919   8.704 -0.3773  0.0561 -0.7397
 8310SOL     OW36565   1.547   4.517  15.034 -0.7004 -0.0227 -0.0667
 8310SOL    HW136566   1.623   4.570  15.058 -0.3229 -0.7002  0.2582
 8310SOL    HW236567   1.573   4.426  15.054 -0.5593  0.1659  0.6231
 8311SOL     OW36568   3.873   1.352   9.440 -0.3159 -0.1481 -0.0182
 8311SOL    HW136569   3.954   1.339   9.490 -1.0043 -0.2986  1.0468
 8311SOL    HW236570   3.809   1.295   9.481  1.0968 -1.2269  0.7128
 8312SOL     OW36571   0.335   2.109  12.078  0.4288 -0.3573 -0.1043
 8312SOL    HW136572   0.315   2.174  12.011  0.5754 -0.6738 -0.4563
 8312SOL    HW236573   0.261   2.051  12.060  0.9203 -1.5578  1.7748
 8313SOL     OW36574   3.543   1.589   6.185 -0.5911 -0.7653  0.1466
 8313SOL    HW136575   3.597   1.530   6.132 -0.6185 -0.1198 -0.5952
 8313SOL    HW236576   3.461   1.543   6.168 -1.0739  0.5973 -1.2239
 8314SOL     OW36577   1.478   0.783   9.701  0.5490 -0.7687 -0.1733
 8314SOL    HW136578   1.472   0.786   9.797 -0.0509 -1.1191 -0.1990
 8314SOL    HW236579   1.572   0.787   9.685  0.5494 -0.9833 -0.2181
 8315SOL     OW36580   4.215   4.564  10.164  0.6525  0.2971 -0.0159
 8315SOL    HW136581   4.221   4.470  10.144 -1.4336 -0.1812  1.6622
 8315SOL    HW236582   4.300   4.575  10.208 -0.7646  1.4594  2.4336
 8316SOL     OW36583   4.707   3.865   1.790  0.5600  0.0926 -0.1639
 8316SOL    HW136584   0.016   3.910   1.855  1.0253  0.9793 -1.1566
 8316SOL    HW236585   0.022   3.869   1.714 -0.2791  1.9289 -0.7132
 8317SOL     OW36586   3.029   2.706  13.982 -0.5907 -0.1295 -0.1220
 8317SOL    HW136587   3.120   2.693  14.009 -0.8185 -0.7620  0.3450
 8317SOL    HW236588   3.028   2.658  13.899 -0.5888 -1.3733  0.6041
 8318SOL     OW36589   1.912   3.295   0.038 -0.3825 -0.2901  0.2155
 8318SOL    HW136590   1.849   3.341   0.093 -1.3203 -1.0269 -0.2316
 8318SOL    HW236591   1.987   3.284   0.097 -0.5025 -2.5333 -0.0366
 8319SOL     OW36592   2.598   3.090   1.248 -0.4704  0.4221 -0.0339
 8319SOL    HW136593   2.645   3.155   1.195 -0.9522  0.8332  0.0481
 8319SOL    HW236594   2.643   3.088   1.332  0.2452 -0.5695 -0.4472
 8320SOL     OW36595   1.676   2.739   2.030 -0.3092 -0.3278 -0.1930
 8320SOL    HW136596   1.622   2.812   2.000  0.9248  1.0920  1.0486
 8320SOL    HW236597   1.709   2.707   1.946 -0.7718 -1.3047  0.0071
 8321SOL     OW36598   0.763   1.562   3.491  0.3062  0.5524  0.1592
 8321SOL    HW136599   0.842   1.507   3.492  1.0509  1.6149 -1.0385
 8321SOL    HW236600   0.701   1.512   3.438 -0.2076  1.4295 -0.0615
 8322SOL     OW36601   0.636   2.385   4.120 -0.4905  0.8729 -0.0138
 8322SOL    HW136602   0.581   2.436   4.061  0.2821  0.6891 -0.8935
 8322SOL    HW236603   0.574   2.337   4.176  0.0316 -0.0203 -0.1960
 8323SOL     OW36604   4.536   4.731   4.618  0.3280 -0.5466 -0.0086
 8323SOL    HW136605   4.537   0.062   4.558  1.6739 -0.4777  0.0854
 8323SOL    HW236606   4.486   0.011   4.696  0.2586 -0.8149  0.0295
 8324SOL     OW36607   0.075   1.471  10.630 -0.2052  0.1288  0.0490
 8324SOL    HW136608   0.129   1.550  10.625 -0.9529  0.5929 -0.7922
 8324SOL    HW236609   0.033   1.473  10.543  0.1057 -2.9818 -0.1764
 8325SOL     OW36610   0.384   3.450   7.811  0.0692  0.3716 -0.7068
 8325SOL    HW136611   0.410   3.503   7.886  1.5670 -1.4957  0.0688
 8325SOL    HW236612   0.383   3.360   7.842 -1.3232  0.6049 -0.0708
 8326SOL     OW36613   0.831   4.004   2.586 -0.2556  0.4719  0.0205
 8326SOL    HW136614   0.762   3.990   2.522  0.8611  0.4863 -1.1890
 8326SOL    HW236615   0.823   3.920   2.632  0.1305  0.8528  0.7934
 8327SOL     OW36616   3.289   2.611   9.386 -0.6366  0.6661 -0.7382
 8327SOL    HW136617   3.366   2.593   9.440 -1.0570 -1.1750 -0.7561
 8327SOL    HW236618   3.235   2.668   9.442  1.1372 -0.2495  1.8890
 8328SOL     OW36619   1.050   2.168  13.440  0.3214  0.2389  0.2012
 8328SOL    HW136620   1.070   2.085  13.485  0.7186  0.2074 -0.0280
 8328SOL    HW236621   1.129   2.216  13.466 -1.1108  1.8204  1.5761
 8329SOL     OW36622   0.948   3.071   8.881 -0.4256 -0.0979  0.4910
 8329SOL    HW136623   0.892   3.135   8.926 -3.4710 -1.9612 -0.6396
 8329SOL    HW236624   1.016   3.055   8.947 -0.2660 -0.3845  0.2553
 8330SOL     OW36625   0.121   2.879  17.378  0.1096 -0.3284 -0.2387
 8330SOL    HW136626   0.101   2.786  17.371 -0.7871 -0.0603 -1.2715
 8330SOL    HW236627   0.205   2.890  17.422 -0.3096 -1.1444  0.7751
 8331SOL     OW36628   1.156   3.998   2.950 -0.6013 -0.0177  0.6003
 8331SOL    HW136629   1.167   4.082   2.904 -1.4208 -0.3321 -0.1707
 8331SOL    HW236630   1.096   4.011   3.024 -3.5362 -2.0345 -1.3958
 8332SOL     OW36631   2.822   1.062   7.269  0.2392  0.2646  0.4494
 8332SOL    HW136632   2.772   0.984   7.249 -0.8311  0.6043  1.8221
 8332SOL    HW236633   2.914   1.039   7.257 -0.0665  0.3596 -1.9776
 8333SOL     OW36634   1.243   1.829  16.914 -0.4863  0.0783 -0.1505
 8333SOL    HW136635   1.151   1.850  16.930 -1.2701 -1.2608 -2.9048
 8333SOL    HW236636   1.250   1.790  16.827 -3.5719  2.0311 -1.2792
 8334SOL     OW36637   0.314   4.512   4.405  0.2254  0.0556 -0.1428
 8334SOL    HW136638   0.377   4.443   4.424 -1.2002 -1.2111 -0.0251
 8334SOL    HW236639   0.266   4.476   4.331  0.2970  1.4357 -0.8678
 8335SOL     OW36640   1.236   0.981   5.488 -0.0993 -0.1318 -0.3856
 8335SOL    HW136641   1.261   0.922   5.560 -1.3287  1.1390  1.0621
 8335SOL    HW236642   1.193   1.056   5.527  0.4133  1.0718 -2.1111
 8336SOL     OW36643   1.208   2.048   0.014  1.0914  0.2641 -0.0686
 8336SOL    HW136644   1.150   1.972   0.011  0.6534  0.5069  2.3516
 8336SOL    HW236645   1.253   2.027  17.704  1.2230  0.0806  0.0521
 8337SOL     OW36646   4.053   3.551   7.535 -0.0372 -0.1593 -0.2594
 8337SOL    HW136647   4.077   3.500   7.458  0.7756 -0.0288 -0.0851
 8337SOL    HW236648   4.041   3.479   7.597  0.0574 -0.6284 -0.7902
 8338SOL     OW36649   0.150   2.872   6.894  0.0804  0.3671  0.5070
 8338SOL    HW136650   0.154   2.919   6.811  0.4645 -1.1733 -0.3568
 8338SOL    HW236651   0.240   2.840   6.898 -0.8541 -2.2992  0.2365
 8339SOL     OW36652   1.623   0.938   3.227 -0.1662  0.2920  0.1466
 8339SOL    HW136653   1.580   0.911   3.308 -0.0404  0.0869  0.1436
 8339SOL    HW236654   1.551   0.986   3.186 -1.8407 -1.9489  0.4963
 8340SOL     OW36655   0.572   2.730   4.434 -0.7049 -0.3231 -0.3576
 8340SOL    HW136656   0.632   2.680   4.379 -0.8300 -1.2517  0.3420
 8340SOL    HW236657   0.557   2.805   4.376  2.2848  0.4836 -0.0345
 8341SOL     OW36658   4.458   2.945   8.292 -0.3329  0.1979  0.1769
 8341SOL    HW136659   4.495   2.913   8.210 -0.0539  0.5941  0.1470
 8341SOL    HW236660   4.496   2.884   8.354  0.1187  0.4927  0.1877
 8342SOL     OW36661   3.258   4.033  15.943 -0.5078  0.3341 -0.5901
 8342SOL    HW136662   3.285   4.034  15.852 -1.0751 -0.2622 -0.7647
 8342SOL    HW236663   3.344   4.047  15.983 -0.2331 -1.1337 -0.6684
 8343SOL     OW36664   0.236   2.938   6.176  0.1110  0.8431  0.0253
 8343SOL    HW136665   0.174   2.880   6.219 -1.5162  2.6395  0.0846
 8343SOL    HW236666   0.321   2.922   6.217 -0.3782  1.4193  1.2399
 8344SOL     OW36667   3.288   0.905   7.694 -0.0271  0.1326 -0.2718
 8344SOL    HW136668   3.228   0.831   7.694  2.6360 -2.0563  0.3209
 8344SOL    HW236669   3.375   0.867   7.709 -0.8482 -0.7326  2.1936
 8345SOL     OW36670   3.486   2.276   6.220 -0.5178 -0.1509  0.6192
 8345SOL    HW136671   3.507   2.369   6.223 -1.6562  0.1178 -0.3357
 8345SOL    HW236672   3.511   2.252   6.310 -0.9216  0.1528  0.8113
 8346SOL     OW36673   3.409   0.163   1.942 -0.1206  0.2051  0.2010
 8346SOL    HW136674   3.353   0.137   1.868  0.1962 -0.9779  0.3788
 8346SOL    HW236675   3.488   0.192   1.895  0.1502  0.3405  0.7457
 8347SOL     OW36676   4.550   1.801   5.853  0.3961 -0.0046 -0.2641
 8347SOL    HW136677   4.613   1.862   5.892 -0.3346  0.6060 -0.0421
 8347SOL    HW236678   4.611   1.735   5.819  1.7712  2.3657 -2.4031
 8348SOL     OW36679   0.012   2.359   1.129  0.0406 -0.5308 -0.6362
 8348SOL    HW136680   0.091   2.406   1.154 -1.1691  0.7363  0.8017
 8348SOL    HW236681   0.015   2.361   1.033 -1.9545  1.4937 -0.6777
 8349SOL     OW36682   3.304   2.498   4.100  0.2387 -0.0380  0.7456
 8349SOL    HW136683   3.211   2.518   4.112 -0.1348 -1.0643 -0.3875
 8349SOL    HW236684   3.338   2.543   4.177  2.2504 -1.0323  0.4618
 8350SOL     OW36685   4.405   3.337   3.511 -0.5801 -0.0596  0.9334
 8350SOL    HW136686   4.472   3.388   3.467 -0.2444 -0.5668  0.8576
 8350SOL    HW236687   4.381   3.409   3.569  1.1897  0.9800  0.3566
 8351SOL     OW36688   1.068   1.681   4.544 -0.1310  0.1086 -0.6188
 8351SOL    HW136689   1.125   1.643   4.478  1.7131 -0.2259  1.1445
 8351SOL    HW236690   1.050   1.768   4.508  0.5698  0.3278 -0.4431
 8352SOL     OW36691   2.359   3.182  13.049  0.2436  0.0517  0.4149
 8352SOL    HW136692   2.283   3.197  12.993  0.4631  0.9469  0.3661
 8352SOL    HW236693   2.320   3.110  13.098  4.9027 -1.4692  1.9561
 8353SOL     OW36694   0.580   1.003   6.236  0.3479  0.5340  0.4848
 8353SOL    HW136695   0.499   1.001   6.287  0.9367 -0.5180  1.3756
 8353SOL    HW236696   0.631   1.073   6.275 -0.9720  0.0279  3.0904
 8354SOL     OW36697   2.981   2.389   3.212 -0.1779 -0.9266  0.2538
 8354SOL    HW136698   2.925   2.325   3.166 -1.2406  0.3178 -0.1810
 8354SOL    HW236699   2.920   2.457   3.240 -0.3799 -1.6376  1.5331
 8355SOL     OW36700   4.498   4.687   8.070 -0.2162 -0.4417  0.6389
 8355SOL    HW136701   4.494   4.712   7.978 -1.4399  0.7260  1.0031
 8355SOL    HW236702   4.492   0.029   8.111 -2.1230  0.0071 -0.5654
 8356SOL     OW36703   2.088   0.168   6.828  0.1588 -0.3131 -0.3048
 8356SOL    HW136704   2.018   0.130   6.882 -1.2130  0.0669 -1.8025
 8356SOL    HW236705   2.038   0.178   6.746 -1.2365 -2.4273  0.2917
 8357SOL     OW36706   1.420   1.088   3.073 -0.0603 -0.2366  0.4169
 8357SOL    HW136707   1.452   1.176   3.092 -0.7594  0.3945 -1.3262
 8357SOL    HW236708   1.369   1.107   2.994 -0.8714  1.1318  1.2705
 8358SOL     OW36709   2.194   3.684   5.871 -0.9322  0.5919  0.0229
 8358SOL    HW136710   2.231   3.761   5.828  0.6617 -1.6463 -2.6561
 8358SOL    HW236711   2.234   3.605   5.833 -0.1501 -0.7728  3.6787
 8359SOL     OW36712   0.029   0.956   7.790 -0.1453 -0.2001 -0.1221
 8359SOL    HW136713   4.698   1.014   7.801  0.1619  0.1536  0.1263
 8359SOL    HW236714   0.008   0.884   7.850 -1.0207 -1.6957 -2.2191
 8360SOL     OW36715   1.443   4.313   7.519 -0.4151 -0.0079 -0.1292
 8360SOL    HW136716   1.525   4.288   7.476  0.8898  2.7993  0.6707
 8360SOL    HW236717   1.397   4.348   7.442 -1.1692 -0.8101 -0.0418
 8361SOL     OW36718   1.919   1.501   2.053  0.1477  0.5923 -0.2772
 8361SOL    HW136719   1.865   1.577   2.077  0.3472  0.9099 -0.8387
 8361SOL    HW236720   1.868   1.430   2.093  0.4708  1.3983  1.5828
 8362SOL     OW36721   4.393   2.530   0.475  0.4445 -0.3543 -0.1422
 8362SOL    HW136722   4.403   2.474   0.398  0.8390  0.5718 -0.7830
 8362SOL    HW236723   4.309   2.500   0.507  0.4297 -1.0574 -0.8521
 8363SOL     OW36724   1.392   0.529  13.520  0.2178  0.0213  0.4864
 8363SOL    HW136725   1.484   0.505  13.530  0.5501  1.1719  0.1215
 8363SOL    HW236726   1.387   0.594  13.450 -0.9395 -2.3618 -1.6897
 8364SOL     OW36727   4.505   2.926   4.721  0.4432 -0.1930  0.1060
 8364SOL    HW136728   4.565   2.995   4.752  1.2684 -0.9172  0.1261
 8364SOL    HW236729   4.562   2.850   4.712 -0.7305 -1.2583  1.8572
 8365SOL     OW36730   1.943   3.531   2.030  0.4709 -0.0963  0.1172
 8365SOL    HW136731   2.013   3.553   2.092 -0.9097  1.4789  1.1232
 8365SOL    HW236732   1.905   3.458   2.079  0.3081 -0.4042 -0.4735
 8366SOL     OW36733   2.122   1.315   6.156  0.6384  0.8103  0.4704
 8366SOL    HW136734   2.188   1.330   6.088  0.8581 -1.0071  0.2763
 8366SOL    HW236735   2.181   1.292   6.228 -0.9343  0.4349  1.6472
 8367SOL     OW36736   3.886   4.526   8.478 -0.0168  0.0900 -0.0464
 8367SOL    HW136737   3.900   4.440   8.439 -0.9580 -0.3344  0.5564
 8367SOL    HW236738   3.974   4.564   8.480 -0.9139  2.2185 -1.4088
 8368SOL     OW36739   0.604   4.157   8.915  0.4699 -0.5582 -0.5509
 8368SOL    HW136740   0.522   4.121   8.948  1.4727 -2.1811  0.1925
 8368SOL    HW236741   0.623   4.110   8.833 -1.8650  0.5366 -1.7287
 8369SOL     OW36742   1.721   3.193   1.856  0.0789  0.0585 -0.2157
 8369SOL    HW136743   1.696   3.178   1.947  0.2713  0.6639 -0.0629
 8369SOL    HW236744   1.747   3.106   1.828 -0.0766 -0.5306  1.4910
 8370SOL     OW36745   2.991   0.389   6.866 -0.4364 -0.0796  0.2439
 8370SOL    HW136746   2.941   0.388   6.948 -0.5894  0.7354  0.1620
 8370SOL    HW236747   3.067   0.333   6.875 -2.5464 -2.5454  2.5002
 8371SOL     OW36748   1.165   0.111   4.633  0.2943  0.3693  0.4452
 8371SOL    HW136749   1.098   0.179   4.623 -0.8796 -1.2328 -2.3917
 8371SOL    HW236750   1.238   0.168   4.608 -1.9813  1.4918 -3.6787
 8372SOL     OW36751   1.989   2.015  14.111 -0.3057 -0.3707 -0.2662
 8372SOL    HW136752   1.932   2.064  14.171  0.9435 -0.3950  0.9357
 8372SOL    HW236753   2.068   2.062  14.139 -1.4344  1.1979  0.2883
 8373SOL     OW36754   1.802   0.330   0.575  0.0581  0.1550  0.1878
 8373SOL    HW136755   1.709   0.323   0.551 -0.4548 -1.7453  2.7430
 8373SOL    HW236756   1.785   0.352   0.666  0.2676  1.6142 -0.1311
 8374SOL     OW36757   1.061   4.623   4.733  0.4241 -0.2853  0.6752
 8374SOL    HW136758   1.028   4.582   4.654  2.6655  1.8379 -1.4013
 8374SOL    HW236759   1.107   4.701   4.699  0.3627  0.1366  1.5461
 8375SOL     OW36760   3.725   0.707   6.482  0.3383  0.0096 -0.2713
 8375SOL    HW136761   3.724   0.801   6.498 -0.3920 -0.0408 -0.0475
 8375SOL    HW236762   3.754   0.702   6.391  1.4364 -1.7366  0.1595
 8376SOL     OW36763   3.789   1.060  10.469  0.3080 -0.2713  0.0826
 8376SOL    HW136764   3.856   1.051  10.401 -1.4051  0.2502 -1.6711
 8376SOL    HW236765   3.797   0.972  10.506 -1.1735 -0.0701  0.8704
 8377SOL     OW36766   2.260   4.623   6.622  0.3159 -0.5753 -0.4448
 8377SOL    HW136767   2.271   4.593   6.713 -1.7050 -2.2844 -0.7615
 8377SOL    HW236768   2.351   4.618   6.594 -0.0344  0.1204 -1.6750
 8378SOL     OW36769   1.251   4.314   6.055 -0.4016  0.0013  0.0821
 8378SOL    HW136770   1.173   4.264   6.029 -0.1377  0.0058 -0.7351
 8378SOL    HW236771   1.271   4.270   6.137  0.1088  2.1848  1.1161
 8379SOL     OW36772   2.840   2.642  12.119 -0.1756  0.3293 -0.1147
 8379SOL    HW136773   2.892   2.720  12.104  0.6956 -0.5779 -1.7831
 8379SOL    HW236774   2.821   2.646  12.213 -0.7696  0.2878 -0.2293
 8380SOL     OW36775   4.190   0.803  14.311  0.1168  0.4170 -0.6085
 8380SOL    HW136776   4.252   0.827  14.379  0.9846  0.5278 -1.4352
 8380SOL    HW236777   4.163   0.719  14.348 -0.9504  0.3483 -1.5293
 8381SOL     OW36778   3.743   4.605  11.916  0.4144  0.1468 -0.4522
 8381SOL    HW136779   3.660   4.631  11.956  0.5520 -1.5130  0.9617
 8381SOL    HW236780   3.706   4.531  11.867 -0.0444 -0.0490  0.1900
 8382SOL     OW36781   2.916   4.151   2.538 -0.0992  0.4608 -0.4940
 8382SOL    HW136782   2.970   4.121   2.465  0.3363  0.0575  0.0005
 8382SOL    HW236783   2.899   4.066   2.578  1.9622  0.7633  1.0374
 8383SOL     OW36784   0.827   2.370  11.048 -0.2577 -0.3203  0.5110
 8383SOL    HW136785   0.764   2.349  11.118  1.4945 -0.7045  1.9755
 8383SOL    HW236786   0.870   2.286  11.033  1.9665  0.8802  0.1960
 8384SOL     OW36787   0.184   0.955   3.512  0.4183 -0.0408  0.2546
 8384SOL    HW136788   0.266   0.959   3.463  0.5181 -2.2014  0.2263
 8384SOL    HW236789   0.211   0.888   3.575 -2.2938 -1.9324 -0.5674
 8385SOL     OW36790   2.315   4.078   9.355 -0.9303 -0.0327  0.3036
 8385SOL    HW136791   2.312   3.992   9.397 -0.2220  1.0483  2.5282
 8385SOL    HW236792   2.240   4.072   9.295 -0.3417  2.4523 -0.6923
 8386SOL     OW36793   2.842   0.506   9.072 -0.1190 -0.4593  0.6842
 8386SOL    HW136794   2.895   0.470   9.002  0.0920  1.6264 -0.2478
 8386SOL    HW236795   2.905   0.564   9.115  1.3653 -2.0038  0.5600
 8387SOL     OW36796   4.316   2.290  11.933 -0.0835  0.0485  0.2219
 8387SOL    HW136797   4.320   2.198  11.960 -0.8901  0.5399  2.0397
 8387SOL    HW236798   4.329   2.279  11.839 -0.2196  0.1378  0.1932
 8388SOL     OW36799   0.437   0.517   8.646 -0.1850  0.3657  0.4488
 8388SOL    HW136800   0.402   0.428   8.649  0.4436  0.0559 -1.7991
 8388SOL    HW236801   0.518   0.504   8.597  0.6140 -1.4090  2.2733
 8389SOL     OW36802   3.915   1.095   0.478  0.3734 -0.0173  0.4236
 8389SOL    HW136803   3.998   1.134   0.506  0.7205  1.0386 -2.1340
 8389SOL    HW236804   3.926   1.004   0.506 -0.5170  0.1928  1.4807
 8390SOL     OW36805   4.624   4.074   3.851 -0.1440 -0.0146  0.4758
 8390SOL    HW136806   4.608   4.157   3.805  1.3672 -0.1019 -0.1766
 8390SOL    HW236807   4.544   4.026   3.831  0.3720 -0.9474  0.6640
 8391SOL     OW36808   1.785   2.682  13.962 -0.0185 -0.5072  0.6560
 8391SOL    HW136809   1.877   2.662  13.946 -0.1733 -0.4465 -0.3185
 8391SOL    HW236810   1.741   2.598  13.957 -0.5266 -0.2204  0.3783
 8392SOL     OW36811   3.071   1.318   8.402 -0.6901 -0.5962 -0.1182
 8392SOL    HW136812   3.060   1.254   8.471  0.3240 -2.2040 -1.4379
 8392SOL    HW236813   3.165   1.321   8.382 -0.4601 -0.3359  1.0460
 8393SOL     OW36814   1.389   1.770  16.547  0.0047 -0.0167  0.2043
 8393SOL    HW136815   1.433   1.723  16.618  2.1278  0.9410 -0.4820
 8393SOL    HW236816   1.371   1.848  16.601 -1.1345  0.4225 -0.8251
 8394SOL     OW36817   3.338   0.165   7.197 -0.2562 -0.2620 -0.5941
 8394SOL    HW136818   3.383   0.083   7.179 -1.1623 -0.3569 -2.4215
 8394SOL    HW236819   3.307   0.146   7.286  1.2328 -1.9050 -0.4287
 8395SOL     OW36820   3.831   1.914   9.690  0.1473 -0.0334  0.2377
 8395SOL    HW136821   3.877   1.936   9.771 -3.1631 -1.0646  2.3958
 8395SOL    HW236822   3.892   1.854   9.648  0.4695  0.5745 -0.1560
 8396SOL     OW36823   3.378   3.050   6.723 -0.5585 -0.5322 -0.4973
 8396SOL    HW136824   3.465   3.025   6.694  0.7884 -0.7403  3.6478
 8396SOL    HW236825   3.327   3.023   6.647  1.5965  1.1369 -2.5289
 8397SOL     OW36826   0.878   0.372   3.559  0.0215 -0.1578  0.3476
 8397SOL    HW136827   0.791   0.343   3.585  0.2799 -2.5394 -1.3939
 8397SOL    HW236828   0.857   0.444   3.499 -1.1921  0.0828  1.0818
 8398SOL     OW36829   2.336   0.830   6.888 -0.2478 -0.5533  1.1704
 8398SOL    HW136830   2.288   0.816   6.806  1.0469  0.4434  0.2247
 8398SOL    HW236831   2.378   0.915   6.872  0.5037 -1.0497  0.5295
 8399SOL     OW36832   2.335   1.230   0.720 -0.4384  0.0155  0.4175
 8399SOL    HW136833   2.393   1.303   0.741 -0.5708  0.9848 -2.7400
 8399SOL    HW236834   2.250   1.267   0.745 -1.2736  0.2530 -2.8945
 8400SOL     OW36835   2.737   1.252   0.574 -0.5133  0.4628 -0.3565
 8400SOL    HW136836   2.722   1.346   0.583  1.1981  0.9124 -2.2684
 8400SOL    HW236837   2.660   1.225   0.524  1.3283 -3.3208 -1.1639
 8401SOL     OW36838   3.985   0.311  14.292 -0.5321 -0.2747  0.1446
 8401SOL    HW136839   3.963   0.360  14.213 -2.1964 -1.0698  0.1186
 8401SOL    HW236840   4.081   0.318  14.296 -0.6517  0.1817  1.9548
 8402SOL     OW36841   4.437   4.072  17.421 -0.8344  0.1209 -0.2875
 8402SOL    HW136842   4.451   4.093  17.514  0.8189 -1.3015 -0.2157
 8402SOL    HW236843   4.524   4.086  17.383  0.4079 -2.9206  1.4505
 8403SOL     OW36844   3.396   3.362   3.076 -0.1200  0.3709 -0.2813
 8403SOL    HW136845   3.449   3.435   3.042 -2.3810  2.1239 -0.0051
 8403SOL    HW236846   3.458   3.291   3.090  1.2255  1.3429 -1.2941
 8404SOL     OW36847   1.200   2.889   3.866 -0.5365 -0.1215 -0.2751
 8404SOL    HW136848   1.156   2.972   3.881 -1.3564 -0.5107 -0.5767
 8404SOL    HW236849   1.128   2.827   3.859 -0.5125 -0.0270 -1.3485
 8405SOL     OW36850   2.742   4.554   2.693  0.8320 -0.1418  0.6099
 8405SOL    HW136851   2.783   4.507   2.766  1.4851 -0.1538  0.2383
 8405SOL    HW236852   2.793   4.527   2.616 -0.8959 -1.0905 -0.2014
 8406SOL     OW36853   2.015   0.002  15.604  0.5331 -0.0674  0.8871
 8406SOL    HW136854   2.000   4.689  15.680 -2.1292  0.9796  1.1388
 8406SOL    HW236855   2.089   0.053  15.637  1.1192  0.9779 -2.0706
 8407SOL     OW36856   3.570   2.914   1.240 -0.5342 -0.2857  0.2749
 8407SOL    HW136857   3.514   2.972   1.292 -1.3547  1.9395 -3.1654
 8407SOL    HW236858   3.532   2.896   1.154  0.0301  1.6869 -0.3722
 8408SOL     OW36859   0.717   2.848   0.014 -0.0259 -0.4636 -0.2682
 8408SOL    HW136860   0.747   2.939   0.007 -2.9802  0.5733  0.4039
 8408SOL    HW236861   0.690   2.838  17.694 -0.0787 -2.5014 -0.0366
 8409SOL     OW36862   2.153   3.453   3.081 -0.1370 -0.7242  0.2924
 8409SOL    HW136863   2.117   3.414   3.161 -1.7311 -2.3116 -1.2090
 8409SOL    HW236864   2.107   3.396   3.019  0.6287 -1.5516  0.4903
 8410SOL     OW36865   2.592   2.362  15.058 -0.1621  0.4739  0.5047
 8410SOL    HW136866   2.546   2.308  15.121 -3.1533  0.5330 -1.6429
 8410SOL    HW236867   2.665   2.391  15.113  1.5116 -1.2099 -0.8200
 8411SOL     OW36868   2.624   4.457  11.878 -0.5617  0.1217 -0.1609
 8411SOL    HW136869   2.678   4.444  11.956 -0.2163 -0.7811 -0.5525
 8411SOL    HW236870   2.580   4.540  11.898 -4.5930 -1.1856 -3.4446
 8412SOL     OW36871   1.221   4.291   3.827  0.3233  0.3466  0.2176
 8412SOL    HW136872   1.159   4.358   3.856 -1.3312 -1.0114 -0.2142
 8412SOL    HW236873   1.281   4.336   3.767  3.0858 -2.9836  0.4793
 8413SOL     OW36874   1.569   0.198   3.395 -0.3257 -0.0491 -0.6807
 8413SOL    HW136875   1.657   0.213   3.361 -0.8688 -1.6720 -2.8020
 8413SOL    HW236876   1.523   0.280   3.374 -0.5094  0.6030  2.2578
 8414SOL     OW36877   3.503   4.476   6.270 -0.4035 -0.1733 -0.0043
 8414SOL    HW136878   3.528   4.415   6.201 -0.6649 -0.4328  0.1328
 8414SOL    HW236879   3.483   4.422   6.346 -1.3552 -0.5438 -0.5203
 8415SOL     OW36880   1.636   2.827   6.305  0.0376  0.6831  0.1527
 8415SOL    HW136881   1.698   2.855   6.238  1.9396  0.5950  1.8982
 8415SOL    HW236882   1.564   2.889   6.310 -1.9580 -1.5422 -0.9346
 8416SOL     OW36883   1.825   3.061  10.935  0.6949  0.4059  0.0574
 8416SOL    HW136884   1.731   3.043  10.926  1.5917 -3.1790 -1.8227
 8416SOL    HW236885   1.850   2.969  10.941  1.2433  0.4667 -1.4581
 8417SOL     OW36886   0.875   0.846   7.593  0.4809 -0.3433 -0.9777
 8417SOL    HW136887   0.837   0.856   7.680  0.1980 -2.1530 -0.8945
 8417SOL    HW236888   0.935   0.772   7.608 -0.2721 -1.0783 -1.6021
 8418SOL     OW36889   2.947   1.593  17.253  0.0611  0.6003 -0.2376
 8418SOL    HW136890   2.928   1.601  17.160  1.8680 -0.6807 -0.7062
 8418SOL    HW236891   3.038   1.614  17.233 -0.3234  3.0270  0.5215
 8419SOL     OW36892   0.996   2.583   4.168  0.3556  0.3038  0.1684
 8419SOL    HW136893   0.990   2.653   4.103  1.5571 -1.3201 -1.7132
 8419SOL    HW236894   1.086   2.597   4.197  0.6107 -2.5502  0.8279
 8420SOL     OW36895   4.557   1.936   1.257  0.2310 -0.1883 -0.1833
 8420SOL    HW136896   4.568   1.972   1.345  1.7276  1.2489 -0.9625
 8420SOL    HW236897   4.602   1.851   1.250 -0.5701 -0.6157 -0.1700
 8421SOL     OW36898   1.629   3.398   6.245  0.1511 -0.2211  0.1422
 8421SOL    HW136899   1.570   3.464   6.208 -0.9508 -0.6659  1.0973
 8421SOL    HW236900   1.626   3.437   6.333  1.5540 -1.1633  0.5966
 8422SOL     OW36901   3.076   1.006  12.646  0.4075 -0.0142  0.0417
 8422SOL    HW136902   3.163   1.003  12.606 -1.0003 -0.7714 -2.9903
 8422SOL    HW236903   3.057   1.094  12.613  0.9346  0.0327 -0.1428
 8423SOL     OW36904   1.814   4.431   6.098  0.5297 -0.3034 -0.2903
 8423SOL    HW136905   1.771   4.346   6.099 -0.1026  0.0016 -0.9868
 8423SOL    HW236906   1.865   4.419   6.018  2.7097  1.3552  0.8395
 8424SOL     OW36907   0.179   2.805  15.497  0.3104  0.4373  0.1884
 8424SOL    HW136908   0.086   2.789  15.508  0.2742 -0.7062 -1.6560
 8424SOL    HW236909   0.213   2.753  15.570  0.2265  2.2636  1.5016
 8425SOL     OW36910   3.044   2.857   1.919 -0.2233  0.2086  0.4518
 8425SOL    HW136911   2.952   2.846   1.943 -0.7176  0.5970 -1.2355
 8425SOL    HW236912   3.076   2.806   1.994 -0.4146 -0.9970 -0.2765
 8426SOL     OW36913   3.385   1.064   9.136 -0.0542  0.6749  0.0759
 8426SOL    HW136914   3.298   1.099   9.116  0.2912  0.8944 -1.0511
 8426SOL    HW236915   3.358   1.018   9.216 -2.4750 -1.1830 -1.7948
 8427SOL     OW36916   0.217   3.464   5.334 -0.6082  0.3613 -0.0361
 8427SOL    HW136917   0.254   3.453   5.422  1.5995 -1.2199 -1.1500
 8427SOL    HW236918   0.168   3.383   5.318  1.3745 -1.1920  1.7352
 8428SOL     OW36919   1.463   3.757   5.887  0.1256  0.4547  0.0954
 8428SOL    HW136920   1.550   3.734   5.854  0.8508  1.2778  1.4194
 8428SOL    HW236921   1.460   3.853   5.888  2.2938  0.5558 -2.2517
 8429SOL     OW36922   4.256   3.010   4.871  0.3232 -0.0443 -0.0358
 8429SOL    HW136923   4.184   2.955   4.839  1.4497 -1.2537 -0.4558
 8429SOL    HW236924   4.331   2.953   4.854  1.3743  1.1517  0.5583
 8430SOL     OW36925   2.798   4.720   9.615  0.2430  0.4346 -0.2856
 8430SOL    HW136926   2.839   4.646   9.570  0.1141 -0.7773  1.6334
 8430SOL    HW236927   2.737   4.741   9.543  0.9867 -1.6982 -1.5211
 8431SOL     OW36928   0.522   0.864   3.016 -0.0402 -0.0334 -0.0609
 8431SOL    HW136929   0.501   0.873   3.109  0.3905  0.1689  0.0167
 8431SOL    HW236930   0.438   0.882   2.974 -1.3752 -0.2315  2.5187
 8432SOL     OW36931   1.953   1.822   2.704 -0.1208 -0.0202 -0.2854
 8432SOL    HW136932   2.013   1.775   2.647  0.7323  0.8040 -0.0682
 8432SOL    HW236933   1.901   1.852   2.630  1.1025  1.2847 -0.6181
 8433SOL     OW36934   3.640   4.450   1.545  0.0231 -0.1198  0.3433
 8433SOL    HW136935   3.725   4.413   1.568  0.3593  0.3513 -0.1311
 8433SOL    HW236936   3.573   4.409   1.599 -2.0408  3.6852  0.7059
 8434SOL     OW36937   3.171   0.812  10.932  0.1670 -0.1821 -0.2798
 8434SOL    HW136938   3.162   0.796  10.838  1.4561  4.2857 -1.1402
 8434SOL    HW236939   3.265   0.832  10.936  0.2691 -0.6699 -0.2436
 8435SOL     OW36940   0.250   0.940  10.957 -0.0084  0.4262  0.6441
 8435SOL    HW136941   0.291   0.922  11.041  0.4377  1.7799  0.7207
 8435SOL    HW236942   0.175   0.994  10.985 -1.4284 -0.6229 -1.1150
 8436SOL     OW36943   0.617   1.754   6.261 -0.7255  0.1044 -0.2902
 8436SOL    HW136944   0.638   1.762   6.168 -1.3273 -4.9833 -0.8824
 8436SOL    HW236945   0.691   1.696   6.279  0.7546  1.1586 -3.0457
 8437SOL     OW36946   0.477   2.388   7.699 -0.2764 -0.3845 -0.2824
 8437SOL    HW136947   0.491   2.360   7.789  1.2843 -1.2665 -0.7971
 8437SOL    HW236948   0.565   2.405   7.664  0.1444 -1.8141  0.0959
 8438SOL     OW36949   3.259   3.667   0.233  0.5579  0.2445  0.5101
 8438SOL    HW136950   3.164   3.655   0.238  0.5503  0.0789 -0.0274
 8438SOL    HW236951   3.284   3.667   0.325 -1.1575 -0.9904  0.9699
 8439SOL     OW36952   2.263   3.108  11.308  0.3557 -0.0310  0.0475
 8439SOL    HW136953   2.220   3.193  11.311  0.2117 -0.1141  0.3036
 8439SOL    HW236954   2.179   3.063  11.311 -0.4645  1.4792 -0.2028
 8440SOL     OW36955   1.628   0.543   6.744  0.1903  0.6715  0.2878
 8440SOL    HW136956   1.642   0.480   6.673 -0.5323 -0.6396  1.2998
 8440SOL    HW236957   1.604   0.484   6.816 -1.6576 -0.1729 -0.9936
 8441SOL     OW36958   0.648   3.640   5.983  0.2621 -0.3307 -0.5313
 8441SOL    HW136959   0.722   3.600   5.938  1.0007 -0.0523  0.4238
 8441SOL    HW236960   0.573   3.582   5.969  0.7102 -1.4566  1.7292
 8442SOL     OW36961   3.662   2.556   4.286  0.0191  0.0972 -0.3833
 8442SOL    HW136962   3.707   2.584   4.206  1.2125 -1.8667 -0.3964
 8442SOL    HW236963   3.720   2.605   4.343 -2.4761 -0.6898  2.8565
 8443SOL     OW36964   4.492   4.081  13.044 -0.0533  0.1761  0.1985
 8443SOL    HW136965   4.411   4.133  13.042  1.0525  1.9047  1.2333
 8443SOL    HW236966   4.458   3.995  13.070 -0.8298  0.7456  1.0629
 8444SOL     OW36967   1.479   1.950  17.474 -0.1393  0.2530  0.2462
 8444SOL    HW136968   1.387   1.949  17.501 -0.6345  1.7476 -1.3966
 8444SOL    HW236969   1.516   1.987  17.554 -0.0958  0.1731  0.2634
 8445SOL     OW36970   2.327   4.625   3.878 -0.0432 -0.2125  0.6220
 8445SOL    HW136971   2.411   4.597   3.915 -1.0114 -0.6335  2.4608
 8445SOL    HW236972   2.362   4.701   3.831 -0.1401 -1.3533 -1.3382
 8446SOL     OW36973   0.387   2.260   7.115 -0.1488 -0.7674 -0.4122
 8446SOL    HW136974   0.481   2.267   7.102  0.2972 -1.1684  2.4673
 8446SOL    HW236975   0.379   2.178   7.164  0.9968  0.3011  1.5553
 8447SOL     OW36976   2.219   0.228  11.769  0.4333  0.1822  0.3544
 8447SOL    HW136977   2.290   0.287  11.745  0.8508 -0.0690  0.9530
 8447SOL    HW236978   2.273   0.156  11.801  0.4166 -0.9361 -2.1496
 8448SOL     OW36979   3.146   3.862   7.803  0.0002 -0.2175 -0.1499
 8448SOL    HW136980   3.173   3.835   7.715  1.6923 -0.2809  0.3963
 8448SOL    HW236981   3.185   3.804   7.868 -1.1041 -1.9823 -1.0331
 8449SOL     OW36982   2.546   0.573   5.156  0.1352  0.3000  0.4735
 8449SOL    HW136983   2.575   0.515   5.085  0.9087  1.9851 -0.5868
 8449SOL    HW236984   2.485   0.520   5.207  0.5481 -0.4128  0.2320
 8450SOL     OW36985   2.436   2.886   8.519 -0.0868  0.0528 -0.2029
 8450SOL    HW136986   2.414   2.824   8.449 -0.7359 -0.1490  0.1809
 8450SOL    HW236987   2.425   2.970   8.475  0.9721  1.0642  1.4617
 8451SOL     OW36988   3.644   0.028   2.259 -0.6884 -0.5861 -0.4105
 8451SOL    HW136989   3.674   4.737   2.175  0.3923 -0.5082 -0.0549
 8451SOL    HW236990   3.552   0.032   2.232 -0.5224 -0.0386 -0.8751
 8452SOL     OW36991   3.814   0.932   1.665  0.3844 -0.4249 -0.4255
 8452SOL    HW136992   3.840   0.998   1.601 -1.4619 -0.7968 -1.5547
 8452SOL    HW236993   3.863   0.956   1.744 -0.8829 -0.8926  0.5207
 8453SOL     OW36994   1.081   4.701   9.146 -0.4401  0.1855 -0.1079
 8453SOL    HW136995   1.008   4.652   9.186 -1.6278  0.3688 -2.0453
 8453SOL    HW236996   1.136   4.731   9.218 -0.8838  0.4004  0.1416
 8454SOL     OW36997   1.753   2.071   2.977  0.3651 -0.2629  0.0911
 8454SOL    HW136998   1.749   1.975   2.978  1.2007 -0.3129 -2.6942
 8454SOL    HW236999   1.816   2.079   3.049  2.1490 -0.3269 -1.4840
 8455SOL     OW37000   1.318   0.271  13.530 -0.2188 -0.2892 -0.2304
 8455SOL    HW137001   1.383   0.260  13.461  0.7211 -0.8888  0.7432
 8455SOL    HW237002   1.340   0.364  13.540 -1.4511  0.0069 -0.3088
 8456SOL     OW37003   2.336   3.721  10.361  0.1951  0.4368 -0.1209
 8456SOL    HW137004   2.249   3.736  10.325  0.7530  1.5464 -0.9836
 8456SOL    HW237005   2.359   3.800  10.411  1.0525 -0.3642  0.7549
 8457SOL     OW37006   0.816   1.944   5.417  0.0292  0.0490 -0.2684
 8457SOL    HW137007   0.821   1.879   5.486  0.9556  1.3370  0.8677
 8457SOL    HW237008   0.723   1.967   5.422 -0.3849 -1.4826 -0.7126
 8458SOL     OW37009   1.464   1.107   4.097 -0.2346 -0.4008  0.6209
 8458SOL    HW137010   1.544   1.108   4.045 -0.8455 -2.5953 -0.3454
 8458SOL    HW237011   1.391   1.099   4.036 -0.4165  0.1844  0.7631
 8459SOL     OW37012   3.972   0.752   9.267  0.0810 -0.3547  0.0200
 8459SOL    HW137013   3.929   0.699   9.334  1.2206 -0.5308  0.6084
 8459SOL    HW237014   4.044   0.774   9.326 -0.2444 -1.5759  0.8640
 8460SOL     OW37015   2.239   2.616   6.962 -0.2580  0.8222  0.3990
 8460SOL    HW137016   2.169   2.681   6.966  0.7091  1.8904  0.2014
 8460SOL    HW237017   2.201   2.539   7.003  1.9421 -1.4709 -1.9171
 8461SOL     OW37018   2.513   4.413   5.808  0.2067 -0.2104 -0.4189
 8461SOL    HW137019   2.478   4.329   5.779  1.9897 -0.7558 -1.0071
 8461SOL    HW237020   2.516   4.456   5.723 -0.8461  1.0395  0.1749
 8462SOL     OW37021   3.586   1.710  16.545  0.1600 -0.3691  0.2786
 8462SOL    HW137022   3.622   1.683  16.461  1.1777 -2.1361  1.2908
 8462SOL    HW237023   3.605   1.804  16.533 -0.4178 -0.1639  0.9928
 8463SOL     OW37024   3.458   3.170   1.280  0.0755  0.2492 -0.4308
 8463SOL    HW137025   3.372   3.180   1.321  0.8713 -1.3040  1.6554
 8463SOL    HW237026   3.429   3.147   1.192  0.6759 -0.7514 -0.3779
 8464SOL     OW37027   2.043   4.443   5.455  0.0904 -0.2349 -0.2842
 8464SOL    HW137028   2.056   4.354   5.423 -0.1840 -0.7069  0.9117
 8464SOL    HW237029   1.956   4.439   5.493  0.5639 -3.0856  0.4489
 8465SOL     OW37030   0.068   1.219   1.037 -0.6641  0.1257 -0.0344
 8465SOL    HW137031   0.144   1.195   1.090 -1.1104 -1.8265 -0.3061
 8465SOL    HW237032   0.072   1.152   0.969  1.0095  0.9323 -0.7223
 8466SOL     OW37033   3.705   2.644   3.522 -0.0473  0.5976  0.3164
 8466SOL    HW137034   3.616   2.675   3.504 -0.0587  0.4736  0.1515
 8466SOL    HW237035   3.733   2.663   3.432  0.7331 -3.1228 -0.1939
 8467SOL     OW37036   3.672   3.097   4.015  0.4692  1.1969 -0.2291
 8467SOL    HW137037   3.676   3.033   4.086  4.3790  1.0688 -0.5266
 8467SOL    HW237038   3.720   3.039   3.955 -1.0355  0.7066 -0.9524
 8468SOL     OW37039   3.798   4.463   3.246  0.4408 -0.1289  0.4513
 8468SOL    HW137040   3.856   4.506   3.183 -0.8119 -0.8926 -1.2424
 8468SOL    HW237041   3.846   4.472   3.328 -1.2233  1.8595  1.2288
 8469SOL     OW37042   0.746   2.447  11.446 -0.0372  0.4879  0.2364
 8469SOL    HW137043   0.770   2.378  11.509  2.1450 -1.9033 -3.2363
 8469SOL    HW237044   0.785   2.524  11.487 -0.0869  0.4519  0.3527
 8470SOL     OW37045   0.562   2.712   1.203  0.1516  0.5235  0.3973
 8470SOL    HW137046   0.563   2.702   1.108  0.5246 -0.6144  0.5221
 8470SOL    HW237047   0.471   2.730   1.224 -0.5417 -1.4793 -0.9399
 8471SOL     OW37048   3.850   2.189   4.949 -0.2849  0.2386  0.3029
 8471SOL    HW137049   3.929   2.138   4.966 -0.0191  0.6054  0.1600
 8471SOL    HW237050   3.785   2.166   5.016 -0.1658  2.6142  1.2381
 8472SOL     OW37051   3.388   1.003   5.854  0.7941 -0.2347 -0.4991
 8472SOL    HW137052   3.449   0.959   5.913  0.4865  2.0182  1.5132
 8472SOL    HW237053   3.398   0.965   5.766  1.0478 -1.9401  0.2728
 8473SOL     OW37054   1.663   3.304   9.985  0.3705  0.1925  0.2779
 8473SOL    HW137055   1.589   3.301   9.924  0.7815 -1.1631 -0.1383
 8473SOL    HW237056   1.736   3.285   9.926  0.4131 -0.5859  0.5790
 8474SOL     OW37057   2.871   2.205  10.837  0.4815 -0.5807  0.2637
 8474SOL    HW137058   2.820   2.281  10.865  0.6560  0.3723 -1.9855
 8474SOL    HW237059   2.929   2.184  10.910  0.3967  2.4319  1.2139
 8475SOL     OW37060   2.173   1.173   9.588 -0.6722 -0.0613  0.3332
 8475SOL    HW137061   2.242   1.107   9.598  0.5701  0.9411 -1.6963
 8475SOL    HW237062   2.128   1.175   9.673  1.2102 -0.9576  1.3390
 8476SOL     OW37063   4.586   0.809  17.273  0.7903 -0.1939  0.2851
 8476SOL    HW137064   4.657   0.835  17.331  0.9198  1.9892 -0.8594
 8476SOL    HW237065   4.569   0.723  17.312  1.8898 -0.4169  0.2760
 8477SOL     OW37066   1.610   0.463   3.592  0.1008  0.0510  0.4587
 8477SOL    HW137067   1.517   0.450   3.615  0.4685 -4.7686 -0.8388
 8477SOL    HW237068   1.600   0.440   3.500  0.9030 -1.1878  0.6884
 8478SOL     OW37069   2.849   4.521   1.090 -1.1168  0.4250 -0.1474
 8478SOL    HW137070   2.875   4.593   1.033  0.7168  1.0660  1.5217
 8478SOL    HW237071   2.794   4.561   1.156 -2.5126 -0.0434 -1.0070
 8479SOL     OW37072   3.597   1.992  12.338 -0.1502 -0.2481 -0.2485
 8479SOL    HW137073   3.683   1.997  12.296  0.1620 -1.1177  0.2917
 8479SOL    HW237074   3.551   2.046  12.273 -1.7008 -0.3435  0.7892
 8480SOL     OW37075   0.055   0.517   2.767 -0.2199  0.3655 -0.5061
 8480SOL    HW137076   0.079   0.547   2.679  0.9998 -0.9042 -0.6015
 8480SOL    HW237077   4.741   0.442   2.751 -1.8419  1.8438 -1.5883
 8481SOL     OW37078   0.915   1.341   0.915 -0.1499 -0.2150  0.0644
 8481SOL    HW137079   0.990   1.328   0.974 -1.7774 -2.4316  1.6512
 8481SOL    HW237080   0.873   1.411   0.965 -0.6734 -0.8942  0.5756
 8482SOL     OW37081   2.904   1.660   1.895 -0.4720 -0.0067  0.4466
 8482SOL    HW137082   2.961   1.598   1.942  0.3997  0.1904 -0.3489
 8482SOL    HW237083   2.817   1.631   1.923  1.5272 -5.9815  0.4268
 8483SOL     OW37084   3.899   4.163   8.556  0.1415 -0.4621 -0.6353
 8483SOL    HW137085   3.989   4.191   8.539 -0.0589  0.3644 -0.3535
 8483SOL    HW237086   3.897   4.068   8.552 -3.7194 -0.4611  1.1354
 8484SOL     OW37087   0.931   2.582   6.171 -0.0958 -0.1147  0.4558
 8484SOL    HW137088   0.931   2.677   6.161 -1.8014 -0.3523 -1.6207
 8484SOL    HW237089   0.905   2.589   6.263 -0.1661  1.2742  0.3262
 8485SOL     OW37090   1.439   1.892   7.304 -0.2012 -0.3697 -0.3728
 8485SOL    HW137091   1.528   1.895   7.337 -0.0186 -0.8048 -0.8188
 8485SOL    HW237092   1.443   1.958   7.235  0.0847  1.5543  1.4905
 8486SOL     OW37093   3.066   4.481   2.339 -1.0438  0.1264  0.1718
 8486SOL    HW137094   3.094   4.466   2.429 -1.4790 -1.4324  0.0559
 8486SOL    HW237095   3.088   4.571   2.317  1.4687 -0.9098 -1.6056
 8487SOL     OW37096   3.364   1.606   8.654 -0.0458  0.1074 -0.8325
 8487SOL    HW137097   3.386   1.691   8.691  2.4191 -1.0174  0.2651
 8487SOL    HW237098   3.386   1.626   8.564 -1.0276 -1.7113 -1.4730
 8488SOL     OW37099   3.305   0.171   3.235  0.4416  0.1871 -0.2369
 8488SOL    HW137100   3.226   0.146   3.282  0.2776  2.1247  0.5294
 8488SOL    HW237101   3.374   0.117   3.272  1.0397  0.8600 -0.3801
 8489SOL     OW37102   1.843   4.380   5.174 -0.4603  0.2613  0.1216
 8489SOL    HW137103   1.883   4.379   5.087 -1.6328 -3.5352 -0.3804
 8489SOL    HW237104   1.905   4.321   5.217  0.2614  1.3311  0.5516
 8490SOL     OW37105   3.258   0.646   6.933 -0.1579 -0.1749  0.1413
 8490SOL    HW137106   3.233   0.581   7.000 -0.7189  0.3459  0.4403
 8490SOL    HW237107   3.352   0.646   6.950 -0.5051 -0.9070  2.1569
 8491SOL     OW37108   1.808   4.464   3.197 -0.3129  0.2871  0.1975
 8491SOL    HW137109   1.900   4.472   3.171 -0.5675  0.9045 -0.5176
 8491SOL    HW237110   1.778   4.552   3.172  2.6412  0.8686 -1.2357
 8492SOL     OW37111   1.211   2.320  13.748  0.4629 -0.1985  0.4412
 8492SOL    HW137112   1.245   2.334  13.660 -1.7962 -1.1054 -0.5923
 8492SOL    HW237113   1.120   2.340  13.728 -0.0729 -2.9749  0.0217
 8493SOL     OW37114   3.345   1.151   4.814  0.6166 -0.1712 -0.2015
 8493SOL    HW137115   3.371   1.214   4.746 -0.5532 -1.4817 -1.8705
 8493SOL    HW237116   3.288   1.097   4.758 -0.1853  0.5157 -0.0470
 8494SOL     OW37117   3.555   1.085   0.285 -0.0165 -0.0524 -0.1780
 8494SOL    HW137118   3.629   1.144   0.267 -1.3278  1.5053 -0.4458
 8494SOL    HW237119   3.500   1.092   0.207 -2.1485 -0.2342  1.3134
 8495SOL     OW37120   2.775   4.532  12.088  0.1730  0.1419  0.0565
 8495SOL    HW137121   2.847   4.518  12.150 -0.6123 -1.6214  0.5459
 8495SOL    HW237122   2.824   4.575  12.017 -1.4177  1.5516 -0.1872
 8496SOL     OW37123   1.528   3.971   3.396  0.3959  0.3984 -0.0697
 8496SOL    HW137124   1.544   4.066   3.394 -2.0010  0.7995 -0.4644
 8496SOL    HW237125   1.559   3.940   3.311  1.7101  1.0590  0.1581
 8497SOL     OW37126   0.993   1.932   4.383 -0.0820  0.3072  0.2918
 8497SOL    HW137127   0.910   1.894   4.352  0.6248 -0.3387 -0.7793
 8497SOL    HW237128   0.970   2.024   4.394 -2.8395 -0.2701 -0.4539
 8498SOL     OW37129   1.914   1.015   3.256 -0.5018  0.6219  0.0144
 8498SOL    HW137130   1.831   0.970   3.245  0.4768 -1.6196  1.6458
 8498SOL    HW237131   1.972   0.939   3.257  0.6297  1.4600 -0.6262
 8499SOL     OW37132   2.769   3.812   2.357  0.8252 -0.5777  0.2381
 8499SOL    HW137133   2.703   3.863   2.310  0.9798 -0.8769 -0.2961
 8499SOL    HW237134   2.784   3.860   2.439 -1.0794 -0.9057  0.7920
 8500SOL     OW37135   3.006   2.871  12.088  0.0972 -0.4359 -0.5878
 8500SOL    HW137136   3.101   2.861  12.097 -0.2296 -0.4321  3.2245
 8500SOL    HW237137   3.001   2.931  12.014  1.5822  1.8467  1.1350
 8501SOL     OW37138   3.353   2.524  15.046 -0.0630 -0.4452 -0.1137
 8501SOL    HW137139   3.347   2.463  15.119  0.1154 -0.2545  0.0626
 8501SOL    HW237140   3.290   2.495  14.980 -1.4037 -0.6023  1.2487
 8502SOL     OW37141   0.947   4.296   5.631  0.5363  0.2656 -0.3906
 8502SOL    HW137142   1.020   4.320   5.574 -0.6975 -1.0854 -2.5425
 8502SOL    HW237143   0.971   4.204   5.639 -1.2085 -0.1446  0.1342
 8503SOL     OW37144   2.210   3.030   1.518  0.1133  0.5760  0.4205
 8503SOL    HW137145   2.209   3.086   1.595  0.1193  0.9330  0.1576
 8503SOL    HW237146   2.116   3.032   1.499 -0.3919  0.2894  2.8658
 8504SOL     OW37147   1.242   1.361   3.238 -0.0492  1.1925 -0.2164
 8504SOL    HW137148   1.231   1.454   3.257 -0.0401  1.1681 -0.0897
 8504SOL    HW237149   1.274   1.340   3.326  0.6100  0.4561 -0.6327
 8505SOL     OW37150   3.619   3.726  16.422  0.2475  0.2408 -0.2069
 8505SOL    HW137151   3.703   3.701  16.460  2.3947  1.5351 -4.1229
 8505SOL    HW237152   3.653   3.807  16.384 -1.3635  0.8077 -0.4509
 8506SOL     OW37153   1.506   0.291  12.568  0.6428  0.7141 -0.6684
 8506SOL    HW137154   1.417   0.323  12.558  0.2660 -0.7257 -1.8508
 8506SOL    HW237155   1.508   0.238  12.488 -2.0643  0.0039 -0.2452
 8507SOL     OW37156   4.653   2.362  13.413  0.3726  0.0883 -0.4389
 8507SOL    HW137157   4.612   2.312  13.343 -0.3237  0.2014 -0.1128
 8507SOL    HW237158   4.590   2.433  13.423 -0.9591 -1.1948  0.2148
 8508SOL     OW37159   3.179   3.023   9.998  0.0437  0.2664  0.8347
 8508SOL    HW137160   3.260   2.980  10.026  0.7118 -0.4126 -2.0589
 8508SOL    HW237161   3.113   2.976  10.049  1.3932 -1.8432  0.6478
 8509SOL     OW37162   2.931   0.276   9.484  0.3155 -0.2995  0.3076
 8509SOL    HW137163   2.951   0.226   9.405  0.5077  0.4986 -0.1436
 8509SOL    HW237164   2.919   0.209   9.551 -0.8950  1.1441  1.5460
 8510SOL     OW37165   2.575   1.250   8.247 -0.3672  0.4312 -0.0681
 8510SOL    HW137166   2.541   1.216   8.164 -0.7005  1.0047 -0.1677
 8510SOL    HW237167   2.549   1.341   8.235 -0.2113  0.4538 -0.2354
 8511SOL     OW37168   0.024   0.317   4.608 -0.3018  0.1525  0.3987
 8511SOL    HW137169   0.066   0.400   4.588 -1.9458  0.5508 -1.3691
 8511SOL    HW237170   4.742   0.293   4.519 -1.3357 -1.1932  1.0489
 8512SOL     OW37171   0.173   2.272   2.929  0.3355 -0.3659  0.2609
 8512SOL    HW137172   0.088   2.254   2.969 -0.4124 -0.0799 -1.2012
 8512SOL    HW237173   0.232   2.288   3.003  1.2747  1.0880 -0.8076
 8513SOL     OW37174   3.322   0.922  15.532  0.1014  0.2848 -0.1085
 8513SOL    HW137175   3.346   1.014  15.521  3.9463 -0.9322 -1.6949
 8513SOL    HW237176   3.355   0.904  15.620 -1.1504 -0.7679  0.1408
 8514SOL     OW37177   3.206   2.144   9.485  0.3410 -0.6053  0.2958
 8514SOL    HW137178   3.184   2.146   9.578  1.7203  1.2957  0.5904
 8514SOL    HW237179   3.289   2.192   9.493 -0.4551  0.9181 -0.6929
 8515SOL     OW37180   3.250   2.784   7.112 -0.2474 -0.3946  0.4881
 8515SOL    HW137181   3.278   2.770   7.021 -2.4404 -2.6666  0.1707
 8515SOL    HW237182   3.330   2.791   7.164  0.6697 -1.5399 -0.7750
 8516SOL     OW37183   4.100   2.304   3.106  0.5270 -0.2202  0.0283
 8516SOL    HW137184   4.040   2.378   3.095  0.6249 -0.2416 -0.6394
 8516SOL    HW237185   4.044   2.245   3.156  0.3271  0.6681  0.8479
 8517SOL     OW37186   1.781   2.059  12.303 -0.6573 -0.2678 -0.0246
 8517SOL    HW137187   1.871   2.063  12.272 -0.0764 -1.0140  1.5886
 8517SOL    HW237188   1.785   2.079  12.396  0.0841  3.4275 -0.8530
 8518SOL     OW37189   0.987   3.743   4.641 -0.2241 -0.0171  0.0806
 8518SOL    HW137190   0.911   3.801   4.643 -0.4519 -0.3226  0.3665
 8518SOL    HW237191   1.023   3.750   4.730  0.0466 -0.2160 -0.0128
 8519SOL     OW37192   2.723   4.155  11.087  0.5065 -0.3104 -0.5097
 8519SOL    HW137193   2.713   4.090  11.156  0.9256  0.4047  0.2378
 8519SOL    HW237194   2.729   4.101  11.008  0.0221 -2.1423  0.7131
 8520SOL     OW37195   1.315   0.576   8.445  0.0527  0.0081  0.5507
 8520SOL    HW137196   1.319   0.663   8.486  0.4486  0.2806 -0.0743
 8520SOL    HW237197   1.323   0.524   8.525  0.2272 -0.1129  0.4525
 8521SOL     OW37198   0.240   2.707   8.881  0.0457 -0.3650  0.2771
 8521SOL    HW137199   0.160   2.671   8.919 -0.6143  1.3756  0.5265
 8521SOL    HW237200   0.283   2.632   8.841 -0.3593 -0.7877  0.6442
 8522SOL     OW37201   1.134   3.813   3.945  0.0308  0.4580  0.5402
 8522SOL    HW137202   1.142   3.745   3.878  0.2712  0.6003  0.4221
 8522SOL    HW237203   1.055   3.785   3.991 -0.3004 -0.9729 -0.9154
 8523SOL     OW37204   1.672   4.431   4.002 -0.3422  0.2039 -0.4475
 8523SOL    HW137205   1.635   4.418   3.914 -1.4538  0.6977 -0.0576
 8523SOL    HW237206   1.597   4.457   4.055  1.0328  0.7645  1.1940
 8524SOL     OW37207   2.956   0.151   3.645 -0.0902 -0.4841  0.4657
 8524SOL    HW137208   2.863   0.175   3.654  0.8725  3.6806 -0.4883
 8524SOL    HW237209   2.951   0.073   3.699  2.0109 -0.6937  0.3346
 8525SOL     OW37210   1.546   3.668  13.085  0.4592  0.5754  0.1717
 8525SOL    HW137211   1.590   3.591  13.121 -2.4616 -1.9672 -1.5706
 8525SOL    HW237212   1.585   3.685  12.999  1.6697 -1.2126  0.3596
 8526SOL     OW37213   1.563   4.040   2.263  0.2163 -0.0814  0.4125
 8526SOL    HW137214   1.528   3.953   2.282 -0.3705  0.1616  0.4429
 8526SOL    HW237215   1.527   4.089   2.337  0.2109  1.0989 -0.3584
 8527SOL     OW37216   1.799   0.023   9.921 -0.0436  0.4599 -0.0528
 8527SOL    HW137217   1.755   0.107   9.910 -3.1713 -0.8033  2.9072
 8527SOL    HW237218   1.891   0.047   9.930  0.4545 -1.4424 -0.0057
 8528SOL     OW37219   4.065   1.680   1.122  0.1557 -0.6604  0.1000
 8528SOL    HW137220   4.022   1.694   1.207 -0.6167  1.6946 -0.6911
 8528SOL    HW237221   4.001   1.614   1.098 -1.0774  1.3110 -2.0156
 8529SOL     OW37222   4.452   0.535   9.784 -0.1626 -0.1297  0.2728
 8529SOL    HW137223   4.380   0.473   9.792  0.3324 -0.7888 -0.4734
 8529SOL    HW237224   4.490   0.532   9.872  1.8828  0.3568 -0.5830
 8530SOL     OW37225   1.847   2.155   7.209  0.2321  0.0179 -0.0379
 8530SOL    HW137226   1.835   2.203   7.290 -0.7186  0.6370 -0.5451
 8530SOL    HW237227   1.764   2.141   7.163  0.3449 -1.9727  0.4031
 8531SOL     OW37228   2.850   3.839  11.758  0.3855  0.4046  0.3638
 8531SOL    HW137229   2.801   3.893  11.819  3.3844  1.3664  1.9163
 8531SOL    HW237230   2.858   3.893  11.679 -0.3266 -1.3325 -0.9105
 8532SOL     OW37231   3.085   0.136   5.113  0.5818  0.4042 -0.7382
 8532SOL    HW137232   3.052   0.114   5.200 -0.1486 -1.9728 -1.6338
 8532SOL    HW237233   3.180   0.138   5.113  0.6027 -0.8668 -0.1235
 8533SOL     OW37234   2.552   2.192   2.589 -0.2369  0.3967  0.2433
 8533SOL    HW137235   2.519   2.249   2.520 -0.6949 -0.7510 -0.4755
 8533SOL    HW237236   2.576   2.108   2.550 -2.3561 -0.4036  0.6855
 8534SOL     OW37237   3.815   1.457   2.399  0.0267  0.3145 -0.6745
 8534SOL    HW137238   3.761   1.535   2.385  0.6014  0.5991 -1.3143
 8534SOL    HW237239   3.747   1.402   2.438 -0.3303  0.6682 -0.7844
 8535SOL     OW37240   2.158   3.585  17.444 -0.0790 -0.0373  0.1137
 8535SOL    HW137241   2.105   3.645  17.497 -1.2718 -0.5595 -0.5013
 8535SOL    HW237242   2.118   3.502  17.471  1.2654 -1.4438 -2.2825
 8536SOL     OW37243   4.436   2.523   7.951  0.1435  0.6975  0.4272
 8536SOL    HW137244   4.428   2.482   8.038 -2.5376 -0.6637 -0.4832
 8536SOL    HW237245   4.531   2.539   7.952  0.5684 -1.7213 -3.6271
 8537SOL     OW37246   4.449   2.577   1.663  0.0677 -0.4618  0.3329
 8537SOL    HW137247   4.477   2.612   1.747 -3.8764  1.4422  0.8593
 8537SOL    HW237248   4.361   2.614   1.655 -0.2586 -1.1792  0.5720
 8538SOL     OW37249   2.774   2.775   0.713 -0.1598  0.1346 -0.0380
 8538SOL    HW137250   2.783   2.692   0.761 -0.6515 -0.5246 -1.0631
 8538SOL    HW237251   2.716   2.834   0.760  0.8215  1.7670 -0.9030
 8539SOL     OW37252   4.730   0.240  15.435 -0.0877 -0.1001  0.7870
 8539SOL    HW137253   4.682   0.293  15.498 -1.4860 -1.2742  0.6997
 8539SOL    HW237254   4.669   0.232  15.362  1.1550  0.0003 -0.2741
 8540SOL     OW37255   0.366   1.565   2.321 -0.0497 -0.0496  0.0329
 8540SOL    HW137256   0.462   1.560   2.313 -0.0238  1.6722 -0.9410
 8540SOL    HW237257   0.366   1.660   2.304 -2.4871  0.2075  1.5885
 8541SOL     OW37258   3.869   2.252   7.358  0.2520 -0.4091  0.1692
 8541SOL    HW137259   3.905   2.181   7.305  0.8344 -1.4828  1.9889
 8541SOL    HW237260   3.905   2.324   7.306  1.8784 -1.4039 -0.0870
 8542SOL     OW37261   3.296   4.073   6.774  0.0960 -0.3077 -0.3505
 8542SOL    HW137262   3.248   4.069   6.691 -2.3644  0.0655  1.0401
 8542SOL    HW237263   3.283   3.985   6.809  0.3033 -1.2774 -2.7356
 8543SOL     OW37264   4.697   0.406   5.765 -0.0868 -0.0688  0.4651
 8543SOL    HW137265   4.698   0.351   5.843  2.0287  0.8532  1.1074
 8543SOL    HW237266   4.730   0.350   5.696  0.6866  0.1856  0.6239
 8544SOL     OW37267   1.098   2.555   8.207 -0.4471 -0.4652  0.2303
 8544SOL    HW137268   1.163   2.531   8.140 -0.5752 -0.6523  0.1723
 8544SOL    HW237269   1.055   2.627   8.162  1.4579 -1.0718 -2.6018
 8545SOL     OW37270   0.616   3.072  12.036  0.0458 -0.2484 -0.5494
 8545SOL    HW137271   0.602   3.075  11.942 -1.4219  2.5421 -0.2637
 8545SOL    HW237272   0.708   3.099  12.038  0.3789 -1.3085 -1.3601
 8546SOL     OW37273   4.045   0.054   2.162 -0.2960 -0.3307  0.3103
 8546SOL    HW137274   3.982   0.121   2.190 -1.8606 -2.8437  2.8200
 8546SOL    HW237275   4.054   0.087   2.073 -0.5451 -0.5914  0.1889
 8547SOL     OW37276   2.113   0.841  11.960  0.2761 -0.4645 -0.6019
 8547SOL    HW137277   2.041   0.895  11.993 -1.4435 -2.1428 -1.6111
 8547SOL    HW237278   2.145   0.896  11.888 -0.5100 -0.2332 -0.7740
 8548SOL     OW37279   0.828   0.867  12.243  0.0175  0.2977 -0.0683
 8548SOL    HW137280   0.894   0.926  12.208  1.7768 -0.2707  2.2874
 8548SOL    HW237281   0.876   0.839  12.321 -0.6333 -0.1644  0.1647
 8549SOL     OW37282   0.059   3.788   4.312 -0.1047  0.0361  0.2650
 8549SOL    HW137283   0.019   3.823   4.232 -0.3598 -1.4812 -0.2641
 8549SOL    HW237284   0.097   3.866   4.353 -0.3738 -0.2977  1.1583
 8550SOL     OW37285   2.784   1.129   8.388  0.3589 -0.2369 -0.2062
 8550SOL    HW137286   2.715   1.183   8.350 -1.3019 -2.0561  0.2304
 8550SOL    HW237287   2.829   1.123   8.303  1.6904 -1.3306  0.5741
 8551SOL     OW37288   2.753   0.221   6.840  0.0471 -0.7651  0.3591
 8551SOL    HW137289   2.821   0.159   6.867 -1.2231 -1.8463  1.0744
 8551SOL    HW237290   2.675   0.169   6.859 -1.4137  0.9740 -0.7449
 8552SOL     OW37291   0.527   4.677   3.159 -0.3291 -0.0478 -0.4643
 8552SOL    HW137292   0.473   4.637   3.091 -1.9810 -0.7266  1.2561
 8552SOL    HW237293   0.619   4.676   3.130 -0.0593 -0.3749  0.4159
 8553SOL     OW37294   1.551   2.278   7.323  0.1132  0.6605  0.0988
 8553SOL    HW137295   1.563   2.220   7.247  1.0457  2.1847 -0.9228
 8553SOL    HW237296   1.556   2.211   7.391 -3.0100 -0.3088 -0.6011
 8554SOL     OW37297   2.507   4.106   4.716 -0.1633  0.5078  0.0737
 8554SOL    HW137298   2.501   4.201   4.724  1.4819  0.7863 -2.0793
 8554SOL    HW237299   2.598   4.090   4.740  0.0004 -1.4924 -1.9321
 8555SOL     OW37300   3.364   2.788   4.567 -0.5297  0.3198 -0.2733
 8555SOL    HW137301   3.400   2.820   4.650 -0.8131 -1.4276  0.5351
 8555SOL    HW237302   3.278   2.753   4.590  0.3853 -0.9550  1.2183
 8556SOL     OW37303   3.286   3.792   8.486 -0.4069 -0.2031 -0.0131
 8556SOL    HW137304   3.348   3.763   8.554 -2.0817 -2.2995  0.6071
 8556SOL    HW237305   3.216   3.728   8.483  0.7601 -1.3716 -2.4427
 8557SOL     OW37306   3.129   0.428   4.562 -0.0523 -0.3617  0.0769
 8557SOL    HW137307   3.063   0.496   4.545 -0.8143 -1.4178 -1.2305
 8557SOL    HW237308   3.203   0.449   4.505  0.6995  1.1492  1.6146
 8558SOL     OW37309   0.662   1.416   9.389  0.0500 -0.0613  0.0409
 8558SOL    HW137310   0.678   1.471   9.466 -1.9597  0.7316 -0.1105
 8558SOL    HW237311   0.571   1.432   9.365  0.7037 -0.3269 -2.6315
 8559SOL     OW37312   1.228   4.095   9.892  0.1207  0.0816  0.0762
 8559SOL    HW137313   1.313   4.096   9.848  0.7039  1.9012  1.2588
 8559SOL    HW237314   1.251   4.055   9.976 -2.5217 -1.9679 -0.1619
 8560SOL     OW37315   2.081   0.951   8.506  0.7097  0.0461  0.7351
 8560SOL    HW137316   2.050   1.018   8.567  0.6756 -0.4774  1.2887
 8560SOL    HW237317   2.083   0.869   8.555  0.3051 -1.7652 -2.2774
 8561SOL     OW37318   3.597   3.833   4.050  0.0937  0.0231  0.2880
 8561SOL    HW137319   3.593   3.917   4.097  0.4368  0.2113 -0.0213
 8561SOL    HW237320   3.649   3.782   4.112  0.9546 -0.0153 -0.4672
 8562SOL     OW37321   3.948   2.992   7.421  0.4644 -0.5330 -0.3320
 8562SOL    HW137322   3.966   3.049   7.346 -1.9458 -0.2101 -0.6678
 8562SOL    HW237323   3.860   2.956   7.405 -0.1328  0.9944 -0.4530
 8563SOL     OW37324   2.511   3.884   4.342  0.1060 -0.6862  0.2160
 8563SOL    HW137325   2.554   3.806   4.376  0.9416 -0.6853 -0.8400
 8563SOL    HW237326   2.563   3.952   4.385 -0.9011 -0.7032  1.4516
 8564SOL     OW37327   1.678   0.247   5.391  0.3231 -1.2866 -0.0937
 8564SOL    HW137328   1.654   0.324   5.442  1.9944 -1.9063  1.6149
 8564SOL    HW237329   1.735   0.189   5.441  1.1154 -0.7171 -0.3319
 8565SOL     OW37330   3.968   2.097   6.359  0.2979  0.3658  0.4418
 8565SOL    HW137331   3.989   2.175   6.307  0.4305  0.4341  0.5983
 8565SOL    HW237332   3.934   2.036   6.293 -0.8204  0.0641  1.3108
 8566SOL     OW37333   2.952   0.414  10.986  0.5438 -0.0416  0.1772
 8566SOL    HW137334   2.926   0.490  10.934  2.6867  0.2030 -0.5173
 8566SOL    HW237335   2.956   0.337  10.929  0.0515  1.9213 -2.5006
 8567SOL     OW37336   2.842   2.814   5.508 -0.5275 -0.4437 -0.5522
 8567SOL    HW137337   2.781   2.862   5.451 -0.9084 -1.4750 -1.0034
 8567SOL    HW237338   2.786   2.809   5.586  0.3486 -0.2249  0.0902
 8568SOL     OW37339   2.497   3.393   3.034 -0.1626  0.1026 -0.0885
 8568SOL    HW137340   2.424   3.333   3.050  0.4981 -1.2765 -2.2618
 8568SOL    HW237341   2.467   3.446   2.961 -0.4725  0.0108 -0.0280
 8569SOL     OW37342   1.003   4.428  12.951 -0.6751  0.8709  0.2587
 8569SOL    HW137343   0.926   4.392  12.995  1.0138 -1.8387  0.9404
 8569SOL    HW237344   1.005   4.516  12.988 -0.2791  1.2202 -0.5845
 8570SOL     OW37345   4.332   4.380   2.755 -0.0598  0.4967  0.5416
 8570SOL    HW137346   4.314   4.294   2.717 -0.2611  0.5294  0.5612
 8570SOL    HW237347   4.292   4.434   2.688  0.0770 -0.3075 -0.1821
 8571SOL     OW37348   1.287   3.235  11.345 -0.2037 -0.5157 -0.1479
 8571SOL    HW137349   1.366   3.258  11.296 -0.4466  2.3060  0.7601
 8571SOL    HW237350   1.251   3.169  11.286 -1.1493  0.6627 -0.8815
 8572SOL     OW37351   3.590   3.076   7.892 -1.2033 -0.1988 -0.1105
 8572SOL    HW137352   3.604   2.982   7.903  1.0232  0.0086 -1.1054
 8572SOL    HW237353   3.610   3.086   7.799  0.1117  2.1944  0.4164
 8573SOL     OW37354   0.042   1.591   9.158  0.1172 -0.2716 -0.5123
 8573SOL    HW137355   0.046   1.520   9.221  0.6786  0.2128 -0.0017
 8573SOL    HW237356   0.046   1.541   9.077 -0.0654 -0.5607 -0.3412
 8574SOL     OW37357   0.331   0.123   8.032  0.2317  0.2964  0.5844
 8574SOL    HW137358   0.343   0.132   8.127 -0.0099  1.4299  0.5132
 8574SOL    HW237359   0.333   0.215   8.006 -1.0201  0.2101  0.2122
 8575SOL     OW37360   0.452   4.571  10.183  0.1206  0.3631  0.0854
 8575SOL    HW137361   0.536   4.547  10.220  0.4534  0.0611 -0.8529
 8575SOL    HW237362   0.472   4.617  10.101  0.0367 -0.6552 -0.5032
 8576SOL     OW37363   1.901   2.105   3.987 -0.1825 -0.0047 -0.6206
 8576SOL    HW137364   1.875   2.115   4.079  0.9014 -0.6495 -0.2512
 8576SOL    HW237365   1.938   2.189   3.961  1.3262 -0.4238  0.1768
 8577SOL     OW37366   1.099   2.789   0.074  0.0484 -0.3326  0.4178
 8577SOL    HW137367   1.081   2.718   0.012  0.6624 -0.5730  0.5110
 8577SOL    HW237368   1.193   2.808   0.076  0.1512 -0.3574 -2.8307
 8578SOL     OW37369   3.077   2.266   3.456 -0.5230  0.8042  0.1680
 8578SOL    HW137370   3.010   2.235   3.517  1.7367 -1.7848  1.3203
 8578SOL    HW237371   3.027   2.285   3.377  3.8650  0.5985 -2.6482
 8579SOL     OW37372   0.782   1.543   9.944 -0.0776  0.2741 -0.6170
 8579SOL    HW137373   0.695   1.506   9.933  0.1827 -0.6385  0.4546
 8579SOL    HW237374   0.779   1.570  10.036 -0.2675 -1.9954  0.0291
 8580SOL     OW37375   4.047   1.578   8.942 -0.1589 -0.0818 -0.4518
 8580SOL    HW137376   4.028   1.519   8.869  0.1075  0.3305 -0.8545
 8580SOL    HW237377   3.965   1.584   8.991  0.2280  0.4368  0.1366
 8581SOL     OW37378   0.304   3.031   4.277  0.6795  0.4805  0.1431
 8581SOL    HW137379   0.227   3.052   4.224 -0.3535  0.9410  1.8451
 8581SOL    HW237380   0.277   2.944   4.305 -4.2223  2.1130  0.4135
 8582SOL     OW37381   1.586   1.985   1.486 -0.0778  0.5974 -0.2412
 8582SOL    HW137382   1.659   1.994   1.426  0.1244 -1.7233 -0.3716
 8582SOL    HW237383   1.545   1.901   1.464 -3.9818  2.5287 -0.3205
 8583SOL     OW37384   0.111   3.223   6.379  0.5653 -0.0129 -0.3412
 8583SOL    HW137385   0.160   3.220   6.297  2.7674 -3.2775  1.1016
 8583SOL    HW237386   0.019   3.244   6.366  0.6515 -0.3722 -1.5290
 8584SOL     OW37387   4.676   0.026   4.913  0.0449 -0.4419 -0.2001
 8584SOL    HW137388   4.597   0.069   4.882 -0.3350  0.0728  1.4598
 8584SOL    HW237389   4.634   4.686   4.932 -1.2479  0.6142  1.5892
 8585SOL     OW37390   1.422   3.636   4.742 -0.3280 -0.1364 -0.1530
 8585SOL    HW137391   1.409   3.730   4.733  1.1191 -0.0231 -0.9926
 8585SOL    HW237392   1.367   3.598   4.673  0.8511 -2.4514  0.1883
 8586SOL     OW37393   3.137   2.974   5.087 -0.1942 -0.0146  0.2664
 8586SOL    HW137394   3.215   2.940   5.130 -0.9221 -2.3715 -0.2942
 8586SOL    HW237395   3.162   3.054   5.041  1.3052 -0.8347 -0.3348
 8587SOL     OW37396   2.713   2.766  17.291  0.3209 -0.6464  0.1291
 8587SOL    HW137397   2.791   2.760  17.347 -1.1951  4.3459  2.8574
 8587SOL    HW237398   2.726   2.844  17.237  1.5266 -0.6637  0.3973
 8588SOL     OW37399   0.589   0.781  14.394  0.1032  0.1228  0.1397
 8588SOL    HW137400   0.607   0.865  14.436 -0.1033  0.6747 -0.8623
 8588SOL    HW237401   0.578   0.805  14.302  0.3406 -0.5574 -0.0659
 8589SOL     OW37402   3.457   1.656   4.383 -0.3933  0.2258 -0.2081
 8589SOL    HW137403   3.402   1.587   4.345  1.5348 -1.8363  0.7169
 8589SOL    HW237404   3.453   1.630   4.475  0.0772 -0.9820 -0.5148
 8590SOL     OW37405   0.653   0.595   7.096  0.1926  0.3452  0.2124
 8590SOL    HW137406   0.571   0.620   7.054  0.3692 -1.7079 -1.3658
 8590SOL    HW237407   0.678   0.679   7.134 -0.4554  2.3371 -3.7984
 8591SOL     OW37408   0.563   1.945   3.345  0.0942  0.1134  0.6999
 8591SOL    HW137409   0.558   1.922   3.252 -1.1666  2.0654  0.2840
 8591SOL    HW237410   0.468   1.949   3.354  0.0671 -0.2618  0.5778
 8592SOL     OW37411   1.190   0.262   9.751  0.5683 -0.5415 -0.1533
 8592SOL    HW137412   1.275   0.278   9.792  1.0034 -1.7996 -0.5446
 8592SOL    HW237413   1.205   0.303   9.666  2.5884 -1.5485 -0.2850
 8593SOL     OW37414   1.259   3.716  15.967  0.4291  0.0802  0.4811
 8593SOL    HW137415   1.248   3.724  15.872 -1.6427  2.4887  0.9345
 8593SOL    HW237416   1.338   3.662  15.976  0.8276  0.4674 -0.5897
 8594SOL     OW37417   3.933   3.810   7.998  0.0980 -0.2579 -0.0905
 8594SOL    HW137418   3.880   3.731   7.989 -1.2198  0.6681 -0.3586
 8594SOL    HW237419   3.937   3.814   8.094  0.2870  0.2550 -0.1202
 8595SOL     OW37420   1.468   0.608  13.135  0.1108  0.8076  0.2390
 8595SOL    HW137421   1.470   0.690  13.185 -1.9940  0.0127  1.5927
 8595SOL    HW237422   1.383   0.567  13.150 -0.6045  1.4835 -1.8785
 8596SOL     OW37423   0.853   2.288   8.074  0.3092 -0.1101 -0.6204
 8596SOL    HW137424   0.934   2.298   8.123  0.4440  0.7485 -1.0279
 8596SOL    HW237425   0.849   2.194   8.091 -0.6717  0.1033  0.3562
 8597SOL     OW37426   3.731   2.761   4.883  0.2366  0.4213 -0.3100
 8597SOL    HW137427   3.712   2.697   4.814  2.0900 -0.6466  0.1724
 8597SOL    HW237428   3.714   2.722   4.968  2.7869 -1.2821 -0.5714
 8598SOL     OW37429   1.732   0.316  12.718 -0.2746  0.0237 -0.3282
 8598SOL    HW137430   1.693   0.354  12.797  0.7902  0.8960 -0.2185
 8598SOL    HW237431   1.653   0.293  12.669  1.6699 -0.8683 -3.0655
 8599SOL     OW37432   1.908   2.972   0.639 -0.0689 -0.5046 -0.0243
 8599SOL    HW137433   1.893   2.883   0.607  0.0063 -0.3883 -0.3834
 8599SOL    HW237434   2.000   2.969   0.667 -0.2262  1.5198  0.7281
 8600SOL     OW37435   4.360   4.578   8.474  0.2008 -0.1344 -0.2935
 8600SOL    HW137436   4.422   4.588   8.402  0.2215  1.6965 -0.0372
 8600SOL    HW237437   4.277   4.577   8.425  1.5495 -1.0064 -2.5423
 8601SOL     OW37438   2.761   0.625  15.993 -0.4004 -0.1252 -0.1623
 8601SOL    HW137439   2.854   0.648  15.990 -0.2672 -0.4251  1.3249
 8601SOL    HW237440   2.747   0.577  15.911 -0.7005  1.7252 -1.1792
 8602SOL     OW37441   4.196   0.331   3.509  0.0915  0.1766 -0.7904
 8602SOL    HW137442   4.139   0.311   3.435  0.2484 -1.8949 -0.3594
 8602SOL    HW237443   4.135   0.313   3.581 -0.0824  2.3061 -0.4051
 8603SOL     OW37444   1.539   1.215  11.722  0.1819  0.2094  0.0299
 8603SOL    HW137445   1.491   1.266  11.656  0.2551  1.6441  1.0810
 8603SOL    HW237446   1.606   1.277  11.749  1.9470 -0.9288 -1.7903
 8604SOL     OW37447   0.692   0.438   8.623  0.5083 -0.3027 -0.7004
 8604SOL    HW137448   0.761   0.467   8.564 -1.1626  1.5661 -1.7341
 8604SOL    HW237449   0.738   0.417   8.705  1.1164 -0.9588 -1.2128
 8605SOL     OW37450   1.790   2.907   2.230  0.4236 -0.2557 -0.0233
 8605SOL    HW137451   1.753   2.850   2.162 -1.0696 -2.3304  2.5065
 8605SOL    HW237452   1.717   2.914   2.291  0.1701 -1.0831 -0.2266
 8606SOL     OW37453   3.980   3.768   4.458  0.3668  0.2597  0.1459
 8606SOL    HW137454   3.954   3.857   4.483 -3.4838 -0.5103 -0.9769
 8606SOL    HW237455   4.063   3.778   4.412  0.3913 -0.7759 -0.0278
 8607SOL     OW37456   2.809   4.450   1.478 -0.6226  0.4007  0.0331
 8607SOL    HW137457   2.758   4.383   1.433 -0.6903  0.0556  0.6234
 8607SOL    HW237458   2.858   4.503   1.414 -2.6768  0.7086 -1.2862
 8608SOL     OW37459   1.518   0.108   4.079  0.5178 -0.4255  0.4637
 8608SOL    HW137460   1.549   0.175   4.018  2.7036 -3.2972 -1.5674
 8608SOL    HW237461   1.605   0.090   4.115  1.0839  0.5283 -0.4052
 8609SOL     OW37462   2.797   1.382   6.265 -0.3974 -0.3193  0.2860
 8609SOL    HW137463   2.702   1.371   6.267 -0.3215 -0.8626  0.8149
 8609SOL    HW237464   2.826   1.325   6.336 -0.0734 -0.0110  0.4003
 8610SOL     OW37465   3.952   4.076   3.370 -0.3148  0.0115  0.6493
 8610SOL    HW137466   4.046   4.087   3.387 -0.0101  0.1454 -1.0823
 8610SOL    HW237467   3.951   4.112   3.281  1.0699 -2.2400 -0.2906
 8611SOL     OW37468   2.239   1.530   8.056 -0.0019 -0.6614 -0.0618
 8611SOL    HW137469   2.150   1.530   8.021  0.0226  0.2405 -0.1202
 8611SOL    HW237470   2.235   1.440   8.090 -0.6224 -0.4790  0.3517
 8612SOL     OW37471   1.074   3.136   2.663  0.1666  0.2620 -0.7311
 8612SOL    HW137472   1.140   3.201   2.639  1.3400 -0.2350  1.1469
 8612SOL    HW237473   1.099   3.127   2.755  0.6858 -0.3333 -0.9354
 8613SOL     OW37474   3.050   0.211   5.824 -0.6154 -0.8053 -0.6578
 8613SOL    HW137475   2.991   0.284   5.840  1.1746  0.2835  1.0699
 8613SOL    HW237476   3.059   0.178   5.913 -4.1724  0.8436  0.2848
 8614SOL     OW37477   1.728   0.215   6.092  0.2917 -0.0155  0.2118
 8614SOL    HW137478   1.768   0.161   6.160  2.9393 -1.4826 -2.4602
 8614SOL    HW237479   1.636   0.199   6.111  0.1897  2.8636  2.0346
 8615SOL     OW37480   0.680   0.977   9.908 -0.0189  0.0211 -0.1915
 8615SOL    HW137481   0.698   0.945   9.997 -1.8535 -3.0989 -0.9191
 8615SOL    HW237482   0.633   0.900   9.876 -1.4310  0.8743 -0.1363
 8616SOL     OW37483   2.533   2.486   8.634 -0.1736 -0.3936  0.0940
 8616SOL    HW137484   2.551   2.428   8.708 -2.9934 -1.4410 -0.0520
 8616SOL    HW237485   2.613   2.473   8.584  0.1989  0.4597  0.4648
 8617SOL     OW37486   0.959   4.158  11.706  0.4879 -0.6375  0.0558
 8617SOL    HW137487   0.927   4.166  11.616  0.5669  0.2264  0.1032
 8617SOL    HW237488   0.908   4.236  11.730  0.1253 -1.2470  1.2791
 8618SOL     OW37489   1.887   4.168  13.068 -0.4088 -0.0368  0.2065
 8618SOL    HW137490   1.889   4.227  12.993 -0.3926  1.9508  1.7745
 8618SOL    HW237491   1.849   4.095  13.019  0.4852 -0.9518  0.8728
 8619SOL     OW37492   1.497   4.490   7.111 -0.2055 -0.0702  0.5088
 8619SOL    HW137493   1.583   4.453   7.096  0.3298  0.4533  2.2672
 8619SOL    HW237494   1.496   4.551   7.037  0.3511 -0.9634 -0.2384
 8620SOL     OW37495   1.687   1.300   8.241 -0.3956 -0.5388  0.0680
 8620SOL    HW137496   1.699   1.344   8.325 -1.6956  0.1849 -0.1163
 8620SOL    HW237497   1.773   1.260   8.227 -0.6146 -1.1726  0.5863
 8621SOL     OW37498   4.643   0.370   9.612 -0.6758  0.5504 -0.3791
 8621SOL    HW137499   4.567   0.339   9.564  1.4014  0.5020 -3.5869
 8621SOL    HW237500   4.599   0.413   9.686 -1.3286  2.2023 -1.7188
 8622SOL     OW37501   3.750   0.208  11.393  0.1225 -0.2364  0.3468
 8622SOL    HW137502   3.728   0.115  11.394  0.9225 -0.4390 -1.3896
 8622SOL    HW237503   3.795   0.223  11.476 -1.6234 -0.5166  1.3477
 8623SOL     OW37504   2.476   4.243  15.085 -0.2690 -0.3212  0.3985
 8623SOL    HW137505   2.476   4.330  15.043  2.8069 -1.1323 -1.3131
 8623SOL    HW237506   2.562   4.243  15.126 -0.3587 -0.3979  0.5816
 8624SOL     OW37507   2.035   4.412   4.960 -0.2515  0.0073 -0.2488
 8624SOL    HW137508   2.036   4.481   4.894  2.4417 -1.3441 -1.6427
 8624SOL    HW237509   2.057   4.338   4.903 -1.9281 -1.2268  0.7303
 8625SOL     OW37510   3.495   3.427   1.701  0.1513 -0.6664  0.3011
 8625SOL    HW137511   3.566   3.400   1.758 -2.1857 -2.5002  2.3305
 8625SOL    HW237512   3.430   3.374   1.746 -1.2869  0.3899 -0.4930
 8626SOL     OW37513   1.086   1.384   7.561 -0.4310 -0.4141 -0.1726
 8626SOL    HW137514   1.081   1.479   7.553  0.0385 -0.3433  0.3360
 8626SOL    HW237515   1.168   1.357   7.601  2.2007  1.4664 -4.3264
 8627SOL     OW37516   1.295   3.828   9.607 -0.4340  0.0877  0.2181
 8627SOL    HW137517   1.301   3.789   9.519 -1.1759  0.8905 -0.1882
 8627SOL    HW237518   1.385   3.821   9.638 -0.4481 -1.4291 -0.0791
 8628SOL     OW37519   3.575   3.845  11.350 -0.0424 -0.2015 -0.0767
 8628SOL    HW137520   3.578   3.846  11.254 -1.3157  1.6817 -0.1066
 8628SOL    HW237521   3.639   3.776  11.364  0.7035  0.2591 -1.1674
 8629SOL     OW37522   4.311   3.624   8.540  0.3408  0.1915  0.2816
 8629SOL    HW137523   4.367   3.626   8.463 -2.1907  1.1831 -1.5138
 8629SOL    HW237524   4.231   3.663   8.504 -0.6029 -1.3096  0.7359
 8630SOL     OW37525   0.419   2.486   2.920 -0.3836  0.0799 -0.6134
 8630SOL    HW137526   0.327   2.499   2.942  0.2682  0.9340  1.5705
 8630SOL    HW237527   0.460   2.503   3.004 -2.3514  1.2566  0.1136
 8631SOL     OW37528   3.167   3.214   8.066  0.0021  0.2991  0.2745
 8631SOL    HW137529   3.262   3.220   8.063  0.1065 -1.1717  0.2341
 8631SOL    HW237530   3.162   3.141   8.004  0.2447  0.6142 -0.1138
 8632SOL     OW37531   0.475   2.528  12.112 -0.3697  0.0855  0.1569
 8632SOL    HW137532   0.440   2.471  12.181 -0.6632 -0.3433 -0.3482
 8632SOL    HW237533   0.402   2.521  12.051 -0.4157 -0.1358  0.2351
 8633SOL     OW37534   0.863   4.253   2.735  0.4887  0.4832  0.0899
 8633SOL    HW137535   0.899   4.168   2.763  2.3262  1.7485  1.5912
 8633SOL    HW237536   0.779   4.230   2.698  0.9711  0.7610 -1.1609
 8634SOL     OW37537   3.514   3.163   7.049  0.6645 -0.3095  1.0563
 8634SOL    HW137538   3.436   3.219   7.046  0.9478  0.0128 -0.5056
 8634SOL    HW237539   3.570   3.197   6.979  2.9951 -2.6856  1.7866
 8635SOL     OW37540   2.821   0.337   7.470 -0.5119  0.0208  0.0901
 8635SOL    HW137541   2.734   0.314   7.438 -1.2001  0.7730  1.3724
 8635SOL    HW237542   2.876   0.285   7.412  1.3459  2.8043 -0.6646
 8636SOL     OW37543   0.891   0.482   3.843  0.4689  0.2755  0.3106
 8636SOL    HW137544   0.835   0.421   3.795 -0.5781  3.2231 -2.2427
 8636SOL    HW237545   0.869   0.568   3.806  1.4056  0.9682  1.3668
 8637SOL     OW37546   3.893   4.722   1.565  0.1796 -0.4023 -0.3769
 8637SOL    HW137547   3.822   0.039   1.587  0.7028  1.3491 -3.4447
 8637SOL    HW237548   3.879   4.654   1.630  1.1171  0.0397  0.2955
 8638SOL     OW37549   2.156   1.415  12.899  0.2190  0.2330  0.6205
 8638SOL    HW137550   2.100   1.462  12.838 -0.8831 -1.6626  0.1458
 8638SOL    HW237551   2.221   1.375  12.841  0.6025  1.0457  0.4966
 8639SOL     OW37552   1.577   1.991   6.811 -1.0903  0.4388 -0.1622
 8639SOL    HW137553   1.630   1.912   6.820  0.2335  1.3634  0.1008
 8639SOL    HW237554   1.524   1.964   6.736  1.0743 -2.4004 -0.6534
 8640SOL     OW37555   1.714   0.996  17.495  0.3865  0.0204 -0.3139
 8640SOL    HW137556   1.667   0.952  17.566  0.0791 -1.1853 -1.2530
 8640SOL    HW237557   1.750   0.914  17.460 -1.0808 -0.8325  0.1714
 8641SOL     OW37558   0.625   4.514   2.758  0.2728  0.0974  0.0014
 8641SOL    HW137559   0.605   4.420   2.751  1.1007 -0.0621 -0.1314
 8641SOL    HW237560   0.719   4.516   2.775  0.8116 -2.2666 -2.7281
 8642SOL     OW37561   0.689   1.295  10.130  0.0079  0.4348 -0.0212
 8642SOL    HW137562   0.691   1.235  10.204  0.3860  2.1068  1.3188
 8642SOL    HW237563   0.742   1.367  10.164 -3.0792  2.9007 -0.4339
 8643SOL     OW37564   2.004   3.147  12.531 -0.5085  0.5855 -0.1918
 8643SOL    HW137565   1.991   3.066  12.482  0.4390 -0.2690  0.9775
 8643SOL    HW237566   2.098   3.154  12.542 -0.6483  0.3741  1.0821
 8644SOL     OW37567   2.614   1.771   0.684 -0.1198  0.3742 -0.1175
 8644SOL    HW137568   2.521   1.759   0.704  0.5800 -3.0637  0.9830
 8644SOL    HW237569   2.651   1.832   0.747  0.8361 -1.6914  1.3021
 8645SOL     OW37570   2.145   0.619   2.238 -0.4108 -0.3607 -0.1664
 8645SOL    HW137571   2.088   0.544   2.219 -0.2483 -0.8926  1.3995
 8645SOL    HW237572   2.203   0.616   2.163 -0.0363 -0.6934  0.1403
 8646SOL     OW37573   0.294   1.630  14.877  0.3913  0.0399  0.2625
 8646SOL    HW137574   0.263   1.555  14.927  2.9328 -0.9714  0.3448
 8646SOL    HW237575   0.310   1.592  14.791 -1.2314 -2.0847  0.9237
 8647SOL     OW37576   3.743   4.209  16.833 -0.5923 -0.2172 -0.2224
 8647SOL    HW137577   3.760   4.298  16.805 -0.3598 -0.4450 -0.8010
 8647SOL    HW237578   3.656   4.213  16.873 -1.5442  0.6447 -2.3993
 8648SOL     OW37579   4.415   3.042  16.620  0.3594 -0.3263 -0.2177
 8648SOL    HW137580   4.504   3.009  16.627  0.7340  0.8002  0.3144
 8648SOL    HW237581   4.376   3.022  16.705  0.0379  2.2731  0.2421
 8649SOL     OW37582   4.359   4.051   1.839 -0.3639  0.1526 -0.3053
 8649SOL    HW137583   4.332   4.058   1.747 -1.0373 -0.8281 -0.1891
 8649SOL    HW237584   4.391   4.139   1.857 -0.3170 -0.0882  0.7944
 8650SOL     OW37585   3.661   1.842   6.924  0.0278 -0.2158 -0.0171
 8650SOL    HW137586   3.645   1.811   7.013  0.1063  0.3194  0.1824
 8650SOL    HW237587   3.748   1.806   6.910 -0.9346 -1.7502 -2.0543
 8651SOL     OW37588   1.942   2.414  14.276  0.0451  0.0965 -0.3333
 8651SOL    HW137589   1.944   2.488  14.336  0.8056 -1.1622  1.1761
 8651SOL    HW237590   2.034   2.395  14.259  0.2210  0.6121  0.0675
 8652SOL     OW37591   4.392   1.653   1.345 -0.3803  1.2635 -0.3371
 8652SOL    HW137592   4.392   1.635   1.439  1.4848  0.3565 -0.5046
 8652SOL    HW237593   4.486   1.654   1.328  0.0421  0.5814  1.9757
 8653SOL     OW37594   1.048   1.560  11.663  0.0768  0.2694  0.3432
 8653SOL    HW137595   0.994   1.614  11.605 -0.3078  1.4647  1.8461
 8653SOL    HW237596   1.053   1.620  11.736 -1.8343  0.1055  0.6047
 8654SOL     OW37597   0.529   1.770   8.002 -0.5026 -0.0623  0.0132
 8654SOL    HW137598   0.534   1.756   8.097  0.4929 -0.3114 -0.0773
 8654SOL    HW237599   0.536   1.678   7.977  3.0674  0.7331 -1.7812
 8655SOL     OW37600   3.167   0.912   3.432  0.0328  0.6775  0.2474
 8655SOL    HW137601   3.194   0.946   3.347 -1.8632  0.8705 -0.2907
 8655SOL    HW237602   3.178   0.820   3.412  0.1634  0.2161  2.4311
 8656SOL     OW37603   0.937   2.483   7.895  0.5017 -0.3409  0.5191
 8656SOL    HW137604   1.015   2.435   7.866 -0.3136 -1.4820  0.2011
 8656SOL    HW237605   0.896   2.409   7.940  0.6586 -0.0745  1.0995
 8657SOL     OW37606   0.059   3.624   5.195  0.8446 -0.8329  0.1236
 8657SOL    HW137607   0.117   3.566   5.245  1.0887 -2.6731 -2.3376
 8657SOL    HW237608   4.726   3.626   5.252 -0.3053 -2.0164 -1.4232
 8658SOL     OW37609   3.688   3.039   1.948  0.0383 -0.0827  0.1435
 8658SOL    HW137610   3.688   2.973   1.878  0.5312  0.6625 -0.5627
 8658SOL    HW237611   3.600   3.040   1.985  0.5011 -0.3468  1.2335
 8659SOL     OW37612   2.250   4.123   4.504  0.1034  0.0584  0.3651
 8659SOL    HW137613   2.340   4.152   4.490  0.5694 -1.6805 -0.2653
 8659SOL    HW237614   2.206   4.183   4.443  0.1074 -0.1701  0.1333
 8660SOL     OW37615   1.384   0.118   6.828 -0.1919 -0.4499 -0.3452
 8660SOL    HW137616   1.379   0.195   6.772 -1.5805  1.2568  2.1804
 8660SOL    HW237617   1.348   0.049   6.771  1.2320 -1.5578  0.1130
 8661SOL     OW37618   1.105   0.218   5.753 -0.0177  0.5092 -0.0347
 8661SOL    HW137619   1.126   0.125   5.766  1.1862  1.1003  2.2129
 8661SOL    HW237620   1.188   0.236   5.708 -0.1528  3.9994  1.1164
 8662SOL     OW37621   3.102   1.525  15.451 -0.0068  0.1494 -0.2488
 8662SOL    HW137622   3.120   1.468  15.526  0.9917  1.0301  0.1805
 8662SOL    HW237623   3.169   1.505  15.384 -1.8445 -3.0215 -1.1426
 8663SOL     OW37624   3.310   1.093   7.896  0.0741 -0.2762 -0.5466
 8663SOL    HW137625   3.304   1.068   7.804 -1.8082  0.2819 -0.5719
 8663SOL    HW237626   3.218   1.104   7.919  0.1121  1.6861 -1.2883
 8664SOL     OW37627   1.853   1.764  17.657  0.0798 -0.1009 -0.0706
 8664SOL    HW137628   1.778   1.709  17.632  1.2817 -1.5079 -0.6094
 8664SOL    HW237629   1.918   1.748  17.589 -0.7288  0.1600 -0.9121
 8665SOL     OW37630   0.135   1.347   6.986 -0.0131 -0.4269 -0.0879
 8665SOL    HW137631   0.202   1.396   7.033  0.1673 -0.4092 -0.3648
 8665SOL    HW237632   0.181   1.269   6.954  1.6140  0.3250  0.4199
 8666SOL     OW37633   2.977   3.271   6.304  0.2869  0.6476 -0.2811
 8666SOL    HW137634   2.896   3.221   6.290 -1.0342  2.2342  1.6770
 8666SOL    HW237635   2.943   3.349   6.349  0.3194  0.0041  0.8508
 8667SOL     OW37636   1.821   1.800   4.951 -0.7050  0.1920 -0.3935
 8667SOL    HW137637   1.761   1.761   5.014 -0.8975  1.0670 -0.0273
 8667SOL    HW237638   1.783   1.775   4.867 -1.6234 -1.1152  0.4222
 8668SOL     OW37639   3.610   3.745   1.777  0.2158 -0.6428  0.5367
 8668SOL    HW137640   3.531   3.740   1.724  0.7460  0.1823 -0.3278
 8668SOL    HW237641   3.662   3.798   1.716 -0.1499  0.2600  1.0180
 8669SOL     OW37642   3.987   4.388  11.853 -0.4384 -0.0856  0.3486
 8669SOL    HW137643   3.930   4.407  11.927 -1.7452  2.4653 -1.3125
 8669SOL    HW237644   3.996   4.475  11.814  0.6054 -0.3633 -0.0337
 8670SOL     OW37645   0.178   4.624   5.632  0.3187 -0.0685 -0.4109
 8670SOL    HW137646   0.124   4.550   5.603  0.9089 -1.2691  1.5508
 8670SOL    HW237647   0.230   4.583   5.701 -0.4611  1.6990  1.2231
 8671SOL     OW37648   3.943   1.452  17.453  0.1376  0.0612 -0.1903
 8671SOL    HW137649   3.952   1.409  17.368 -0.3668  1.8091 -1.1339
 8671SOL    HW237650   3.848   1.464  17.459  0.4835  2.8321 -0.2550
 8672SOL     OW37651   3.045   1.992   3.184 -0.0424 -0.1539  0.4909
 8672SOL    HW137652   3.107   2.053   3.143 -2.2383  2.0922  0.4850
 8672SOL    HW237653   3.095   1.911   3.191  0.6689  0.4146  2.0440
 8673SOL     OW37654   4.585   2.772   8.688 -0.4378 -0.0351  0.5878
 8673SOL    HW137655   4.680   2.784   8.686 -0.5828  1.0220 -0.1153
 8673SOL    HW237656   4.554   2.783   8.777  1.8895  0.3881  1.3641
 8674SOL     OW37657   4.147   0.462   8.087 -1.0764 -0.5149 -0.1177
 8674SOL    HW137658   4.095   0.390   8.121  0.9155 -0.2703  3.4324
 8674SOL    HW237659   4.214   0.476   8.155 -1.8896 -0.2017  0.6215
 8675SOL     OW37660   0.375   1.271   3.018  0.6968  0.2385  0.7502
 8675SOL    HW137661   0.453   1.232   2.978 -1.2628 -1.0764 -1.8028
 8675SOL    HW237662   0.338   1.338   2.961 -0.7702  0.4127  1.9047
 8676SOL     OW37663   3.302   3.048   2.581  0.2792  0.5985  0.1795
 8676SOL    HW137664   3.315   3.142   2.578 -1.1570  0.8006  0.0340
 8676SOL    HW237665   3.378   3.020   2.530 -0.8536 -0.3045 -1.0507
 8677SOL     OW37666   3.531   3.216   7.311  0.1392 -0.2892 -0.9806
 8677SOL    HW137667   3.532   3.211   7.216  1.9525 -0.5299 -0.9410
 8677SOL    HW237668   3.596   3.286   7.310 -2.3326  2.0170 -1.4064
 8678SOL     OW37669   4.661   3.394   5.555  0.1411 -0.3549 -0.1669
 8678SOL    HW137670   4.738   3.383   5.611 -0.2660 -1.6121  0.1419
 8678SOL    HW237671   4.689   3.337   5.483  2.4659 -0.4699  0.8052
 8679SOL     OW37672   0.174   3.736  17.140  0.5292 -0.0901 -0.0324
 8679SOL    HW137673   0.082   3.709  17.146 -0.3007  3.0043  1.3095
 8679SOL    HW237674   0.194   3.700  17.054 -0.7249  0.5720 -0.6024
 8680SOL     OW37675   2.492   4.386   2.472 -0.1515 -0.1525 -0.2295
 8680SOL    HW137676   2.424   4.451   2.491  0.3053  0.3433 -0.3145
 8680SOL    HW237677   2.571   4.408   2.520 -2.0868  0.5577  2.6436
 8681SOL     OW37678   0.221   4.142   5.181 -0.4386 -0.2237 -0.0320
 8681SOL    HW137679   0.177   4.094   5.111  1.1455  1.6130 -2.2997
 8681SOL    HW237680   0.294   4.177   5.130  1.0186 -0.0778  2.1726
 8682SOL     OW37681   3.455   2.749   7.399  0.0537 -0.5594 -0.2350
 8682SOL    HW137682   3.372   2.701   7.404 -2.1677  3.3560  0.7064
 8682SOL    HW237683   3.428   2.839   7.380 -0.3306 -0.8587 -1.1441
 8683SOL     OW37684   4.695   0.310   4.863  0.1872 -0.2455 -0.1936
 8683SOL    HW137685   4.724   0.305   4.772 -0.6018 -2.1407 -0.3470
 8683SOL    HW237686   4.719   0.229   4.908 -0.9107 -0.4234  0.0698
 8684SOL     OW37687   1.785   4.306   1.016 -1.0025 -0.4502 -0.1390
 8684SOL    HW137688   1.761   4.399   1.020  0.0422 -0.1886  0.3539
 8684SOL    HW237689   1.838   4.305   1.097 -0.1265  1.2627 -0.6930
 8685SOL     OW37690   3.347   1.868   6.893 -0.1828  0.2179 -0.2024
 8685SOL    HW137691   3.431   1.828   6.916 -0.8693 -0.7742  0.5910
 8685SOL    HW237692   3.297   1.886   6.972  0.8268  0.8722  0.2837
 8686SOL     OW37693   1.809   2.429   4.954  0.2056 -0.0462 -0.2557
 8686SOL    HW137694   1.870   2.486   5.002 -0.9565  0.1349  1.0172
 8686SOL    HW237695   1.782   2.371   5.025 -0.9636  0.3242 -0.3963
 8687SOL     OW37696   0.564   1.469   7.455 -0.0808 -0.5160 -0.4188
 8687SOL    HW137697   0.541   1.386   7.411  0.1533 -1.5613  1.4397
 8687SOL    HW237698   0.645   1.444   7.499  0.9189 -0.6449 -2.3597
 8688SOL     OW37699   0.985   3.756   1.908 -0.1396 -0.1296  0.3983
 8688SOL    HW137700   1.016   3.829   1.962  0.3383  0.7398 -1.0311
 8688SOL    HW237701   1.027   3.776   1.824 -1.7635  3.1036  0.3369
 8689SOL     OW37702   4.405   4.571  15.049  0.2419 -0.5146 -0.0878
 8689SOL    HW137703   4.366   4.616  15.124  0.9428  1.0394 -0.6488
 8689SOL    HW237704   4.492   4.609  15.052 -0.3848  1.1207 -2.3955
 8690SOL     OW37705   0.934   1.256  14.932 -0.4169 -0.1286 -0.2976
 8690SOL    HW137706   0.987   1.333  14.951 -0.5766  0.0186 -0.4508
 8690SOL    HW237707   0.996   1.184  14.947  1.8528  2.3443  2.1861
 8691SOL     OW37708   4.236   3.091   6.362 -0.2394 -0.0974  0.4107
 8691SOL    HW137709   4.241   3.147   6.440  0.4078 -0.0196  0.3110
 8691SOL    HW237710   4.322   3.053   6.346 -0.2753  0.3456 -0.8130
 8692SOL     OW37711   1.599   2.411   8.351 -0.0369  0.1789 -0.5951
 8692SOL    HW137712   1.581   2.319   8.330 -0.6233  0.2187 -0.2830
 8692SOL    HW237713   1.514   2.429   8.392 -0.8375 -3.7040 -0.5322
 8693SOL     OW37714   1.115   4.486  15.192  0.0288 -0.0961 -0.1140
 8693SOL    HW137715   1.132   4.578  15.213 -1.0415  0.5613 -2.1787
 8693SOL    HW237716   1.192   4.442  15.229  0.3092  1.5464  1.2495
 8694SOL     OW37717   0.138   1.414   8.101 -0.1372 -0.4534 -0.2834
 8694SOL    HW137718   0.157   1.346   8.035  0.3133  0.9686 -1.6149
 8694SOL    HW237719   0.049   1.387   8.122  0.1284 -0.3079  0.9859
 8695SOL     OW37720   1.375   3.228   7.309 -0.6656 -0.4524  0.0910
 8695SOL    HW137721   1.419   3.283   7.373  0.0861 -1.6282  0.5769
 8695SOL    HW237722   1.291   3.222   7.355  1.1049 -1.3576  3.1944
 8696SOL     OW37723   1.728   2.035   6.024 -0.4498 -0.3726 -0.4319
 8696SOL    HW137724   1.649   1.989   5.997  0.5765 -1.7220 -1.1203
 8696SOL    HW237725   1.781   1.969   6.069  0.7382  1.8745  1.4927
 8697SOL     OW37726   1.067   2.734   2.415 -0.4928 -0.2562 -0.1610
 8697SOL    HW137727   1.123   2.808   2.440 -0.8557 -0.3658  0.9625
 8697SOL    HW237728   1.007   2.767   2.349  0.3853 -0.4654 -1.0619
 8698SOL     OW37729   3.710   1.612   0.969 -0.6159 -0.5062 -0.3216
 8698SOL    HW137730   3.635   1.598   0.911 -1.0644 -1.5401  0.5167
 8698SOL    HW237731   3.696   1.705   0.985  0.1038 -0.3939 -0.3406
 8699SOL     OW37732   2.852   0.128   7.741 -0.2544  0.4526 -0.0272
 8699SOL    HW137733   2.924   0.138   7.679 -0.9147  1.5789 -0.6075
 8699SOL    HW237734   2.857   0.205   7.798  0.7894  0.9911 -0.8474
 8700SOL     OW37735   4.731   1.331  16.639  0.2093  0.2766  0.2650
 8700SOL    HW137736   4.656   1.311  16.694 -0.9706  2.4333 -0.5849
 8700SOL    HW237737   4.703   1.299  16.553  2.4968 -1.1904  0.0482
 8701SOL     OW37738   1.272   0.116   3.347  0.3490 -0.9815  0.1719
 8701SOL    HW137739   1.285   0.094   3.439 -0.3463  3.8611  1.3883
 8701SOL    HW237740   1.208   0.051   3.316 -0.6111  0.6457 -1.2329
 8702SOL     OW37741   4.266   3.733  14.082 -0.0337 -0.2125 -0.6651
 8702SOL    HW137742   4.220   3.816  14.066  0.4456  0.2538  0.3509
 8702SOL    HW237743   4.207   3.692  14.145  0.8693  1.5927  1.3743
 8703SOL     OW37744   1.041   3.222  12.670 -0.1294  0.0335 -0.1340
 8703SOL    HW137745   0.999   3.172  12.740 -0.2669 -0.1179 -0.3223
 8703SOL    HW237746   1.027   3.165  12.595  0.4744  1.1936 -1.1245
 8704SOL     OW37747   1.429   4.615   8.625  0.2078 -0.1110 -0.3789
 8704SOL    HW137748   1.421   4.521   8.643  0.0065 -0.2798 -1.3528
 8704SOL    HW237749   1.356   4.646   8.679  1.1532  2.0849 -0.3680
 8705SOL     OW37750   2.168   2.218  10.019  0.2228  0.5018  0.3372
 8705SOL    HW137751   2.175   2.123  10.026 -2.6025  0.3087  0.6642
 8705SOL    HW237752   2.073   2.224  10.020  0.1205 -1.2785  0.9543
 8706SOL     OW37753   0.948   1.850   6.589 -0.5770  0.4710  0.2181
 8706SOL    HW137754   1.001   1.902   6.528 -0.2794 -2.3781 -1.9506
 8706SOL    HW237755   0.861   1.856   6.549 -0.1289 -0.6332 -0.9522
 8707SOL     OW37756   2.926   4.247   4.719  0.8040  0.1478 -0.0589
 8707SOL    HW137757   2.944   4.339   4.700  0.2565 -0.2497 -2.5147
 8707SOL    HW237758   2.857   4.252   4.785  0.0810  1.4635 -0.9127
 8708SOL     OW37759   4.407   1.758   1.678 -0.0490 -0.0919  0.1325
 8708SOL    HW137760   4.386   1.790   1.766  4.1049  0.6421  0.8634
 8708SOL    HW237761   4.449   1.675   1.705  1.1602  0.6833  0.6537
 8709SOL     OW37762   3.549   4.589   8.885 -0.3091  0.4524  0.0536
 8709SOL    HW137763   3.539   4.499   8.916 -0.0755  0.0295 -1.1229
 8709SOL    HW237764   3.628   4.576   8.834 -0.3243 -2.2249  0.6869
 8710SOL     OW37765   2.084   2.980   8.716  0.0169  0.2568 -0.1623
 8710SOL    HW137766   2.153   2.920   8.744 -1.7020 -1.8168 -0.3889
 8710SOL    HW237767   2.018   2.930   8.668 -0.4015 -0.4877  1.1830
 8711SOL     OW37768   0.981   1.538   9.391  0.2302  1.1355 -0.4942
 8711SOL    HW137769   0.980   1.447   9.360 -1.6802  0.7376  0.6902
 8711SOL    HW237770   0.916   1.528   9.461 -0.2014  1.0309 -0.9099
 8712SOL     OW37771   1.402   2.157   4.049  0.3254  0.1568  0.9850
 8712SOL    HW137772   1.388   2.244   4.011  1.4663 -0.1800 -0.1813
 8712SOL    HW237773   1.412   2.096   3.976  0.4991  1.6262 -0.2149
 8713SOL     OW37774   0.969   3.902   0.006 -0.5792  0.2274  0.8393
 8713SOL    HW137775   0.945   3.813   0.030  0.0983 -0.5773 -1.4445
 8713SOL    HW237776   0.886   3.937  17.745 -0.0239  0.2611 -0.5277
 8714SOL     OW37777   4.294   1.410   2.308 -0.1931 -0.7181  0.0414
 8714SOL    HW137778   4.346   1.352   2.364  0.7520  1.2035  1.1516
 8714SOL    HW237779   4.248   1.477   2.359  2.2821  0.0014  1.3045
 8715SOL     OW37780   1.999   1.344   8.704 -0.1846 -0.1536 -0.4850
 8715SOL    HW137781   2.046   1.417   8.664 -1.0812  1.8973  2.1738
 8715SOL    HW237782   1.969   1.302   8.623  0.1833  0.2017 -0.8083
 8716SOL     OW37783   4.614   2.228   7.134 -0.1228 -0.2713  0.0901
 8716SOL    HW137784   4.704   2.235   7.102  0.0031  0.5071  0.6116
 8716SOL    HW237785   4.576   2.301   7.085  0.1980 -1.2178 -1.5542
 8717SOL     OW37786   3.104   1.657   2.585 -0.4421 -0.2302 -0.7692
 8717SOL    HW137787   3.152   1.577   2.606 -0.9135  0.1669  1.8016
 8717SOL    HW237788   3.052   1.676   2.663  0.0441 -0.5191 -0.3785
 8718SOL     OW37789   1.675   4.619   9.171  0.0541 -0.0505  0.1323
 8718SOL    HW137790   1.630   4.535   9.167  0.1401 -0.1311  0.7390
 8718SOL    HW237791   1.655   4.665   9.090 -0.5938 -1.8928 -0.7352
 8719SOL     OW37792   1.863   0.819   5.727 -0.0013  0.3771  0.2737
 8719SOL    HW137793   1.807   0.891   5.758 -2.7432 -1.8738  0.6157
 8719SOL    HW237794   1.872   0.763   5.805  2.5032  2.9351  1.8025
 8720SOL     OW37795   3.272   4.459   7.124  0.1177 -0.5799 -0.7325
 8720SOL    HW137796   3.320   4.386   7.084 -1.0824 -2.0167  0.4746
 8720SOL    HW237797   3.256   4.436   7.215  0.1350 -1.2380 -0.8919
 8721SOL     OW37798   1.592   3.947  11.251 -0.0549 -0.2259 -0.2022
 8721SOL    HW137799   1.640   3.937  11.169  0.4564 -2.3559  0.3428
 8721SOL    HW237800   1.626   4.032  11.278 -0.0059 -0.1224 -0.5912
 8722SOL     OW37801   2.863   2.583   9.201 -0.1372  0.4351  0.3964
 8722SOL    HW137802   2.804   2.569   9.127  1.6544  1.0439 -1.1299
 8722SOL    HW237803   2.907   2.499   9.195 -1.9526 -0.5451  0.5835
 8723SOL     OW37804   4.596   2.061   5.000 -0.4547  0.5776  0.0919
 8723SOL    HW137805   4.591   1.997   4.929  0.2785 -0.1647  0.7079
 8723SOL    HW237806   4.607   2.139   4.946  1.1166 -0.2121 -0.7347
 8724SOL     OW37807   4.619   0.719   1.516 -0.1390 -0.1217  0.4117
 8724SOL    HW137808   4.586   0.792   1.464  1.4395  0.6131  0.4416
 8724SOL    HW237809   4.587   0.648   1.461 -1.0161 -1.3290  2.5096
 8725SOL     OW37810   0.297   1.160   6.875 -0.3088 -0.1448  0.0923
 8725SOL    HW137811   0.260   1.156   6.787  0.0072 -1.4954  0.0168
 8725SOL    HW237812   0.382   1.115   6.875  0.0951  0.6127  0.1202
 8726SOL     OW37813   1.365   2.909   8.569 -0.2536 -0.0247  0.0443
 8726SOL    HW137814   1.339   2.829   8.615 -1.7208  1.0007  1.0287
 8726SOL    HW237815   1.377   2.882   8.478 -0.5082 -0.9766  0.2909
 8727SOL     OW37816   0.171   4.141   0.230 -0.4309 -0.1511  0.2925
 8727SOL    HW137817   0.104   4.189   0.278 -1.6053 -0.8955 -0.6059
 8727SOL    HW237818   0.169   4.196   0.152  0.0481  0.4164  0.6804
 8728SOL     OW37819   4.354   3.089   1.303  0.1422  0.3419  0.1827
 8728SOL    HW137820   4.424   3.111   1.242 -0.5389 -0.0654 -0.7367
 8728SOL    HW237821   4.403   3.045   1.373  3.6417  1.8952 -1.2897
 8729SOL     OW37822   2.738   1.764   5.237 -0.3028 -0.1504 -0.1710
 8729SOL    HW137823   2.758   1.695   5.300  0.9718  1.6114  1.3735
 8729SOL    HW237824   2.822   1.807   5.223 -0.9133  1.1610  0.2111
 8730SOL     OW37825   0.048   0.805  10.790  0.4950 -0.7393  0.5352
 8730SOL    HW137826   0.050   0.876  10.853 -1.5184 -0.7244  0.5914
 8730SOL    HW237827   0.067   0.730  10.846 -1.2149 -1.7848 -0.2586
 8731SOL     OW37828   0.430   2.305   7.984 -0.0953 -0.0303 -0.1151
 8731SOL    HW137829   0.400   2.324   8.073  2.5673  0.1348  0.7380
 8731SOL    HW237830   0.439   2.211   7.999 -1.7230 -0.3419 -1.1749
 8732SOL     OW37831   1.313   1.138   0.206 -0.1621 -0.2798 -0.3017
 8732SOL    HW137832   1.236   1.084   0.188  0.8400 -1.9923  0.4896
 8732SOL    HW237833   1.295   1.153   0.299  2.1030  0.8841 -0.0497
 8733SOL     OW37834   4.535   0.042  13.230  0.3532  0.1933  0.1643
 8733SOL    HW137835   4.502   4.715  13.175 -1.1881  1.6466 -0.8216
 8733SOL    HW237836   4.560   4.732  13.304 -0.5671 -0.9936 -0.3835
 8734SOL     OW37837   3.795   3.176   9.016 -0.1063 -0.1430  0.0149
 8734SOL    HW137838   3.886   3.155   9.033  0.3347  0.5151 -1.4867
 8734SOL    HW237839   3.757   3.145   9.098  1.2913 -2.2083 -0.1203
 8735SOL     OW37840   4.034   0.998   7.492 -0.4829 -0.3914 -0.7540
 8735SOL    HW137841   4.102   0.993   7.560  0.7631 -2.7360 -2.1471
 8735SOL    HW237842   3.993   1.082   7.512 -2.2910 -1.7115  1.0839
 8736SOL     OW37843   1.796   2.674  15.487  0.0436 -0.1664 -0.1664
 8736SOL    HW137844   1.849   2.611  15.537 -0.9345 -2.3987 -1.9475
 8736SOL    HW237845   1.817   2.756  15.533  0.5117  0.5670 -1.7149
 8737SOL     OW37846   2.168   3.495  12.989 -0.0411 -0.2447 -0.1969
 8737SOL    HW137847   2.089   3.441  13.002  1.4709 -2.4401 -0.0644
 8737SOL    HW237848   2.207   3.458  12.910  0.7510 -0.5807  0.3581
 8738SOL     OW37849   2.134   3.284   7.522  0.4270 -0.2269  0.0121
 8738SOL    HW137850   2.155   3.313   7.611  0.1528 -1.9514  0.6501
 8738SOL    HW237851   2.085   3.360   7.489  0.9824 -0.2174 -0.7883
 8739SOL     OW37852   3.265   3.896   8.802 -0.0173  0.0595  0.2257
 8739SOL    HW137853   3.283   3.894   8.896 -1.3097  0.9022  0.4907
 8739SOL    HW237854   3.169   3.894   8.798 -0.0425  0.4069  0.6652
 8740SOL     OW37855   2.897   0.714   5.043 -0.0986 -0.0261  0.2471
 8740SOL    HW137856   2.983   0.746   5.017  1.0012 -2.8878  0.3586
 8740SOL    HW237857   2.840   0.789   5.027  1.9591  1.6731  0.9425
 8741SOL     OW37858   0.653   3.624   9.201  0.5672  0.0912 -0.4558
 8741SOL    HW137859   0.685   3.714   9.192 -2.5367  1.5380  2.6622
 8741SOL    HW237860   0.561   3.630   9.173  0.1341 -1.7090  0.6175
 8742SOL     OW37861   3.192   0.639  11.159 -0.0993  0.0246  0.3963
 8742SOL    HW137862   3.144   0.682  11.089 -2.5711 -3.8006 -0.2407
 8742SOL    HW237863   3.282   0.651  11.127  0.5512 -2.8305  1.1952
 8743SOL     OW37864   0.264   1.432   4.083  0.0529  0.0002 -0.4956
 8743SOL    HW137865   0.188   1.382   4.054 -0.0152  0.5488 -1.2683
 8743SOL    HW237866   0.260   1.415   4.177  1.0734  0.4234 -0.3733
 8744SOL     OW37867   1.439   1.343   2.858 -0.5339 -0.4047  0.2890
 8744SOL    HW137868   1.496   1.405   2.903 -0.9358  1.1325 -1.3242
 8744SOL    HW237869   1.504   1.296   2.805  0.8356 -0.2508  1.8545
 8745SOL     OW37870   2.789   4.172   6.671 -0.1021  0.0711  0.3588
 8745SOL    HW137871   2.882   4.166   6.652 -0.2406  2.5400 -1.0347
 8745SOL    HW237872   2.743   4.164   6.588  0.0812 -0.8299  0.3404
 8746SOL     OW37873   0.509   0.244   6.548 -0.0173 -0.1219 -0.0359
 8746SOL    HW137874   0.483   0.308   6.613  1.3388  0.2681  0.1190
 8746SOL    HW237875   0.571   0.292   6.493  0.4053 -1.0487 -0.3803
 8747SOL     OW37876   4.531   0.937   5.937  0.1063  0.5177 -0.1460
 8747SOL    HW137877   4.482   0.861   5.968  0.5042 -0.2979 -1.5416
 8747SOL    HW237878   4.465   0.985   5.886 -1.2611 -0.2337  0.8910
 8748SOL     OW37879   2.936   2.386   7.530 -0.1497  0.4337 -0.3147
 8748SOL    HW137880   2.861   2.367   7.585  0.9763  0.7856  1.3486
 8748SOL    HW237881   2.992   2.445   7.581  0.3933  0.4847 -0.9578
 8749SOL     OW37882   4.171   4.592   9.721  0.6418  0.2680 -0.5413
 8749SOL    HW137883   4.121   4.617   9.798  0.2835 -0.0681 -0.6663
 8749SOL    HW237884   4.172   4.677   9.677  0.4340  0.5003 -0.0836
 8750SOL     OW37885   2.356   2.638   5.493  0.5091  0.4338 -0.6766
 8750SOL    HW137886   2.291   2.583   5.449  1.5950 -1.4134  0.0375
 8750SOL    HW237887   2.424   2.575   5.516 -1.5296 -0.6241  2.4491
 8751SOL     OW37888   2.077   2.062   3.661 -0.5850 -0.1730 -0.2296
 8751SOL    HW137889   1.983   2.066   3.642 -0.3910  0.2866 -1.1069
 8751SOL    HW237890   2.100   2.153   3.678  1.6651 -0.8760  0.3875
 8752SOL     OW37891   0.566   1.405   7.151  0.1000  0.0664  0.1437
 8752SOL    HW137892   0.656   1.373   7.160  0.4349  0.7429 -0.7560
 8752SOL    HW237893   0.525   1.343   7.211  1.3384  0.9945  1.9389
 8753SOL     OW37894   4.617   3.711   6.040  0.2519 -0.0243 -0.3254
 8753SOL    HW137895   4.670   3.684   5.965  2.1610 -0.1250  1.0508
 8753SOL    HW237896   4.557   3.776   6.005 -0.3820  0.0283  0.8619
 8754SOL     OW37897   3.584   1.139  14.306 -0.7387  0.3305  0.2548
 8754SOL    HW137898   3.548   1.173  14.388  1.0951 -0.7281  1.5033
 8754SOL    HW237899   3.576   1.045  14.322  0.7296 -0.1728 -1.9208
 8755SOL     OW37900   3.262   2.526  13.079 -0.3344 -0.6708 -0.1279
 8755SOL    HW137901   3.183   2.572  13.051 -0.3239  0.6627  2.0541
 8755SOL    HW237902   3.268   2.448  13.024  2.0822 -2.8328  3.1956
 8756SOL     OW37903   0.328   1.553   8.318  0.0013 -0.6900  0.0402
 8756SOL    HW137904   0.326   1.484   8.252 -0.4121 -0.3123 -0.3441
 8756SOL    HW237905   0.281   1.504   8.385 -2.2309  0.1029 -0.9293
 8757SOL     OW37906   2.102   1.646  16.339  0.4985  0.1068 -0.8075
 8757SOL    HW137907   2.132   1.661  16.429  0.2159  0.0307 -0.7008
 8757SOL    HW237908   2.008   1.652  16.357  0.6351 -0.9333  0.2428
 8758SOL     OW37909   3.245   3.816   6.835 -0.6402  0.4632 -0.1633
 8758SOL    HW137910   3.153   3.830   6.857 -0.7377 -0.1465 -0.1845
 8758SOL    HW237911   3.228   3.775   6.750  1.0300 -3.9912  1.6547
 8759SOL     OW37912   1.118   4.042  15.003  0.4407  0.2641  0.2714
 8759SOL    HW137913   1.080   4.108  14.944  2.1120 -0.3637 -1.5042
 8759SOL    HW237914   1.195   4.089  15.034  1.4144 -1.1953  0.0117
 8760SOL     OW37915   3.855   4.470  13.810  0.1654  0.2162  0.0338
 8760SOL    HW137916   3.760   4.483  13.817 -0.0162 -0.1675 -1.7350
 8760SOL    HW237917   3.865   4.389  13.760 -1.2855 -0.5931  1.0371
 8761SOL     OW37918   1.801   4.247   9.021  0.2928  0.2438  0.4922
 8761SOL    HW137919   1.767   4.159   9.007  0.2580  0.4510 -0.6797
 8761SOL    HW237920   1.896   4.236   9.012  0.3438  0.2834  0.9969
 8762SOL     OW37921   0.298   0.478   4.777 -0.3831  0.4710 -1.1415
 8762SOL    HW137922   0.328   0.568   4.774  0.1822  0.3247 -0.1463
 8762SOL    HW237923   0.275   0.475   4.684 -2.7948  1.3926 -0.5771
 8763SOL     OW37924   4.631   0.532  16.963  0.0517  0.1015 -0.6283
 8763SOL    HW137925   4.693   0.535  16.890  0.9372  0.4442  0.1453
 8763SOL    HW237926   4.549   0.548  16.916  0.1813  1.2633 -0.4576
 8764SOL     OW37927   1.375   4.140  15.117  0.3617  0.0242 -0.1874
 8764SOL    HW137928   1.453   4.192  15.100  0.6348 -0.1243  0.6001
 8764SOL    HW237929   1.417   4.059  15.146 -0.5980 -1.2779 -2.3798
 8765SOL     OW37930   0.834   0.562   3.357 -0.0374 -0.0929  0.0464
 8765SOL    HW137931   0.801   0.649   3.377 -1.1491 -0.3189 -0.8306
 8765SOL    HW237932   0.770   0.535   3.291  0.5930 -0.4794 -0.4049
 8766SOL     OW37933   1.332   0.877   5.165 -0.3007 -0.8179  0.3293
 8766SOL    HW137934   1.346   0.946   5.230 -0.4468 -1.3773  0.9629
 8766SOL    HW237935   1.417   0.835   5.173  0.3449  0.7036  1.4751
 8767SOL     OW37936   1.502   0.236  13.320 -0.3344  0.2230 -0.0620
 8767SOL    HW137937   1.584   0.283  13.308 -0.3085 -0.3056 -2.0205
 8767SOL    HW237938   1.474   0.231  13.228  0.5926 -0.5064 -0.2916
 8768SOL     OW37939   4.109   4.252   7.863 -0.6756  0.4260 -0.1482
 8768SOL    HW137940   4.128   4.171   7.909  1.9171  1.4755  0.6280
 8768SOL    HW237941   4.024   4.265   7.905 -0.0878 -1.3335  1.5728
 8769SOL     OW37942   3.042   3.995   9.309  0.1343  0.5393  0.3352
 8769SOL    HW137943   2.958   4.036   9.286  0.3173  0.6765 -0.0936
 8769SOL    HW237944   3.082   4.058   9.368  2.3265  1.6912 -2.3708
 8770SOL     OW37945   0.832   4.173   9.458  0.0956 -0.2934 -0.2305
 8770SOL    HW137946   0.841   4.137   9.370 -0.0306 -1.8766  0.4040
 8770SOL    HW237947   0.900   4.240   9.459 -0.6267  0.4633 -1.3836
 8771SOL     OW37948   3.891   0.299   1.718 -0.1960 -0.1719 -0.3218
 8771SOL    HW137949   3.931   0.221   1.757 -1.9602 -1.4432 -1.0369
 8771SOL    HW237950   3.902   0.279   1.625 -1.3186  0.4313 -0.5833
 8772SOL     OW37951   2.132   3.931  16.609  0.3365  0.1985  0.0050
 8772SOL    HW137952   2.181   3.945  16.690  1.1091 -4.1637  0.2756
 8772SOL    HW237953   2.130   4.021  16.576 -2.1776 -0.2468 -1.0712
 8773SOL     OW37954   3.405   4.613   9.412  0.1267  0.0087  0.0866
 8773SOL    HW137955   3.399   4.676   9.340  3.2496 -1.3297 -1.3614
 8773SOL    HW237956   3.501   4.617   9.417  0.0275  0.5906  1.6074
 8774SOL     OW37957   3.969   3.121  14.426 -0.0852 -0.1267 -0.0049
 8774SOL    HW137958   3.914   3.044  14.411 -1.5481  1.6411 -3.6778
 8774SOL    HW237959   4.023   3.116  14.347  0.9185 -0.0853  0.6734
 8775SOL     OW37960   0.067   3.343   4.428 -0.0851 -0.0535 -0.1432
 8775SOL    HW137961   0.065   3.400   4.351 -2.1439  0.0741 -0.0026
 8775SOL    HW237962   0.098   3.404   4.495 -2.6035 -0.1068  1.1083
 8776SOL     OW37963   4.361   1.407  17.725 -0.2422  0.2326 -0.6695
 8776SOL    HW137964   4.291   1.461  17.761 -0.8331 -0.3858 -0.8889
 8776SOL    HW237965   4.316   1.382  17.645  0.0574  1.7647 -1.3266
 8777SOL     OW37966   1.336   3.558   5.177 -0.8147  0.1400 -0.2194
 8777SOL    HW137967   1.356   3.504   5.254  0.5511  2.6641  1.2046
 8777SOL    HW237968   1.250   3.526   5.150 -0.5482 -1.2315  0.5372
 8778SOL     OW37969   1.910   1.271   8.469  0.4728 -0.1149 -0.6312
 8778SOL    HW137970   1.953   1.322   8.401 -2.3587 -1.0929 -3.1758
 8778SOL    HW237971   1.826   1.311   8.490  0.5894 -0.5623  0.7083
 8779SOL     OW37972   3.021   4.128   4.228 -0.5894  0.0290  0.0425
 8779SOL    HW137973   2.980   4.042   4.224  0.5576 -0.5574  0.8499
 8779SOL    HW237974   3.039   4.142   4.321  0.7461 -1.4038  0.0097
 8780SOL     OW37975   0.122   2.538   3.018  0.2830  0.4949  0.0458
 8780SOL    HW137976   0.073   2.621   3.014 -1.2019 -0.1792  3.7433
 8780SOL    HW237977   0.047   2.478   3.017 -0.5989  1.5351  3.0698
 8781SOL     OW37978   4.716   2.580   8.939  0.0748 -0.2019 -0.3180
 8781SOL    HW137979   4.703   2.493   8.978  3.6061 -1.4582 -1.9225
 8781SOL    HW237980   4.736   2.548   8.851  2.0362 -3.3234  1.2630
 8782SOL     OW37981   2.280   3.680   3.742 -0.2319 -0.1427  0.4003
 8782SOL    HW137982   2.357   3.737   3.745  0.8141 -1.5928  0.5047
 8782SOL    HW237983   2.278   3.651   3.833  0.4095 -1.0929  0.1040
 8783SOL     OW37984   0.693   1.300   4.382  0.2938 -0.0215  0.0965
 8783SOL    HW137985   0.678   1.256   4.298 -2.9544  2.0992 -0.4114
 8783SOL    HW237986   0.673   1.238   4.453  1.4804 -1.6924 -1.0310
 8784SOL     OW37987   1.924   3.762   8.966 -0.2459  0.5408 -0.5807
 8784SOL    HW137988   2.009   3.774   9.008 -0.1992 -0.3298 -0.4284
 8784SOL    HW237989   1.951   3.720   8.884  1.6436  2.0210 -0.7395
 8785SOL     OW37990   2.923   3.150   3.613 -0.0611  0.0894  0.0776
 8785SOL    HW137991   2.880   3.213   3.670 -1.3983  0.9815 -1.9108
 8785SOL    HW237992   3.005   3.197   3.598 -0.3053 -0.1070 -1.9610
 8786SOL     OW37993   1.544   4.322  10.180 -0.1888  0.0921  0.1241
 8786SOL    HW137994   1.576   4.409  10.155 -0.4236  0.8165  2.3253
 8786SOL    HW237995   1.452   4.340  10.160 -0.4674 -0.9314  0.5054
 8787SOL     OW37996   0.117   1.188  17.539  0.2469  0.4160 -0.5304
 8787SOL    HW137997   0.026   1.214  17.526  0.6021  2.1736  0.4754
 8787SOL    HW237998   0.134   1.205  17.632 -0.5551 -0.3385 -0.2493
 8788SOL     OW37999   0.295   0.524   0.288 -0.4199  0.3905 -0.5414
 8788SOL    HW138000   0.367   0.460   0.284 -0.7206  0.0392 -0.3714
 8788SOL    HW238001   0.337   0.565   0.363 -1.5584  0.2755  0.1604
 8789SOL     OW38002   1.871   2.454   0.139 -0.0726 -0.4581 -0.3148
 8789SOL    HW138003   1.842   2.544   0.154  0.7658 -0.2930  0.3541
 8789SOL    HW238004   1.861   2.417   0.227 -0.1177  1.2878  0.4141
 8790SOL     OW38005   2.797   0.522   9.434 -0.5138  0.1280  0.8022
 8790SOL    HW138006   2.848   0.556   9.360 -1.5050 -0.3145 -0.0823
 8790SOL    HW238007   2.861   0.461   9.470  0.8064  1.2486  0.3706
 8791SOL     OW38008   0.724   4.299   5.774 -0.3891  0.3193 -0.2575
 8791SOL    HW138009   0.755   4.350   5.849  0.7762 -2.1760  0.9735
 8791SOL    HW238010   0.803   4.297   5.720  0.5514 -0.6930  1.1466
 8792SOL     OW38011   2.626   0.747   5.616 -0.1723  0.7143  0.0674
 8792SOL    HW138012   2.670   0.665   5.590  0.0372  0.7490  0.3122
 8792SOL    HW238013   2.543   0.720   5.577  0.2322  0.4701 -0.6314
 8793SOL     OW38014   4.435   4.268   3.537  0.8591  0.1979 -0.0902
 8793SOL    HW138015   4.417   4.232   3.450  1.2169  1.7188 -0.7889
 8793SOL    HW238016   4.356   4.320   3.556  1.2129  1.0546 -0.9626
 8794SOL     OW38017   1.098   1.575  13.216  0.5403  0.0791  0.9056
 8794SOL    HW138018   1.169   1.584  13.280 -0.5672  0.1684  2.1278
 8794SOL    HW238019   1.033   1.630  13.260  0.9859 -0.3456  2.0905
 8795SOL     OW38020   4.460   3.463  14.187 -0.4696  0.2034  0.4628
 8795SOL    HW138021   4.480   3.386  14.133  1.9992 -0.1307  1.8512
 8795SOL    HW238022   4.370   3.440  14.207 -0.3673  0.6017  1.3570
 8796SOL     OW38023   1.846   1.030   7.098 -1.2248  0.0425 -0.0594
 8796SOL    HW138024   1.850   1.054   7.190  0.6487 -1.4885  0.2584
 8796SOL    HW238025   1.934   0.997   7.078 -1.4318 -0.6711  0.2029
 8797SOL     OW38026   2.985   0.670   7.392  0.3008  0.2148 -0.3823
 8797SOL    HW138027   2.897   0.689   7.360  0.5794  0.6470 -0.8838
 8797SOL    HW238028   2.955   0.592   7.440  1.2639  1.2811  1.9442
 8798SOL     OW38029   0.262   4.713  13.256 -0.4742 -0.5164 -0.6835
 8798SOL    HW138030   0.338   4.656  13.244 -1.3201 -1.7562 -0.1557
 8798SOL    HW238031   0.190   4.659  13.224 -1.1791 -0.2338  0.4297
 8799SOL     OW38032   2.542   3.453  11.750  0.4610  0.0071  0.1006
 8799SOL    HW138033   2.632   3.486  11.755 -0.7515  3.4564 -0.5316
 8799SOL    HW238034   2.512   3.484  11.665 -1.3066 -0.7647  0.4526
 8800SOL     OW38035   3.647   1.266   4.267 -0.0752 -0.5754  0.1437
 8800SOL    HW138036   3.676   1.231   4.183  2.1752  0.2016  0.6221
 8800SOL    HW238037   3.554   1.283   4.248 -0.5033 -1.2974  1.5482
 8801SOL     OW38038   2.641   4.299   7.427 -0.6136  0.3873 -0.1715
 8801SOL    HW138039   2.637   4.204   7.434  0.2969  0.2518 -1.4525
 8801SOL    HW238040   2.610   4.329   7.512 -2.4745 -2.5813  0.2169
 8802SOL     OW38041   1.110   3.706   3.455 -0.1923  0.1987 -0.8019
 8802SOL    HW138042   1.205   3.713   3.445 -0.1161  0.7808  0.3143
 8802SOL    HW238043   1.092   3.800   3.453  0.7600  0.3118 -4.8635
 8803SOL     OW38044   0.025   2.534   4.951  0.3338  0.1710 -0.5395
 8803SOL    HW138045   0.110   2.515   4.910  1.5854  0.2649  1.9868
 8803SOL    HW238046   0.011   2.618   4.909 -0.2740  0.1777 -0.3173
 8804SOL     OW38047   3.528   4.691   3.764  0.2484 -0.6403 -0.5831
 8804SOL    HW138048   3.475   4.655   3.693  1.0822 -0.2450 -1.4015
 8804SOL    HW238049   3.556   0.031   3.726 -2.0099  0.3731 -0.0398
 8805SOL     OW38050   0.524   1.151  11.442  0.5979  0.3981 -0.3031
 8805SOL    HW138051   0.620   1.150  11.443  0.6102 -0.6272 -1.3873
 8805SOL    HW238052   0.508   1.154  11.536  0.8855  0.2280 -0.2499
 8806SOL     OW38053   3.364   0.365   5.538 -0.1128 -0.3225  0.3379
 8806SOL    HW138054   3.275   0.373   5.503  0.5322  1.8681 -0.7704
 8806SOL    HW238055   3.350   0.361   5.633  2.0547 -3.2780  0.5243
 8807SOL     OW38056   2.592   2.139   8.290  0.1130  0.4801 -0.6013
 8807SOL    HW138057   2.664   2.081   8.265  1.0631  1.4830 -0.2243
 8807SOL    HW238058   2.652   2.214   8.296  0.7138 -0.1606  1.1786
 8808SOL     OW38059   3.434   0.462  13.367  0.6223  0.3946  0.5475
 8808SOL    HW138060   3.410   0.425  13.282  0.7051  1.5895 -0.0016
 8808SOL    HW238061   3.347   0.463  13.408  0.8298 -1.5893  1.0107
 8809SOL     OW38062   0.667   4.405   4.834  0.7381  0.2298  0.5649
 8809SOL    HW138063   0.639   4.458   4.908 -1.1361 -1.7347  1.2611
 8809SOL    HW238064   0.757   4.437   4.821 -0.7916  4.7540  1.1658
 8810SOL     OW38065   1.577   0.667   4.104 -0.0202  0.2206  0.3174
 8810SOL    HW138066   1.517   0.593   4.096  0.4611 -0.4489  2.7934
 8810SOL    HW238067   1.581   0.674   4.200 -2.2870  0.5903  0.3954
 8811SOL     OW38068   3.310   2.477   6.466 -0.1675 -0.5141 -0.4794
 8811SOL    HW138069   3.267   2.470   6.381  1.2894  1.0667 -1.3572
 8811SOL    HW238070   3.391   2.517   6.434  0.7734  0.0087  2.5293
 8812SOL     OW38071   4.417   0.149   3.531 -0.3718 -0.2873 -0.3340
 8812SOL    HW138072   4.350   0.090   3.565  0.5685 -1.5260 -0.6379
 8812SOL    HW238073   4.361   0.226   3.523 -2.4282 -1.9393 -1.6007
 8813SOL     OW38074   3.991   0.596   9.618 -0.4685  0.2993  0.2441
 8813SOL    HW138075   3.941   0.568   9.542 -0.2181  1.8849 -0.4923
 8813SOL    HW238076   3.922   0.638   9.670  1.3108  2.7130  0.6498
 8814SOL     OW38077   2.598   0.016   1.597 -0.6587 -0.2658 -0.3344
 8814SOL    HW138078   2.610   0.068   1.517  0.0014 -1.8451 -1.2646
 8814SOL    HW238079   2.543   0.077   1.646  0.4684 -0.1993  0.8455
 8815SOL     OW38080   2.038   0.044  13.670  0.0269 -0.2370 -0.3835
 8815SOL    HW138081   2.110   4.727  13.687 -0.8464 -1.3551 -0.5966
 8815SOL    HW238082   2.060   0.127  13.712 -1.6325 -0.7138  1.4724
 8816SOL     OW38083   1.256   4.728   7.623 -0.6281  0.1040  0.0332
 8816SOL    HW138084   1.229   4.642   7.655 -0.9467  0.5294  0.9100
 8816SOL    HW238085   1.336   4.708   7.574 -0.5609  0.2685  0.0754
 8817SOL     OW38086   1.999   2.576   8.511  0.1029  0.8290 -0.6234
 8817SOL    HW138087   2.064   2.553   8.577 -1.9035 -1.8735  0.4365
 8817SOL    HW238088   1.916   2.558   8.555  0.1639  1.9256 -0.0621
 8818SOL     OW38089   0.423   2.516   1.717  0.4043 -0.2898 -0.2536
 8818SOL    HW138090   0.393   2.607   1.724  0.0909 -0.2683 -1.9749
 8818SOL    HW238091   0.389   2.485   1.802  1.7147 -0.4239  0.2143
 8819SOL     OW38092   3.201   2.414   1.450  0.6240  0.1525  0.0209
 8819SOL    HW138093   3.114   2.439   1.480  0.7189  2.2442 -1.3912
 8819SOL    HW238094   3.210   2.322   1.475 -2.0430  0.8268  3.3405
 8820SOL     OW38095   3.544   0.929   0.496 -0.2323  0.2851 -0.4951
 8820SOL    HW138096   3.592   0.990   0.552  1.1552  0.4240 -1.8611
 8820SOL    HW238097   3.554   0.977   0.413 -0.2217 -1.6688 -1.6215
 8821SOL     OW38098   1.153   1.799  17.315 -0.4395 -0.1511  0.0234
 8821SOL    HW138099   1.136   1.870  17.377  2.3129 -0.8137  1.5232
 8821SOL    HW238100   1.244   1.815  17.288 -1.6778  0.8861 -3.5785
 8822SOL     OW38101   2.001   3.940   5.939  0.1988  0.2942 -0.2376
 8822SOL    HW138102   2.011   3.958   6.032 -1.7157 -1.9186  0.4029
 8822SOL    HW238103   2.048   3.858   5.929  0.6046  0.2220  2.3683
 8823SOL     OW38104   0.867   0.038  16.672 -0.4926 -0.1356  0.3413
 8823SOL    HW138105   0.908   0.064  16.589 -0.4499  0.7857  0.6527
 8823SOL    HW238106   0.872   0.131  16.696  0.4976 -0.4315  1.2740
 8824SOL     OW38107   0.799   3.728   6.723 -0.4065 -0.3407  0.2767
 8824SOL    HW138108   0.768   3.750   6.635  1.3799 -0.2391 -0.3349
 8824SOL    HW238109   0.721   3.678   6.747 -0.2031 -1.2286 -0.8742
 8825SOL     OW38110   3.431   3.465   8.179  0.0033 -0.3256 -0.0093
 8825SOL    HW138111   3.465   3.554   8.168  0.5513 -0.6412 -0.9289
 8825SOL    HW238112   3.364   3.477   8.246  0.7198  1.1987  0.4207
 8826SOL     OW38113   2.159   1.262   2.248  0.1666  0.0504  0.3428
 8826SOL    HW138114   2.111   1.308   2.317  2.7707  2.8939  0.2525
 8826SOL    HW238115   2.155   1.179   2.297  1.9823 -0.2616 -0.0396
 8827SOL     OW38116   0.667   1.210  10.982 -0.6819  0.6006  0.3747
 8827SOL    HW138117   0.602   1.225  10.913 -1.9699 -1.4795  1.1258
 8827SOL    HW238118   0.616   1.164  11.049  1.5917 -2.4532  0.0273
 8828SOL     OW38119   2.865   2.769   6.182  0.0398 -0.0147 -0.0311
 8828SOL    HW138120   2.897   2.679   6.176  2.3852  0.7203  1.4156
 8828SOL    HW238121   2.783   2.765   6.133 -1.9272  0.0530  3.2832
 8829SOL     OW38122   0.669   1.912   5.129 -0.3994 -0.4128  0.0888
 8829SOL    HW138123   0.648   1.906   5.222  0.8917  1.0749  0.4894
 8829SOL    HW238124   0.593   1.961   5.097  0.0474 -0.0123 -0.3614
 8830SOL     OW38125   3.881   4.324   1.545  0.8326  0.5004  0.0700
 8830SOL    HW138126   3.953   4.354   1.490  1.7747 -3.0149 -0.6319
 8830SOL    HW238127   3.847   4.249   1.497  0.1742  0.3479  0.7734
 8831SOL     OW38128   3.000   1.234   3.085 -0.0256 -0.0137 -0.2094
 8831SOL    HW138129   3.006   1.240   3.180  0.2830 -0.5274 -0.1955
 8831SOL    HW238130   2.999   1.138   3.083  1.2875 -0.0382  0.6554
 8832SOL     OW38131   0.626   2.379   2.240  0.2055 -0.5564  0.0738
 8832SOL    HW138132   0.556   2.317   2.264 -0.2737  0.2854  0.8795
 8832SOL    HW238133   0.597   2.462   2.279  1.2290 -0.7140  1.1759
 8833SOL     OW38134   1.940   4.316   4.106 -0.2448  0.1893  0.0598
 8833SOL    HW138135   1.859   4.356   4.075 -0.5071 -0.5756 -0.2257
 8833SOL    HW238136   1.987   4.396   4.132 -0.5990  0.3557  0.1820
 8834SOL     OW38137   4.161   2.746  14.006 -0.2226 -0.4200  0.2995
 8834SOL    HW138138   4.121   2.662  13.984 -3.1694  0.9957  0.2673
 8834SOL    HW238139   4.090   2.799  13.971 -0.8383 -1.3507  0.1687
 8835SOL     OW38140   3.691   0.898   6.829 -0.4361  0.2342  0.0918
 8835SOL    HW138141   3.617   0.878   6.887 -1.2999 -0.2968 -1.1755
 8835SOL    HW238142   3.749   0.829   6.860  0.6707  0.7515 -0.8566
 8836SOL     OW38143   2.276   4.282   8.075 -0.2852  0.3550 -1.0023
 8836SOL    HW138144   2.277   4.189   8.052 -2.1837 -0.0744  0.5742
 8836SOL    HW238145   2.191   4.295   8.117 -0.5654 -0.7920 -1.2076
 8837SOL     OW38146   3.795   1.070   2.231  0.0086  0.0641  0.0129
 8837SOL    HW138147   3.835   0.998   2.181  1.4718  0.7009  0.2745
 8837SOL    HW238148   3.715   1.079   2.180  0.6777 -0.1304 -1.0736
 8838SOL     OW38149   4.583   1.813  16.596 -0.1630 -0.1028  0.2046
 8838SOL    HW138150   4.559   1.726  16.626 -0.4874 -0.1014 -0.0499
 8838SOL    HW238151   4.518   1.833  16.528 -1.1412 -3.8368  0.0644
 8839SOL     OW38152   2.392   3.792   8.205 -0.1933 -0.0730 -0.6888
 8839SOL    HW138153   2.465   3.737   8.233 -0.0482  1.0162  1.0615
 8839SOL    HW238154   2.415   3.842   8.127  0.9779 -0.1328 -0.3754
 8840SOL     OW38155   3.709   1.349  10.774 -0.4061  0.1412 -0.6476
 8840SOL    HW138156   3.724   1.334  10.680 -1.2523 -0.9125 -0.6091
 8840SOL    HW238157   3.754   1.432  10.790 -0.2036 -0.0956 -0.0169
 8841SOL     OW38158   2.011   1.078   0.559 -0.4888 -0.0605  0.1644
 8841SOL    HW138159   1.961   1.048   0.635  0.5988  0.5252  1.1064
 8841SOL    HW238160   2.024   0.998   0.508 -0.7501  0.3623 -0.5666
 8842SOL     OW38161   4.323   4.201   4.025  0.4335 -0.6067  0.0480
 8842SOL    HW138162   4.275   4.252   3.959  0.7633  0.3322  0.5289
 8842SOL    HW238163   4.321   4.256   4.103  3.6254 -0.6426  0.1608
 8843SOL     OW38164   2.273   2.507   5.867 -0.3808 -0.1002  0.2672
 8843SOL    HW138165   2.323   2.466   5.937 -0.5628 -0.3831  0.2321
 8843SOL    HW238166   2.309   2.595   5.852 -0.7336  0.3089  1.7933
 8844SOL     OW38167   4.143   1.336   1.333  0.2613 -0.2341 -0.1709
 8844SOL    HW138168   4.063   1.376   1.299  1.4386 -0.9497 -3.7922
 8844SOL    HW238169   4.135   1.370   1.422 -1.0071 -1.3728  0.1494
 8845SOL     OW38170   4.555   2.180   4.517 -0.1000  0.5868  0.3022
 8845SOL    HW138171   4.606   2.139   4.447  1.2126 -0.1629  1.6963
 8845SOL    HW238172   4.509   2.250   4.471  1.6154  1.4850 -0.0534
 8846SOL     OW38173   1.184   2.425   2.762 -0.2631 -0.3861 -0.6122
 8846SOL    HW138174   1.249   2.392   2.824  1.3903  3.1232 -0.4589
 8846SOL    HW238175   1.113   2.463   2.814 -0.3719  0.0194 -1.0519
 8847SOL     OW38176   2.323   1.875  11.375  0.1490  0.2089  0.6792
 8847SOL    HW138177   2.261   1.834  11.315 -0.9540  0.5006  1.6065
 8847SOL    HW238178   2.399   1.820  11.356  0.9180  2.1488 -1.8377
 8848SOL     OW38179   1.699   2.691   3.116  0.4620  0.1245  0.1365
 8848SOL    HW138180   1.654   2.741   3.185 -0.9409  1.1168 -1.4756
 8848SOL    HW238181   1.698   2.604   3.154  0.8926 -0.3050 -0.8356
 8849SOL     OW38182   0.270   3.885   4.455  0.2823  0.4424 -0.2688
 8849SOL    HW138183   0.314   3.800   4.447 -1.8569 -0.7126  0.2307
 8849SOL    HW238184   0.320   3.930   4.523 -0.3351  0.4864  0.1487
 8850SOL     OW38185   1.275   3.788   6.289 -0.1723 -0.1871  0.0913
 8850SOL    HW138186   1.218   3.735   6.344 -0.3436  0.2550  0.3427
 8850SOL    HW238187   1.330   3.840   6.347 -1.1035  1.6167 -0.6324
 8851SOL     OW38188   4.466   4.617   6.066  0.0614  0.1514  0.4946
 8851SOL    HW138189   4.534   4.678   6.096 -0.9630  1.6071 -0.1950
 8851SOL    HW238190   4.418   4.609   6.148 -2.3478 -2.3564 -1.1722
 8852SOL     OW38191   1.555   3.325   2.821  0.9070 -0.1530 -0.2075
 8852SOL    HW138192   1.553   3.337   2.726 -0.2710 -0.4571 -0.2165
 8852SOL    HW238193   1.484   3.385   2.842 -0.3590 -0.2308 -4.3005
 8853SOL     OW38194   3.653   2.945  11.066 -0.0997 -0.3345  0.0529
 8853SOL    HW138195   3.616   2.890  11.135  1.9634  1.9705  3.0279
 8853SOL    HW238196   3.620   3.027  11.105  1.1157  0.9370 -1.6005
 8854SOL     OW38197   3.672   1.095  10.825 -0.3216  0.2688  0.0497
 8854SOL    HW138198   3.753   1.058  10.790 -0.1973 -0.6676  1.3312
 8854SOL    HW238199   3.681   1.190  10.816  0.8144  0.1913  0.4001
 8855SOL     OW38200   0.923   1.306  15.358 -0.3771 -0.0583 -0.0785
 8855SOL    HW138201   0.960   1.290  15.444  0.6911 -1.6303 -0.8428
 8855SOL    HW238202   0.928   1.222  15.312 -0.2636 -0.1874  0.1733
 8856SOL     OW38203   4.618   2.538   8.348 -0.3207  0.6048 -0.3789
 8856SOL    HW138204   4.686   2.605   8.337 -0.1819  0.4171 -0.6748
 8856SOL    HW238205   4.666   2.459   8.322 -0.4337  0.3939  0.0572
 8857SOL     OW38206   3.431   3.811  12.886 -0.6618  0.4346  0.0698
 8857SOL    HW138207   3.373   3.763  12.946 -0.8806  2.0843  1.1913
 8857SOL    HW238208   3.378   3.891  12.880 -0.1098  0.8147  0.2520
 8858SOL     OW38209   0.452   4.507   6.082 -0.4791 -0.0245  0.1082
 8858SOL    HW138210   0.369   4.548   6.106 -0.7160  0.6315 -1.8250
 8858SOL    HW238211   0.519   4.548   6.137  1.3929 -2.0933 -0.6059
 8859SOL     OW38212   1.264   3.145   2.974  0.3924  0.3829 -0.0571
 8859SOL    HW138213   1.309   3.097   3.044 -2.2778 -1.8494  0.1421
 8859SOL    HW238214   1.303   3.231   2.988 -0.4911  0.4164  2.1356
 8860SOL     OW38215   0.072   3.770   4.977  0.8339 -0.3754 -0.3667
 8860SOL    HW138216   0.051   3.691   4.927 -0.1307 -0.9101  0.8902
 8860SOL    HW238217   0.082   3.733   5.065 -0.9461 -0.6709 -0.2880
 8861SOL     OW38218   4.030   3.713  13.868  0.4126 -0.1092 -0.4763
 8861SOL    HW138219   3.994   3.692  13.954 -2.0158  1.6979 -1.0458
 8861SOL    HW238220   4.013   3.807  13.873 -0.9835 -0.4622  1.4737
 8862SOL     OW38221   4.121   2.669   3.788  0.7011  0.3178  0.8182
 8862SOL    HW138222   4.045   2.696   3.736 -0.5269  0.2145  2.5622
 8862SOL    HW238223   4.186   2.739   3.778  0.3912  0.5495  0.4503
 8863SOL     OW38224   0.546   0.955   7.661  0.2527  0.0942 -0.5130
 8863SOL    HW138225   0.570   0.906   7.583 -1.3421 -0.9264 -0.3652
 8863SOL    HW238226   0.454   0.927   7.662  0.5155 -0.7204  0.2089
 8864SOL     OW38227   2.518   4.527  13.851 -0.6788  0.4396  0.4523
 8864SOL    HW138228   2.442   4.469  13.843  0.8765 -1.3522 -1.2206
 8864SOL    HW238229   2.537   4.520  13.945  1.3711  3.0159  0.2188
 8865SOL     OW38230   1.571   4.643   6.878 -0.0755  0.1725 -0.3112
 8865SOL    HW138231   1.559   4.735   6.900 -0.7651 -0.4467  1.9621
 8865SOL    HW238232   1.514   4.632   6.803 -1.7768 -1.8874  1.2828
 8866SOL     OW38233   2.065   0.767  10.547  0.2277  0.3570  0.8402
 8866SOL    HW138234   2.071   0.863  10.549 -3.0897  0.5765 -0.0295
 8866SOL    HW238235   2.128   0.728  10.608  0.0524 -1.6899 -0.2783
 8867SOL     OW38236   0.443   0.394   6.780 -0.6124 -0.1362  0.2525
 8867SOL    HW138237   0.465   0.485   6.797 -0.7394 -0.2539  1.0238
 8867SOL    HW238238   0.500   0.356   6.846 -0.0851  2.2093  1.1517
 8868SOL     OW38239   1.229   1.320   2.411  0.2315 -0.6349  0.4261
 8868SOL    HW138240   1.198   1.410   2.402 -3.5222 -1.8323  1.3379
 8868SOL    HW238241   1.156   1.270   2.374  0.8665 -0.8325 -0.5753
 8869SOL     OW38242   4.308   3.423   5.491  0.0481  0.2561 -0.6413
 8869SOL    HW138243   4.348   3.452   5.573 -1.0570  0.2407 -0.1007
 8869SOL    HW238244   4.286   3.498   5.436 -1.5430  1.1180  1.1783
 8870SOL     OW38245   1.535   0.445   5.509 -0.1710  0.2254 -0.2022
 8870SOL    HW138246   1.564   0.534   5.530 -1.2080  0.0811  1.8955
 8870SOL    HW238247   1.448   0.449   5.547  0.0115  1.6233  0.0683
 8871SOL     OW38248   0.474   0.489   4.377 -0.1334 -0.3797 -0.1602
 8871SOL    HW138249   0.407   0.557   4.381 -0.4044 -0.6259 -0.4796
 8871SOL    HW238250   0.514   0.509   4.461 -1.2100  1.2578 -0.0280
 8872SOL     OW38251   0.752   4.148   1.141 -0.4084 -0.0662  0.0443
 8872SOL    HW138252   0.675   4.103   1.175  0.8909 -1.0702  1.6959
 8872SOL    HW238253   0.724   4.238   1.125  0.9990  0.2128 -0.9027
 8873SOL     OW38254   3.293   0.016   7.464 -0.0102 -1.0607  0.0843
 8873SOL    HW138255   3.364   0.078   7.480 -0.1255 -0.4544 -1.8211
 8873SOL    HW238256   3.259   0.010   7.553 -0.8641  1.5372 -0.0766
 8874SOL     OW38257   3.698   1.697   3.976 -0.3370 -0.5353  0.1807
 8874SOL    HW138258   3.699   1.762   4.046 -0.0291 -0.0464 -0.2808
 8874SOL    HW238259   3.675   1.616   4.021  1.3211 -0.2096  1.6057
 8875SOL     OW38260   3.262   0.485   7.178 -0.0869 -0.5745  0.3500
 8875SOL    HW138261   3.300   0.562   7.221 -0.2264  0.9250 -2.2215
 8875SOL    HW238262   3.321   0.419   7.214 -0.5400 -0.9302  0.4383
 8876SOL     OW38263   1.687   3.108   0.793  0.3224  1.0562 -0.3034
 8876SOL    HW138264   1.604   3.082   0.752  1.3377 -0.3158 -1.4959
 8876SOL    HW238265   1.744   3.043   0.752 -1.5857 -1.9670  1.7855
 8877SOL     OW38266   2.796   2.541   4.965  0.2110 -0.2694 -0.2339
 8877SOL    HW138267   2.741   2.485   5.018  1.9499 -3.5377 -1.8911
 8877SOL    HW238268   2.879   2.552   5.011  0.3302 -0.8556 -0.3078
 8878SOL     OW38269   3.916   2.310   8.148  0.5171 -0.0289  0.1549
 8878SOL    HW138270   3.820   2.316   8.154  0.4311 -0.6309 -0.6761
 8878SOL    HW238271   3.928   2.369   8.074  2.1041 -0.3348  0.1808
 8879SOL     OW38272   0.476   3.406   6.038 -0.0172  0.3612 -0.3259
 8879SOL    HW138273   0.461   3.312   6.049  2.1727  0.2176  1.4076
 8879SOL    HW238274   0.389   3.441   6.018  0.9386  3.5550  0.9614
 8880SOL     OW38275   0.769   2.947  12.627  0.1923  0.0321 -0.1229
 8880SOL    HW138276   0.683   2.989  12.625  1.0257  1.8735  2.9136
 8880SOL    HW238277   0.768   2.916  12.537 -2.0277  2.0797 -0.8269
 8881SOL     OW38278   1.020   4.235  15.316  0.4021  0.0300 -0.2057
 8881SOL    HW138279   1.029   4.312  15.260 -3.2788  0.3300 -0.3727
 8881SOL    HW238280   0.976   4.272  15.391  1.4805 -0.0109  0.4526
 8882SOL     OW38281   3.329   1.607  10.677 -0.0087  0.0499  0.1798
 8882SOL    HW138282   3.305   1.674  10.613  0.8638 -0.0191 -0.2101
 8882SOL    HW238283   3.350   1.658  10.756 -0.9075  1.7574 -0.6668
 8883SOL     OW38284   3.333   4.685  15.558  0.6246 -0.0576  0.1544
 8883SOL    HW138285   3.263   4.621  15.567  3.4927 -2.8911  2.2019
 8883SOL    HW238286   3.408   4.642  15.516  0.2918 -1.0174  0.5588
 8884SOL     OW38287   2.894   3.341   5.837  0.5109 -0.4343 -0.5101
 8884SOL    HW138288   2.901   3.253   5.801  0.9925  0.2633 -2.1244
 8884SOL    HW238289   2.839   3.322   5.913 -1.7056  2.3082 -1.4572
 8885SOL     OW38290   1.229   4.220   2.778 -0.3210  0.1111  0.1759
 8885SOL    HW138291   1.282   4.273   2.838 -0.7392 -0.2611  0.8677
 8885SOL    HW238292   1.205   4.285   2.712 -0.2777 -0.0350  0.0172
 8886SOL     OW38293   0.425   3.335   7.557  0.2790  0.0636 -0.1808
 8886SOL    HW138294   0.503   3.390   7.558 -0.1784  0.6341  2.9336
 8886SOL    HW238295   0.409   3.346   7.650 -2.4134 -2.5700 -0.2898
 8887SOL     OW38296   0.006   3.233  14.444 -0.4737  0.0800  0.3943
 8887SOL    HW138297   4.692   3.177  14.496  0.4424 -1.4906 -0.2706
 8887SOL    HW238298   0.084   3.255  14.496  0.5590 -2.4089 -0.0892
 8888SOL     OW38299   1.875   3.413   3.373 -0.2030 -0.4475 -0.3162
 8888SOL    HW138300   1.856   3.427   3.465  0.7328  1.6534 -0.4349
 8888SOL    HW238301   1.838   3.494   3.337 -2.6887 -2.7235 -2.9147
 8889SOL     OW38302   0.083   0.074   8.392 -0.1786  0.0402  0.0702
 8889SOL    HW138303   0.011   0.136   8.394  0.8295  1.1725  1.0475
 8889SOL    HW238304   0.060   0.010   8.459 -0.9116  1.1540  0.8764
 8890SOL     OW38305   3.768   2.525   8.683 -0.4032 -0.0812  0.2682
 8890SOL    HW138306   3.745   2.594   8.620 -0.8180 -0.6696 -0.2331
 8890SOL    HW238307   3.772   2.448   8.627  0.6715  0.3114 -0.1853
 8891SOL     OW38308   1.603   0.699   5.593  0.7818 -0.2798  0.5144
 8891SOL    HW138309   1.599   0.793   5.606 -0.9415 -0.0828 -1.4635
 8891SOL    HW238310   1.577   0.668   5.680  0.9054 -1.4737  0.1310
 8892SOL     OW38311   1.874   2.303  16.571 -0.2788 -0.2617  0.1277
 8892SOL    HW138312   1.910   2.386  16.603 -1.4130  0.6585 -0.9927
 8892SOL    HW238313   1.936   2.242  16.612  1.1170  0.5261 -0.8119
 8893SOL     OW38314   4.421   1.104   4.956 -0.0059  0.1134 -0.0609
 8893SOL    HW138315   4.393   1.044   5.025  0.3284 -0.9156 -0.8281
 8893SOL    HW238316   4.514   1.079   4.958 -0.3383 -1.0265  1.0542
 8894SOL     OW38317   3.633   2.349   8.131 -0.5412 -0.3917  0.7250
 8894SOL    HW138318   3.660   2.421   8.075 -1.5866  1.1640  2.2150
 8894SOL    HW238319   3.594   2.290   8.067  1.9253 -0.6399 -0.5448
 8895SOL     OW38320   0.361   3.825   9.272  0.8346 -0.6875 -0.1814
 8895SOL    HW138321   0.377   3.819   9.366 -1.3201  1.6091  0.3349
 8895SOL    HW238322   0.363   3.734   9.243  1.0374 -0.8891  0.4653
 8896SOL     OW38323   1.175   2.102   9.713  0.2968  0.4715  0.3937
 8896SOL    HW138324   1.137   2.183   9.680 -0.5109 -0.0454  0.0521
 8896SOL    HW238325   1.104   2.069   9.768 -0.4310  0.1417 -0.7524
 8897SOL     OW38326   3.569   3.996   4.949 -0.6043 -0.0550  0.2870
 8897SOL    HW138327   3.539   4.072   4.899  1.6853 -1.7338 -3.6339
 8897SOL    HW238328   3.616   3.944   4.883  1.2288  0.7999  0.9402
 8898SOL     OW38329   1.069   0.662  15.386 -0.3659  0.7117 -0.1104
 8898SOL    HW138330   0.977   0.683  15.369  0.0016 -0.3381 -3.4608
 8898SOL    HW238331   1.077   0.567  15.379  1.1943  0.8768 -0.6146
 8899SOL     OW38332   0.039   1.512   1.081  0.0407  0.1664  0.3605
 8899SOL    HW138333   0.072   1.425   1.102 -1.6649 -0.8948 -1.3932
 8899SOL    HW238334   0.106   1.540   1.019 -1.7198  0.5780 -1.3540
 8900SOL     OW38335   1.496   3.717   8.123 -0.0430 -0.7345 -0.6690
 8900SOL    HW138336   1.466   3.666   8.199  0.1955  0.4517  0.2187
 8900SOL    HW238337   1.410   3.748   8.094 -1.0189 -1.0751  1.8352
 8901SOL     OW38338   0.604   3.390  11.228  0.2314  0.3321 -0.3020
 8901SOL    HW138339   0.648   3.335  11.293  0.6524  0.4118 -0.5206
 8901SOL    HW238340   0.596   3.467  11.283 -2.9692 -0.3797  0.2690
 8902SOL     OW38341   3.479   3.606   4.431 -0.9623 -0.3048  0.0081
 8902SOL    HW138342   3.564   3.568   4.451  0.0837  1.0084 -1.9635
 8902SOL    HW238343   3.469   3.681   4.489  0.6546 -0.3688  0.3538
 8903SOL     OW38344   2.549   2.873  12.332  0.0536 -0.0235 -0.6123
 8903SOL    HW138345   2.599   2.951  12.310 -1.3380  1.8802  3.0916
 8903SOL    HW238346   2.595   2.828  12.403 -1.4492 -0.1348  0.2971
 8904SOL     OW38347   2.300   1.468  13.803 -0.1219  0.5159  0.0984
 8904SOL    HW138348   2.207   1.491  13.802  0.2652  2.0964 -0.6733
 8904SOL    HW238349   2.315   1.447  13.895  3.8974  1.1095 -0.4268
 8905SOL     OW38350   2.014   2.965   8.132 -0.1839 -0.2850 -0.0725
 8905SOL    HW138351   2.013   2.975   8.227 -1.2656  0.4952 -0.1611
 8905SOL    HW238352   2.022   2.870   8.119 -0.4879 -0.2570 -0.4855
 8906SOL     OW38353   2.834   3.050   0.830 -0.2534  0.0330 -0.4792
 8906SOL    HW138354   2.899   3.057   0.900 -1.4654  1.4360  0.5193
 8906SOL    HW238355   2.762   3.009   0.877  1.5154 -0.9236  1.4029
 8907SOL     OW38356   0.195   1.209  14.748 -0.1061 -0.1139  0.4329
 8907SOL    HW138357   0.136   1.143  14.785 -0.0421  1.3080  3.0166
 8907SOL    HW238358   0.207   1.272  14.819  2.3191 -1.1744  0.9409
 8908SOL     OW38359   4.060   2.366   8.656 -0.5389 -0.0006  0.2034
 8908SOL    HW138360   4.033   2.402   8.571 -0.1826  0.6851  0.3830
 8908SOL    HW238361   4.114   2.295   8.621 -1.8394 -0.8667 -0.0778
 8909SOL     OW38362   3.610   2.150   2.783 -0.5155 -0.3582 -0.1445
 8909SOL    HW138363   3.539   2.200   2.743 -0.7907  0.4921  1.3981
 8909SOL    HW238364   3.566   2.081   2.831 -1.3292 -1.1338 -2.0203
 8910SOL     OW38365   2.346   2.312   4.994 -0.2193  0.0697 -0.2302
 8910SOL    HW138366   2.304   2.284   5.075  1.1893  2.1592  1.2398
 8910SOL    HW238367   2.271   2.300   4.935 -0.4932 -1.6805  0.5036
 8911SOL     OW38368   0.240   2.252   9.032 -0.2099 -0.0587  0.7535
 8911SOL    HW138369   0.151   2.268   9.062 -0.1036  2.0301  0.0142
 8911SOL    HW238370   0.239   2.308   8.953  0.0998 -1.3604 -0.1659
 8912SOL     OW38371   1.343   2.224   4.761 -0.1525 -0.0698 -0.9628
 8912SOL    HW138372   1.384   2.201   4.845 -0.3802 -1.2477 -1.1735
 8912SOL    HW238373   1.282   2.150   4.752  0.0083 -0.3878  0.5839
 8913SOL     OW38374   2.916   4.530   7.671  0.2133 -0.2412 -0.0314
 8913SOL    HW138375   2.936   4.482   7.752  1.9251  0.7908  0.1665
 8913SOL    HW238376   2.821   4.536   7.669  0.2308 -0.2861 -1.0334
 8914SOL     OW38377   2.947   4.681   8.084  0.4780 -0.7113 -0.5338
 8914SOL    HW138378   2.956   4.592   8.049 -1.2033 -0.6709 -1.1163
 8914SOL    HW238379   2.996   4.672   8.165  0.8836 -1.0927 -0.8217
 8915SOL     OW38380   2.146   0.010   1.393  0.0947 -0.2271  0.0157
 8915SOL    HW138381   2.182   0.083   1.442  0.4683  0.2258 -0.9369
 8915SOL    HW238382   2.086   0.058   1.336  0.1354 -0.5808 -0.3258
 8916SOL     OW38383   1.483   1.627  13.614  0.1436  0.2264  0.0189
 8916SOL    HW138384   1.433   1.703  13.586 -0.3288 -0.0652  0.0772
 8916SOL    HW238385   1.406   1.571  13.613  2.5093 -3.1326  2.9480
 8917SOL     OW38386   3.307   2.133  13.668 -0.0165  0.5302  0.3311
 8917SOL    HW138387   3.243   2.177  13.724 -2.2672 -1.7148 -0.5088
 8917SOL    HW238388   3.309   2.193  13.593  1.6313  2.7628  2.1677
 8918SOL     OW38389   2.117   0.157   5.188  0.7669 -0.4034  0.1164
 8918SOL    HW138390   2.110   0.166   5.283 -1.2717  0.5954 -0.1201
 8918SOL    HW238391   2.022   0.160   5.174  0.8043 -0.0135 -0.0587
 8919SOL     OW38392   3.840   3.995   3.015  0.2656  0.2712  0.1648
 8919SOL    HW138393   3.817   3.925   3.077  0.9338  0.7079  0.9020
 8919SOL    HW238394   3.815   4.078   3.054  1.0450  0.5617  0.0408
 8920SOL     OW38395   2.177   3.755   2.009 -0.2608 -0.1563 -0.7033
 8920SOL    HW138396   2.256   3.748   1.956  1.7770 -0.6599  2.3660
 8920SOL    HW238397   2.163   3.849   2.011 -3.4130 -0.6050 -1.4232
 8921SOL     OW38398   4.265   1.029   7.677  0.3908  0.7085  0.0090
 8921SOL    HW138399   4.322   1.096   7.640  1.0665 -0.2157 -0.6071
 8921SOL    HW238400   4.261   1.071   7.764  0.5648 -1.0647  0.8610
 8922SOL     OW38401   3.369   2.738   0.433  0.2293 -0.2048  0.5837
 8922SOL    HW138402   3.411   2.727   0.519 -1.6910 -1.2833  1.3653
 8922SOL    HW238403   3.392   2.829   0.414 -1.1702 -0.1789 -0.9495
 8923SOL     OW38404   4.069   2.717   9.458  0.0299  0.0703  0.0937
 8923SOL    HW138405   4.079   2.675   9.543 -0.8955 -0.9653 -0.2990
 8923SOL    HW238406   4.109   2.654   9.398  1.8463  1.9983 -0.7207
 8924SOL     OW38407   2.475   1.039   0.052 -0.3837  0.0993 -0.1961
 8924SOL    HW138408   2.488   0.966  17.765 -1.1642 -0.1259 -0.0862
 8924SOL    HW238409   2.496   0.994   0.134  0.4301 -1.2301 -1.1428
 8925SOL     OW38410   0.196   3.532  16.492 -0.0635 -0.4764 -0.3571
 8925SOL    HW138411   0.178   3.447  16.532  0.3423  0.1985  1.3052
 8925SOL    HW238412   0.149   3.515  16.411 -2.2952  0.4460  0.7254
 8926SOL     OW38413   0.979   1.380   3.531 -0.6467  0.5150  0.1757
 8926SOL    HW138414   1.001   1.290   3.508 -1.0843  0.2275  0.8759
 8926SOL    HW238415   1.029   1.406   3.608 -0.1746 -1.3078  0.4926
 8927SOL     OW38416   4.005   0.828   5.372 -0.1612 -0.2755 -0.3657
 8927SOL    HW138417   3.928   0.772   5.377  0.1623 -0.7366 -0.5403
 8927SOL    HW238418   4.075   0.771   5.404 -1.3115 -1.4204  0.1122
 8928SOL     OW38419   3.867   3.681   8.835 -0.4255 -0.8130 -0.4474
 8928SOL    HW138420   3.793   3.683   8.775 -0.5281  0.0122 -0.2936
 8928SOL    HW238421   3.830   3.624   8.902  2.1508 -1.4272  0.4394
 8929SOL     OW38422   0.402   3.530   4.836 -0.2179  0.1477 -0.3023
 8929SOL    HW138423   0.467   3.487   4.780  1.6883  1.5360  0.8561
 8929SOL    HW238424   0.370   3.464   4.897 -0.9169  0.6265 -0.1499
 8930SOL     OW38425   3.550   3.218   4.739  0.0924  0.2420  0.5943
 8930SOL    HW138426   3.612   3.291   4.737  1.3949 -0.8607  0.2660
 8930SOL    HW238427   3.495   3.258   4.671  0.3384 -1.7421 -0.7720
 8931SOL     OW38428   2.797   1.645   6.398 -0.1219  0.3002  0.2597
 8931SOL    HW138429   2.843   1.646   6.482 -0.3900  1.4252  0.3926
 8931SOL    HW238430   2.842   1.567   6.365  1.2673  0.6207  1.4083
 8932SOL     OW38431   2.363   2.050   9.452 -0.2504 -0.4856 -0.5711
 8932SOL    HW138432   2.354   1.992   9.376  0.0052 -0.1831 -0.8297
 8932SOL    HW238433   2.328   2.125   9.403  1.4233  0.4497 -0.3122
 8933SOL     OW38434   4.446   0.120   2.240 -0.1494 -0.3578  0.7771
 8933SOL    HW138435   4.462   0.089   2.151 -1.7576  0.5464  0.1695
 8933SOL    HW238436   4.442   0.215   2.226  0.5066 -0.2340  1.4666
 8934SOL     OW38437   3.056   1.156   1.510  0.0705 -0.1585  0.5569
 8934SOL    HW138438   2.979   1.211   1.522  0.3804  0.1373  1.2046
 8934SOL    HW238439   3.125   1.219   1.531  1.7657 -1.8425  0.0539
 8935SOL     OW38440   0.148   2.186  11.654  0.1015 -0.5252 -0.1288
 8935SOL    HW138441   0.173   2.233  11.733  0.2877  0.3891 -0.7205
 8935SOL    HW238442   0.228   2.136  11.637 -1.6835 -3.0474 -1.0341
 8936SOL     OW38443   4.251   1.814   0.064  0.0553 -0.4219  0.1447
 8936SOL    HW138444   4.235   1.872  17.761 -1.1144 -1.3177 -0.3024
 8936SOL    HW238445   4.218   1.863   0.139 -3.5839  0.4361 -2.0033
 8937SOL     OW38446   4.573   3.449   6.152 -0.1796  0.4853  0.3064
 8937SOL    HW138447   4.524   3.483   6.077  0.7864  4.8882  1.6822
 8937SOL    HW238448   4.635   3.522   6.152  0.0679  0.2738  0.8662
 8938SOL     OW38449   2.140   2.326  13.938 -0.2121 -0.3020  0.8218
 8938SOL    HW138450   2.136   2.422  13.944 -0.8301 -0.3197  0.7407
 8938SOL    HW238451   2.230   2.310  13.910 -0.3413  0.5800 -0.0906
 8939SOL     OW38452   0.006   4.167  11.170  0.3722 -0.2597  0.4281
 8939SOL    HW138453   0.086   4.216  11.186  0.7383 -0.1124 -1.8204
 8939SOL    HW238454   4.693   4.230  11.214  0.9645  0.4835  0.1250
 8940SOL     OW38455   1.555   4.616   1.628 -0.0076  0.3967  0.3682
 8940SOL    HW138456   1.526   4.525   1.620 -3.1244  1.2808  1.4364
 8940SOL    HW238457   1.612   4.625   1.552  0.2060  1.4557  0.6538
 8941SOL     OW38458   1.062   0.806   6.590 -0.4460 -0.4588  0.5168
 8941SOL    HW138459   1.139   0.853   6.620  1.1756 -2.1334 -1.0484
 8941SOL    HW238460   1.043   0.760   6.672  2.7144 -2.4626  0.1100
 8942SOL     OW38461   1.112   0.297   0.947 -0.0850 -0.1981 -1.0615
 8942SOL    HW138462   1.106   0.203   0.963 -0.9821  0.0144 -0.1694
 8942SOL    HW238463   1.204   0.314   0.927 -0.3527  0.2275 -1.9375
 8943SOL     OW38464   0.538   4.601   5.378  0.4289  0.6021  0.1878
 8943SOL    HW138465   0.443   4.594   5.373  0.3834  1.5665 -0.2303
 8943SOL    HW238466   0.550   4.554   5.460 -0.3855  2.2275  1.2341
 8944SOL     OW38467   2.845   3.055   4.841 -0.4618  0.2087 -0.4138
 8944SOL    HW138468   2.926   3.042   4.792  0.0014  2.2683 -0.1943
 8944SOL    HW238469   2.821   2.967   4.871 -2.0751  0.1190 -1.9359
 8945SOL     OW38470   0.092   2.714   5.873  0.1072  0.1942  0.3521
 8945SOL    HW138471   0.132   2.682   5.792 -0.7842  1.9397 -0.7765
 8945SOL    HW238472   0.123   2.650   5.937  1.5554  0.8255  0.2760
 8946SOL     OW38473   0.874   0.540   6.900 -0.2520 -0.2009  0.1598
 8946SOL    HW138474   0.815   0.530   6.975 -2.9032 -0.2212 -1.9534
 8946SOL    HW238475   0.858   0.632   6.884 -2.5726 -0.6085  0.2138
 8947SOL     OW38476   1.138   0.706   5.222  0.1726 -0.0775  0.1479
 8947SOL    HW138477   1.181   0.636   5.172  0.0976 -0.5386  0.7240
 8947SOL    HW238478   1.210   0.768   5.209  0.4819 -0.4169  0.2336
 8948SOL     OW38479   3.498   0.046  11.669  0.5784 -1.1495 -0.5708
 8948SOL    HW138480   3.464   4.735  11.740 -1.0055  1.6907  0.8809
 8948SOL    HW238481   3.592   0.055  11.684  0.5917 -1.6569 -0.3326
 8949SOL     OW38482   1.605   2.587   2.620  0.1343 -0.4053  0.7938
 8949SOL    HW138483   1.609   2.554   2.709  1.6100 -3.2023 -0.2990
 8949SOL    HW238484   1.697   2.610   2.606  0.2618 -1.0837  0.5173
 8950SOL     OW38485   4.382   2.321   2.628  0.4617  0.1993 -0.2176
 8950SOL    HW138486   4.366   2.391   2.565  0.7500 -2.0262 -2.7463
 8950SOL    HW238487   4.296   2.279   2.622  0.4295 -0.1425  2.4808
 8951SOL     OW38488   4.248   1.580  11.897 -0.6712 -0.0164  0.7525
 8951SOL    HW138489   4.238   1.569  11.802 -1.6793  0.9720  0.7457
 8951SOL    HW238490   4.204   1.663  11.914 -0.3546  0.5326 -1.1202
 8952SOL     OW38491   3.244   0.288   6.085 -0.4706  0.0947  0.0122
 8952SOL    HW138492   3.274   0.274   6.175 -1.5132 -0.5660  0.2660
 8952SOL    HW238493   3.171   0.346   6.108 -0.5726 -0.2745  0.6436
 8953SOL     OW38494   1.952   1.151   7.662 -0.4446 -0.1691 -0.0197
 8953SOL    HW138495   1.949   1.138   7.756 -0.3811  0.7689  0.1088
 8953SOL    HW238496   1.909   1.237   7.657  0.5191  0.4894  3.3307
 8954SOL     OW38497   1.069   1.851   7.404  0.7505  0.4958 -0.0777
 8954SOL    HW138498   0.991   1.796   7.415  1.9301 -1.5416 -2.0735
 8954SOL    HW238499   1.128   1.775   7.400 -1.8141 -1.6483  2.9575
 8955SOL     OW38500   3.083   2.727   4.619  0.1161 -0.0636  0.1716
 8955SOL    HW138501   3.065   2.812   4.660 -0.7709  0.4717 -1.3433
 8955SOL    HW238502   3.120   2.692   4.701 -1.7789  0.4691  1.2687
 8956SOL     OW38503   1.595   4.040  17.091  0.2086  0.2803 -0.0550
 8956SOL    HW138504   1.549   4.020  17.009 -1.6859  2.1571  0.5595
 8956SOL    HW238505   1.671   4.086  17.056  1.4003 -1.6352 -0.0045
 8957SOL     OW38506   3.721   3.011  12.966  0.0325 -0.2637  0.1561
 8957SOL    HW138507   3.716   2.918  12.944 -1.1115 -0.2147  0.1864
 8957SOL    HW238508   3.645   3.039  12.914  0.0243  1.3347  1.0404
 8958SOL     OW38509   0.371   4.354   6.785  0.2639 -0.1952 -0.3518
 8958SOL    HW138510   0.352   4.409   6.861 -0.6477 -0.4533 -0.3973
 8958SOL    HW238511   0.317   4.398   6.720 -2.1206 -0.0025  1.7436
 8959SOL     OW38512   3.188   2.290   1.757 -0.3156 -0.6608  0.4720
 8959SOL    HW138513   3.133   2.330   1.824 -0.1831  0.2199  0.0591
 8959SOL    HW238514   3.131   2.216   1.737 -1.1029  0.7168 -2.4173
 8960SOL     OW38515   2.466   3.178   9.225 -0.4514  0.2827  0.1720
 8960SOL    HW138516   2.469   3.115   9.297 -0.2927  0.2889  0.1705
 8960SOL    HW238517   2.532   3.247   9.234  1.2055 -1.5071  1.6814
 8961SOL     OW38518   1.380   3.557   4.462 -0.6424 -0.1516  0.0328
 8961SOL    HW138519   1.418   3.553   4.375 -1.0941  0.2220 -0.1812
 8961SOL    HW238520   1.294   3.597   4.448  0.3267  1.1080 -2.2206
 8962SOL     OW38521   1.495   4.198   2.048  0.4479  0.1882 -0.2462
 8962SOL    HW138522   1.478   4.288   2.076 -0.4820  0.8897 -3.0848
 8962SOL    HW238523   1.496   4.162   2.137  0.9314  0.1648 -0.2617
 8963SOL     OW38524   2.404   2.273   2.834 -0.6053  0.4466 -0.2487
 8963SOL    HW138525   2.445   2.263   2.748  2.7241  0.4634  1.3215
 8963SOL    HW238526   2.401   2.368   2.831  0.8773  0.4712 -1.0015
 8964SOL     OW38527   4.007   4.331   4.063  0.3634 -0.1237 -0.6591
 8964SOL    HW138528   4.021   4.364   4.152 -1.5116 -0.0918 -0.3644
 8964SOL    HW238529   3.924   4.285   4.076  0.3752  0.4164  1.2854
 8965SOL     OW38530   1.562   3.445   7.817  0.0117  0.4184  0.2655
 8965SOL    HW138531   1.477   3.402   7.825 -0.6275  1.4230 -1.1663
 8965SOL    HW238532   1.616   3.378   7.860 -0.4284 -0.3990 -0.4552
 8966SOL     OW38533   1.453   2.868   4.815 -0.2099 -0.3318  0.1191
 8966SOL    HW138534   1.364   2.855   4.848  0.9841 -1.2899  2.9707
 8966SOL    HW238535   1.452   2.821   4.732 -1.1949 -1.4517  0.7624
 8967SOL     OW38536   0.909   1.720  11.498  0.0835 -0.2912 -0.4938
 8967SOL    HW138537   0.959   1.752  11.422 -1.1992 -0.4787 -1.4167
 8967SOL    HW238538   0.865   1.798  11.533  3.0181  0.2805  1.9004
 8968SOL     OW38539   1.902   0.808  15.818  0.0462  0.0912 -0.2149
 8968SOL    HW138540   1.834   0.868  15.787  0.0174  0.0070 -0.3169
 8968SOL    HW238541   1.837   0.740  15.839 -0.5790  0.3779 -1.2340
 8969SOL     OW38542   4.131   2.795   8.662 -0.1717  0.0545 -0.1668
 8969SOL    HW138543   4.080   2.730   8.710  1.4119 -0.9144  0.2166
 8969SOL    HW238544   4.110   2.870   8.718  0.2005 -0.1849  0.2941
 8970SOL     OW38545   2.985   2.471   1.020  0.2559  0.0356 -0.4719
 8970SOL    HW138546   3.050   2.479   1.089 -0.9209  1.2476  0.4830
 8970SOL    HW238547   3.032   2.513   0.948  0.6799 -2.2808 -1.5568
 8971SOL     OW38548   0.032   0.880   7.191  0.1227  0.5112  0.0280
 8971SOL    HW138549   0.051   0.922   7.107  2.3699 -0.4167  0.0776
 8971SOL    HW238550   0.027   0.954   7.251  1.9449 -0.3265  1.2008
 8972SOL     OW38551   0.263   3.204   6.046  0.2568 -0.0333  0.5288
 8972SOL    HW138552   0.227   3.126   6.089 -0.1354 -0.2539 -0.1857
 8972SOL    HW238553   0.254   3.175   5.955  0.2506  2.2194 -0.1751
 8973SOL     OW38554   3.658   0.114   6.885  0.2970  0.4969  0.2492
 8973SOL    HW138555   3.638   0.197   6.843  0.6070  0.3680 -0.1540
 8973SOL    HW238556   3.570   0.078   6.893  0.7733 -0.9262 -0.8818
 8974SOL     OW38557   1.625   1.239   7.927  0.5314 -0.2526 -0.5977
 8974SOL    HW138558   1.640   1.147   7.905 -1.8367 -0.4935 -1.2013
 8974SOL    HW238559   1.663   1.245   8.015 -0.4521 -2.1797 -0.0410
 8975SOL     OW38560   2.759   3.388  15.139 -0.5094  0.9815  0.2690
 8975SOL    HW138561   2.761   3.482  15.157 -1.9540  0.9928  0.3871
 8975SOL    HW238562   2.759   3.382  15.043  0.1116 -1.3659  0.4030
 8976SOL     OW38563   2.880   3.766   2.871 -0.4004  0.1925  0.0044
 8976SOL    HW138564   2.822   3.734   2.941  1.5723  0.3231  1.6917
 8976SOL    HW238565   2.964   3.728   2.897 -0.4751  0.8129  1.1720
 8977SOL     OW38566   2.235   2.214   5.357 -0.8264 -0.5238  0.6116
 8977SOL    HW138567   2.160   2.197   5.301 -0.3814 -2.6682  0.6805
 8977SOL    HW238568   2.184   2.248   5.431 -0.6167 -1.1734  1.0486
 8978SOL     OW38569   1.061   3.196  10.530  0.2572  0.2284  0.5379
 8978SOL    HW138570   1.143   3.241  10.512  0.6731 -0.2488  1.2490
 8978SOL    HW238571   0.997   3.235  10.470  1.9260  2.6734  0.3379
 8979SOL     OW38572   1.301   0.689   2.186 -0.1380 -0.3590 -0.3092
 8979SOL    HW138573   1.259   0.618   2.235 -0.7561  0.1114 -0.1405
 8979SOL    HW238574   1.329   0.632   2.115  0.4765 -1.3917  0.7613
 8980SOL     OW38575   0.837   0.463   4.122 -0.3276 -0.5025 -0.1894
 8980SOL    HW138576   0.876   0.479   4.037 -1.7290  0.0165 -0.7379
 8980SOL    HW238577   0.746   0.484   4.101 -0.1106  1.8465  1.2009
 8981SOL     OW38578   4.650   0.635   8.124 -0.0469 -0.2628 -0.2418
 8981SOL    HW138579   4.671   0.714   8.074 -0.9235 -1.0689 -1.8946
 8981SOL    HW238580   4.672   0.573   8.055  0.9903 -0.0282 -0.1220
 8982SOL     OW38581   4.212   2.301   1.902 -0.2592  0.2917  0.9007
 8982SOL    HW138582   4.307   2.314   1.900 -0.1940 -0.3037 -0.0457
 8982SOL    HW238583   4.187   2.324   1.813  0.3683 -0.5797  0.4940
 8983SOL     OW38584   2.416   4.130   9.031  0.8333  0.4641  0.2449
 8983SOL    HW138585   2.504   4.157   9.004 -0.1239  3.0860 -0.2500
 8983SOL    HW238586   2.362   4.190   8.980  1.4782 -1.1000 -2.2545
 8984SOL     OW38587   4.616   1.053   2.641  0.0217 -0.4012  0.1524
 8984SOL    HW138588   4.581   0.981   2.693 -1.4589  0.4678  0.3621
 8984SOL    HW238589   4.674   1.086   2.710  1.7599 -1.0233 -0.9950
 8985SOL     OW38590   1.754   1.665   5.243  0.4775  0.5956  0.4592
 8985SOL    HW138591   1.699   1.736   5.276  0.5369 -1.2360  4.4587
 8985SOL    HW238592   1.818   1.648   5.312  1.0406  1.6487  0.2040
 8986SOL     OW38593   2.487   1.298   2.319  0.0400  0.1058  0.1341
 8986SOL    HW138594   2.412   1.278   2.263  0.5597  1.3049 -0.9830
 8986SOL    HW238595   2.439   1.317   2.400 -2.4708  0.8478 -1.5173
 8987SOL     OW38596   4.181   1.344   6.363 -0.0405 -0.3409 -0.2087
 8987SOL    HW138597   4.181   1.430   6.406  2.1162 -0.4905  0.0788
 8987SOL    HW238598   4.248   1.353   6.296 -0.1440  3.2545  0.1568
 8988SOL     OW38599   3.493   1.560  10.246  0.1718  0.1128 -0.1717
 8988SOL    HW138600   3.547   1.568  10.167  3.8037 -1.8636  2.1138
 8988SOL    HW238601   3.499   1.467  10.269  0.6303 -0.1925 -1.5336
 8989SOL     OW38602   3.084   0.608   4.058 -0.1154 -0.0445 -1.0344
 8989SOL    HW138603   3.106   0.516   4.075 -0.3357 -0.1855 -1.4845
 8989SOL    HW238604   3.130   0.657   4.126  0.2036 -0.7451 -0.7445
 8990SOL     OW38605   2.960   0.565   8.804  0.3897 -0.1957  0.3389
 8990SOL    HW138606   2.907   0.553   8.725 -0.0300  3.3584  0.0689
 8990SOL    HW238607   2.932   0.656   8.816  2.3338  0.5857 -0.8825
 8991SOL     OW38608   0.596   1.505   7.934  0.4791  0.2114  0.4199
 8991SOL    HW138609   0.559   1.424   7.967 -0.4006  0.2071 -0.5574
 8991SOL    HW238610   0.689   1.491   7.951  0.3468 -1.1866  0.0050
 8992SOL     OW38611   3.615   2.853  12.162  0.2033 -0.2425 -0.0430
 8992SOL    HW138612   3.667   2.804  12.099  0.5636  0.3041 -0.1761
 8992SOL    HW238613   3.642   2.801  12.238 -1.7281 -1.3701 -0.1392
 8993SOL     OW38614   3.033   3.534  11.588 -0.2261 -0.0571 -0.3201
 8993SOL    HW138615   3.102   3.597  11.608 -0.2832  0.2238 -1.0418
 8993SOL    HW238616   3.036   3.527  11.493  2.9943  1.3268 -0.3227
 8994SOL     OW38617   3.201   4.089   3.891 -0.2768  0.3986  0.2687
 8994SOL    HW138618   3.277   4.034   3.870 -0.6679 -0.2756  0.6360
 8994SOL    HW238619   3.241   4.151   3.952  0.0997  1.3197 -0.9036
 8995SOL     OW38620   2.832   1.962   4.385  0.6408  0.8869  0.2855
 8995SOL    HW138621   2.895   1.959   4.457 -1.2499  0.7895  1.9323
 8995SOL    HW238622   2.875   2.021   4.323  0.9073  1.2945  0.8497
 8996SOL     OW38623   0.980   3.293   2.038 -0.9421 -0.1477 -0.2568
 8996SOL    HW138624   0.916   3.308   1.968  0.6508  2.7949 -1.0976
 8996SOL    HW238625   0.948   3.349   2.109 -0.7716 -0.6983  0.2515
 8997SOL     OW38626   3.289   4.713   8.010 -0.0498 -0.3161 -0.4478
 8997SOL    HW138627   3.314   0.061   8.014  2.7045 -1.0651 -0.2931
 8997SOL    HW238628   3.278   4.701   7.916 -0.8139 -1.0878 -0.2519
 8998SOL     OW38629   3.523   2.027   1.264  0.2495  0.2442  0.3675
 8998SOL    HW138630   3.588   2.008   1.332  1.1661  1.5770 -0.1353
 8998SOL    HW238631   3.453   2.058   1.321 -1.2312  0.1780 -1.4120
 8999SOL     OW38632   0.349   2.700   3.794 -0.3076 -0.1886 -0.6930
 8999SOL    HW138633   0.316   2.778   3.838 -1.1101  0.8266 -3.0589
 8999SOL    HW238634   0.273   2.682   3.739 -0.2121 -2.4440 -0.0554
 9000SOL     OW38635   4.326   0.984   8.894 -0.6763 -0.0181 -0.3617
 9000SOL    HW138636   4.259   0.933   8.940  1.7414 -1.0930  1.9551
 9000SOL    HW238637   4.404   0.929   8.892  0.2968  1.5769 -5.2526
 9001SOL     OW38638   3.409   0.767   1.574 -0.2513 -0.4240 -0.7533
 9001SOL    HW138639   3.398   0.708   1.649 -0.8402  0.7351  0.0639
 9001SOL    HW238640   3.353   0.840   1.600 -1.6857 -0.9797 -2.3188
 9002SOL     OW38641   2.298   0.524   8.460  0.0215  0.0279 -0.0062
 9002SOL    HW138642   2.241   0.575   8.402  0.9333  0.3390 -0.6351
 9002SOL    HW238643   2.373   0.567   8.419  0.4616 -0.8892 -0.1558
 9003SOL     OW38644   2.608   2.677   8.855 -0.1111 -0.1145  0.2029
 9003SOL    HW138645   2.681   2.621   8.880 -2.2555 -2.2940  1.6386
 9003SOL    HW238646   2.562   2.612   8.801  1.0135 -0.0201 -0.8838
 9004SOL     OW38647   4.186   4.612   2.311 -0.4927  0.4204  0.2921
 9004SOL    HW138648   4.128   4.648   2.244  0.7748 -0.9931 -1.5587
 9004SOL    HW238649   4.240   4.688   2.333  1.4530 -0.3248 -1.8882
 9005SOL     OW38650   2.768   0.572   4.832 -0.5082  0.2815 -0.6658
 9005SOL    HW138651   2.761   0.568   4.928  0.6893 -0.5106 -0.6100
 9005SOL    HW238652   2.850   0.523   4.832 -0.4765  0.3426 -1.3239
 9006SOL     OW38653   3.500   0.627   0.317  0.0790 -0.9920  0.5431
 9006SOL    HW138654   3.454   0.603   0.398 -2.4895 -0.1087 -0.6604
 9006SOL    HW238655   3.532   0.542   0.288 -0.2522  0.3893 -3.8227
 9007SOL     OW38656   2.326   2.733   2.555  0.0278 -0.5403  0.0664
 9007SOL    HW138657   2.252   2.692   2.510 -0.3278  2.9045 -2.4771
 9007SOL    HW238658   2.392   2.665   2.541 -1.6985 -2.3634  0.5624
 9008SOL     OW38659   3.595   2.401  15.004 -0.1110  0.4040 -0.7828
 9008SOL    HW138660   3.666   2.457  14.975  0.4620 -0.0749 -0.2978
 9008SOL    HW238661   3.518   2.458  14.997 -1.0882 -0.5613  1.8662
 9009SOL     OW38662   2.734   3.841   4.743 -0.1150 -0.6171  0.4860
 9009SOL    HW138663   2.677   3.897   4.795 -1.6316 -1.5765 -0.1335
 9009SOL    HW238664   2.677   3.774   4.705 -0.6724  1.1614 -1.8532
 9010SOL     OW38665   0.880   2.631  10.972  0.0591  0.7631 -0.5914
 9010SOL    HW138666   0.869   2.539  10.996 -0.0208  0.9852  0.2159
 9010SOL    HW238667   0.846   2.677  11.049 -0.1281 -0.3993  0.0077
 9011SOL     OW38668   1.445   4.289   0.270 -0.5913 -0.2424 -0.4462
 9011SOL    HW138669   1.511   4.350   0.237  0.1292  0.2763  1.9237
 9011SOL    HW238670   1.474   4.215   0.217  1.2010 -0.1548  0.4170
 9012SOL     OW38671   4.272   3.602   3.279 -0.3183 -0.1276  0.6937
 9012SOL    HW138672   4.324   3.612   3.200  0.0726 -0.5878  0.8872
 9012SOL    HW238673   4.333   3.589   3.351 -1.7140 -0.6393  1.7938
 9013SOL     OW38674   0.783   1.170   6.825  0.1760  0.3164  0.1045
 9013SOL    HW138675   0.839   1.106   6.782  0.3650  1.3935 -1.2835
 9013SOL    HW238676   0.787   1.144   6.916  0.7052  1.2026  0.3290
 9014SOL     OW38677   1.646   3.157  14.616  0.5198  0.1704 -0.1558
 9014SOL    HW138678   1.604   3.073  14.632  0.6958 -0.0168 -0.6864
 9014SOL    HW238679   1.600   3.219  14.672 -1.2731 -0.4925 -0.9007
 9015SOL     OW38680   3.209   4.112   3.521  0.6069  0.0429  0.7329
 9015SOL    HW138681   3.162   4.050   3.576 -1.2249 -0.1624 -1.0390
 9015SOL    HW238682   3.260   4.054   3.463  0.1449  0.3898 -0.0178
 9016SOL     OW38683   1.341   0.818   8.554 -0.4661  0.2503  0.3704
 9016SOL    HW138684   1.410   0.767   8.596 -0.1367  1.2263  1.0313
 9016SOL    HW238685   1.377   0.907   8.554  2.8748 -1.0823  2.5365
 9017SOL     OW38686   2.517   3.728   7.821  0.0731  0.5160 -0.2986
 9017SOL    HW138687   2.538   3.654   7.764  0.5977  1.7853 -1.7365
 9017SOL    HW238688   2.441   3.693   7.867 -0.2171  4.0727  1.8867
 9018SOL     OW38689   2.159   1.889   5.429 -0.1636  0.0319  0.0511
 9018SOL    HW138690   2.142   1.801   5.397 -3.4553  0.2318  1.2582
 9018SOL    HW238691   2.077   1.937   5.440  1.7565  3.6650 -1.2051
 9019SOL     OW38692   4.731   3.419   8.351  0.1063  0.2387 -0.4154
 9019SOL    HW138693   0.016   3.498   8.396 -1.4590 -0.2088  1.3668
 9019SOL    HW238694   4.705   3.455   8.266  1.1811  3.3708  0.5812
 9020SOL     OW38695   2.531   1.435   4.668 -0.0784  0.6001 -0.0230
 9020SOL    HW138696   2.522   1.392   4.753  3.2602 -0.5165 -0.2402
 9020SOL    HW238697   2.587   1.506   4.699  2.2441 -1.6579  0.8868
 9021SOL     OW38698   2.455   1.736  16.563  0.4573 -0.3118  0.2097
 9021SOL    HW138699   2.456   1.792  16.641  1.9909 -1.8527  1.2985
 9021SOL    HW238700   2.441   1.793  16.488  3.3010  2.4377  1.7386
 9022SOL     OW38701   0.732   1.760   8.455 -0.0534  0.1621 -0.6781
 9022SOL    HW138702   0.792   1.687   8.472  0.0478  0.2863 -0.5063
 9022SOL    HW238703   0.798   1.819   8.419 -0.7781  1.1915 -0.3109
 9023SOL     OW38704   2.358   1.261   6.957  0.8256  0.1287  0.5268
 9023SOL    HW138705   2.407   1.180   6.946  1.3177  0.2094  2.1473
 9023SOL    HW238706   2.270   1.229   6.935  0.6059  1.2052 -0.1682
 9024SOL     OW38707   4.288   3.260   8.583 -0.0391 -0.0937  0.2642
 9024SOL    HW138708   4.263   3.187   8.527 -0.2683 -2.3793  3.3391
 9024SOL    HW238709   4.371   3.270   8.537 -0.2863 -1.2988 -0.4267
 9025SOL     OW38710   0.875   4.480   4.196  0.0884  0.1694  0.4298
 9025SOL    HW138711   0.951   4.510   4.146 -0.8137 -1.6054 -2.0558
 9025SOL    HW238712   0.808   4.498   4.129  0.2216 -0.2253  0.1840
 9026SOL     OW38713   1.329   4.343  17.762  0.4404  0.8970  0.2309
 9026SOL    HW138714   1.282   4.303   0.063  0.6695 -0.5342 -0.4041
 9026SOL    HW238715   1.306   4.435  17.765 -1.6668  0.3150  2.4390
 9027SOL     OW38716   2.341   1.619   5.212 -0.3100 -0.7896 -0.1209
 9027SOL    HW138717   2.351   1.714   5.214  0.5346 -0.8075 -3.2791
 9027SOL    HW238718   2.389   1.597   5.292  0.0418  0.9898  0.1601
 9028SOL     OW38719   2.833   4.708  16.475 -0.0668  0.2122  0.8836
 9028SOL    HW138720   2.823   0.024  16.550 -2.4016  1.4166 -0.3961
 9028SOL    HW238721   2.892   4.638  16.503 -0.7866 -1.4828 -1.8828
 9029SOL     OW38722   1.319   3.219   9.250 -0.2360 -0.2603  0.5400
 9029SOL    HW138723   1.361   3.212   9.164 -0.6089 -0.3104  0.3623
 9029SOL    HW238724   1.227   3.225   9.225 -0.3543 -1.2843  0.7368
 9030SOL     OW38725   3.936   1.436  17.185  0.1809  0.1398 -0.5578
 9030SOL    HW138726   3.916   1.343  17.173 -2.1592  0.6793 -0.7294
 9030SOL    HW238727   3.876   1.478  17.124 -1.7474 -0.5591  0.8625
 9031SOL     OW38728   1.329   4.481  12.166  0.0652  0.4678  0.6123
 9031SOL    HW138729   1.410   4.482  12.216  2.1342  2.9294 -2.8558
 9031SOL    HW238730   1.347   4.428  12.089  1.3635  1.5635  0.1639
 9032SOL     OW38731   2.304   2.950  12.332 -0.2484  0.3113 -0.1672
 9032SOL    HW138732   2.287   2.957  12.426 -0.4810 -0.6504 -0.1421
 9032SOL    HW238733   2.397   2.929  12.343 -0.0922  0.2511 -1.6061
 9033SOL     OW38734   2.300   4.588  11.210 -0.1640 -0.1255  0.4356
 9033SOL    HW138735   2.275   4.495  11.217  1.0154 -0.3700  1.3231
 9033SOL    HW238736   2.387   4.593  11.170 -0.2724 -0.2029  0.1831
 9034SOL     OW38737   2.664   0.450   1.297  0.1329 -0.3504  0.0134
 9034SOL    HW138738   2.662   0.453   1.202 -0.7568 -0.4445  0.0255
 9034SOL    HW238739   2.757   0.434   1.313  0.8091  3.0436 -0.4991
 9035SOL     OW38740   1.748   2.755   7.692 -0.4019  0.1319  0.0958
 9035SOL    HW138741   1.800   2.675   7.696 -0.4850  0.2337  2.9982
 9035SOL    HW238742   1.812   2.818   7.658  0.6456 -2.1093 -2.0615
 9036SOL     OW38743   2.136   0.572   6.881  0.3563 -0.0958 -0.0134
 9036SOL    HW138744   2.135   0.645   6.820  0.9016  0.9886  1.2880
 9036SOL    HW238745   2.191   0.514   6.829 -0.7810  0.7127 -2.0951
 9037SOL     OW38746   2.047   3.867   6.752  0.6038 -0.6916 -0.2502
 9037SOL    HW138747   1.999   3.914   6.684 -0.8053 -0.3710  0.9389
 9037SOL    HW238748   2.011   3.905   6.833  2.7597 -0.3426  0.5486
 9038SOL     OW38749   0.882   4.585   1.842 -0.2090 -0.2003 -0.3483
 9038SOL    HW138750   0.960   4.576   1.788  0.9030 -1.9274  1.5253
 9038SOL    HW238751   0.815   4.550   1.783  1.3073  0.2206 -2.3136
 9039SOL     OW38752   3.515   4.196   9.818 -0.0125  0.5891 -0.1552
 9039SOL    HW138753   3.489   4.139   9.745  0.2204  1.8441 -1.2274
 9039SOL    HW238754   3.573   4.131   9.856  0.0604  0.4957 -0.4254
 9040SOL     OW38755   0.307   3.330  15.446 -0.7172  0.3173 -0.3334
 9040SOL    HW138756   0.391   3.363  15.413  0.5967  0.4561  3.1520
 9040SOL    HW238757   0.244   3.368  15.386 -0.5433 -0.3391 -0.9318
 9041SOL     OW38758   4.257   3.359   3.961  0.4006  0.1677 -0.7326
 9041SOL    HW138759   4.299   3.364   4.047  1.6196 -0.5737 -1.2848
 9041SOL    HW238760   4.191   3.427   3.973 -0.7958 -1.5178  2.2475
 9042SOL     OW38761   2.076   3.231  10.969  0.1319 -0.1508  0.3623
 9042SOL    HW138762   2.122   3.148  10.951  0.8709  0.2807  0.2627
 9042SOL    HW238763   1.991   3.197  10.941 -0.1802  0.6178  0.4015
 9043SOL     OW38764   3.236   1.498   8.164  0.7639  0.2260 -0.3237
 9043SOL    HW138765   3.220   1.475   8.072 -0.6229 -1.5787  0.3580
 9043SOL    HW238766   3.269   1.416   8.200  0.9785  0.7323  0.6232
 9044SOL     OW38767   0.985   1.997   8.659 -0.1386 -0.3832 -0.4049
 9044SOL    HW138768   0.954   2.037   8.739  0.4192  0.5369 -0.6498
 9044SOL    HW238769   1.015   1.911   8.689  1.5562  0.2845 -0.1866
 9045SOL     OW38770   0.955   3.531   6.783  0.5209  0.3820  0.7747
 9045SOL    HW138771   0.932   3.615   6.742  0.0545 -0.0139  0.2183
 9045SOL    HW238772   1.012   3.561   6.853 -0.6429 -0.3776  2.0546
 9046SOL     OW38773   3.531   4.337   5.308 -0.5250  0.1597 -0.2331
 9046SOL    HW138774   3.493   4.417   5.272  0.4942  0.7508 -0.0039
 9046SOL    HW238775   3.614   4.375   5.335 -0.8442  1.1452 -0.6417
 9047SOL     OW38776   0.549   0.374   8.934 -0.1683 -0.3819  0.2890
 9047SOL    HW138777   0.571   0.304   8.873 -1.7027 -0.3820 -0.2598
 9047SOL    HW238778   0.521   0.441   8.872  1.1916 -1.3973 -1.3786
 9048SOL     OW38779   2.021   2.502   4.675 -0.3660 -0.3081 -0.2567
 9048SOL    HW138780   1.927   2.481   4.675 -0.5491  0.5030  3.2883
 9048SOL    HW238781   2.048   2.449   4.600  2.2100  2.2471 -1.1080
 9049SOL     OW38782   0.197   3.295   2.845  0.2530 -0.3721  0.3936
 9049SOL    HW138783   0.238   3.253   2.769  1.1418  2.6324 -0.7837
 9049SOL    HW238784   0.131   3.355   2.812  0.3680 -0.4352  0.0556
 9050SOL     OW38785   0.853   3.171   4.656  0.0181  0.2651 -0.8178
 9050SOL    HW138786   0.885   3.082   4.669 -0.6639  0.5768  2.9620
 9050SOL    HW238787   0.757   3.165   4.660  0.0175  0.6066 -0.3344
 9051SOL     OW38788   4.618   2.295   4.878 -0.1769 -0.4189  0.5260
 9051SOL    HW138789   4.654   2.376   4.915  0.4153 -1.0082  1.2175
 9051SOL    HW238790   4.555   2.338   4.820 -1.4961 -0.8344  1.6573
 9052SOL     OW38791   0.750   0.146   8.073  0.0013 -0.4213 -0.2143
 9052SOL    HW138792   0.845   0.145   8.078  0.0668  0.2350 -1.3284
 9052SOL    HW238793   0.714   0.220   8.122  1.9344 -1.0503  2.1280
 9053SOL     OW38794   0.108   1.971   2.448  0.3202 -0.1710  0.2670
 9053SOL    HW138795   0.021   2.009   2.464  0.1439 -0.3818 -0.1971
 9053SOL    HW238796   0.145   1.978   2.536  2.0011 -2.6639 -0.2595
 9054SOL     OW38797   1.194   1.141   1.964  0.7733 -0.3376 -0.3603
 9054SOL    HW138798   1.214   1.226   2.003 -1.5362 -0.6475  1.4962
 9054SOL    HW238799   1.099   1.133   1.958  0.9300 -1.2817 -1.4030
 9055SOL     OW38800   3.326   3.242   0.903  0.1854  0.7062  0.0550
 9055SOL    HW138801   3.259   3.305   0.927 -0.8200  0.1233 -1.2007
 9055SOL    HW238802   3.363   3.286   0.826  1.8182  0.1819  0.5284
 9056SOL     OW38803   3.678   1.853   1.403  0.2862 -0.1605 -0.3775
 9056SOL    HW138804   3.715   1.868   1.316  1.4537  0.6355  0.2711
 9056SOL    HW238805   3.758   1.849   1.456 -0.1371 -0.5054  0.2373
 9057SOL     OW38806   3.891   4.608  10.983  0.1525 -0.0814  0.2412
 9057SOL    HW138807   3.977   4.565  10.984  0.0263 -0.3602 -0.8834
 9057SOL    HW238808   3.876   4.608  10.888 -0.3477  2.0769  0.3234
 9058SOL     OW38809   2.592   1.434  11.372  0.7408 -0.0751  0.4029
 9058SOL    HW138810   2.559   1.362  11.318 -1.9534  0.6267  1.1102
 9058SOL    HW238811   2.627   1.382  11.444 -0.0929 -0.8883  0.2203
 9059SOL     OW38812   3.638   4.380  10.302 -0.1072  0.3167  0.1527
 9059SOL    HW138813   3.731   4.357  10.301  0.4849  2.6719  1.2493
 9059SOL    HW238814   3.622   4.440  10.230 -1.2752  0.6726  0.7096
 9060SOL     OW38815   1.061   3.724   3.103 -0.5237  0.3592  0.2295
 9060SOL    HW138816   1.000   3.719   3.177  1.6414  0.6658  2.0454
 9060SOL    HW238817   1.018   3.655   3.052 -0.9608 -0.9182  2.3297
 9061SOL     OW38818   1.234   1.077   7.266 -0.4548  0.5548  0.0093
 9061SOL    HW138819   1.273   1.157   7.232 -0.7642  0.5626 -0.3268
 9061SOL    HW238820   1.182   1.048   7.191 -0.8298  1.3831 -0.0512
 9062SOL     OW38821   4.147   4.520  16.091 -0.1130 -0.5255 -0.0238
 9062SOL    HW138822   4.229   4.500  16.134  1.3003  0.1417 -2.4015
 9062SOL    HW238823   4.098   4.440  16.111  1.4940 -0.8269  2.6395
 9063SOL     OW38824   4.240   2.043   5.097  0.2764  0.1532  0.0719
 9063SOL    HW138825   4.299   2.010   5.165  1.2963  0.2719 -0.7625
 9063SOL    HW238826   4.217   2.129   5.132  2.9495  1.3085 -1.0190
 9064SOL     OW38827   2.865   3.879   4.230 -0.1956 -0.8550 -0.1376
 9064SOL    HW138828   2.880   3.831   4.312 -0.7066  2.9470  2.1582
 9064SOL    HW238829   2.814   3.812   4.184  0.2631  0.1766 -2.1615
 9065SOL     OW38830   3.762   2.561   7.980 -0.3238  1.1574 -0.6198
 9065SOL    HW138831   3.698   2.616   7.935 -0.5455  0.8706 -0.6611
 9065SOL    HW238832   3.843   2.580   7.933  1.0225 -0.8494  0.8973
 9066SOL     OW38833   0.282   2.631   8.543 -0.2965 -0.1698  0.0073
 9066SOL    HW138834   0.367   2.595   8.518 -0.8396 -0.6929 -1.0799
 9066SOL    HW238835   0.265   2.698   8.476  0.6550 -0.7262 -0.7975
 9067SOL     OW38836   2.865   4.077   0.478 -0.4439 -0.0565 -0.1507
 9067SOL    HW138837   2.798   4.019   0.515  0.2562 -0.2344  0.8341
 9067SOL    HW238838   2.911   4.016   0.419  1.0753  0.7705  0.1708
 9068SOL     OW38839   4.549   3.223  15.066  0.9279  0.0329  0.1013
 9068SOL    HW138840   4.581   3.169  14.993 -0.4854 -0.2753 -0.2911
 9068SOL    HW238841   4.632   3.223  15.114  1.1947 -1.0597 -0.3647
 9069SOL     OW38842   3.755   3.681   8.587  0.3490 -0.5061 -0.6165
 9069SOL    HW138843   3.661   3.661   8.581  0.5870 -2.8075  3.2077
 9069SOL    HW238844   3.782   3.607   8.535 -0.8100 -0.8224 -0.7748
 9070SOL     OW38845   2.275   4.339   8.926  0.0240 -0.5431  0.2141
 9070SOL    HW138846   2.185   4.327   8.896  0.0176 -0.1438  0.0791
 9070SOL    HW238847   2.323   4.332   8.844  0.4439  0.2189  0.3984
 9071SOL     OW38848   3.525   0.889   3.042 -0.4438 -0.0226 -0.4159
 9071SOL    HW138849   3.586   0.912   3.112  1.3763 -1.0611 -1.6371
 9071SOL    HW238850   3.562   0.802   3.025 -0.9503 -1.0921  4.0537
 9072SOL     OW38851   3.773   0.601   4.105 -0.3523  0.2148  0.2036
 9072SOL    HW138852   3.800   0.692   4.115 -1.4367  0.5742 -0.1621
 9072SOL    HW238853   3.681   0.616   4.080 -0.3316  0.4421  0.2663
 9073SOL     OW38854   0.792   4.737   4.390 -1.0554 -0.3672  0.0844
 9073SOL    HW138855   0.747   4.699   4.314 -0.0141  1.1239 -1.2943
 9073SOL    HW238856   0.771   0.086   4.377  0.4628 -0.1314 -0.7325
 9074SOL     OW38857   3.163   3.232   5.286 -0.2755 -0.7361  0.0296
 9074SOL    HW138858   3.226   3.188   5.343  0.4225  1.0918  0.6531
 9074SOL    HW238859   3.111   3.155   5.261 -1.4056 -0.6774  2.1923
 9075SOL     OW38860   2.880   2.200   6.262  0.2042 -0.5520 -0.1642
 9075SOL    HW138861   2.822   2.124   6.263  1.1442 -1.2695  1.9714
 9075SOL    HW238862   2.961   2.157   6.291 -0.1680 -0.8627  0.4006
 9076SOL     OW38863   4.442   0.577  14.667 -0.3466 -0.7490  0.3355
 9076SOL    HW138864   4.493   0.511  14.622 -1.1201 -0.5628 -0.8156
 9076SOL    HW238865   4.354   0.562  14.634 -0.0643  1.6185 -1.4945
 9077SOL     OW38866   1.962   1.829   6.862  0.3787  0.3860 -0.1733
 9077SOL    HW138867   1.966   1.909   6.915 -1.3207  1.2100 -1.2840
 9077SOL    HW238868   1.871   1.800   6.875  0.2034  1.9000  1.9609
 9078SOL     OW38869   1.454   2.269  13.896  0.0891  0.0490  0.9891
 9078SOL    HW138870   1.383   2.322  13.860 -0.4674 -0.4897  1.3048
 9078SOL    HW238871   1.398   2.202  13.934  2.6684 -2.0699  1.0568
 9079SOL     OW38872   3.628   2.123   1.599  0.2570  0.6356  0.3542
 9079SOL    HW138873   3.724   2.119   1.589 -0.0752 -0.1002 -2.3980
 9079SOL    HW238874   3.616   2.060   1.669 -0.5843  1.2891  0.7981
 9080SOL     OW38875   4.297   0.851   4.681  0.4060 -0.7473 -0.5279
 9080SOL    HW138876   4.214   0.845   4.728  0.6003  0.6762  0.0178
 9080SOL    HW238877   4.316   0.945   4.678  1.8987 -0.9985  1.0356
 9081SOL     OW38878   1.068   3.898  16.773 -0.3619  0.0262  0.1728
 9081SOL    HW138879   0.981   3.916  16.808 -0.4443 -0.8706  0.4263
 9081SOL    HW238880   1.052   3.927  16.683 -0.7152  2.5106  1.0338
 9082SOL     OW38881   2.219   0.374   6.410 -1.3322 -0.3625  0.3447
 9082SOL    HW138882   2.218   0.287   6.451 -0.6196 -1.0010 -0.9861
 9082SOL    HW238883   2.195   0.352   6.320 -0.0763 -2.8341  0.6104
 9083SOL     OW38884   1.399   4.521   0.693  0.0822 -0.2163 -0.2452
 9083SOL    HW138885   1.464   4.492   0.757 -0.7695 -3.2847 -0.7616
 9083SOL    HW238886   1.390   4.446   0.634 -0.6396  0.4828 -1.0284
 9084SOL     OW38887   1.854   3.746  17.738 -0.2305  0.2132  0.6019
 9084SOL    HW138888   1.935   3.793  17.718  0.4683 -0.9925  0.5830
 9084SOL    HW238889   1.865   3.668  17.685  1.1592  1.7600 -1.3625
 9085SOL     OW38890   3.763   0.951  17.517 -0.4735  0.4453 -0.0156
 9085SOL    HW138891   3.829   0.891  17.483 -1.0315 -0.4032  0.3830
 9085SOL    HW238892   3.775   0.935  17.611 -1.0760  1.2113  0.1895
 9086SOL     OW38893   0.837   3.637   2.112 -0.3235 -0.4526  0.0529
 9086SOL    HW138894   0.902   3.593   2.165 -0.5494 -2.9771 -1.7590
 9086SOL    HW238895   0.879   3.652   2.027 -3.8436  1.9013 -1.2731
 9087SOL     OW38896   1.363   0.175   5.712 -0.1326 -0.1786  0.0370
 9087SOL    HW138897   1.368   0.244   5.778  1.2434  0.2797 -0.5460
 9087SOL    HW238898   1.420   0.109   5.753 -0.4130 -1.6871 -2.0285
 9088SOL     OW38899   0.219   3.941   2.496 -0.1400  0.2915  0.0679
 9088SOL    HW138900   0.299   3.994   2.485 -0.9487  1.5804  0.3781
 9088SOL    HW238901   0.168   3.999   2.553 -0.7096 -0.3388  0.1882
 9089SOL     OW38902   2.632   4.593   1.264 -0.0484 -0.3538  0.2323
 9089SOL    HW138903   2.555   4.596   1.208 -1.5674  2.7817  2.4801
 9089SOL    HW238904   2.593   4.560   1.345 -1.9465  0.3639 -0.4014
 9090SOL     OW38905   2.128   1.474   6.793  0.4486  0.4989  0.3141
 9090SOL    HW138906   2.167   1.399   6.839 -1.9911 -0.6790  0.4603
 9090SOL    HW238907   2.035   1.471   6.814  0.6155 -2.8004  0.5389
 9091SOL     OW38908   4.107   2.452   4.453 -0.1164  0.0345 -0.3087
 9091SOL    HW138909   4.148   2.483   4.372  0.0159 -0.4643 -0.4312
 9091SOL    HW238910   4.105   2.356   4.458 -2.8620  0.0922 -0.3676
 9092SOL     OW38911   0.202   4.354   2.416  0.3493 -0.1430  0.3659
 9092SOL    HW138912   0.230   4.316   2.332 -0.9973 -0.3514  0.0137
 9092SOL    HW238913   0.280   4.406   2.436 -1.5855  2.4329  1.1232
 9093SOL     OW38914   2.873   4.558   7.011 -0.1642  0.2625 -0.6502
 9093SOL    HW138915   2.915   4.643   6.997  0.1297  0.2077 -0.0774
 9093SOL    HW238916   2.849   4.562   7.103 -2.2110 -1.6288 -1.1151
 9094SOL     OW38917   2.343   1.819   1.514 -0.3678 -0.7998  0.1893
 9094SOL    HW138918   2.399   1.887   1.552  0.7723 -2.0140  0.6895
 9094SOL    HW238919   2.377   1.739   1.552  0.6425 -0.4248  0.0716
 9095SOL     OW38920   2.876   4.609   3.716  0.3256  0.1358 -0.7144
 9095SOL    HW138921   2.923   4.575   3.792 -1.3072 -0.8740 -0.1567
 9095SOL    HW238922   2.792   4.629   3.756  0.7832  0.3338  0.1378
 9096SOL     OW38923   0.273   2.623   5.667 -0.9009  0.7386  0.3983
 9096SOL    HW138924   0.252   2.705   5.624 -3.8806 -0.3922 -0.3481
 9096SOL    HW238925   0.312   2.573   5.595  1.5093 -1.5456  3.2828
 9097SOL     OW38926   2.265   0.173   6.589  0.6640 -0.5123 -0.5475
 9097SOL    HW138927   2.246   0.100   6.647  1.3067 -1.1671 -1.1601
 9097SOL    HW238928   2.314   0.134   6.516 -0.6262 -2.0027 -0.6012
 9098SOL     OW38929   3.939   3.394   5.654 -0.8562 -0.5031 -0.8045
 9098SOL    HW138930   3.884   3.450   5.599  0.1926  1.0261 -0.2814
 9098SOL    HW238931   4.009   3.456   5.670 -2.2299  0.1470  2.6223
 9099SOL     OW38932   2.078   1.792  15.845  0.1963  0.3000 -0.2685
 9099SOL    HW138933   2.136   1.801  15.920  0.1453  0.0902 -0.2048
 9099SOL    HW238934   2.000   1.828  15.886  0.6892 -1.6239  2.3613
 9100SOL     OW38935   1.486   4.096   5.313  0.2286 -0.0467  0.1752
 9100SOL    HW138936   1.526   4.170   5.358 -2.2318  0.9293  0.7627
 9100SOL    HW238937   1.444   4.140   5.240 -0.4037 -1.0457 -0.0635
 9101SOL     OW38938   3.956   2.810   8.409 -0.1647 -0.5011  0.0372
 9101SOL    HW138939   3.903   2.860   8.471 -0.4007  1.0254 -1.3892
 9101SOL    HW238940   4.026   2.780   8.466 -1.3416 -0.2293  1.6358
 9102SOL     OW38941   2.930   1.060   6.103  0.3045 -0.0599 -0.1777
 9102SOL    HW138942   2.920   1.152   6.076 -3.0200 -0.2250  0.5948
 9102SOL    HW238943   3.023   1.041   6.090  0.6620  1.3069  0.3254
 9103SOL     OW38944   2.794   0.375   9.977 -0.0799  0.6041 -0.3700
 9103SOL    HW138945   2.743   0.348  10.053  0.4434 -0.6789 -0.4706
 9103SOL    HW238946   2.779   0.309   9.910  1.3059  0.1097 -0.1815
 9104SOL     OW38947   4.445   3.676   6.302 -0.6960  0.8519  0.0364
 9104SOL    HW138948   4.380   3.658   6.234  2.2935 -0.8682 -2.3792
 9104SOL    HW238949   4.519   3.700   6.246 -1.6269  0.0001 -1.5578
 9105SOL     OW38950   3.118   1.032   4.147 -0.1710  0.1364  0.3850
 9105SOL    HW138951   3.194   1.074   4.107 -1.8045  0.1315 -2.7540
 9105SOL    HW238952   3.071   0.997   4.070  0.5541 -0.7151  0.3338
 9106SOL     OW38953   2.208   2.604   4.832 -0.9232  0.1156  0.2552
 9106SOL    HW138954   2.149   2.569   4.766  0.8572  0.7198 -1.6446
 9106SOL    HW238955   2.292   2.557   4.828  0.2810  2.3560 -0.7693
 9107SOL     OW38956   3.308   2.551   1.786 -0.2426 -0.0034  0.4524
 9107SOL    HW138957   3.388   2.507   1.817  0.2716 -0.4663 -1.5577
 9107SOL    HW238958   3.307   2.513   1.698 -1.2992  1.3280 -0.0894
 9108SOL     OW38959   1.490   3.585  15.944 -0.2866  0.6505 -0.6770
 9108SOL    HW138960   1.582   3.595  15.969 -1.2864  1.7046  2.5014
 9108SOL    HW238961   1.476   3.500  15.902  0.7852  0.2091 -0.1365
 9109SOL     OW38962   4.690   2.554   5.232 -0.2569  0.1996  0.4811
 9109SOL    HW138963   0.031   2.593   5.252  0.3340  0.7352 -3.2183
 9109SOL    HW238964   4.715   2.527   5.144 -2.1855 -0.9396  0.2784
 9110SOL     OW38965   2.841   0.779   6.008 -0.1449 -0.2065 -0.3974
 9110SOL    HW138966   2.849   0.874   6.005  0.5776 -0.2396  0.5638
 9110SOL    HW238967   2.891   0.769   6.089 -1.2929 -0.4078  0.2828
 9111SOL     OW38968   1.522   3.259   9.451 -0.4320  0.1116 -0.0144
 9111SOL    HW138969   1.556   3.347   9.435 -1.4047  1.2174  3.8403
 9111SOL    HW238970   1.459   3.246   9.380 -1.1990  1.2100  0.4642
 9112SOL     OW38971   0.986   2.476   7.512  0.4018  0.0946  0.2112
 9112SOL    HW138972   1.071   2.474   7.467 -0.1183 -2.4808 -0.6581
 9112SOL    HW238973   0.927   2.512   7.447 -1.4482 -1.8510  0.8240
 9113SOL     OW38974   4.329   1.561   1.090 -0.2845  0.0858 -0.4542
 9113SOL    HW138975   4.366   1.572   1.178 -0.6013  0.6771 -0.3959
 9113SOL    HW238976   4.254   1.620   1.096 -2.0308 -2.0452 -1.2405
 9114SOL     OW38977   4.488   2.238   6.539  0.3458 -0.6273 -0.3428
 9114SOL    HW138978   4.538   2.296   6.596 -2.1277 -0.7007  1.8826
 9114SOL    HW238979   4.422   2.296   6.502  2.0674  1.1549 -0.6277
 9115SOL     OW38980   1.267   2.100   4.485  0.1054  0.0032 -0.6877
 9115SOL    HW138981   1.253   2.046   4.563 -0.6797 -0.2871 -1.0229
 9115SOL    HW238982   1.184   2.147   4.482 -0.2299 -0.4080  2.3668
 9116SOL     OW38983   0.283   4.681   9.016  0.2365 -0.0854  0.5356
 9116SOL    HW138984   0.279   4.623   8.940 -1.3545  0.8806 -0.0998
 9116SOL    HW238985   0.365   4.646   9.054  0.3276 -0.5899 -0.1207
 9117SOL     OW38986   4.132   4.526   8.332  0.0038  0.2385 -0.6363
 9117SOL    HW138987   4.076   4.563   8.263 -2.6609  0.7093  1.7489
 9117SOL    HW238988   4.153   4.447   8.283  1.2635  0.8584 -1.0930
 9118SOL     OW38989   2.050   0.556   0.881  0.7583 -0.2006 -0.1732
 9118SOL    HW138990   2.038   0.603   0.798 -0.4187  0.6970  0.5076
 9118SOL    HW238991   2.137   0.590   0.902  0.1793  0.4686  1.1480
 9119SOL     OW38992   3.977   1.284   2.272 -0.4547 -0.2174 -0.3068
 9119SOL    HW138993   3.914   1.212   2.282 -0.6059 -0.0691 -0.1931
 9119SOL    HW238994   3.924   1.356   2.306  1.1195 -0.4241  2.6378
 9120SOL     OW38995   3.498   0.099   5.756  0.0636  0.2004 -0.5909
 9120SOL    HW138996   3.448   0.177   5.733  1.5048  0.9606 -1.1458
 9120SOL    HW238997   3.549   0.085   5.675 -1.2729 -1.7376 -1.1118
 9121SOL     OW38998   3.956   1.735  17.232  0.2978 -0.4017 -0.3950
 9121SOL    HW138999   3.992   1.648  17.211  0.0521 -1.2799  2.8655
 9121SOL    HW239000   3.978   1.731  17.325  0.8359  0.6336 -0.4764
 9122SOL     OW39001   1.406   4.437  10.711 -0.5437  0.2728 -0.0983
 9122SOL    HW139002   1.321   4.478  10.729 -0.6756 -1.6129  3.4699
 9122SOL    HW239003   1.387   4.370  10.645  0.1820 -0.7353  0.7252
 9123SOL     OW39004   0.348   3.247   4.707 -0.2391  0.5108 -0.1392
 9123SOL    HW139005   0.381   3.217   4.792  0.3736  0.4444 -0.3945
 9123SOL    HW239006   0.263   3.204   4.699 -0.3075  0.6241 -0.0053
 9124SOL     OW39007   3.385   0.433   1.129  0.3370 -0.4691  0.1040
 9124SOL    HW139008   3.299   0.408   1.163  1.0161 -1.7832  0.8887
 9124SOL    HW239009   3.386   0.523   1.161  0.4088 -0.4062 -0.0745
 9125SOL     OW39010   4.460   0.549   7.313  0.4222  0.1662  0.2252
 9125SOL    HW139011   4.484   0.642   7.316 -1.8103  0.7884 -1.6581
 9125SOL    HW239012   4.536   0.516   7.265 -0.0010 -1.4672  0.7060
 9126SOL     OW39013   0.063   2.365   0.850 -0.1187  0.2103  0.4990
 9126SOL    HW139014   0.106   2.447   0.875  1.4442  0.0009 -1.4634
 9126SOL    HW239015   0.026   2.377   0.763  0.4267  0.2987  0.2773
 9127SOL     OW39016   1.310   0.400   8.120 -0.0547 -0.2679  0.2757
 9127SOL    HW139017   1.354   0.340   8.181 -0.8721  0.6870  1.8251
 9127SOL    HW239018   1.331   0.357   8.038 -3.9819 -1.1221 -0.2731
 9128SOL     OW39019   3.135   4.570   9.434  0.0715 -0.8802 -0.6782
 9128SOL    HW139020   3.128   4.540   9.344  1.3094 -1.8260 -0.4614
 9128SOL    HW239021   3.228   4.592   9.443 -0.9181  2.6685  0.8536
 9129SOL     OW39022   1.550   0.114  12.358 -0.4797 -0.4985 -0.0284
 9129SOL    HW139023   1.503   0.153  12.284 -1.1182  0.3095  0.8113
 9129SOL    HW239024   1.499   0.035  12.375 -1.0216 -0.3388 -0.9067
 9130SOL     OW39025   0.747   1.287  14.698 -0.5225 -0.6186 -0.0061
 9130SOL    HW139026   0.780   1.331  14.777 -0.6080  0.6460 -0.6746
 9130SOL    HW239027   0.781   1.200  14.718 -0.0770 -0.4059  0.1647
 9131SOL     OW39028   1.994   3.794   1.430  0.2613  0.4391  0.4599
 9131SOL    HW139029   2.028   3.876   1.394  1.9554 -0.7090 -0.5520
 9131SOL    HW239030   2.026   3.798   1.521  0.2839 -0.1364  0.4723
 9132SOL     OW39031   1.084   0.408   7.532 -0.6972 -1.0498  0.6436
 9132SOL    HW139032   1.104   0.317   7.509  0.9508 -0.5318  0.0265
 9132SOL    HW239033   1.034   0.404   7.613 -1.3948  1.8118  0.3474
 9133SOL     OW39034   4.364   4.739   4.057  0.4769  0.1232 -0.3806
 9133SOL    HW139035   4.449   4.731   4.101  0.5104 -0.7854 -0.6143
 9133SOL    HW239036   4.364   0.090   4.043  1.6665  0.0290 -0.9776
 9134SOL     OW39037   3.924   0.714   5.705  0.2238 -0.2004 -0.0769
 9134SOL    HW139038   3.924   0.626   5.743 -1.6570  0.5594  1.6497
 9134SOL    HW239039   3.971   0.697   5.623 -0.0918 -1.8021  0.0744
 9135SOL     OW39040   3.756   2.636   3.791 -0.2179  0.9640 -0.2200
 9135SOL    HW139041   3.747   2.665   3.700  1.1009  1.5775 -0.1582
 9135SOL    HW239042   3.704   2.556   3.790 -2.2611  2.2708  0.0237
 9136SOL     OW39043   1.964   3.038  13.387 -0.1591  0.3211 -0.0047
 9136SOL    HW139044   1.869   3.031  13.401 -0.4782  0.6691 -1.8995
 9136SOL    HW239045   2.006   2.963  13.429 -0.8176 -0.2571 -0.3805
 9137SOL     OW39046   1.442   1.110   2.324 -0.0388 -0.2639  0.1459
 9137SOL    HW139047   1.385   1.064   2.263 -0.9395  1.6129 -0.4471
 9137SOL    HW239048   1.395   1.108   2.408  1.8432 -0.8517  1.1790
 9138SOL     OW39049   3.404   0.187  13.501  0.1353  0.6302  0.3555
 9138SOL    HW139050   3.462   0.254  13.466 -1.6254  2.4580  0.9808
 9138SOL    HW239051   3.325   0.240  13.506 -0.7012 -0.7923  2.2213
 9139SOL     OW39052   4.488   1.220   7.870  0.2035 -0.2553 -0.5527
 9139SOL    HW139053   4.431   1.290   7.902  0.7452 -0.3352  0.6064
 9139SOL    HW239054   4.430   1.144   7.878 -1.0429  0.9336  1.5721
 9140SOL     OW39055   3.447   0.303  11.604  0.7818  0.4838 -0.0417
 9140SOL    HW139056   3.364   0.302  11.555  2.0784 -1.5520 -2.1956
 9140SOL    HW239057   3.472   0.211  11.610 -0.0442  0.1385 -1.9520
 9141SOL     OW39058   1.029   2.300   9.601 -0.7849  0.2145 -0.1709
 9141SOL    HW139059   1.071   2.377   9.564  0.1920 -0.0775  0.3328
 9141SOL    HW239060   0.978   2.345   9.668 -2.1491  0.2895 -1.2580
 9142SOL     OW39061   2.191   1.837   1.953 -0.0045  0.7552 -0.5943
 9142SOL    HW139062   2.164   1.921   1.918 -0.8780  0.6342 -0.2099
 9142SOL    HW239063   2.138   1.772   1.908 -0.1721 -0.3885  1.2512
 9143SOL     OW39064   2.488   4.479   3.640  0.2490  0.3543 -0.0598
 9143SOL    HW139065   2.529   4.393   3.649 -0.8477 -0.1455  0.3117
 9143SOL    HW239066   2.531   4.532   3.707  0.3405 -0.9046  0.9042
 9144SOL     OW39067   3.235   0.764   3.152 -0.1627 -0.2341  0.1039
 9144SOL    HW139068   3.277   0.696   3.099 -0.8551 -0.6577  0.0941
 9144SOL    HW239069   3.274   0.743   3.237  1.3167  1.0262 -0.2609
 9145SOL     OW39070   0.431   2.561   7.166 -0.9710  0.1138 -0.2884
 9145SOL    HW139071   0.363   2.503   7.200 -0.1490 -0.2773  0.6787
 9145SOL    HW239072   0.509   2.507   7.169  0.2086  1.8790  0.8519
 9146SOL     OW39073   1.989   2.239   8.035  0.3102 -0.6238 -0.0207
 9146SOL    HW139074   1.909   2.187   8.043  0.6178 -0.8309  1.5533
 9146SOL    HW239075   2.056   2.171   8.038 -0.5879 -1.4973 -0.0429
 9147SOL     OW39076   0.696   1.043   8.621 -0.0926 -0.1799  0.0556
 9147SOL    HW139077   0.622   0.983   8.612  0.9035 -1.3044 -0.5897
 9147SOL    HW239078   0.647   1.119   8.590  1.5134  0.6139 -0.5506
 9148SOL     OW39079   0.828   1.123   8.208 -0.1250 -0.5021  0.0003
 9148SOL    HW139080   0.811   1.058   8.276  1.1334 -0.8623 -0.0345
 9148SOL    HW239081   0.868   1.062   8.146  1.1650  1.4233 -1.0870
 9149SOL     OW39082   0.443   1.124   9.800  0.1915  0.0632 -0.5743
 9149SOL    HW139083   0.375   1.082   9.852  2.0306 -2.6231 -0.3330
 9149SOL    HW239084   0.520   1.083   9.837 -1.6787 -1.1929  1.9083
 9150SOL     OW39085   0.616   0.802   2.183  0.3960 -0.3622  0.4559
 9150SOL    HW139086   0.525   0.825   2.204  0.7911  0.4783  1.2307
 9150SOL    HW239087   0.672   0.808   2.260  2.2864  0.4739 -0.9820
 9151SOL     OW39088   0.783   2.979   7.876  0.3787 -0.1316  0.0320
 9151SOL    HW139089   0.841   2.906   7.897  0.2092 -0.2809 -0.0184
 9151SOL    HW239090   0.704   2.961   7.926 -0.0952  0.8600 -0.3522
 9152SOL     OW39091   0.129   1.309   3.617  0.4040 -0.0782 -0.1819
 9152SOL    HW139092   0.091   1.364   3.686  0.3338 -1.0977  0.5964
 9152SOL    HW239093   0.094   1.222   3.636  1.0422 -0.0952  0.8762
 9153SOL     OW39094   1.830   0.960   4.792  0.5484  0.1733 -0.2401
 9153SOL    HW139095   1.763   0.966   4.861  0.3191  1.3758 -0.5602
 9153SOL    HW239096   1.882   1.038   4.810  0.1045  0.2956  0.5347
 9154SOL     OW39097   4.141   1.275   9.009  0.0303  0.0430  0.3237
 9154SOL    HW139098   4.121   1.229   8.928  1.6285 -0.3505  0.1510
 9154SOL    HW239099   4.059   1.260   9.056 -0.6847  1.2563 -0.5625
 9155SOL     OW39100   0.672   3.891   7.450 -0.6463  0.2668 -0.3008
 9155SOL    HW139101   0.750   3.840   7.475  0.8787  2.7801  0.0765
 9155SOL    HW239102   0.603   3.825   7.446 -0.2379 -0.2032  0.2885
 9156SOL     OW39103   3.130   2.440  15.251  0.1997  0.5306  0.4936
 9156SOL    HW139104   3.103   2.503  15.319  1.1506 -1.0092  2.2937
 9156SOL    HW239105   3.175   2.370  15.297 -1.1413 -0.9495 -0.4460
 9157SOL     OW39106   1.376   2.433   5.469  0.1819 -0.2085  0.2154
 9157SOL    HW139107   1.280   2.439   5.466  0.1806 -0.6810 -0.6176
 9157SOL    HW239108   1.393   2.384   5.550  0.8377 -0.2513  0.0500
 9158SOL     OW39109   1.556   0.066   5.006 -0.1860  1.3898  0.1270
 9158SOL    HW139110   1.645   0.031   5.011 -0.2001  1.2762 -0.3808
 9158SOL    HW239111   1.496   4.743   5.040  0.4966  2.3583  3.2282
 9159SOL     OW39112   2.976   4.474   7.415  0.1288 -0.2384 -0.1860
 9159SOL    HW139113   2.896   4.513   7.379 -0.1815 -1.3069 -0.6652
 9159SOL    HW239114   2.956   4.501   7.505  0.0154  0.2132 -0.3450
 9160SOL     OW39115   2.934   4.455   5.782 -0.1400  0.7261  0.0183
 9160SOL    HW139116   3.028   4.466   5.791  0.1016 -0.7796 -0.7899
 9160SOL    HW239117   2.907   4.444   5.873  1.6328  2.5361  0.7681
 9161SOL     OW39118   1.439   2.202  11.576 -0.1779 -0.1726  0.4396
 9161SOL    HW139119   1.486   2.216  11.659  1.8415  0.3040 -0.7809
 9161SOL    HW239120   1.373   2.267  11.603 -0.3717 -0.2883  0.2455
 9162SOL     OW39121   3.954   1.468   4.550 -0.2688  0.3984 -0.0545
 9162SOL    HW139122   3.890   1.413   4.505 -0.8732  1.9216 -1.0433
 9162SOL    HW239123   4.024   1.486   4.486 -0.6175 -1.2218 -0.8935
 9163SOL     OW39124   1.983   0.914   2.984 -0.3042  0.2954  0.2658
 9163SOL    HW139125   2.012   0.874   3.066 -0.3009 -0.5759 -0.1564
 9163SOL    HW239126   2.029   0.998   2.988  3.1290 -1.6148  0.9840
 9164SOL     OW39127   4.354   0.000   7.576  0.0427 -0.1977  0.1665
 9164SOL    HW139128   4.352   4.659   7.532  1.6764  0.2596 -0.7520
 9164SOL    HW239129   4.283   4.723   7.637  0.4725 -4.1547 -0.6703
 9165SOL     OW39130   0.086   4.258   7.981 -0.5907  0.5553 -0.3996
 9165SOL    HW139131   0.005   4.309   7.988 -0.3938  1.0226 -1.5277
 9165SOL    HW239132   0.154   4.323   7.962 -0.4022  0.0880 -1.3455
 9166SOL     OW39133   2.461   3.992  10.185  0.7191 -0.0283  0.5479
 9166SOL    HW139134   2.372   4.016  10.210 -0.9423 -2.9595 -2.6048
 9166SOL    HW239135   2.509   3.988  10.268  0.6884 -2.6038  0.4530
 9167SOL     OW39136   4.478   4.049   4.200 -0.4489 -0.4420 -0.4405
 9167SOL    HW139137   4.454   4.109   4.130  0.4323  0.9651  0.4486
 9167SOL    HW239138   4.571   4.067   4.213 -0.1621 -2.5691  0.5635
 9168SOL     OW39139   0.550   1.096   3.553  0.8438  0.4701 -0.1443
 9168SOL    HW139140   0.545   1.166   3.618  0.9100  2.0155 -1.8328
 9168SOL    HW239141   0.622   1.122   3.496  1.9576  0.2052  1.1463
 9169SOL     OW39142   0.040   3.529   7.520 -0.2634  0.1022  0.4665
 9169SOL    HW139143   0.044   3.547   7.614  3.1829 -2.6165  0.8816
 9169SOL    HW239144   4.716   3.593   7.503  0.0606  0.9349  2.3367
 9170SOL     OW39145   3.328   4.627   3.147  0.5653 -0.9754  0.1065
 9170SOL    HW139146   3.381   4.595   3.220 -0.1158 -0.2121  0.9383
 9170SOL    HW239147   3.395   4.647   3.082  0.3258 -1.2294 -0.2174
 9171SOL     OW39148   3.014   1.260   5.065 -0.4691  0.2113 -0.3889
 9171SOL    HW139149   2.961   1.339   5.079  2.2757  1.7463  1.2696
 9171SOL    HW239150   3.063   1.248   5.146 -2.1141 -4.0360 -0.0091
 9172SOL     OW39151   2.334   4.515   7.822 -0.0332 -0.2773 -0.3577
 9172SOL    HW139152   2.261   4.459   7.794 -0.0561 -1.4109  2.0137
 9172SOL    HW239153   2.409   4.460   7.845  0.0236 -0.9374 -2.0807
 9173SOL     OW39154   3.593   3.657   4.803 -0.4522  0.1853 -0.2538
 9173SOL    HW139155   3.660   3.724   4.789  0.0663 -0.7117 -2.1041
 9173SOL    HW239156   3.519   3.694   4.754 -1.9160  1.3196  2.8230
 9174SOL     OW39157   1.401   2.417   2.573  0.7122  0.6769  0.4819
 9174SOL    HW139158   1.337   2.446   2.638  1.0772 -1.4493  1.7718
 9174SOL    HW239159   1.476   2.476   2.586 -0.0390  1.4910  1.1056
 9175SOL     OW39160   4.074   1.668   2.203 -0.7698 -0.2333 -0.0917
 9175SOL    HW139161   3.983   1.664   2.175 -0.8814 -1.8659  0.5261
 9175SOL    HW239162   4.116   1.610   2.139  0.6576 -0.0722  0.6911
 9176SOL     OW39163   0.639   3.193  12.878  0.3108 -0.4327  0.7388
 9176SOL    HW139164   0.622   3.276  12.921 -1.0006 -0.3692  0.1125
 9176SOL    HW239165   0.615   3.131  12.947  0.4168  0.2435  1.3739
 9177SOL     OW39166   0.786   1.834   7.882  0.5875 -0.5231 -0.1283
 9177SOL    HW139167   0.704   1.839   7.930  1.5340  0.9893  1.3521
 9177SOL    HW239168   0.771   1.890   7.806 -0.1506 -2.7956 -1.6492
 9178SOL     OW39169   2.075   0.312   4.861 -0.5678 -0.0127  0.5593
 9178SOL    HW139170   2.126   0.256   4.919 -0.5022  0.5445  1.0469
 9178SOL    HW239171   2.122   0.396   4.862 -0.8603  0.1497  0.9128
 9179SOL     OW39172   1.683   1.319   6.607  0.0712  0.8513 -0.4259
 9179SOL    HW139173   1.749   1.250   6.615  0.0222  0.9627  1.0164
 9179SOL    HW239174   1.691   1.367   6.690 -0.4890  1.0632 -0.4972
 9180SOL     OW39175   3.135   3.499   4.687 -0.4421 -0.0088  0.2070
 9180SOL    HW139176   3.063   3.454   4.643 -1.3052  1.7577 -0.2043
 9180SOL    HW239177   3.105   3.589   4.672  0.8529  0.1803 -1.3005
 9181SOL     OW39178   3.670   4.040   6.346  0.2183 -0.5734  0.5756
 9181SOL    HW139179   3.752   4.041   6.396  0.7808 -2.2972 -0.3064
 9181SOL    HW239180   3.703   4.006   6.263  0.2501 -1.1169  0.8143
 9182SOL     OW39181   0.437   3.149   0.114 -0.1297 -0.1014 -0.3375
 9182SOL    HW139182   0.445   3.059   0.146  2.4568 -0.3261 -1.6097
 9182SOL    HW239183   0.415   3.124   0.025  3.1663 -0.0842 -1.1552
 9183SOL     OW39184   0.789   3.480  14.013  0.2881 -0.0840  0.2593
 9183SOL    HW139185   0.734   3.466  14.090 -3.4399  0.9923 -2.1983
 9183SOL    HW239186   0.792   3.388  13.986 -0.5763  0.1969 -0.8066
 9184SOL     OW39187   4.587   4.542   8.283 -0.5560 -0.3054 -0.5672
 9184SOL    HW139188   4.679   4.518   8.293 -0.7172 -0.5073  0.4312
 9184SOL    HW239189   4.569   4.578   8.196 -2.1644 -1.6644 -0.7820
 9185SOL     OW39190   1.202   4.063   4.036 -0.0972 -0.4304  0.1995
 9185SOL    HW139191   1.147   4.134   4.002  1.7595  0.6945 -0.4474
 9185SOL    HW239192   1.148   3.986   4.018 -2.7297  1.2364  1.0206
 9186SOL     OW39193   0.490   1.649   9.021 -0.2292 -0.3377  0.5844
 9186SOL    HW139194   0.540   1.664   8.940 -1.1125 -1.5047 -0.1857
 9186SOL    HW239195   0.491   1.738   9.056 -2.5269  0.1852 -0.6500
 9187SOL     OW39196   3.008   2.778   2.731  0.8021 -0.1267 -0.2820
 9187SOL    HW139197   3.021   2.783   2.636  0.5262 -2.0081 -0.4280
 9187SOL    HW239198   3.097   2.782   2.764  0.2026  1.5257  1.1352
 9188SOL     OW39199   0.574   3.238   4.882 -1.0075 -0.1236 -0.4512
 9188SOL    HW139200   0.608   3.152   4.859 -2.4296 -0.3235 -1.8024
 9188SOL    HW239201   0.574   3.237   4.978 -0.5976 -2.6934 -0.4772
 9189SOL     OW39202   2.867   1.835  14.100  0.8512  0.1682 -0.4514
 9189SOL    HW139203   2.784   1.826  14.053  0.2911  3.4886 -0.0882
 9189SOL    HW239204   2.862   1.781  14.179  3.5106  2.9794  1.6386
 9190SOL     OW39205   1.347   3.695   7.787  0.1252  0.2096 -0.3908
 9190SOL    HW139206   1.397   3.655   7.715  0.7261  0.7686 -0.2828
 9190SOL    HW239207   1.323   3.784   7.762 -1.5586 -0.1600 -0.0975
 9191SOL     OW39208   0.417   1.365  13.077  0.1991  0.0989  0.8997
 9191SOL    HW139209   0.460   1.283  13.101 -2.2665 -1.1794  1.0208
 9191SOL    HW239210   0.382   1.401  13.158 -1.4652 -1.4973  0.8915
 9192SOL     OW39211   1.397   1.616   5.801  0.2981 -0.1829  0.3894
 9192SOL    HW139212   1.419   1.597   5.892 -2.8247  1.3484  1.4592
 9192SOL    HW239213   1.303   1.605   5.788  0.5609  1.5279 -3.0643
 9193SOL     OW39214   4.574   1.131  14.065  0.5500  0.6685 -0.3082
 9193SOL    HW139215   4.579   1.225  14.078 -0.0344  0.2865  2.6771
 9193SOL    HW239216   4.622   1.123  13.983 -0.6103 -2.6791 -0.6778
 9194SOL     OW39217   2.073   1.175   9.829  0.0467  0.2229  0.0889
 9194SOL    HW139218   2.037   1.261   9.809  0.5127 -0.0003 -1.7606
 9194SOL    HW239219   1.992   1.127   9.814 -0.3205  0.8580  0.0597
 9195SOL     OW39220   3.057   1.702  16.088 -0.8445 -0.3673  0.3774
 9195SOL    HW139221   2.989   1.640  16.116 -1.4003  0.3165  0.5225
 9195SOL    HW239222   3.093   1.650  16.015 -1.6245  2.0926 -1.7505
 9196SOL     OW39223   2.995   0.837   6.914 -0.2626 -0.2676 -0.3187
 9196SOL    HW139224   3.042   0.769   6.961 -1.1449 -0.7752 -0.1720
 9196SOL    HW239225   3.034   0.817   6.829  0.2529  0.3977 -0.2342
 9197SOL     OW39226   2.928   0.434   1.372 -0.1413  0.1033 -0.2548
 9197SOL    HW139227   2.931   0.520   1.413  4.9049  0.3706 -1.2261
 9197SOL    HW239228   2.964   0.385   1.446 -1.6619  1.0263  1.1009
 9198SOL     OW39229   3.049   4.460  16.304  0.0849  0.0202 -0.3015
 9198SOL    HW139230   3.090   4.392  16.252  0.9403  1.1877 -1.1661
 9198SOL    HW239231   2.962   4.421  16.313  0.2800 -0.5231 -0.8485
 9199SOL     OW39232   4.433   1.627   3.839 -0.0566  0.2576  0.2989
 9199SOL    HW139233   4.413   1.565   3.909  0.2439  1.1470  1.1758
 9199SOL    HW239234   4.503   1.675   3.882 -1.1531 -0.4025  2.8362
 9200SOL     OW39235   3.448   1.833   2.250 -0.1710  0.5681 -0.1439
 9200SOL    HW139236   3.506   1.770   2.295 -0.4812  0.1791 -0.2893
 9200SOL    HW239237   3.360   1.823   2.286  0.0708 -1.2868 -0.0695
 9201SOL     OW39238   2.798   4.666   4.210 -0.4640  0.2439  0.0647
 9201SOL    HW139239   2.719   4.611   4.213 -1.4972  1.6187 -2.0407
 9201SOL    HW239240   2.799   4.704   4.298  0.0127  0.5790 -0.0885
 9202SOL     OW39241   4.221   0.094   2.903  0.1599  0.1062 -0.1254
 9202SOL    HW139242   4.281   0.142   2.847 -0.3657  0.0542 -0.7269
 9202SOL    HW239243   4.169   0.053   2.835  0.5265 -1.5238  0.5782
 9203SOL     OW39244   4.095   2.611  12.648  0.5536  0.0263  0.3522
 9203SOL    HW139245   4.142   2.694  12.645 -0.2233  0.5445  2.1753
 9203SOL    HW239246   4.141   2.553  12.587 -2.3585  0.4335 -2.2201
 9204SOL     OW39247   3.823   4.068   2.015 -0.0307  0.3217  0.2294
 9204SOL    HW139248   3.832   4.137   1.949  2.5470 -0.6193 -0.4334
 9204SOL    HW239249   3.895   4.011   1.986 -0.4358  0.8356 -1.8204
 9205SOL     OW39250   1.898   3.450   8.029 -0.3678 -0.5991 -0.4635
 9205SOL    HW139251   1.937   3.389   8.092  0.4661 -0.2284 -0.6203
 9205SOL    HW239252   1.905   3.527   8.086 -0.8457 -0.3248 -0.7771
 9206SOL     OW39253   0.831   2.092   3.353 -0.9962 -0.0976  0.1211
 9206SOL    HW139254   0.877   2.060   3.275  0.1408  0.6082  0.5097
 9206SOL    HW239255   0.755   2.034   3.361 -1.2033  0.3331  1.1556
 9207SOL     OW39256   3.564   2.296   7.832  0.0048 -0.1465 -0.1315
 9207SOL    HW139257   3.475   2.322   7.804  0.0352 -0.1651 -0.2464
 9207SOL    HW239258   3.604   2.326   7.750  1.8491 -2.7096 -0.1475
 9208SOL     OW39259   2.938   0.177   3.017 -0.0495  0.0242  0.1571
 9208SOL    HW139260   2.959   0.087   3.044 -2.0820 -0.4550  0.0807
 9208SOL    HW239261   2.898   0.213   3.096 -0.6605  1.6756 -0.9015
 9209SOL     OW39262   2.677   1.566   3.798 -0.6985 -0.1800  0.3283
 9209SOL    HW139263   2.663   1.473   3.812 -0.6391 -0.5365 -2.0992
 9209SOL    HW239264   2.599   1.598   3.753 -0.3728 -0.9252 -0.7478
 9210SOL     OW39265   1.209   3.161   7.561 -0.5007 -0.1008 -0.0029
 9210SOL    HW139266   1.229   3.069   7.543  2.6811  0.3851  0.9209
 9210SOL    HW239267   1.128   3.153   7.611  0.2912 -0.6745  1.1988
 9211SOL     OW39268   0.652   1.140  12.781 -0.0067  0.5423  0.3475
 9211SOL    HW139269   0.564   1.173  12.799 -0.4257  0.6057 -1.7883
 9211SOL    HW239270   0.675   1.093  12.861  0.4697 -1.0471 -0.7138
 9212SOL     OW39271   4.512   0.204   7.778 -0.1714 -0.0081  0.4614
 9212SOL    HW139272   4.439   0.240   7.827  1.3441  0.4423  2.3554
 9212SOL    HW239273   4.464   0.132   7.736 -2.0178  2.1969 -1.2354
 9213SOL     OW39274   3.972   3.525   2.188  0.1869 -0.2422 -0.4624
 9213SOL    HW139275   3.916   3.583   2.137  0.6098 -1.1312 -1.9373
 9213SOL    HW239276   3.952   3.556   2.277  1.0885 -0.5677 -0.1385
 9214SOL     OW39277   0.328   3.915   8.355 -0.2948  0.3188  0.6683
 9214SOL    HW139278   0.359   3.935   8.266  0.0181 -0.2184  0.6550
 9214SOL    HW239279   0.276   3.836   8.340 -1.6207  1.1960  0.7094
 9215SOL     OW39280   1.706   0.375   7.242 -0.5193 -0.1803 -0.2667
 9215SOL    HW139281   1.689   0.282   7.254 -2.6838 -0.1063 -2.9723
 9215SOL    HW239282   1.783   0.381   7.187  0.7420 -2.2707  1.2597
 9216SOL     OW39283   3.330   0.698   6.097 -0.2572 -0.0652  0.0779
 9216SOL    HW139284   3.259   0.712   6.160 -0.9755 -0.3816 -0.6586
 9216SOL    HW239285   3.285   0.682   6.014  0.1102 -2.9597  0.4592
 9217SOL     OW39286   3.287   2.939   6.468  0.4742  0.4747 -0.3252
 9217SOL    HW139287   3.218   3.004   6.462 -0.2581 -0.3327 -0.6806
 9217SOL    HW239288   3.236   2.858   6.462  1.3876 -0.0849 -0.5929
 9218SOL     OW39289   0.479   3.716   8.747  0.6384  0.2260 -0.0433
 9218SOL    HW139290   0.412   3.744   8.809  0.4461  1.7245 -0.9407
 9218SOL    HW239291   0.538   3.789   8.766 -0.2006  1.1547 -1.1016
 9219SOL     OW39292   3.106   3.797   3.118 -0.6839  0.1139 -0.2508
 9219SOL    HW139293   3.160   3.745   3.178 -0.9359 -0.9406 -0.9386
 9219SOL    HW239294   3.038   3.816   3.182 -0.1683  1.1601 -0.0075
 9220SOL     OW39295   4.182   4.481   5.366 -0.3004 -0.1162  0.5845
 9220SOL    HW139296   4.161   4.426   5.290  0.2853 -0.6103  0.7849
 9220SOL    HW239297   4.122   4.438   5.427 -1.0196  2.1185  1.4450
 9221SOL     OW39298   4.696   4.387   1.737 -0.0962 -0.7902 -0.2190
 9221SOL    HW139299   0.023   4.351   1.683  0.1989 -1.0849  0.3588
 9221SOL    HW239300   4.740   4.460   1.780 -0.8271 -0.4049 -0.1351
 9222SOL     OW39301   0.574   1.373   5.182  0.8755  0.4989 -0.4847
 9222SOL    HW139302   0.645   1.310   5.190 -0.4009 -0.8939 -0.0657
 9222SOL    HW239303   0.501   1.311   5.185 -0.7841  2.4351 -1.1292
 9223SOL     OW39304   2.439   2.466   1.561 -0.3138  0.2785  0.4062
 9223SOL    HW139305   2.493   2.447   1.637 -0.0418 -0.3901  0.0415
 9223SOL    HW239306   2.353   2.459   1.603  0.0624  0.1124  1.1389
 9224SOL     OW39307   0.611   3.807   2.167 -0.2201 -0.1395  0.2430
 9224SOL    HW139308   0.541   3.742   2.162 -0.1233 -0.0986 -1.4602
 9224SOL    HW239309   0.680   3.754   2.127 -0.4226  0.1046 -0.4277
 9225SOL     OW39310   1.831   3.834   0.478  0.3912 -0.0434  0.3723
 9225SOL    HW139311   1.823   3.776   0.402  0.0273 -0.5112  0.7644
 9225SOL    HW239312   1.927   3.841   0.479  0.3373  0.6370  0.7603
 9226SOL     OW39313   1.452   2.826   7.971 -0.4094 -0.5944  0.4659
 9226SOL    HW139314   1.547   2.816   7.967 -0.0686  1.3513  3.0407
 9226SOL    HW239315   1.422   2.740   7.943 -0.6006 -0.7741  1.2198
 9227SOL     OW39316   2.849   2.710   3.046  0.9528 -0.0982  0.3240
 9227SOL    HW139317   2.934   2.740   3.014  1.0796 -1.0736 -0.2769
 9227SOL    HW239318   2.818   2.684   2.959  1.3466 -2.2112  0.8188
 9228SOL     OW39319   2.149   2.722   4.322  0.1331  0.0642  0.1254
 9228SOL    HW139320   2.224   2.707   4.380 -1.6532 -2.6782  1.7337
 9228SOL    HW239321   2.090   2.757   4.389  0.0148  2.3061 -1.1571
 9229SOL     OW39322   2.806   1.565   9.273  0.3782  0.8576 -0.3333
 9229SOL    HW139323   2.721   1.521   9.273  1.1083 -0.5495 -1.2204
 9229SOL    HW239324   2.788   1.630   9.341  2.2589  0.1156  0.8902
 9230SOL     OW39325   0.957   4.676   7.588 -0.1418  0.2536  0.1242
 9230SOL    HW139326   0.960   4.635   7.501 -0.4898  1.0052 -0.2473
 9230SOL    HW239327   0.865   4.704   7.595 -0.9685 -2.0040 -1.5780
 9231SOL     OW39328   1.852   0.770   6.751 -0.0927  0.6885  0.1425
 9231SOL    HW139329   1.803   0.721   6.685  0.2428  0.5103  0.0245
 9231SOL    HW239330   1.782   0.792   6.813  0.7876  1.0163  1.0162
 9232SOL     OW39331   0.456   2.657   0.027 -0.1228  0.1877  0.0053
 9232SOL    HW139332   0.456   2.744   0.068 -0.7114 -0.5737  1.6154
 9232SOL    HW239333   0.497   2.595   0.087 -1.5846 -0.3688  0.4135
 9233SOL     OW39334   0.394   3.933   6.512 -0.1290  0.0600 -0.6775
 9233SOL    HW139335   0.425   3.843   6.521 -2.7727 -0.8701 -1.0617
 9233SOL    HW239336   0.343   3.942   6.432  2.3029  1.6749 -2.0590
 9234SOL     OW39337   1.751   3.679  15.220 -0.3291  0.0506  0.9798
 9234SOL    HW139338   1.683   3.660  15.285 -0.3147  0.3597  1.0887
 9234SOL    HW239339   1.737   3.772  15.203 -1.0584 -0.3108 -0.3516
 9235SOL     OW39340   0.068   3.662   6.820  0.1115  0.1799 -0.3733
 9235SOL    HW139341   0.083   3.609   6.898  1.1248  1.5142  0.3257
 9235SOL    HW239342   0.129   3.733   6.839 -0.9375  0.8852  0.3348
 9236SOL     OW39343   3.600   2.629   7.597  0.7356 -0.3167 -0.1085
 9236SOL    HW139344   3.673   2.607   7.538  2.6110 -0.6835  2.3450
 9236SOL    HW239345   3.534   2.655   7.533  0.6834  1.4173  0.6601
 9237SOL     OW39346   2.388   4.680   3.168  0.1152 -0.4619  0.5119
 9237SOL    HW139347   2.456   4.613   3.178 -1.4094 -2.0567  0.1632
 9237SOL    HW239348   2.444   0.014   3.170  0.1906 -0.5850  2.6534
 9238SOL     OW39349   3.276   3.241   4.237 -0.4379  1.0594 -0.4694
 9238SOL    HW139350   3.328   3.227   4.158  0.6288  0.7678  0.2874
 9238SOL    HW239351   3.293   3.157   4.280  0.2390  1.1114 -0.6450
 9239SOL     OW39352   1.940   1.225   9.001 -0.4826  0.4915  0.4083
 9239SOL    HW139353   2.011   1.170   8.968 -2.5575 -2.7926  1.3655
 9239SOL    HW239354   1.995   1.272   9.064  0.4641 -0.6499  0.4366
 9240SOL     OW39355   0.815   0.143  14.506 -0.1798  0.4660 -0.5259
 9240SOL    HW139356   0.743   0.080  14.506  0.6534 -0.4815 -1.6210
 9240SOL    HW239357   0.883   0.117  14.443  1.1909  1.0001  0.7481
 9241SOL     OW39358   1.210   2.787  15.141  0.4810  0.2562  0.0695
 9241SOL    HW139359   1.168   2.865  15.104  1.1635  0.7243  0.2788
 9241SOL    HW239360   1.137   2.747  15.189  1.0787 -2.2152 -1.0785
 9242SOL     OW39361   1.938   0.628  16.790  0.1623 -0.0382  0.6391
 9242SOL    HW139362   1.891   0.620  16.707 -2.1803 -1.4034  2.0865
 9242SOL    HW239363   1.868   0.644  16.853 -0.3183  1.2262 -0.2298
 9243SOL     OW39364   3.676   0.218   5.932  0.1109  0.2583  0.1319
 9243SOL    HW139365   3.635   0.144   5.887 -0.6717 -0.6116  2.2546
 9243SOL    HW239366   3.659   0.284   5.865 -0.4303  0.8801  0.8834
 9244SOL     OW39367   4.234   0.184   3.168 -0.9875  0.1863 -0.3162
 9244SOL    HW139368   4.255   0.092   3.151 -0.9641  0.5152 -1.9901
 9244SOL    HW239369   4.157   0.192   3.111 -0.5279  1.4146 -0.7571
 9245SOL     OW39370   2.713   1.147   2.578  0.5300 -0.6300  0.4118
 9245SOL    HW139371   2.770   1.070   2.586  0.8414 -0.3212  1.1389
 9245SOL    HW239372   2.723   1.186   2.491  3.6246 -0.8500  0.6604
 9246SOL     OW39373   2.283   1.311  15.239  0.2189  0.4033 -0.6498
 9246SOL    HW139374   2.279   1.357  15.323 -0.4615 -0.9534  0.0658
 9246SOL    HW239375   2.378   1.299  15.242 -0.1153 -2.4500 -1.3768
 9247SOL     OW39376   1.275   1.606   8.413  0.6591  0.1829  0.2065
 9247SOL    HW139377   1.323   1.547   8.354 -0.3210 -0.9467  0.5426
 9247SOL    HW239378   1.255   1.545   8.484 -1.4797  0.7740  0.0983
 9248SOL     OW39379   1.938   3.071   8.955  0.7379 -0.0795  0.2162
 9248SOL    HW139380   2.019   3.104   8.993  0.0855  2.3512 -0.4925
 9248SOL    HW239381   1.960   3.029   8.872  1.1092  1.6701 -0.5878
 9249SOL     OW39382   0.850   0.684  10.231  0.6698  0.0363 -0.6847
 9249SOL    HW139383   0.925   0.743  10.233  1.0008 -0.4111 -0.1176
 9249SOL    HW239384   0.787   0.739  10.183  2.9044  0.9982 -2.4936
 9250SOL     OW39385   0.850   1.218   9.274  0.1478  0.5290 -0.3702
 9250SOL    HW139386   0.831   1.129   9.305  0.4593  1.3070  2.0969
 9250SOL    HW239387   0.779   1.261   9.321  0.1847 -0.2862  0.4371
 9251SOL     OW39388   3.239   3.628   7.645 -1.0710  0.3646  0.1859
 9251SOL    HW139389   3.192   3.547   7.627  0.7603 -1.3617  3.0999
 9251SOL    HW239390   3.290   3.648   7.567 -1.3084 -2.1181 -0.5987
 9252SOL     OW39391   1.066   0.916   8.473  0.9889 -0.3413 -0.5006
 9252SOL    HW139392   1.048   0.916   8.379 -4.1047 -0.5058  0.4402
 9252SOL    HW239393   1.146   0.864   8.474  1.0843 -0.2090 -1.2044
 9253SOL     OW39394   1.335   1.451  12.354 -0.0098 -0.1260 -0.6476
 9253SOL    HW139395   1.264   1.453  12.289 -0.3153 -2.2405 -0.3861
 9253SOL    HW239396   1.343   1.356  12.362 -0.7543 -0.1719 -0.4295
 9254SOL     OW39397   3.098   3.584   0.695 -0.1241  0.0022 -0.3115
 9254SOL    HW139398   3.015   3.618   0.729  0.2591 -0.6149  1.2328
 9254SOL    HW239399   3.078   3.492   0.712 -2.4915  0.9187  1.7416
 9255SOL     OW39400   4.451   0.978   7.375  0.3224 -0.2496  0.2404
 9255SOL    HW139401   4.437   0.912   7.443 -2.8675 -0.8225 -0.9509
 9255SOL    HW239402   4.439   0.923   7.297  1.4905 -0.4613  0.2146
 9256SOL     OW39403   2.347   0.862   8.475 -0.5052 -0.5177  0.0930
 9256SOL    HW139404   2.380   0.909   8.552  2.1870  1.8620 -2.5265
 9256SOL    HW239405   2.254   0.882   8.487 -0.3601 -0.0191  0.3959
 9257SOL     OW39406   1.269   0.727   9.065 -0.3160 -0.3791 -0.5638
 9257SOL    HW139407   1.271   0.821   9.049 -0.4133 -0.5825 -1.7110
 9257SOL    HW239408   1.310   0.727   9.152  0.7729  0.0212 -1.0685
 9258SOL     OW39409   1.762   1.431  16.068  0.1045  0.3717  0.0180
 9258SOL    HW139410   1.827   1.434  16.138  0.8102  0.8402 -0.6465
 9258SOL    HW239411   1.776   1.346  16.027 -0.3824  0.3790 -0.1612
 9259SOL     OW39412   4.633   1.412   3.287 -0.2486  0.3856 -0.2653
 9259SOL    HW139413   4.654   1.461   3.207  1.8274  3.4671  2.1924
 9259SOL    HW239414   4.639   1.482   3.352  2.6262 -0.6800  0.6040
 9260SOL     OW39415   2.577   0.544   2.648  0.0570  0.1522 -0.7472
 9260SOL    HW139416   2.484   0.533   2.666  0.4342 -0.9692  0.5257
 9260SOL    HW239417   2.590   0.462   2.600 -0.0140 -0.7125  0.7120
 9261SOL     OW39418   4.263   1.480  10.894 -0.0122  0.4280 -0.0762
 9261SOL    HW139419   4.333   1.545  10.900 -1.0454  1.5169 -0.0440
 9261SOL    HW239420   4.268   1.444  10.805  0.5890 -2.0049  0.9225
 9262SOL     OW39421   0.841   3.572   9.465 -0.0997 -0.5534  0.3999
 9262SOL    HW139422   0.785   3.500   9.437  0.5044 -0.4288 -1.1330
 9262SOL    HW239423   0.786   3.641   9.428  0.0452  0.1485  1.5047
 9263SOL     OW39424   0.069   2.023   9.215  0.5350 -0.9090 -0.6185
 9263SOL    HW139425   0.079   2.005   9.121 -2.2383  0.6684 -1.1934
 9263SOL    HW239426   0.026   2.108   9.217 -0.3104 -1.4164  2.3907
 9264SOL     OW39427   4.577   4.326   4.067 -0.5934 -0.3561 -0.8160
 9264SOL    HW139428   4.495   4.290   4.102  0.3722 -0.8099  1.0171
 9264SOL    HW239429   4.561   4.338   3.974  1.6808 -1.4064 -1.3449
 9265SOL     OW39430   4.109   1.782   8.267 -0.2148 -0.0555  0.6132
 9265SOL    HW139431   4.151   1.862   8.297 -0.9214  0.7796 -0.6329
 9265SOL    HW239432   4.093   1.742   8.352 -1.8144  2.2577  1.4043
 9266SOL     OW39433   3.813   2.158   4.296  0.1720  0.3491 -0.6821
 9266SOL    HW139434   3.730   2.196   4.322 -0.0452 -0.4807 -0.1610
 9266SOL    HW239435   3.840   2.213   4.223 -0.1424 -0.5116 -1.4534
 9267SOL     OW39436   3.551   1.033   1.795 -0.2874  0.5795 -0.1871
 9267SOL    HW139437   3.643   1.008   1.784 -0.2452  1.0935 -0.9857
 9267SOL    HW239438   3.504   1.012   1.715 -0.7693 -1.4495  0.6460
 9268SOL     OW39439   4.706   2.327   9.014  0.1325 -0.5528  0.4150
 9268SOL    HW139440   4.655   2.321   9.094  1.1760 -3.5230  0.8872
 9268SOL    HW239441   4.699   2.241   8.971  0.3435 -0.8162  0.9069
 9269SOL     OW39442   2.782   2.669   7.224  0.1424 -0.1022 -0.3101
 9269SOL    HW139443   2.736   2.592   7.255  1.1628 -0.8343 -0.6220
 9269SOL    HW239444   2.868   2.631   7.205 -0.0192 -1.1479  1.0794
 9270SOL     OW39445   0.449   2.102   4.602 -0.0590 -0.0903 -0.4063
 9270SOL    HW139446   0.493   2.126   4.520 -0.0320 -1.4988 -0.8043
 9270SOL    HW239447   0.489   2.018   4.624 -0.5342 -0.1386  0.2595
 9271SOL     OW39448   3.167   1.892   5.885 -0.5068  0.2623  0.3944
 9271SOL    HW139449   3.131   1.965   5.936 -1.2804  0.6477 -0.7163
 9271SOL    HW239450   3.246   1.880   5.938 -0.5513  2.5506  0.9636
 9272SOL     OW39451   3.332   2.718   8.836  0.4280  0.8077  0.5041
 9272SOL    HW139452   3.290   2.727   8.751 -0.3551  1.2453  0.9386
 9272SOL    HW239453   3.330   2.623   8.845 -0.0784  0.7158 -0.6348
 9273SOL     OW39454   2.045   4.322   8.785 -0.1135 -0.3533  0.9033
 9273SOL    HW139455   2.036   4.297   8.693  1.3445  1.2713  0.3022
 9273SOL    HW239456   1.990   4.401   8.784 -2.2929 -1.8834  0.7398
 9274SOL     OW39457   1.913   3.401   6.266 -0.0907 -0.2865 -0.0715
 9274SOL    HW139458   1.953   3.334   6.322 -0.4916 -0.6975 -0.2813
 9274SOL    HW239459   1.822   3.375   6.254  0.0792 -1.6034  1.4274
 9275SOL     OW39460   1.343   0.203  13.081  0.5624  0.0042  0.0029
 9275SOL    HW139461   1.260   0.248  13.096 -0.2804 -1.3190 -0.6800
 9275SOL    HW239462   1.365   0.231  12.992 -1.7278  0.8519 -0.2846
 9276SOL     OW39463   0.642   2.733  12.173  0.2814 -0.1605  0.1396
 9276SOL    HW139464   0.583   2.660  12.149  2.1339 -0.6809 -2.8631
 9276SOL    HW239465   0.729   2.695  12.161 -1.7717 -4.8356  0.0045
 9277SOL     OW39466   1.656   4.107  13.900 -0.1500  0.3706  0.1440
 9277SOL    HW139467   1.679   4.198  13.883  0.5841  0.1960  0.2205
 9277SOL    HW239468   1.739   4.062  13.917 -0.8007 -0.7854  0.2839
 9278SOL     OW39469   0.247   3.479   3.823  0.0878  0.0898  0.3293
 9278SOL    HW139470   0.307   3.405   3.821  1.0393  0.8203  1.7865
 9278SOL    HW239471   0.269   3.512   3.910  1.8670  0.3663 -0.2398
 9279SOL     OW39472   1.398   1.034  14.601  0.0177 -0.0438  0.7440
 9279SOL    HW139473   1.442   1.053  14.683 -0.0880  3.0529  0.0804
 9279SOL    HW239474   1.304   1.052  14.614  0.2239  0.6768  1.2151
 9280SOL     OW39475   1.536   0.434   2.249 -0.0136 -0.0108 -0.0342
 9280SOL    HW139476   1.534   0.427   2.345 -0.9319  1.9505  0.0804
 9280SOL    HW239477   1.466   0.372   2.231  0.3783 -0.8618  1.3275
 9281SOL     OW39478   4.640   0.067   6.194 -0.1782 -0.1384  0.4655
 9281SOL    HW139479   4.619   0.128   6.265  0.4573  0.7440 -0.1116
 9281SOL    HW239480   4.691   0.121   6.133  1.8636 -0.6212  1.7324
 9282SOL     OW39481   0.756   1.796  11.756 -0.2314 -0.5883 -0.3893
 9282SOL    HW139482   0.737   1.715  11.709  0.2005  0.0140 -1.5853
 9282SOL    HW239483   0.680   1.817  11.810  0.1352 -0.1742 -0.0285
 9283SOL     OW39484   3.019   1.825   5.274  0.3105  0.7294  0.1472
 9283SOL    HW139485   3.090   1.803   5.214  0.5855 -1.4630  1.2626
 9283SOL    HW239486   3.050   1.901   5.322 -0.1934  0.8903  0.2130
 9284SOL     OW39487   3.541   1.582   7.532 -0.6788  0.3332 -0.2694
 9284SOL    HW139488   3.565   1.631   7.611 -1.5382  3.9042 -2.2253
 9284SOL    HW239489   3.628   1.558   7.499 -1.9325 -1.9158 -1.9409
 9285SOL     OW39490   3.004   1.233   2.486 -0.0187 -0.3566 -0.7674
 9285SOL    HW139491   3.084   1.182   2.496  0.1374 -0.0908 -0.6707
 9285SOL    HW239492   2.951   1.162   2.451 -0.7669  0.1633 -0.6909
 9286SOL     OW39493   1.733   1.794   8.612  0.0967  0.4231  0.5105
 9286SOL    HW139494   1.795   1.850   8.660  1.3037 -0.8551  0.4413
 9286SOL    HW239495   1.798   1.731   8.582  0.2896  0.4283  0.9124
 9287SOL     OW39496   4.076   1.728   4.259  0.1885 -0.1046 -0.5405
 9287SOL    HW139497   4.094   1.686   4.343 -3.8206  1.3306  1.0162
 9287SOL    HW239498   4.165   1.734   4.223  0.6824  1.6058  0.9920
 9288SOL     OW39499   2.052   4.306   4.699  0.0392 -0.2532 -0.3159
 9288SOL    HW139500   2.109   4.231   4.714 -1.5313 -1.4749 -0.4928
 9288SOL    HW239501   2.072   4.327   4.607  0.8135  0.4846  0.0210
 9289SOL     OW39502   3.517   2.968   3.356 -0.1078  0.2977  0.2351
 9289SOL    HW139503   3.474   2.930   3.279 -0.1741  1.8498 -0.5031
 9289SOL    HW239504   3.529   2.884   3.400 -1.1356  1.0664  1.9871
 9290SOL     OW39505   4.032   1.689  17.492  0.8526 -0.6499  0.6199
 9290SOL    HW139506   4.126   1.681  17.506  0.6071 -2.2308  1.4353
 9290SOL    HW239507   4.010   1.597  17.475 -0.1939 -0.1220 -0.9109
 9291SOL     OW39508   1.080   3.967   3.482 -0.2123 -0.1200 -0.4996
 9291SOL    HW139509   1.068   4.009   3.567 -2.0667  0.0932 -0.8693
 9291SOL    HW239510   1.054   4.036   3.422  2.7376  1.9291  0.5567
 9292SOL     OW39511   4.681   4.438  10.188  0.1162 -0.3595 -0.2373
 9292SOL    HW139512   4.700   4.351  10.223 -1.6120 -0.6132  0.0299
 9292SOL    HW239513   0.014   4.488  10.215 -0.0797 -0.4865  0.5462
 9293SOL     OW39514   3.102   1.416   3.715 -0.2315  0.6945 -0.7110
 9293SOL    HW139515   3.041   1.485   3.742 -0.4524  0.9934 -1.9804
 9293SOL    HW239516   3.154   1.473   3.657  0.1301  0.6957 -0.3903
 9294SOL     OW39517   0.913   2.317  13.257  0.1513 -0.1604  0.0258
 9294SOL    HW139518   0.917   2.404  13.296 -0.1101 -0.8228  1.5299
 9294SOL    HW239519   0.957   2.270  13.327 -1.7405 -2.4366 -0.2889
 9295SOL     OW39520   2.757   2.912   4.361 -0.5650  0.5343  0.1138
 9295SOL    HW139521   2.730   2.836   4.309 -0.1066  0.3708  0.1102
 9295SOL    HW239522   2.766   2.983   4.298  1.1965  0.8979  0.7646
 9296SOL     OW39523   0.236   1.462  12.218 -0.1724  0.0051 -0.5109
 9296SOL    HW139524   0.147   1.496  12.231 -0.0044  0.5279 -0.7071
 9296SOL    HW239525   0.247   1.406  12.295  0.6947  0.3843 -0.3558
 9297SOL     OW39526   0.065   0.723   2.931 -0.1989 -0.1646  0.1610
 9297SOL    HW139527   0.053   0.657   2.862  0.2922 -0.8131  0.6911
 9297SOL    HW239528   4.738   0.784   2.913 -0.5602 -0.5262  0.3450
 9298SOL     OW39529   0.624   2.169   1.497  0.5833  0.0401 -0.0907
 9298SOL    HW139530   0.605   2.148   1.588  1.5127  0.7803  0.2718
 9298SOL    HW239531   0.532   2.183   1.475  0.4958 -0.3868  0.0143
 9299SOL     OW39532   1.523   4.368   1.567  0.8270  0.4941 -0.2862
 9299SOL    HW139533   1.467   4.314   1.512 -1.2107  1.5430  0.7689
 9299SOL    HW239534   1.599   4.311   1.583  0.0463  0.3982  3.0927
 9300SOL     OW39535   1.496   4.583  13.968  0.3958  0.2961  0.2208
 9300SOL    HW139536   1.548   4.503  13.969  1.1431  0.7881  1.0900
 9300SOL    HW239537   1.518   4.624  13.884 -0.8444 -0.1050 -0.2965
 9301SOL     OW39538   3.167   3.592   2.875  0.1285 -0.3753 -0.0903
 9301SOL    HW139539   3.147   3.498   2.876 -0.5564 -0.2258  0.1678
 9301SOL    HW239540   3.202   3.596   2.964  0.1956 -0.6780 -0.1042
 9302SOL     OW39541   4.566   2.349  10.573 -0.3149  0.3191  0.1836
 9302SOL    HW139542   4.649   2.330  10.529 -0.6681  0.0091 -0.3418
 9302SOL    HW239543   4.506   2.288  10.531  0.4781  0.6027 -1.3813
 9303SOL     OW39544   2.063   0.794   3.226  0.5430  0.0499  0.3428
 9303SOL    HW139545   2.025   0.708   3.246 -1.5854  1.4069  2.0615
 9303SOL    HW239546   2.154   0.766   3.225 -0.1488 -2.1912  0.3810
 9304SOL     OW39547   4.576   4.533  15.380  0.0917  0.0282 -0.0400
 9304SOL    HW139548   4.523   4.599  15.335  1.2112 -0.1326 -1.5931
 9304SOL    HW239549   4.512   4.474  15.420 -0.3006  1.2955  1.2301
 9305SOL     OW39550   2.441   2.028   3.303  0.5750  0.1689 -0.0740
 9305SOL    HW139551   2.466   1.936   3.299  1.7928  0.4489  1.1955
 9305SOL    HW239552   2.466   2.062   3.217  1.1753 -1.3734 -0.4959
 9306SOL     OW39553   1.539   4.074   4.940 -0.2971  0.1956 -0.0401
 9306SOL    HW139554   1.511   4.160   4.910  2.5354  0.9388 -0.5430
 9306SOL    HW239555   1.462   4.039   4.986 -0.2209  0.3683  0.2177
 9307SOL     OW39556   1.060   0.895   8.743  0.4629  0.1261 -0.5422
 9307SOL    HW139557   1.136   0.953   8.749  0.9434 -0.5523 -0.0328
 9307SOL    HW239558   1.043   0.885   8.649 -0.0977  0.8286 -0.5224
 9308SOL     OW39559   2.947   4.283   1.827  0.4259 -0.4327  0.2333
 9308SOL    HW139560   2.899   4.217   1.778 -0.6204  0.6106 -0.1430
 9308SOL    HW239561   2.960   4.358   1.769  1.6560  0.2221  1.3394
 9309SOL     OW39562   3.966   0.810   3.652  0.0226  0.7932  0.0404
 9309SOL    HW139563   4.043   0.761   3.624 -0.9423 -1.7547  1.8296
 9309SOL    HW239564   3.979   0.888   3.598 -4.0786  0.3555 -1.6145
 9310SOL     OW39565   3.208   3.244   3.395 -0.2537 -0.4547  0.2857
 9310SOL    HW139566   3.213   3.248   3.300  0.5848  2.8339  0.4737
 9310SOL    HW239567   3.303   3.245   3.408 -0.1244 -0.5294 -0.6373
 9311SOL     OW39568   1.545   1.999   1.006 -0.2293 -0.3641  0.3273
 9311SOL    HW139569   1.456   1.975   1.031 -0.8992 -0.5570 -2.2741
 9311SOL    HW239570   1.539   2.094   1.003 -1.1296 -0.4060  0.7300
 9312SOL     OW39571   2.427   1.712  15.916  0.0653  0.4820 -0.4571
 9312SOL    HW139572   2.391   1.628  15.887  0.8164 -0.1889  0.5799
 9312SOL    HW239573   2.376   1.738  15.993 -0.5385 -0.7549 -0.4343
 9313SOL     OW39574   4.342   0.349   4.181 -0.2053 -0.0065 -0.3963
 9313SOL    HW139575   4.364   0.332   4.090  0.5081 -1.4907  0.0688
 9313SOL    HW239576   4.271   0.410   4.161 -0.7721  0.0491  1.7898
 9314SOL     OW39577   0.529   4.711  16.812 -0.2092 -0.7324 -0.0131
 9314SOL    HW139578   0.597   4.657  16.851 -0.7617 -0.6899  1.0293
 9314SOL    HW239579   0.465   4.649  16.776  0.7576 -1.6907 -0.0682
 9315SOL     OW39580   0.783   1.530  14.843 -0.4048 -0.0979  0.4438
 9315SOL    HW139581   0.785   1.621  14.812  0.8938  0.3059  1.7075
 9315SOL    HW239582   0.851   1.523  14.909  0.0297  2.0581  0.2299
 9316SOL     OW39583   3.039   4.414   7.986  1.1028  0.3114  0.3594
 9316SOL    HW139584   3.118   4.442   7.941 -0.8054  1.5157 -2.2123
 9316SOL    HW239585   3.034   4.327   7.947 -1.8527  0.7249 -0.2063
 9317SOL     OW39586   4.256   0.812   5.706  0.2188  0.4214 -0.2315
 9317SOL    HW139587   4.222   0.801   5.617  0.7138 -2.0798 -0.1300
 9317SOL    HW239588   4.351   0.803   5.698  0.4603  0.2433  2.7514
 9318SOL     OW39589   2.195   0.447   3.213  0.4574 -0.3349  0.5687
 9318SOL    HW139590   2.111   0.486   3.235  0.8658  1.1239 -0.4393
 9318SOL    HW239591   2.241   0.531   3.212 -2.0226  1.0207 -1.0803
 9319SOL     OW39592   1.558   1.844  16.326 -0.8796 -0.2165  0.0227
 9319SOL    HW139593   1.522   1.847  16.415 -4.4048 -0.4665 -1.3812
 9319SOL    HW239594   1.568   1.749  16.317 -0.4661 -0.2229  0.5603
 9320SOL     OW39595   4.419   0.755  12.862  0.1590  0.5784 -0.6393
 9320SOL    HW139596   4.345   0.693  12.868  1.2200 -0.6996 -0.7328
 9320SOL    HW239597   4.391   0.829  12.916 -1.6370 -1.2957  1.0466
 9321SOL     OW39598   3.166   0.187   6.997 -0.0671  0.1637  0.6742
 9321SOL    HW139599   3.224   0.193   6.921 -0.2814 -1.3668  0.4091
 9321SOL    HW239600   3.229   0.184   7.070  0.7093  2.2021  0.0932
 9322SOL     OW39601   1.006   0.372   7.891 -0.0977  0.0794  0.0835
 9322SOL    HW139602   1.046   0.301   7.841  0.4509 -0.0367  0.6861
 9322SOL    HW239603   0.992   0.329   7.975 -2.5239  0.3985 -0.1740
 9323SOL     OW39604   0.529   3.364   4.029 -0.2620 -0.4198  0.1200
 9323SOL    HW139605   0.561   3.361   4.120 -0.0710 -0.5222  0.0483
 9323SOL    HW239606   0.603   3.403   3.982 -0.5251 -0.8851 -0.6573
 9324SOL     OW39607   3.958   4.437  12.985 -0.3082 -0.1577  0.2074
 9324SOL    HW139608   3.940   4.353  12.942  0.0239 -0.4461  0.6242
 9324SOL    HW239609   3.875   4.442  13.031 -0.6387 -1.7931 -0.1870
 9325SOL     OW39610   2.428   1.075  16.560  0.2236  0.4599 -0.3598
 9325SOL    HW139611   2.522   1.059  16.559  0.0506 -0.5039 -0.9378
 9325SOL    HW239612   2.412   1.100  16.651  1.2021  0.4120 -0.1713
 9326SOL     OW39613   1.313   1.296   7.682  0.2617 -0.6316 -0.5850
 9326SOL    HW139614   1.362   1.348   7.745 -1.8820 -1.6439  1.8983
 9326SOL    HW239615   1.295   1.220   7.737 -0.6844 -0.3137 -0.4575
 9327SOL     OW39616   4.504   3.764  14.189 -0.2532 -0.2807  0.1523
 9327SOL    HW139617   4.543   3.678  14.176  0.7620  0.4331 -1.5190
 9327SOL    HW239618   4.432   3.758  14.127 -1.9528  0.9400  2.0198
 9328SOL     OW39619   2.160   1.820   3.728 -0.0995 -0.1879  0.0132
 9328SOL    HW139620   2.075   1.798   3.690 -0.4575  3.3510 -1.1663
 9328SOL    HW239621   2.162   1.912   3.703  1.0474 -0.1751  0.1574
 9329SOL     OW39622   3.399   2.188  14.401  0.1613 -0.3751  0.7272
 9329SOL    HW139623   3.418   2.105  14.357  0.9539 -0.0429  0.4392
 9329SOL    HW239624   3.311   2.217  14.376  0.5005  0.8933  0.9929
 9330SOL     OW39625   3.603   0.974   8.731 -0.0887  0.2122 -0.0521
 9330SOL    HW139626   3.695   0.952   8.747 -0.7787 -1.3527  1.6911
 9330SOL    HW239627   3.590   1.050   8.787 -0.3931 -0.6121  0.9959
 9331SOL     OW39628   3.161   2.378   2.596  0.0198  0.0222 -0.5507
 9331SOL    HW139629   3.094   2.310   2.604  1.3344 -1.1640  0.5272
 9331SOL    HW239630   3.147   2.413   2.684  1.1761 -0.2629 -0.2563
 9332SOL     OW39631   2.259   1.127   5.956 -0.1216  0.2784  0.2684
 9332SOL    HW139632   2.343   1.100   5.919 -0.6758 -0.4404 -0.4441
 9332SOL    HW239633   2.221   1.050   5.997  0.7154  1.0547  2.5257
 9333SOL     OW39634   4.562   4.109   9.976  0.2112 -0.6295 -0.0153
 9333SOL    HW139635   4.516   4.064   9.905  0.0176 -0.1757 -0.1798
 9333SOL    HW239636   4.636   4.049   9.985  1.3489  0.4755 -1.8059
 9334SOL     OW39637   0.177   1.770   0.212 -0.8044 -0.1616 -0.5241
 9334SOL    HW139638   0.190   1.766   0.118 -1.7939  3.1855 -0.8119
 9334SOL    HW239639   0.121   1.847   0.219  0.5523  0.4932  3.3060
 9335SOL     OW39640   2.269   1.360   4.621 -0.4397 -0.4350  0.2379
 9335SOL    HW139641   2.289   1.269   4.643 -0.0115 -0.1102  1.1804
 9335SOL    HW239642   2.357   1.397   4.616 -0.7380  0.4475  1.6959
 9336SOL     OW39643   4.170   3.267   8.141  0.0799 -0.4692  0.4170
 9336SOL    HW139644   4.232   3.341   8.139  0.9644 -1.1994  0.5492
 9336SOL    HW239645   4.121   3.295   8.219 -0.3135 -0.6102  0.2171
 9337SOL     OW39646   2.590   3.359   7.918 -0.3195 -0.1662 -0.4676
 9337SOL    HW139647   2.680   3.328   7.930 -0.6325 -0.2289  1.6340
 9337SOL    HW239648   2.600   3.453   7.936  0.0481  0.0237 -1.6202
 9338SOL     OW39649   0.181   2.103   1.907 -0.3163 -0.3094 -0.1959
 9338SOL    HW139650   0.170   2.098   2.002  2.0771  0.3262  0.1147
 9338SOL    HW239651   0.095   2.137   1.882  0.2255  1.9754  0.9885
 9339SOL     OW39652   2.145   3.883   8.708 -0.3934 -0.1338  0.0070
 9339SOL    HW139653   2.204   3.906   8.636  1.8506 -1.3284  1.4498
 9339SOL    HW239654   2.208   3.832   8.759  3.3678  1.2567 -3.2860
 9340SOL     OW39655   2.202   3.553   8.880  0.5078  0.0237 -0.0234
 9340SOL    HW139656   2.234   3.497   8.951  3.0440  0.6491 -0.6701
 9340SOL    HW239657   2.126   3.507   8.845  0.5429 -0.4490  0.4995
 9341SOL     OW39658   1.332   1.364   9.341 -0.2199 -0.2049  0.0668
 9341SOL    HW139659   1.330   1.268   9.346 -1.0234 -0.0514  2.7957
 9341SOL    HW239660   1.250   1.365   9.292  1.2994  1.1682 -2.4088
 9342SOL     OW39661   3.170   4.036  15.024  0.0338  0.1498 -0.3495
 9342SOL    HW139662   3.202   4.125  15.043 -0.7351  0.6207 -1.2663
 9342SOL    HW239663   3.146   4.039  14.932  2.2965  2.8011 -0.8799
 9343SOL     OW39664   0.322   4.077  10.335 -0.0020  0.6779 -0.4783
 9343SOL    HW139665   0.243   4.108  10.379 -0.0119 -0.1554  0.0824
 9343SOL    HW239666   0.351   4.150  10.280  2.3132 -0.3100 -0.5344
 9344SOL     OW39667   4.540   3.074  15.335  0.0953 -0.1942  0.3409
 9344SOL    HW139668   4.488   3.139  15.289  1.1671 -0.1332 -0.7517
 9344SOL    HW239669   4.616   3.055  15.281  0.3584 -0.6810  0.8838
 9345SOL     OW39670   2.564   4.289   3.163  0.0407  0.3432  0.0985
 9345SOL    HW139671   2.645   4.242   3.180  0.0898  0.1133 -0.7745
 9345SOL    HW239672   2.497   4.220   3.171  0.6585  0.0309  2.6715
 9346SOL     OW39673   4.071   3.420   3.425  0.0898 -0.5446 -0.5232
 9346SOL    HW139674   4.132   3.425   3.499  0.4647 -0.9552 -0.8112
 9346SOL    HW239675   4.110   3.487   3.369  1.7776 -2.1183 -1.2158
 9347SOL     OW39676   3.757   0.534   9.852 -0.6483  0.2407 -0.2044
 9347SOL    HW139677   3.709   0.459   9.887 -0.1726  0.8973  1.8600
 9347SOL    HW239678   3.693   0.604   9.861 -1.4159 -0.2709 -1.7470
 9348SOL     OW39679   3.809   3.261   5.934  0.0207  0.0355  0.3641
 9348SOL    HW139680   3.829   3.277   5.842 -0.8117 -0.5197  0.0805
 9348SOL    HW239681   3.737   3.322   5.953  1.5642  2.1231 -0.6078
 9349SOL     OW39682   0.463   3.111   7.429 -0.5949  0.5684 -0.2202
 9349SOL    HW139683   0.461   3.200   7.463  2.5152  0.1353  1.0866
 9349SOL    HW239684   0.552   3.083   7.451  0.0858  0.9652 -2.4448
 9350SOL     OW39685   1.696   1.208   9.019  0.3988  0.1640 -0.0337
 9350SOL    HW139686   1.789   1.209   8.999  0.4733 -3.1402  0.1188
 9350SOL    HW239687   1.693   1.273   9.089 -2.6181 -2.4129  2.2562
 9351SOL     OW39688   4.275   2.959   2.876  0.1215 -0.5279  0.4600
 9351SOL    HW139689   4.266   2.960   2.781 -2.7922 -0.0379  0.7433
 9351SOL    HW239690   4.250   2.869   2.898  0.0369 -0.3459  1.0920
 9352SOL     OW39691   4.292   0.182   6.385  0.1594 -0.1228 -0.0005
 9352SOL    HW139692   4.277   0.140   6.470  1.7378 -0.2503  0.2200
 9352SOL    HW239693   4.216   0.240   6.373  1.3187  1.2171 -0.8656
 9353SOL     OW39694   3.649   1.276   1.844 -0.2470 -0.1899 -0.0590
 9353SOL    HW139695   3.578   1.323   1.887  0.7474  3.6715 -2.6601
 9353SOL    HW239696   3.600   1.193   1.835  2.2317 -1.9874  3.0307
 9354SOL     OW39697   3.137   1.854   9.895  0.6835  0.8021 -0.3683
 9354SOL    HW139698   3.151   1.785   9.959  0.2498  0.9261 -0.1373
 9354SOL    HW239699   3.159   1.937   9.937  0.1780 -0.1451  1.7173
 9355SOL     OW39700   1.992   0.421   9.416 -0.0959  0.5769  0.1672
 9355SOL    HW139701   2.053   0.490   9.389  0.2445  0.0109 -0.5034
 9355SOL    HW239702   2.020   0.404   9.506  0.7403 -3.8788 -0.9499
 9356SOL     OW39703   1.341   0.412   3.626 -0.3718 -0.1016  0.6058
 9356SOL    HW139704   1.289   0.442   3.701 -2.0595 -1.2000 -0.1116
 9356SOL    HW239705   1.341   0.316   3.628 -2.0916 -0.1799 -2.4741
 9357SOL     OW39706   4.508   2.877  11.077 -0.2723 -0.2165 -0.0108
 9357SOL    HW139707   4.500   2.894  10.983  1.7543 -0.7247 -0.2696
 9357SOL    HW239708   4.430   2.915  11.118  1.3472  1.4932  1.4649
 9358SOL     OW39709   0.085   0.532   7.381  0.3416  0.1874  0.1517
 9358SOL    HW139710   0.004   0.481   7.384  0.6345 -0.3779 -2.0895
 9358SOL    HW239711   0.064   0.566   7.295  0.0366 -2.0403 -0.6707
 9359SOL     OW39712   0.248   1.987   8.954 -0.2522 -0.2549 -0.0821
 9359SOL    HW139713   0.265   2.080   8.970 -2.9372  0.5553 -1.9309
 9359SOL    HW239714   0.338   1.956   8.962  0.3094  1.2592 -0.4619
 9360SOL     OW39715   2.070   4.339   1.575  0.0946 -0.2252 -0.2331
 9360SOL    HW139716   2.033   4.395   1.642  2.5444 -0.4096  1.2613
 9360SOL    HW239717   2.112   4.403   1.519  0.7190 -0.6919 -0.2976
 9361SOL     OW39718   3.449   1.181  17.024  0.1942 -0.8108  0.1167
 9361SOL    HW139719   3.534   1.216  16.998  0.6174 -1.1554  1.0316
 9361SOL    HW239720   3.427   1.245  17.091  1.0903 -0.6531  0.2582
 9362SOL     OW39721   3.307   4.215   5.386  0.1809  0.1144  0.2664
 9362SOL    HW139722   3.393   4.254   5.366  0.4718 -0.1912  0.9231
 9362SOL    HW239723   3.277   4.189   5.299  1.7244 -1.6014  0.2350
 9363SOL     OW39724   1.151   3.591   0.306 -0.2842 -0.5277 -0.4321
 9363SOL    HW139725   1.112   3.505   0.320 -1.0779 -0.3462 -1.5407
 9363SOL    HW239726   1.207   3.577   0.229  0.2365 -2.2610  0.2652
 9364SOL     OW39727   4.011   0.992   6.711  0.0227  0.3018 -0.7304
 9364SOL    HW139728   3.939   0.930   6.716  0.6773 -0.2504  1.8301
 9364SOL    HW239729   4.038   0.982   6.620  0.5417 -1.6786 -0.3513
 9365SOL     OW39730   3.100   0.560  15.153  0.2726  0.3604  0.0101
 9365SOL    HW139731   3.158   0.584  15.082 -0.7960 -2.3446 -1.7893
 9365SOL    HW239732   3.075   0.470  15.129  0.5413  0.7269 -1.5930
 9366SOL     OW39733   3.330   2.204  11.215 -0.1749 -0.2041  0.2459
 9366SOL    HW139734   3.251   2.188  11.267  0.0866 -1.5765  0.2245
 9366SOL    HW239735   3.381   2.239  11.289 -2.2189  1.1774  0.9804
 9367SOL     OW39736   3.926   4.572   7.355  0.3341 -0.1533  0.4989
 9367SOL    HW139737   3.938   4.501   7.418 -2.2166 -1.2132 -0.2473
 9367SOL    HW239738   3.841   4.543   7.324  0.9455 -2.2998  0.8844
 9368SOL     OW39739   0.029   4.733  10.481 -0.0934 -0.0104 -0.2730
 9368SOL    HW139740   4.692   0.031  10.512 -0.2434 -0.8262  0.4299
 9368SOL    HW239741   0.082   0.065  10.456  0.1291 -0.0371  0.1157
 9369SOL     OW39742   4.519   4.470   2.110  0.4116  0.9852 -0.2149
 9369SOL    HW139743   4.443   4.515   2.149 -1.0189 -1.4935 -0.1236
 9369SOL    HW239744   4.565   4.450   2.192 -1.1256 -0.0829  0.4075
 9370SOL     OW39745   0.444   4.085   0.112 -0.0721 -0.1766 -0.4266
 9370SOL    HW139746   0.388   4.120   0.181  1.1505 -0.8976  0.9103
 9370SOL    HW239747   0.456   3.992   0.132 -0.1899  0.1923  1.3366
 9371SOL     OW39748   2.562   4.510   3.336 -0.1696 -0.5306 -0.0298
 9371SOL    HW139749   2.585   4.436   3.280 -0.1021 -0.6664  0.1757
 9371SOL    HW239750   2.577   4.473   3.423  2.7377  1.7533  0.4170
 9372SOL     OW39751   2.689   2.932   5.171  0.0878 -0.3081  0.0234
 9372SOL    HW139752   2.661   2.883   5.248 -0.2186 -0.6301 -0.2899
 9372SOL    HW239753   2.606   2.960   5.134 -0.0430 -2.1306 -1.1087
 9373SOL     OW39754   3.130   1.005   1.763  0.0635 -0.5445  0.4363
 9373SOL    HW139755   3.111   0.923   1.808 -0.6110 -0.5802  0.0925
 9373SOL    HW239756   3.053   1.012   1.706  0.1788  1.3229  0.5161
 9374SOL     OW39757   1.405   0.306  12.836 -0.3475 -0.5198 -0.8704
 9374SOL    HW139758   1.479   0.344  12.883  0.7048 -2.6229 -0.8506
 9374SOL    HW239759   1.449   0.261  12.764 -1.2729 -2.8020 -0.0079
 9375SOL     OW39760   1.462   1.114   5.341 -0.0731 -0.2808 -0.1785
 9375SOL    HW139761   1.384   1.077   5.383  0.2638  0.1028  0.8040
 9375SOL    HW239762   1.493   1.179   5.405 -2.4416 -1.3702  2.0650
 9376SOL     OW39763   4.009   0.902   4.442 -0.0052 -0.3587  0.4933
 9376SOL    HW139764   3.924   0.938   4.465  0.0621 -0.0088  0.1973
 9376SOL    HW239765   4.069   0.946   4.502  0.0512  1.3725 -0.8328
 9377SOL     OW39766   1.931   4.238   8.458  0.2053 -0.0730  0.1336
 9377SOL    HW139767   1.847   4.230   8.502 -0.8140 -0.5278 -1.8614
 9377SOL    HW239768   1.918   4.325   8.419  1.4644 -0.5511 -1.4047
 9378SOL     OW39769   2.753   1.937   7.950  0.3433 -0.2467  0.1789
 9378SOL    HW139770   2.695   1.882   7.897  2.0032 -1.9105  0.0419
 9378SOL    HW239771   2.755   1.899   8.038 -0.3771 -0.5886  0.0422
 9379SOL     OW39772   4.269   3.804   3.006  0.2521  0.7175 -0.3736
 9379SOL    HW139773   4.353   3.811   3.052  0.0067 -0.8646  0.3005
 9379SOL    HW239774   4.283   3.729   2.948  1.9708  1.7861 -1.3333
 9380SOL     OW39775   4.577   0.677   4.214  0.1853 -0.0931 -0.7607
 9380SOL    HW139776   4.608   0.599   4.168 -1.0195 -1.2656  0.4478
 9380SOL    HW239777   4.607   0.746   4.155 -2.3633  1.0148 -0.7727
 9381SOL     OW39778   3.528   1.741   5.025  0.4052  0.1756  0.7247
 9381SOL    HW139779   3.596   1.794   4.982  2.0446 -0.1379  2.9323
 9381SOL    HW239780   3.544   1.754   5.119 -1.3562  4.9591  0.3902
 9382SOL     OW39781   1.748   1.713   1.819  0.2733 -0.0638  0.2008
 9382SOL    HW139782   1.686   1.787   1.822  1.7973  1.2935 -1.9066
 9382SOL    HW239783   1.695   1.643   1.781 -1.5254  0.9095  0.8574
 9383SOL     OW39784   3.028   4.343  10.013  0.5621 -0.4938 -0.6243
 9383SOL    HW139785   3.071   4.281  10.072  1.3491  0.2916 -0.3765
 9383SOL    HW239786   2.966   4.287   9.966 -0.1312  0.7712 -1.2244
 9384SOL     OW39787   4.374   3.774   5.509  0.1852 -0.1644  0.1966
 9384SOL    HW139788   4.301   3.835   5.521 -0.0270 -0.4783  0.4821
 9384SOL    HW239789   4.324   3.725   5.444 -1.7135  0.2635  1.3464
 9385SOL     OW39790   3.728   4.687   4.769 -0.0684  0.0457 -0.2336
 9385SOL    HW139791   3.716   4.721   4.858 -0.3082  0.4886 -0.4337
 9385SOL    HW239792   3.762   0.015   4.716  0.6028 -0.8112 -0.9536
 9386SOL     OW39793   3.262   3.362  16.200 -0.2981  0.0348 -0.1210
 9386SOL    HW139794   3.315   3.294  16.241  1.0694  0.8222 -0.5931
 9386SOL    HW239795   3.193   3.365  16.267  0.0612  0.1302  0.2507
 9387SOL     OW39796   2.007   1.482   8.294 -0.4086 -0.2705 -0.3338
 9387SOL    HW139797   1.957   1.564   8.297  1.1247  0.6726 -0.5555
 9387SOL    HW239798   2.017   1.470   8.200  0.2190 -0.2901 -0.2634
 9388SOL     OW39799   1.506   4.665   7.500 -0.0096 -0.1787 -0.1446
 9388SOL    HW139800   1.547   4.717   7.570 -2.7244  0.0382  1.2825
 9388SOL    HW239801   1.573   4.668   7.432 -0.4657 -2.3334 -0.6782
 9389SOL     OW39802   3.687   4.180  16.538  0.0796  0.0083  0.2720
 9389SOL    HW139803   3.604   4.179  16.586 -0.0271 -1.7104  0.0502
 9389SOL    HW239804   3.747   4.131  16.594  0.7324  1.4400  0.8262
 9390SOL     OW39805   2.547   0.229  10.958  0.0821 -0.5964  0.1771
 9390SOL    HW139806   2.464   0.225  11.006  2.3711 -1.6270  4.0287
 9390SOL    HW239807   2.531   0.317  10.925 -0.1451 -0.7721 -0.1896
 9391SOL     OW39808   3.476   3.461   2.170 -0.0640 -0.1505 -0.6128
 9391SOL    HW139809   3.525   3.540   2.146  1.1949  0.2053  3.0734
 9391SOL    HW239810   3.401   3.500   2.215  0.7876  1.7904 -0.8765
 9392SOL     OW39811   0.059   0.434   4.275 -1.1139  0.2691 -0.1342
 9392SOL    HW139812   0.119   0.422   4.202 -2.1889 -1.7673 -0.6625
 9392SOL    HW239813   4.720   0.387   4.263  0.3326 -2.1499 -0.4803
 9393SOL     OW39814   1.613   3.917   3.158 -0.1420 -0.4110  0.3241
 9393SOL    HW139815   1.606   3.997   3.106 -0.0124 -0.4803  0.1990
 9393SOL    HW239816   1.613   3.841   3.099 -1.4405 -1.0141  1.0885
 9394SOL     OW39817   1.410   2.349   2.276 -0.0383  0.1832  0.1289
 9394SOL    HW139818   1.386   2.378   2.364 -2.1106 -0.1228 -0.3432
 9394SOL    HW239819   1.467   2.410   2.229  0.0092  0.2558  0.2801
 9395SOL     OW39820   2.213   0.164   4.239 -0.0447  0.0654  0.1322
 9395SOL    HW139821   2.139   0.225   4.237 -1.4167 -1.5898  0.8424
 9395SOL    HW239822   2.269   0.199   4.169  0.8948 -1.6290  0.0328
 9396SOL     OW39823   3.227   2.770   9.646  0.4934  0.6754 -0.5694
 9396SOL    HW139824   3.168   2.836   9.682 -0.2558  1.1088 -2.5969
 9396SOL    HW239825   3.311   2.809   9.670 -0.0245  2.0575 -1.0135
 9397SOL     OW39826   0.087   1.324   2.035  0.1930 -0.0156  0.0560
 9397SOL    HW139827   0.087   1.418   2.053 -4.1984 -0.5608  2.9427
 9397SOL    HW239828   0.178   1.303   2.014  0.8480 -0.5709  3.4703
 9398SOL     OW39829   4.671   1.606   8.463 -0.3959 -0.5462 -0.2150
 9398SOL    HW139830   4.703   1.516   8.471  0.3623 -0.3806 -1.3855
 9398SOL    HW239831   4.609   1.586   8.393 -0.6549 -0.4361 -0.0196
 9399SOL     OW39832   4.239   3.011   8.468 -0.3023  0.4389 -0.0358
 9399SOL    HW139833   4.191   2.955   8.529  2.0297 -0.9243  0.5366
 9399SOL    HW239834   4.263   2.952   8.397  0.8233 -0.7651  1.3523
 9400SOL     OW39835   2.361   2.015  15.319  0.4497  0.4011  0.1059
 9400SOL    HW139836   2.374   2.108  15.301  3.0375 -0.1474 -0.7011
 9400SOL    HW239837   2.289   2.004  15.257  1.8316 -0.2147 -1.3635
 9401SOL     OW39838   0.179   2.128   8.359  0.1664  0.0475  0.9683
 9401SOL    HW139839   0.188   2.149   8.452 -0.1162  0.8196  0.8232
 9401SOL    HW239840   0.157   2.035   8.360 -2.7958  0.7287 -0.7262
 9402SOL     OW39841   1.818   2.821   2.823 -0.4828 -0.2412  0.5320
 9402SOL    HW139842   1.836   2.798   2.732  0.8434  0.1750  0.6849
 9402SOL    HW239843   1.902   2.803   2.866  0.7140 -0.6510 -1.9451
 9403SOL     OW39844   2.058   0.616   2.662  0.1071  0.6743  0.3543
 9403SOL    HW139845   2.134   0.631   2.606  1.1162 -0.7278  1.3656
 9403SOL    HW239846   1.982   0.624   2.603  0.4492 -1.4945 -0.3800
 9404SOL     OW39847   2.562   3.283   1.601 -0.3665 -0.3517  0.4272
 9404SOL    HW139848   2.608   3.212   1.556  1.0359  1.2410 -0.6458
 9404SOL    HW239849   2.630   3.307   1.664  1.2735  1.2036 -1.9530
 9405SOL     OW39850   4.557   3.040   6.109  0.1101  0.6826  0.2315
 9405SOL    HW139851   4.583   3.034   6.201  0.0425 -2.9254 -0.0128
 9405SOL    HW239852   4.532   2.951   6.089  1.5432 -0.0300  1.5679
 9406SOL     OW39853   3.080   1.993  14.169  0.2973  0.1997 -0.4909
 9406SOL    HW139854   3.002   1.966  14.121 -0.2065  0.4023  0.2164
 9406SOL    HW239855   3.147   1.981  14.102 -0.3545 -0.6941 -0.9797
 9407SOL     OW39856   1.423   0.492   6.338  0.7985  0.2356  0.5513
 9407SOL    HW139857   1.503   0.446   6.313  0.6220 -0.0368  0.4770
 9407SOL    HW239858   1.400   0.440   6.415 -0.3234  0.6879  0.5196
 9408SOL     OW39859   2.195   3.906  10.754 -0.6994 -0.4096 -0.1029
 9408SOL    HW139860   2.191   3.924  10.660 -1.4417 -1.5504 -0.2992
 9408SOL    HW239861   2.170   3.814  10.761 -0.5774 -0.6183 -2.6655
 9409SOL     OW39862   3.987   1.789   3.568 -0.5519 -0.3751  0.4973
 9409SOL    HW139863   4.079   1.773   3.548 -1.1681  0.5093 -2.9706
 9409SOL    HW239864   3.971   1.865   3.512 -0.6257 -0.0339  0.9786
 9410SOL     OW39865   0.566   3.496   6.477 -0.0389  0.1621 -0.3150
 9410SOL    HW139866   0.647   3.489   6.526  0.2667  1.3716 -0.6405
 9410SOL    HW239867   0.534   3.408   6.498 -0.9173  0.6972  0.5384
 9411SOL     OW39868   4.490   4.658  10.249  0.3786 -0.3965 -0.2839
 9411SOL    HW139869   4.508   4.699  10.334 -1.4911  0.0096 -0.1012
 9411SOL    HW239870   4.557   4.593  10.225  1.0737 -0.0401  0.6703
 9412SOL     OW39871   4.303   3.260   7.730  0.2031 -0.4859 -0.1013
 9412SOL    HW139872   4.278   3.168   7.734  0.0602 -0.4351  0.1437
 9412SOL    HW239873   4.385   3.258   7.780  1.1429  1.6847 -1.5318
 9413SOL     OW39874   0.654   1.820  17.117 -0.0770  0.0690 -0.3714
 9413SOL    HW139875   0.593   1.794  17.186 -0.9267  3.9758  0.3394
 9413SOL    HW239876   0.659   1.743  17.061  2.3254 -0.3717  0.4191
 9414SOL     OW39877   4.055   2.202   4.653  0.2278 -0.1579 -0.1648
 9414SOL    HW139878   4.050   2.135   4.584  1.8607 -0.4475  0.0036
 9414SOL    HW239879   4.084   2.140   4.720 -1.2477 -0.7302 -0.0672
 9415SOL     OW39880   2.631   3.461   4.622 -0.4228 -0.1165  0.4798
 9415SOL    HW139881   2.648   3.406   4.545  0.0325  0.6592  0.0303
 9415SOL    HW239882   2.693   3.422   4.684  2.1527  1.1029 -1.3241
 9416SOL     OW39883   2.462   3.519   1.501  0.1980  0.0069 -0.0403
 9416SOL    HW139884   2.504   3.438   1.530  0.0484  0.3122  1.0151
 9416SOL    HW239885   2.371   3.502   1.526  0.2954 -0.3209  0.1044
 9417SOL     OW39886   3.537   2.639   5.069  0.5077  0.3024 -0.0580
 9417SOL    HW139887   3.530   2.546   5.050  0.5695  0.4792 -0.9417
 9417SOL    HW239888   3.453   2.658   5.111  1.4422  0.6117  1.6892
 9418SOL     OW39889   0.848   1.468   2.346  0.3553 -0.4038 -0.1027
 9418SOL    HW139890   0.816   1.378   2.351  0.9861 -0.6398 -0.3899
 9418SOL    HW239891   0.764   1.513   2.340  1.0553  0.6584 -1.9502
 9419SOL     OW39892   2.607   4.428   9.768 -0.2531 -0.0658 -0.2459
 9419SOL    HW139893   2.628   4.337   9.785  1.3509  0.0852 -1.4555
 9419SOL    HW239894   2.658   4.449   9.689 -1.0923 -1.4450 -1.1582
 9420SOL     OW39895   0.033   0.564   0.284  0.4934  0.1313 -0.3753
 9420SOL    HW139896   4.730   0.544   0.203  0.0260  1.6061 -0.4667
 9420SOL    HW239897   0.112   0.514   0.269  1.1713  0.5378  1.8569
 9421SOL     OW39898   2.473   2.676  17.397 -0.0607 -0.3507 -0.2229
 9421SOL    HW139899   2.561   2.690  17.362 -0.2357 -2.8064 -1.6334
 9421SOL    HW239900   2.497   2.663  17.489  2.0436  1.9469 -0.4486
 9422SOL     OW39901   0.395   4.212   3.779  0.5006  0.2767  0.1619
 9422SOL    HW139902   0.455   4.145   3.746  0.1069 -0.4937  1.0392
 9422SOL    HW239903   0.312   4.165   3.789 -1.8614  4.3111 -0.5597
 9423SOL     OW39904   3.450   3.820   4.601  0.5417 -0.8354  0.1208
 9423SOL    HW139905   3.518   3.882   4.575  1.6527 -2.1076  0.0138
 9423SOL    HW239906   3.367   3.863   4.577  1.4114  2.6919  3.4432
 9424SOL     OW39907   3.851   4.512  10.090 -0.0290  0.5960 -0.6930
 9424SOL    HW139908   3.897   4.492  10.171 -0.2693  0.2525 -0.6424
 9424SOL    HW239909   3.844   4.424  10.055  2.3629 -0.0115  0.3665
 9425SOL     OW39910   1.860   1.847   3.329  0.4022  0.8720 -0.1471
 9425SOL    HW139911   1.915   1.841   3.251 -0.3217  1.2051 -0.6845
 9425SOL    HW239912   1.845   1.941   3.344 -2.9190  0.0812  1.5414
 9426SOL     OW39913   0.368   1.625   7.207 -0.3082  0.5587 -0.4839
 9426SOL    HW139914   0.448   1.585   7.173 -0.1433  2.0597 -1.8720
 9426SOL    HW239915   0.309   1.634   7.132  0.4580  0.9271 -1.0425
 9427SOL     OW39916   1.673   0.712   9.004  0.0202  0.1121 -0.0915
 9427SOL    HW139917   1.612   0.769   8.958 -2.0572 -1.1193  1.1276
 9427SOL    HW239918   1.749   0.770   9.006  0.0593 -0.0216  2.0401
 9428SOL     OW39919   0.214   1.039   8.626  0.2410  0.2495 -0.3656
 9428SOL    HW139920   0.226   1.122   8.673 -1.0844 -0.6004  1.4769
 9428SOL    HW239921   0.135   1.055   8.573 -1.0343  1.8834  2.0143
 9429SOL     OW39922   4.544   4.426   6.852 -0.4274 -0.4631  0.2099
 9429SOL    HW139923   4.495   4.487   6.907  1.4920  2.2525 -1.1311
 9429SOL    HW239924   4.466   4.375   6.827 -1.2541  0.8066  0.1999
 9430SOL     OW39925   4.510   1.877   7.657  0.3465  0.1620  0.6332
 9430SOL    HW139926   4.448   1.825   7.708  1.0866 -0.4643  0.8960
 9430SOL    HW239927   4.596   1.839   7.678  1.0200  0.7452 -1.1187
 9431SOL     OW39928   3.972   1.274   4.786 -0.1796 -0.1072 -0.6826
 9431SOL    HW139929   3.973   1.350   4.844 -0.3921 -0.7274  0.1391
 9431SOL    HW239930   3.948   1.323   4.707  0.6746 -1.1673 -1.6068
 9432SOL     OW39931   4.118   2.115  11.732 -0.0621  0.1152 -0.1224
 9432SOL    HW139932   4.067   2.195  11.724  1.1274  0.8330 -0.4605
 9432SOL    HW239933   4.045   2.052  11.736 -1.3200  1.4558 -2.1900
 9433SOL     OW39934   4.103   1.536  14.933  0.0834  0.3569 -0.1637
 9433SOL    HW139935   4.056   1.610  14.896 -2.2866 -0.9518  0.2685
 9433SOL    HW239936   4.185   1.545  14.883  0.2034  1.1228  0.1682
 9434SOL     OW39937   4.421   1.747   0.821 -0.4772 -0.2416 -0.4075
 9434SOL    HW139938   4.489   1.683   0.844 -2.0749 -0.7667  2.9282
 9434SOL    HW239939   4.420   1.810   0.894  0.9135 -1.1867  0.4368
 9435SOL     OW39940   0.415   3.212   6.768 -0.6725 -0.7473 -0.0700
 9435SOL    HW139941   0.456   3.195   6.853  0.0485  0.3737 -0.1987
 9435SOL    HW239942   0.330   3.168   6.777 -1.1301  0.0697 -0.3754
 9436SOL     OW39943   4.216   1.645   2.447  0.0050  0.2780 -0.0025
 9436SOL    HW139944   4.171   1.641   2.363 -0.3452  1.4459  0.1341
 9436SOL    HW239945   4.149   1.667   2.511 -0.6879 -0.9699 -0.3005
 9437SOL     OW39946   0.994   4.476   8.341 -0.3365 -0.2585  0.0647
 9437SOL    HW139947   0.993   4.537   8.415  0.9890 -2.2209  1.6977
 9437SOL    HW239948   1.068   4.512   8.293  0.3582 -1.7090  0.0305
 9438SOL     OW39949   1.395   2.826   6.092  0.7933 -0.3134 -0.3594
 9438SOL    HW139950   1.333   2.898   6.105  2.0563  0.6291  0.4203
 9438SOL    HW239951   1.442   2.845   6.011  1.0471  0.1779 -0.0939
 9439SOL     OW39952   4.036   0.246  11.620  0.3386 -0.5500 -0.0553
 9439SOL    HW139953   4.033   0.298  11.700 -0.0087 -1.3266  0.4423
 9439SOL    HW239954   4.117   0.273  11.578  0.3820  0.5903  0.7788
 9440SOL     OW39955   0.604   3.326  15.636 -0.2944  0.0409 -0.5444
 9440SOL    HW139956   0.602   3.406  15.583 -1.8451 -0.1513 -0.7795
 9440SOL    HW239957   0.567   3.367  15.714  0.2948 -1.4789  0.5193
 9441SOL     OW39958   2.764   2.619   9.941 -0.1655  0.3610 -0.7411
 9441SOL    HW139959   2.744   2.643   9.850 -0.5685  2.5068 -0.0968
 9441SOL    HW239960   2.785   2.705   9.977  2.8827 -1.2970  1.4409
 9442SOL     OW39961   3.521   0.835   7.041  0.5054 -0.1310 -0.0354
 9442SOL    HW139962   3.504   0.743   7.059 -0.3190  0.2234  1.0050
 9442SOL    HW239963   3.436   0.879   7.032  1.3038  1.5917  0.7765
 9443SOL     OW39964   3.986   2.208   0.262 -0.1540 -0.5046 -0.1332
 9443SOL    HW139965   3.972   2.133   0.204 -1.2429 -1.1593  0.9540
 9443SOL    HW239966   4.001   2.272   0.193 -1.5350 -1.3196 -1.1956
 9444SOL     OW39967   3.655   2.684  14.403 -0.3213 -0.9277  0.6910
 9444SOL    HW139968   3.578   2.627  14.395 -0.6990 -0.4060  0.5956
 9444SOL    HW239969   3.720   2.614  14.401  0.1259 -0.4958  0.3503
 9445SOL     OW39970   4.067   1.361   7.479  0.3037 -0.4114  0.0880
 9445SOL    HW139971   4.145   1.311   7.455  1.8020  1.4183  1.1407
 9445SOL    HW239972   4.033   1.383   7.392 -1.5765  0.5401  1.0603
 9446SOL     OW39973   2.407   1.629   2.559 -0.1962  0.7564 -0.1580
 9446SOL    HW139974   2.393   1.535   2.543  1.4895  0.6812 -1.1342
 9446SOL    HW239975   2.487   1.636   2.507 -0.2692  0.6321 -0.2871
 9447SOL     OW39976   1.648   4.578  10.065  0.0529 -0.2830 -0.0628
 9447SOL    HW139977   1.704   4.632  10.009 -1.3141  0.7535 -0.4182
 9447SOL    HW239978   1.578   4.574  10.000  0.7344  0.4170 -0.8302
 9448SOL     OW39979   0.330   0.011   7.249  0.2893 -0.8736  0.1198
 9448SOL    HW139980   0.235   0.017   7.263  0.3555  1.0059 -0.2470
 9448SOL    HW239981   0.342   0.089   7.196  1.9905 -0.0801  1.6854
 9449SOL     OW39982   1.951   1.869   7.356 -0.1556 -0.5181  0.0699
 9449SOL    HW139983   2.019   1.853   7.292 -0.7166 -0.6918 -0.4838
 9449SOL    HW239984   2.003   1.866   7.436  0.5762  1.3198 -0.3325
 9450SOL     OW39985   3.728   0.672   3.329  0.3176  0.4535  0.5106
 9450SOL    HW139986   3.734   0.670   3.425 -0.1833 -1.7618  0.4966
 9450SOL    HW239987   3.767   0.754   3.300 -0.1581 -0.8583 -3.8767
 9451SOL     OW39988   1.676   0.986  11.605  0.1405 -0.0955 -0.1049
 9451SOL    HW139989   1.717   0.985  11.691  2.6106 -2.6925 -1.3256
 9451SOL    HW239990   1.599   1.039  11.625 -1.1023 -1.1593 -2.0509
 9452SOL     OW39991   3.582   0.813   2.148  0.3813 -0.1288  0.1963
 9452SOL    HW139992   3.622   0.767   2.075  0.5863  0.4462 -0.0539
 9452SOL    HW239993   3.540   0.891   2.112  2.3529  0.5161 -0.6773
 9453SOL     OW39994   3.401   0.909   4.988 -0.1875 -0.8053 -0.2281
 9453SOL    HW139995   3.307   0.892   4.990 -0.4072  0.0730 -3.1030
 9453SOL    HW239996   3.437   0.832   4.943 -0.1483 -0.3230 -1.0287
 9454SOL     OW39997   4.463   1.462   1.735  0.2394  0.4316  0.3457
 9454SOL    HW139998   4.386   1.412   1.764  0.8861 -2.6964 -3.3883
 9454SOL    HW239999   4.470   1.435   1.644 -1.3489 -0.6332  0.5399
 9455SOL     OW40000   3.378   3.298   1.928 -0.4337  0.1917  0.2246
 9455SOL    HW140001   3.288   3.326   1.942 -0.0512 -0.3708  3.6911
 9455SOL    HW240002   3.425   3.361   1.982 -1.2781  1.0340 -0.0375
 9456SOL     OW40003   0.267   0.107  12.212  0.7182  0.1796 -0.2873
 9456SOL    HW140004   0.330   0.179  12.217  0.1867  0.6211  0.1469
 9456SOL    HW240005   0.192   0.158  12.180 -0.0069 -1.2719 -0.9161
 9457SOL     OW40006   3.359   0.479  17.203 -0.8339  0.1128 -0.5966
 9457SOL    HW140007   3.317   0.422  17.139 -0.7424 -0.6912  0.0720
 9457SOL    HW240008   3.289   0.498  17.266 -1.5933  0.2635 -1.4774
 9458SOL     OW40009   0.615   0.269   3.960 -0.1898 -0.4695  0.2010
 9458SOL    HW140010   0.634   0.352   4.004  2.7023  0.2500 -2.4331
 9458SOL    HW240011   0.529   0.240   3.991 -0.2320  1.6548  2.1292
 9459SOL     OW40012   2.738   3.963   5.301 -0.0481 -0.2129  0.4594
 9459SOL    HW140013   2.768   3.982   5.390  1.8487  2.5139 -0.7668
 9459SOL    HW240014   2.658   4.016   5.301  1.0643  1.4401 -1.5296
 9460SOL     OW40015   3.335   3.349   0.197 -0.0558  0.1641 -0.2999
 9460SOL    HW140016   3.255   3.367   0.148  0.9155 -0.0598 -1.9484
 9460SOL    HW240017   3.311   3.349   0.290  0.7948  0.1704 -0.0828
 9461SOL     OW40018   1.247   2.032  14.006 -0.7543 -0.1104 -0.5210
 9461SOL    HW140019   1.172   2.042  13.947 -0.5244  0.3922 -0.7331
 9461SOL    HW240020   1.290   1.956  13.965 -2.8202 -2.5992  1.9043
 9462SOL     OW40021   3.224   3.039  12.773 -0.3877  0.8207 -0.3747
 9462SOL    HW140022   3.212   3.058  12.866  2.1136 -0.0093  0.1114
 9462SOL    HW240023   3.245   2.946  12.776  1.4459  1.2833  1.6626
 9463SOL     OW40024   4.193   4.139   5.807 -1.0032 -0.2147 -0.2679
 9463SOL    HW140025   4.111   4.115   5.851 -1.4658  0.4534 -0.7600
 9463SOL    HW240026   4.245   4.150   5.887 -1.1229  1.4136 -0.4222
 9464SOL     OW40027   4.313   1.402   7.966  0.5560 -0.5342 -0.2950
 9464SOL    HW140028   4.269   1.333   8.015 -2.0021  0.3582 -1.3454
 9464SOL    HW240029   4.258   1.475   7.993 -0.9668 -1.1491 -1.7038
 9465SOL     OW40030   2.657   2.766   9.135  0.7331 -0.2034 -0.0639
 9465SOL    HW140031   2.629   2.845   9.089 -1.6002 -0.1710  1.3760
 9465SOL    HW240032   2.732   2.795   9.187  1.5421 -0.7995 -0.8974
 9466SOL     OW40033   0.122   0.583   6.378  0.3232  0.2151 -0.2804
 9466SOL    HW140034   0.207   0.622   6.357  1.0044 -1.4226 -0.5560
 9466SOL    HW240035   0.147   0.491   6.376 -0.2099  0.0964 -1.5347
 9467SOL     OW40036   2.915   2.498   6.228 -0.5117 -0.2375 -0.4911
 9467SOL    HW140037   2.860   2.533   6.297  0.7898  2.6285 -0.9212
 9467SOL    HW240038   2.914   2.404   6.246  0.1950 -0.4367 -1.4665
 9468SOL     OW40039   1.944   1.172   4.151  0.0260 -0.5720 -0.1529
 9468SOL    HW140040   1.988   1.194   4.233  0.0060  0.4714 -0.4212
 9468SOL    HW240041   1.975   1.082   4.141  0.6725 -0.2348 -1.2149
 9469SOL     OW40042   3.948   0.339   8.710  0.1487  0.3682  0.6366
 9469SOL    HW140043   4.019   0.357   8.771  0.1329 -0.6607  0.9434
 9469SOL    HW240044   3.936   0.252   8.747  1.6249 -0.0765  0.0495
 9470SOL     OW40045   4.491   2.527   1.378  0.3404  0.1457  0.1043
 9470SOL    HW140046   4.401   2.501   1.400  0.1743  0.2554 -0.4412
 9470SOL    HW240047   4.519   2.507   1.467  2.4579 -0.0933 -0.6150
 9471SOL     OW40048   3.510   1.245  15.824  0.2120  0.5901 -0.3233
 9471SOL    HW140049   3.471   1.332  15.828 -1.0126  0.1142 -1.6142
 9471SOL    HW240050   3.554   1.247  15.909  2.1391 -3.2981 -1.2047
 9472SOL     OW40051   1.126   1.705   6.741  0.3264  0.1816  0.0251
 9472SOL    HW140052   1.050   1.754   6.711  0.9922  0.3564 -1.3893
 9472SOL    HW240053   1.094   1.661   6.820 -0.5351  0.4409 -0.1817
 9473SOL     OW40054   2.997   0.075   7.467  0.1371 -0.1284  0.2438
 9473SOL    HW140055   3.049   4.742   7.443  0.0605  0.1207 -0.7245
 9473SOL    HW240056   3.045   0.140   7.417  0.9239  1.2903  2.8735
 9474SOL     OW40057   0.522   1.367  14.850 -0.3315 -0.4880 -0.4577
 9474SOL    HW140058   0.557   1.456  14.853 -3.8159  0.9411 -2.1125
 9474SOL    HW240059   0.586   1.331  14.788  0.8375 -1.5796  1.4007
 9475SOL     OW40060   2.623   3.779   3.398 -1.0849 -0.5812 -0.0814
 9475SOL    HW140061   2.530   3.763   3.388 -0.8716 -0.3507 -2.2692
 9475SOL    HW240062   2.652   3.701   3.446  1.3314  1.3196  1.5929
 9476SOL     OW40063   2.837   3.328  15.506  0.5340  0.0292 -0.4931
 9476SOL    HW140064   2.855   3.294  15.594 -0.5785  1.1740  0.1718
 9476SOL    HW240065   2.778   3.263  15.469  0.9945  0.2370 -1.5781
 9477SOL     OW40066   1.627   0.106   7.664  0.3370 -0.5431 -0.0745
 9477SOL    HW140067   1.595   0.187   7.624 -1.3376 -1.0409  0.2540
 9477SOL    HW240068   1.643   0.137   7.753  1.6594 -1.3754 -0.0256
 9478SOL     OW40069   0.133   1.723  12.043 -0.1950 -0.0781  0.5924
 9478SOL    HW140070   0.044   1.693  12.028 -1.0082  1.3685  2.4749
 9478SOL    HW240071   0.141   1.689  12.132 -0.7566 -2.6719 -0.3509
 9479SOL     OW40072   0.906   0.494  11.889 -0.4336 -0.4135  0.7377
 9479SOL    HW140073   0.879   0.402  11.892  1.3244 -1.0012 -1.0789
 9479SOL    HW240074   0.947   0.513  11.805 -0.2274 -1.7986  0.5272
 9480SOL     OW40075   3.356   3.489   9.428  0.1918 -0.3925 -0.3029
 9480SOL    HW140076   3.443   3.492   9.467  0.2155  2.2452 -0.5425
 9480SOL    HW240077   3.357   3.571   9.378 -0.1557  0.4345  1.0287
 9481SOL     OW40078   2.946   0.270   1.067 -0.0663  0.3285 -0.2791
 9481SOL    HW140079   2.862   0.312   1.046 -0.3788 -1.0401 -1.7954
 9481SOL    HW240080   2.961   0.225   0.984  0.9459  0.6067 -0.2474
 9482SOL     OW40081   3.890   1.595   9.367  0.6340  0.3732  0.2205
 9482SOL    HW140082   3.847   1.596   9.282 -0.4504 -0.1961  0.7745
 9482SOL    HW240083   3.871   1.505   9.392  0.0577  0.4468  0.0334
 9483SOL     OW40084   3.071   1.642   6.196  0.8723  0.4831  0.1700
 9483SOL    HW140085   3.003   1.653   6.130  0.2898 -3.1880  0.1472
 9483SOL    HW240086   3.083   1.547   6.190 -0.3900  0.3816 -0.6490
 9484SOL     OW40087   4.419   3.290   3.165  0.3151 -0.4165  0.1254
 9484SOL    HW140088   4.365   3.290   3.086 -0.2900 -1.0342  0.5439
 9484SOL    HW240089   4.448   3.382   3.164  0.1978 -0.3752  0.8076
 9485SOL     OW40090   0.473   4.707  14.916 -0.0008  0.1878 -0.4404
 9485SOL    HW140091   0.493   4.634  14.857 -1.0764 -0.9624  0.6196
 9485SOL    HW240092   0.403   4.738  14.858  0.0200  0.6355 -0.2210
 9486SOL     OW40093   4.630   4.005   7.445  0.0454  0.2516  0.5638
 9486SOL    HW140094   4.662   4.046   7.526  0.0717  1.6937 -0.1656
 9486SOL    HW240095   4.666   4.072   7.386 -0.3555  0.0180  0.0547
 9487SOL     OW40096   3.073   4.589  16.532 -0.2941  0.6068 -0.2356
 9487SOL    HW140097   3.152   4.643  16.530  1.3543 -1.7817  0.7956
 9487SOL    HW240098   3.077   4.552  16.444  2.1036  2.2732 -0.8445
 9488SOL     OW40099   2.323   4.342  13.907 -0.3897  0.5601  0.7505
 9488SOL    HW140100   2.290   4.332  13.996 -0.0744 -0.9301  0.7056
 9488SOL    HW240101   2.252   4.396  13.872 -0.9860 -0.5802  0.1574
 9489SOL     OW40102   4.695   0.351   7.650 -0.7934 -0.0079 -0.2117
 9489SOL    HW140103   4.649   0.433   7.632 -1.6729 -0.5598 -0.4898
 9489SOL    HW240104   4.627   0.298   7.691  0.4504 -0.4620  1.2703
 9490SOL     OW40105   1.558   1.930  12.616  0.6050  0.0440  0.4923
 9490SOL    HW140106   1.481   1.962  12.568  0.2096 -1.4003  0.1752
 9490SOL    HW240107   1.517   1.924  12.702  0.9332 -0.3612  0.6171
 9491SOL     OW40108   4.438   4.532   5.816  0.2821  0.1072  0.1642
 9491SOL    HW140109   4.420   4.568   5.903 -1.1036  1.1830 -0.5542
 9491SOL    HW240110   4.481   4.450   5.839 -1.1799 -0.5210  0.6910
 9492SOL     OW40111   3.279   2.578   9.832  0.3887 -0.0207  0.1181
 9492SOL    HW140112   3.259   2.650   9.771 -0.7942 -0.1737  0.3156
 9492SOL    HW240113   3.273   2.498   9.780 -0.9503  2.0264 -2.8972
 9493SOL     OW40114   1.924   0.060   8.676 -0.2153  0.4857  0.0893
 9493SOL    HW140115   1.932   0.154   8.662  0.3210  0.7568  2.3067
 9493SOL    HW240116   1.841   0.050   8.629  1.1217 -2.8375 -1.5802
 9494SOL     OW40117   2.533   1.301   4.900  0.0701 -0.0057  0.0082
 9494SOL    HW140118   2.525   1.216   4.943  1.7583  0.7957  1.9193
 9494SOL    HW240119   2.456   1.349   4.929  0.2792  0.3875 -0.0727
 9495SOL     OW40120   4.045   3.330   7.718 -0.3208 -0.1897  0.2716
 9495SOL    HW140121   4.029   3.398   7.784  0.3639  1.4219 -1.1949
 9495SOL    HW240122   4.139   3.320   7.732 -0.6281  0.6495  3.0411
 9496SOL     OW40123   1.525   2.397   3.838  0.0967 -0.3930 -0.2741
 9496SOL    HW140124   1.617   2.406   3.814  0.0850 -0.0374 -0.1827
 9496SOL    HW240125   1.524   2.444   3.922  0.5890  0.3370 -0.6809
 9497SOL     OW40126   0.466   1.393   5.933  0.1437  0.2230 -0.0515
 9497SOL    HW140127   0.544   1.444   5.909  0.8537 -0.8110  0.0823
 9497SOL    HW240128   0.479   1.394   6.028 -0.8933  3.3668  0.0901
 9498SOL     OW40129   4.245   2.396  16.509 -0.0985 -0.5438  0.4962
 9498SOL    HW140130   4.244   2.393  16.604 -1.9633 -1.5983  0.4260
 9498SOL    HW240131   4.325   2.348  16.485  1.9018  2.9510  0.0492
 9499SOL     OW40132   4.385   2.168  10.473  0.1964 -0.0980  0.0235
 9499SOL    HW140133   4.298   2.170  10.512 -0.1260  1.7311 -0.8026
 9499SOL    HW240134   4.376   2.091  10.417  2.3446 -0.1449 -0.2681
 9500SOL     OW40135   1.834   1.672  11.916 -0.3020 -0.1440 -0.0752
 9500SOL    HW140136   1.790   1.701  11.995  0.8908 -0.0892  0.5690
 9500SOL    HW240137   1.861   1.752  11.871 -1.1941 -0.1420 -0.6149
 9501SOL     OW40138   0.985   0.007   8.520  0.4613  0.6441 -0.4980
 9501SOL    HW140139   0.906   0.059   8.529  1.1065  1.4525  0.5604
 9501SOL    HW240140   1.038   0.065   8.466  2.7671 -0.9563  0.0098
 9502SOL     OW40141   4.127   3.372   5.054 -0.3164  0.2314  0.4846
 9502SOL    HW140142   4.187   3.419   4.996  0.1785  3.4645  3.5873
 9502SOL    HW240143   4.198   3.342   5.111  0.2009 -1.1909 -0.8991
 9503SOL     OW40144   2.213   3.808   4.338 -0.2931 -0.0476 -0.0159
 9503SOL    HW140145   2.152   3.882   4.342 -0.0971  0.0266  1.7099
 9503SOL    HW240146   2.299   3.849   4.348 -1.3724  2.3445 -0.4961
 9504SOL     OW40147   1.835   3.243  13.563  0.1726 -0.8514  0.2621
 9504SOL    HW140148   1.905   3.232  13.498 -0.8122  1.2777 -1.1901
 9504SOL    HW240149   1.853   3.334  13.589 -1.3136 -0.2528 -0.7968
 9505SOL     OW40150   2.888   3.057  17.526  0.4280 -0.1818  0.0996
 9505SOL    HW140151   2.904   3.108  17.606 -1.3328 -0.0640  0.3648
 9505SOL    HW240152   2.844   3.123  17.474  0.5565  0.2900  0.5905
 9506SOL     OW40153   0.844   2.863   4.214 -0.1917 -0.2586  0.0611
 9506SOL    HW140154   0.750   2.865   4.194 -1.0953 -0.2750  4.2886
 9506SOL    HW240155   0.864   2.889   4.125 -0.0277  0.1142  0.2059
 9507SOL     OW40156   4.619   1.648   5.174  0.0215 -0.5209  0.2165
 9507SOL    HW140157   4.568   1.568   5.164 -0.1514 -0.4557  0.5741
 9507SOL    HW240158   4.547   1.707   5.194  1.3402  0.8895  0.8193
 9508SOL     OW40159   0.548   2.593   2.423  0.0125  0.7440  0.0707
 9508SOL    HW140160   0.525   2.686   2.415 -0.4661  0.7096  1.0609
 9508SOL    HW240161   0.482   2.558   2.483  2.6111 -0.1909  2.3346
 9509SOL     OW40162   0.598   3.952   3.353 -0.0808 -0.1015 -0.5331
 9509SOL    HW140163   0.672   3.989   3.400 -1.1811  0.0238  1.1050
 9509SOL    HW240164   0.527   4.015   3.363  1.7620  1.9375 -0.3683
 9510SOL     OW40165   3.869   1.341   1.171 -0.4372 -0.1737 -0.0963
 9510SOL    HW140166   3.827   1.381   1.248 -1.8839 -0.8080 -0.5626
 9510SOL    HW240167   3.841   1.402   1.103 -1.9592 -0.6501  0.1015
 9511SOL     OW40168   4.350   0.840   2.607  0.1165  0.3176  0.4410
 9511SOL    HW140169   4.327   0.793   2.687 -0.1770 -2.0773 -1.0461
 9511SOL    HW240170   4.261   0.857   2.574  0.4737  0.7066 -0.3316
 9512SOL     OW40171   0.412   0.015  17.418  0.1872  0.2329 -0.6631
 9512SOL    HW140172   0.395   0.062  17.336  0.7419 -0.2902 -1.0759
 9512SOL    HW240173   0.436   4.678  17.373  1.0621 -0.3255  0.8185
 9513SOL     OW40174   1.413   4.711  10.467  0.0323 -0.1125 -0.2690
 9513SOL    HW140175   1.490   4.718  10.411  0.0317  1.1394 -0.1202
 9513SOL    HW240176   1.454   4.686  10.550  0.5290  0.6863 -0.2823
 9514SOL     OW40177   4.246   2.379  10.337  0.3041 -0.2406 -0.7055
 9514SOL    HW140178   4.309   2.450  10.338 -0.9857  0.9052 -0.8269
 9514SOL    HW240179   4.298   2.306  10.370  1.4521  1.7185  1.7993
 9515SOL     OW40180   1.456   1.190  12.751 -0.4078 -0.2514  0.2057
 9515SOL    HW140181   1.426   1.111  12.797 -1.7757  0.7718  1.0454
 9515SOL    HW240182   1.391   1.255  12.778 -0.8957 -0.7788  0.3096
 9516SOL     OW40183   1.058   4.124   3.713 -0.4476  0.3893 -0.1645
 9516SOL    HW140184   0.984   4.143   3.771 -2.0925 -5.1666 -0.4260
 9516SOL    HW240185   1.121   4.191   3.738 -0.6212  1.0139 -1.3714
 9517SOL     OW40186   2.707   1.357   4.197 -0.0391  0.0520 -0.0204
 9517SOL    HW140187   2.676   1.424   4.137 -1.5526  0.4534  1.2074
 9517SOL    HW240188   2.760   1.406   4.260 -1.0125  2.0450 -0.7394
 9518SOL     OW40189   3.561   1.990   7.714  0.2738 -0.3574 -0.0424
 9518SOL    HW140190   3.509   2.041   7.777  0.2634 -1.1085  0.5565
 9518SOL    HW240191   3.574   2.049   7.640  0.0525  0.8695  0.8942
 9519SOL     OW40192   0.987   1.159   2.361 -0.3341 -0.1416  0.2258
 9519SOL    HW140193   0.934   1.223   2.408 -1.8700  0.1724 -1.9200
 9519SOL    HW240194   1.006   1.098   2.432  0.8954 -0.5072 -0.4219
 9520SOL     OW40195   3.239   0.155   6.735  0.1416 -0.2026 -0.2949
 9520SOL    HW140196   3.280   0.222   6.680 -0.9367  0.3257 -0.4542
 9520SOL    HW240197   3.205   0.105   6.661 -2.8751  0.2268  0.8093
 9521SOL     OW40198   4.067   2.280   2.140  0.1913  0.1436 -0.4275
 9521SOL    HW140199   4.115   2.301   2.060  0.1923  1.7111 -0.0117
 9521SOL    HW240200   4.013   2.359   2.147  0.6351  0.3861  0.2384
 9522SOL     OW40201   2.228   4.628  12.258  0.3251  1.0475  0.2520
 9522SOL    HW140202   2.210   4.547  12.306  2.0468 -0.8040 -2.2224
 9522SOL    HW240203   2.143   4.632  12.215  0.2020 -0.6023  0.3081
 9523SOL     OW40204   0.286   2.798   2.531 -0.2542  0.2502  0.1982
 9523SOL    HW140205   0.231   2.803   2.609 -1.2715  1.8784 -0.6219
 9523SOL    HW240206   0.360   2.852   2.562 -0.9276  0.6612  1.0873
 9524SOL     OW40207   3.990   2.934  13.898  0.4350 -0.3812  0.2597
 9524SOL    HW140208   3.911   2.984  13.919  1.3939  1.8024 -1.4089
 9524SOL    HW240209   3.966   2.917  13.807 -1.1501  0.5180  0.4961
 9525SOL     OW40210   2.540   4.177   8.468 -0.4532 -0.1820  0.3530
 9525SOL    HW140211   2.511   4.090   8.494  2.5406 -1.1732  0.3749
 9525SOL    HW240212   2.620   4.189   8.519 -0.2042 -1.1976  0.1907
 9526SOL     OW40213   4.539   1.919  11.650 -0.4596 -0.2548  0.3027
 9526SOL    HW140214   4.506   1.935  11.738 -0.3215  0.0721  0.2945
 9526SOL    HW240215   4.478   1.971  11.599 -1.1616 -0.1188  1.2843
 9527SOL     OW40216   1.237   1.083   2.861 -0.1287  0.3670  0.3708
 9527SOL    HW140217   1.290   1.083   2.781  0.0817  1.3346  0.5141
 9527SOL    HW240218   1.146   1.086   2.832  0.3863 -1.2090 -1.4493
 9528SOL     OW40219   3.277   0.309   2.132 -0.0700  0.2234 -0.3683
 9528SOL    HW140220   3.211   0.244   2.158  1.3565 -0.3943  1.7510
 9528SOL    HW240221   3.320   0.274   2.054  3.9018  1.4146  1.2755
 9529SOL     OW40222   0.014   1.611  17.671  0.0759  0.2682  0.1800
 9529SOL    HW140223   4.674   1.638  17.709 -0.0034  0.1816  0.0653
 9529SOL    HW240224   4.734   1.565  17.591 -2.3656  1.4436  0.2337
 9530SOL     OW40225   2.186   1.097   4.710  0.8773 -0.2040  0.0508
 9530SOL    HW140226   2.231   1.032   4.764  1.6202  1.0464  0.9304
 9530SOL    HW240227   2.132   1.140   4.777 -0.2047 -0.0880 -0.8939
 9531SOL     OW40228   1.757   2.054   9.237  0.5167  0.2257  0.0687
 9531SOL    HW140229   1.715   2.139   9.252 -0.3446 -0.1835 -0.0734
 9531SOL    HW240230   1.795   2.056   9.149  0.6062  0.0923  0.1052
 9532SOL     OW40231   4.625   2.625   7.611  0.0123 -0.2245  0.2640
 9532SOL    HW140232   4.669   2.541   7.597 -1.4327 -0.9049 -0.2325
 9532SOL    HW240233   4.629   2.650   7.518  0.5971  1.7123  0.8031
 9533SOL     OW40234   3.513   4.510   4.421  0.0426 -0.0789 -0.5816
 9533SOL    HW140235   3.582   4.568   4.450 -1.3480  0.6468  1.3160
 9533SOL    HW240236   3.446   4.522   4.489 -1.5818  0.2402 -2.2279
 9534SOL     OW40237   0.175   1.026   4.913  0.2600 -0.4657 -0.0425
 9534SOL    HW140238   0.242   1.093   4.923  2.7710 -2.6914 -2.1257
 9534SOL    HW240239   0.219   0.973   4.847 -0.8226  0.9832 -1.9285
 9535SOL     OW40240   1.006   3.847   5.410  0.0084  0.2404  0.2475
 9535SOL    HW140241   1.090   3.820   5.374 -0.4113  1.5871 -1.7528
 9535SOL    HW240242   0.954   3.853   5.329  1.0798 -0.1281 -0.4632
 9536SOL     OW40243   1.816   0.736   9.446 -0.0668 -0.2844  0.1963
 9536SOL    HW140244   1.898   0.760   9.404 -0.9844  1.8181 -0.3823
 9536SOL    HW240245   1.787   0.665   9.389 -1.8242 -0.6597  1.5786
 9537SOL     OW40246   0.258   1.269  10.359  0.0606 -0.4324  0.6561
 9537SOL    HW140247   0.220   1.353  10.332 -0.9351 -1.1381 -0.1083
 9537SOL    HW240248   0.325   1.262  10.291 -0.8908  3.0908 -0.6598
 9538SOL     OW40249   3.333   1.043   2.721  0.4630 -0.3998  0.2379
 9538SOL    HW140250   3.427   1.028   2.733  0.2914 -0.0901  1.8883
 9538SOL    HW240251   3.313   0.990   2.643 -0.7475  1.6915 -0.8763
 9539SOL     OW40252   1.942   3.067   6.667 -0.1138 -1.0122  0.2344
 9539SOL    HW140253   1.880   2.995   6.678 -3.7951  2.1846  0.6061
 9539SOL    HW240254   2.013   3.040   6.725  1.4997  0.8848 -0.8215
 9540SOL     OW40255   3.539   1.368  11.929  1.1124  0.1840  0.2392
 9540SOL    HW140256   3.492   1.344  12.009  1.8250 -0.5454  0.4422
 9540SOL    HW240257   3.546   1.462  11.946 -2.1062  0.8604 -2.3300
 9541SOL     OW40258   2.986   2.304   8.225 -0.1459  0.2377  0.6576
 9541SOL    HW140259   2.990   2.397   8.247  0.5397  0.2634  0.4397
 9541SOL    HW240260   3.081   2.293   8.220 -0.3377  0.3126 -3.0336
 9542SOL     OW40261   3.728   2.238   8.885 -0.6082 -0.3283 -0.5421
 9542SOL    HW140262   3.732   2.230   8.789 -0.4424  0.4739 -0.6015
 9542SOL    HW240263   3.673   2.316   8.889  0.7073  0.6280 -0.7718
 9543SOL     OW40264   2.752   4.045   5.557  0.4509  0.4440 -0.5549
 9543SOL    HW140265   2.763   4.140   5.555  0.2998  0.4798  0.1577
 9543SOL    HW240266   2.767   4.040   5.652  0.0690  1.8005 -0.4215
 9544SOL     OW40267   0.192   2.642  13.454 -0.0249  0.3347  0.1229
 9544SOL    HW140268   0.100   2.663  13.435 -0.1126 -0.1362  0.0450
 9544SOL    HW240269   0.208   2.570  13.393  0.5082 -0.5027  1.2534
 9545SOL     OW40270   1.536   4.145  10.632 -0.2033 -0.1319  0.1244
 9545SOL    HW140271   1.443   4.130  10.614  0.1817 -1.3928 -0.7845
 9545SOL    HW240272   1.553   4.229  10.589  2.4840 -0.0642  1.3103
 9546SOL     OW40273   4.452   2.307   0.301 -0.2633 -0.0495 -0.1018
 9546SOL    HW140274   4.389   2.245   0.265  0.8738 -0.3027 -1.6361
 9546SOL    HW240275   4.471   2.347   0.217 -0.9559 -0.6282 -0.5285
 9547SOL     OW40276   2.136   4.055   1.969  0.3330  0.1438 -0.3134
 9547SOL    HW140277   2.180   4.125   1.920 -3.3640  2.0483 -0.9151
 9547SOL    HW240278   2.058   4.094   2.008  1.3207 -1.6839  3.3975
 9548SOL     OW40279   2.242   0.888  15.243 -0.4171 -0.6491 -0.4569
 9548SOL    HW140280   2.271   0.888  15.335 -1.5916 -0.8480 -0.0861
 9548SOL    HW240281   2.177   0.958  15.249  0.6484  0.3498 -0.4757
 9549SOL     OW40282   1.461   1.913   5.776  0.3077  0.0966  0.2757
 9549SOL    HW140283   1.473   1.851   5.848 -0.2984  0.0873  0.3708
 9549SOL    HW240284   1.508   1.869   5.705 -2.2791  0.1329 -1.4423
 9550SOL     OW40285   0.442   1.066   8.064  0.8927 -0.2952  0.3563
 9550SOL    HW140286   0.505   1.028   8.003 -0.2973  2.3118 -2.4896
 9550SOL    HW240287   0.465   1.158   8.062  0.4842 -0.2091 -0.4471
 9551SOL     OW40288   4.262   4.620   6.260 -0.8149 -0.1367  0.1734
 9551SOL    HW140289   4.272   4.714   6.271  3.6409 -0.6222  0.2000
 9551SOL    HW240290   4.274   4.584   6.348  1.4082 -2.2907 -1.0098
 9552SOL     OW40291   1.995   4.706   8.218 -0.3673  0.8846  0.2328
 9552SOL    HW140292   2.074   4.688   8.166 -1.0762  2.1652 -1.3058
 9552SOL    HW240293   1.988   4.639   8.285 -0.9400  2.5098  1.7923
 9553SOL     OW40294   3.056   2.953   6.057  0.5843 -0.1502 -0.2056
 9553SOL    HW140295   3.002   2.888   6.103  1.5702 -2.1739 -1.9298
 9553SOL    HW240296   3.026   2.954   5.967 -0.1483 -1.5106  0.0310
 9554SOL     OW40297   3.743   0.017   9.738 -0.6299 -1.0377  0.2993
 9554SOL    HW140298   3.658   0.028   9.696  1.4604  1.7878 -3.2083
 9554SOL    HW240299   3.774   4.674   9.713  0.9542 -0.8225  1.5007
 9555SOL     OW40300   3.580   2.097  14.615  0.0600 -0.3856 -0.0217
 9555SOL    HW140301   3.638   2.166  14.648 -0.9507  0.3296  0.2273
 9555SOL    HW240302   3.522   2.138  14.551  1.2065  0.6093 -0.4378
 9556SOL     OW40303   4.266   0.488  16.509  0.4108  0.0693  0.4226
 9556SOL    HW140304   4.302   0.515  16.424  1.1414  0.8973  0.9971
 9556SOL    HW240305   4.199   0.426  16.479 -0.5803  0.7524  1.2506
 9557SOL     OW40306   2.512   4.616  10.362  0.1472 -0.5618  0.5496
 9557SOL    HW140307   2.582   4.679  10.382 -1.3726  0.9249  1.1722
 9557SOL    HW240308   2.554   4.532  10.381 -3.2318 -2.1835  0.8469
 9558SOL     OW40309   0.939   3.047   3.596 -0.6178 -0.1309  0.7948
 9558SOL    HW140310   0.852   3.086   3.600  0.1001  1.7109 -1.2913
 9558SOL    HW240311   0.984   3.067   3.678 -0.5633 -0.9595  0.9717
 9559SOL     OW40312   3.364   1.355   3.948  0.8164  0.3894  0.2474
 9559SOL    HW140313   3.336   1.446   3.949  0.4630  0.2668  1.7657
 9559SOL    HW240314   3.425   1.343   3.875 -0.6583 -1.4873 -0.6759
 9560SOL     OW40315   0.803   2.430   3.241  0.5463 -0.6151  0.7828
 9560SOL    HW140316   0.868   2.391   3.299  1.6556  1.0715  0.6485
 9560SOL    HW240317   0.739   2.455   3.308  1.1491  1.5959  0.5039
 9561SOL     OW40318   3.619   2.805  14.960  0.4108  0.2179 -0.0582
 9561SOL    HW140319   3.712   2.825  14.951  0.2116  0.9242 -0.5775
 9561SOL    HW240320   3.592   2.802  14.869 -0.8897  0.0716  0.3280
 9562SOL     OW40321   2.135   3.167   0.570 -0.0839 -0.1118  0.3294
 9562SOL    HW140322   2.077   3.208   0.507  0.3667  1.6632  1.0621
 9562SOL    HW240323   2.131   3.221   0.649 -1.2174  1.6108 -0.9116
 9563SOL     OW40324   0.214   2.169   8.638 -0.2384  0.1028 -0.1435
 9563SOL    HW140325   0.129   2.212   8.626 -1.0718 -1.2479  0.9110
 9563SOL    HW240326   0.178   2.094   8.686  1.7374  1.0372  2.7419
 9564SOL     OW40327   2.289   1.218   3.316 -0.0155  0.1431  0.0511
 9564SOL    HW140328   2.199   1.212   3.348 -0.1926 -0.3045 -0.5449
 9564SOL    HW240329   2.320   1.129   3.330  2.0983  0.8492 -0.1159
 9565SOL     OW40330   4.032   2.813   4.826 -0.0126  0.6011 -0.1222
 9565SOL    HW140331   4.028   2.767   4.742 -1.4253  0.1985  0.1679
 9565SOL    HW240332   4.026   2.733   4.878 -0.4207  1.4778  1.1581
 9566SOL     OW40333   0.986   4.443  13.433  0.0397  0.2571  0.3786
 9566SOL    HW140334   0.896   4.471  13.446 -0.2842 -1.8250  2.7200
 9566SOL    HW240335   0.998   4.382  13.506  0.4346  1.0788  0.9984
 9567SOL     OW40336   4.505   1.593   8.247  0.2212  0.0629 -0.6382
 9567SOL    HW140337   4.509   1.535   8.171  4.0845 -0.2156 -0.2429
 9567SOL    HW240338   4.418   1.568   8.278  1.1016 -3.3136 -0.8743
 9568SOL     OW40339   0.058   4.327  13.987 -0.1058 -0.1410 -0.4352
 9568SOL    HW140340   4.717   4.341  14.030 -0.6807  3.5355 -2.8290
 9568SOL    HW240341   0.110   4.405  14.005 -0.4091  0.2441 -1.2277
 9569SOL     OW40342   0.395   1.519   7.705  0.0754 -0.7562 -0.0357
 9569SOL    HW140343   0.452   1.549   7.776  0.3234 -0.3312 -0.4132
 9569SOL    HW240344   0.456   1.517   7.631  0.6281  0.1712  0.4051
   4.74385   4.74385  17.77203
